/*--------------------------------*- C++ -*----------------------------------*\
| =========                 |                                                 |
| \\      /  F ield         | OpenFOAM: The Open Source CFD Toolbox           |
|  \\    /   O peration     | Version:  v1706                                 |
|   \\  /    A nd           | Web:      www.OpenFOAM.com                      |
|    \\/     M anipulation  |                                                 |
\*---------------------------------------------------------------------------*/
FoamFile
{
    version     2.0;
    format      ascii;
    class       volVectorField;
    location    "3.1e-05";
    object      U;
}
// * * * * * * * * * * * * * * * * * * * * * * * * * * * * * * * * * * * * * //

dimensions      [0 1 -1 0 0 0 0];


internalField   nonuniform List<vector> 
30038
(
(978.58 -1.14305e-10 5.34984e-15)
(978.58 -1.15722e-10 3.85391e-15)
(978.58 -1.16886e-10 7.73904e-15)
(978.58 -1.18463e-10 3.6303e-15)
(978.58 -1.21018e-10 4.81115e-15)
(978.58 -1.23368e-10 5.73377e-15)
(978.58 -1.25199e-10 8.97359e-15)
(978.58 -1.27629e-10 8.81389e-15)
(978.58 -1.29979e-10 4.47413e-15)
(978.58 -1.31679e-10 6.19139e-15)
(978.58 -1.32889e-10 9.96735e-15)
(978.58 -1.33888e-10 6.6473e-15)
(978.58 -1.35698e-10 5.4762e-15)
(978.58 -1.36551e-10 3.39024e-15)
(978.58 -1.35708e-10 7.11057e-15)
(978.58 -1.31217e-10 8.33606e-15)
(978.58 -1.2198e-10 5.60973e-15)
(978.58 -1.12884e-10 4.00636e-15)
(978.58 -1.0052e-10 5.94186e-15)
(978.58 -7.75921e-11 7.58167e-15)
(978.58 -4.02405e-11 7.46204e-15)
(978.58 1.87971e-11 4.44455e-15)
(978.58 1.25945e-10 3.38511e-15)
(978.58 3.11926e-10 8.2792e-15)
(978.58 6.07003e-10 6.37005e-15)
(978.58 1.0327e-09 4.70114e-15)
(978.58 1.62962e-09 5.84959e-15)
(978.58 2.49395e-09 9.24922e-15)
(978.58 3.78052e-09 1.04384e-14)
(978.58 5.72457e-09 8.33606e-15)
(978.58 8.68449e-09 7.99406e-15)
(978.58 1.32103e-08 9.80823e-15)
(978.58 2.01525e-08 8.04658e-15)
(978.58 3.0842e-08 8.22309e-15)
(978.58 4.73745e-08 9.96048e-15)
(978.58 7.30926e-08 5.72464e-15)
(978.58 1.16256e-07 3.46742e-15)
(978.58 1.83506e-07 7.99562e-15)
(978.58 -3.26152e-10 1.777e-14)
(978.58 -3.33025e-10 2.0259e-14)
(978.58 -3.38968e-10 1.86861e-14)
(978.58 -3.43576e-10 1.84694e-14)
(978.58 -3.47258e-10 2.18973e-14)
(978.58 -3.53614e-10 2.07269e-14)
(978.58 -3.58952e-10 2.20244e-14)
(978.58 -3.62972e-10 2.08448e-14)
(978.58 -3.67273e-10 1.66752e-14)
(978.58 -3.7251e-10 2.10004e-14)
(978.58 -3.76658e-10 1.93888e-14)
(978.58 -3.76853e-10 1.62229e-14)
(978.58 -3.70553e-10 1.85631e-14)
(978.58 -3.63848e-10 1.92597e-14)
(978.58 -3.51517e-10 2.08785e-14)
(978.58 -3.32196e-10 2.00279e-14)
(978.58 -3.04741e-10 1.93722e-14)
(978.58 -2.58412e-10 1.82568e-14)
(978.58 -1.81431e-10 1.84143e-14)
(978.58 -4.60136e-11 1.97589e-14)
(978.58 2.03596e-10 2.02704e-14)
(978.58 6.27294e-10 2.16661e-14)
(978.58 1.31593e-09 2.17269e-14)
(978.58 2.35182e-09 2.11657e-14)
(978.58 3.77624e-09 2.01492e-14)
(978.58 5.81667e-09 2.11409e-14)
(978.58 8.86132e-09 2.12832e-14)
(978.58 1.3456e-08 2.07938e-14)
(978.58 2.04089e-08 2.35651e-14)
(978.58 3.09407e-08 2.14806e-14)
(978.58 4.69209e-08 2.03995e-14)
(978.58 7.1216e-08 2.7535e-14)
(978.58 1.08246e-07 2.6524e-14)
(978.58 1.64825e-07 2.48129e-14)
(978.58 2.518e-07 2.47955e-14)
(978.58 3.8483e-07 2.09711e-14)
(978.58 6.0219e-07 2.16364e-14)
(978.58 9.49099e-07 2.4125e-14)
(978.58 -5.2994e-10 3.19901e-14)
(978.58 -5.38617e-10 3.42462e-14)
(978.58 -5.46521e-10 3.10024e-14)
(978.58 -5.53921e-10 2.8838e-14)
(978.58 -5.59973e-10 3.16991e-14)
(978.58 -5.66433e-10 3.28612e-14)
(978.58 -5.72425e-10 3.19933e-14)
(978.58 -5.77351e-10 2.68106e-14)
(978.58 -5.76322e-10 2.80295e-14)
(978.58 -5.73281e-10 2.82425e-14)
(978.58 -5.69463e-10 2.7122e-14)
(978.58 -5.6126e-10 2.93373e-14)
(978.58 -5.39647e-10 3.1497e-14)
(978.58 -5.06771e-10 3.09852e-14)
(978.58 -4.56488e-10 3.07172e-14)
(978.58 -3.66501e-10 3.32036e-14)
(978.58 -2.00636e-10 3.26704e-14)
(978.58 9.79159e-11 3.29444e-14)
(978.58 5.88734e-10 3.32025e-14)
(978.58 1.36469e-09 3.31858e-14)
(978.58 2.48095e-09 3.33468e-14)
(978.58 3.9955e-09 3.38481e-14)
(978.58 6.12073e-09 3.16238e-14)
(978.58 9.24591e-09 3.30766e-14)
(978.58 1.39602e-08 3.60286e-14)
(978.58 2.10701e-08 3.4587e-14)
(978.58 3.17669e-08 3.20201e-14)
(978.58 4.78544e-08 3.10521e-14)
(978.58 7.20752e-08 3.48759e-14)
(978.58 1.08606e-07 3.58162e-14)
(978.58 1.63824e-07 3.6096e-14)
(978.58 2.47451e-07 3.76204e-14)
(978.58 3.74415e-07 3.64065e-14)
(978.58 5.67344e-07 3.693e-14)
(978.58 8.62966e-07 3.80936e-14)
(978.58 1.31134e-06 3.72309e-14)
(978.58 2.04536e-06 3.45581e-14)
(978.58 3.18443e-06 3.71311e-14)
(978.58 -7.24192e-10 4.57481e-14)
(978.58 -7.33033e-10 4.486e-14)
(978.58 -7.40975e-10 4.26437e-14)
(978.58 -7.46025e-10 4.22696e-14)
(978.58 -7.50196e-10 4.5805e-14)
(978.58 -7.489e-10 4.23941e-14)
(978.58 -7.48192e-10 4.15961e-14)
(978.58 -7.43199e-10 4.21801e-14)
(978.58 -7.3422e-10 4.33348e-14)
(978.58 -7.04732e-10 4.1925e-14)
(978.58 -6.70439e-10 4.38332e-14)
(978.58 -6.08204e-10 4.44982e-14)
(978.58 -4.9537e-10 4.47591e-14)
(978.58 -2.87556e-10 4.09966e-14)
(978.58 6.68929e-11 4.3764e-14)
(978.58 6.34074e-10 4.47068e-14)
(978.58 1.49166e-09 4.50001e-14)
(978.58 2.66285e-09 4.83298e-14)
(978.58 4.26339e-09 4.79823e-14)
(978.58 6.53049e-09 4.54096e-14)
(978.58 9.89191e-09 4.4634e-14)
(978.58 1.49145e-08 4.42981e-14)
(978.58 2.23932e-08 4.74318e-14)
(978.58 3.35199e-08 4.84051e-14)
(978.58 5.01089e-08 4.70388e-14)
(978.58 7.48674e-08 4.72935e-14)
(978.58 1.11879e-07 4.60851e-14)
(978.58 1.67322e-07 4.51232e-14)
(978.58 2.50545e-07 4.74843e-14)
(978.58 3.75704e-07 4.83702e-14)
(978.58 5.64278e-07 4.74953e-14)
(978.58 8.48892e-07 4.91092e-14)
(978.58 1.27955e-06 4.88556e-14)
(978.58 1.93168e-06 4.86251e-14)
(978.58 2.92757e-06 5.12983e-14)
(978.58 4.43256e-06 5.22263e-14)
(978.58 6.88389e-06 5.1192e-14)
(978.58 1.06678e-05 5.17444e-14)
(978.58 -9.00207e-10 5.43642e-14)
(978.58 -9.01082e-10 5.66364e-14)
(978.58 -9.0328e-10 5.69389e-14)
(978.58 -9.01802e-10 5.53647e-14)
(978.58 -8.96227e-10 5.34381e-14)
(978.58 -8.79194e-10 5.4621e-14)
(978.58 -8.49097e-10 5.57269e-14)
(978.58 -8.04562e-10 5.66122e-14)
(978.58 -7.23996e-10 5.73474e-14)
(978.58 -5.74776e-10 5.75845e-14)
(978.58 -3.1256e-10 5.77237e-14)
(978.58 1.12867e-10 5.7639e-14)
(978.58 7.78288e-10 5.63428e-14)
(978.58 1.71658e-09 5.74335e-14)
(978.58 2.9688e-09 5.95235e-14)
(978.58 4.68756e-09 6.08182e-14)
(978.58 7.17805e-09 6.21753e-14)
(978.58 1.08745e-08 5.91698e-14)
(978.58 1.63235e-08 5.79472e-14)
(978.58 2.43322e-08 5.98006e-14)
(978.58 3.61349e-08 5.64806e-14)
(978.58 5.35883e-08 5.65854e-14)
(978.58 7.94332e-08 6.16894e-14)
(978.58 1.17744e-07 6.02911e-14)
(978.58 1.74632e-07 6.06449e-14)
(978.58 2.5927e-07 6.19437e-14)
(978.58 3.85445e-07 6.08306e-14)
(978.58 5.73901e-07 5.47741e-14)
(978.58 8.55881e-07 5.45574e-14)
(978.58 1.27852e-06 5.66281e-14)
(978.58 1.91316e-06 6.1702e-14)
(978.58 2.8678e-06 6.53099e-14)
(978.58 4.3074e-06 6.21404e-14)
(978.58 6.4799e-06 6.11183e-14)
(978.58 9.78522e-06 6.21538e-14)
(978.58 1.47627e-05 6.37279e-14)
(978.58 2.28234e-05 6.49468e-14)
(978.58 3.51974e-05 6.52898e-14)
(978.58 -1.03257e-09 7.02421e-14)
(978.58 -1.02721e-09 6.96931e-14)
(978.58 -9.96982e-10 6.43899e-14)
(978.58 -9.63465e-10 6.17514e-14)
(978.58 -9.04549e-10 6.47445e-14)
(978.58 -7.93824e-10 6.6054e-14)
(978.58 -5.93284e-10 6.66453e-14)
(978.58 -2.63744e-10 7.46204e-14)
(978.58 2.53401e-10 7.37007e-14)
(978.58 1.02036e-09 7.17489e-14)
(978.58 2.04592e-09 7.152e-14)
(978.58 3.41946e-09 7.03198e-14)
(978.58 5.33152e-09 6.97649e-14)
(978.58 8.1275e-09 7.04859e-14)
(978.58 1.22392e-08 6.97672e-14)
(978.58 1.82358e-08 7.13236e-14)
(978.58 2.69679e-08 7.3411e-14)
(978.58 3.97285e-08 6.99441e-14)
(978.58 5.84195e-08 6.9058e-14)
(978.58 8.58522e-08 7.20629e-14)
(978.58 1.26189e-07 7.19873e-14)
(978.58 1.85609e-07 7.35669e-14)
(978.58 2.73267e-07 7.21521e-14)
(978.58 4.0281e-07 7.01221e-14)
(978.58 5.94621e-07 7.06603e-14)
(978.58 8.79172e-07 7.58083e-14)
(978.58 1.30205e-06 7.61079e-14)
(978.58 1.93155e-06 6.98792e-14)
(978.58 2.87028e-06 7.23594e-14)
(978.58 4.2726e-06 7.28032e-14)
(978.58 6.37142e-06 7.13407e-14)
(978.58 9.5182e-06 7.29101e-14)
(978.58 1.42478e-05 7.45045e-14)
(978.58 2.13614e-05 7.78447e-14)
(978.58 3.21441e-05 7.63195e-14)
(978.58 4.83265e-05 7.32258e-14)
(978.58 7.43779e-05 7.47398e-14)
(978.58 0.00011415 7.59467e-14)
(978.58 -1.04653e-09 7.90019e-14)
(978.58 -9.61951e-10 7.9689e-14)
(978.58 -8.03171e-10 8.28684e-14)
(978.58 -5.39866e-10 8.43585e-14)
(978.58 -1.24817e-10 8.23481e-14)
(978.58 5.08333e-10 8.09264e-14)
(978.58 1.37197e-09 8.38435e-14)
(978.58 2.50904e-09 8.53546e-14)
(978.58 4.05465e-09 8.15199e-14)
(978.58 6.25136e-09 8.48814e-14)
(978.58 9.44868e-09 8.34973e-14)
(978.58 1.40818e-08 8.13547e-14)
(978.58 2.07681e-08 8.09164e-14)
(978.58 3.0442e-08 8.03484e-14)
(978.58 4.44693e-08 8.07069e-14)
(978.58 6.48323e-08 8.41424e-14)
(978.58 9.44539e-08 8.5017e-14)
(978.58 1.37645e-07 8.55278e-14)
(978.58 2.00737e-07 8.36031e-14)
(978.58 2.93048e-07 8.55274e-14)
(978.58 4.28335e-07 8.40178e-14)
(978.58 6.26961e-07 8.31069e-14)
(978.58 9.19104e-07 8.27368e-14)
(978.58 1.34956e-06 8.4368e-14)
(978.58 1.98494e-06 8.30514e-14)
(978.58 2.92442e-06 8.72582e-14)
(978.58 4.31599e-06 8.63881e-14)
(978.58 6.38086e-06 8.03416e-14)
(978.58 9.45036e-06 8.20322e-14)
(978.58 1.40214e-05 8.49981e-14)
(978.58 2.0841e-05 8.52981e-14)
(978.58 3.10324e-05 8.59109e-14)
(978.58 4.62982e-05 8.90397e-14)
(978.58 6.91802e-05 9.19325e-14)
(978.58 0.000103733 9.16533e-14)
(978.58 0.000155408 8.85456e-14)
(978.58 0.000238114 8.86578e-14)
(978.58 0.000363704 8.95232e-14)
(978.58 -3.99682e-10 9.53839e-14)
(978.58 1.31905e-10 9.73849e-14)
(978.58 8.75329e-10 9.90054e-14)
(978.58 1.84556e-09 1.00024e-13)
(978.58 3.14007e-09 9.69867e-14)
(978.58 4.93344e-09 9.45542e-14)
(978.58 7.51469e-09 9.64984e-14)
(978.58 1.12262e-08 9.73528e-14)
(978.58 1.653e-08 9.82452e-14)
(978.58 2.4112e-08 9.55239e-14)
(978.58 3.49963e-08 9.3763e-14)
(978.58 5.06516e-08 9.36719e-14)
(978.58 7.31971e-08 9.33353e-14)
(978.58 1.05728e-07 9.48115e-14)
(978.58 1.52755e-07 9.54843e-14)
(978.58 2.2086e-07 9.84977e-14)
(978.58 3.19674e-07 9.94488e-14)
(978.58 4.63303e-07 9.66007e-14)
(978.58 6.72424e-07 9.63438e-14)
(978.58 9.77417e-07 9.64925e-14)
(978.58 1.42301e-06 9.48315e-14)
(978.58 2.07519e-06 9.6509e-14)
(978.58 3.03144e-06 9.38205e-14)
(978.58 4.43606e-06 9.43473e-14)
(978.58 6.50294e-06 9.48169e-14)
(978.58 9.54969e-06 9.91888e-14)
(978.58 1.40487e-05 9.62179e-14)
(978.58 2.07038e-05 9.62706e-14)
(978.58 3.05652e-05 9.93047e-14)
(978.58 4.52026e-05 1.00762e-13)
(978.58 6.69678e-05 1.01152e-13)
(978.58 9.93856e-05 1.0048e-13)
(978.58 0.00014778 1.00907e-13)
(978.58 0.000220075 9.99967e-14)
(978.58 0.000328837 1.0292e-13)
(978.579 0.00049094 1.04618e-13)
(978.579 0.00074889 1.00017e-13)
(978.579 0.00113851 9.67771e-14)
(978.58 1.36886e-09 1.10621e-13)
(978.58 2.49233e-09 1.10808e-13)
(978.58 4.01444e-09 1.12573e-13)
(978.58 6.166e-09 1.11656e-13)
(978.58 9.23793e-09 1.11061e-13)
(978.58 1.35914e-08 1.11227e-13)
(978.58 1.9748e-08 1.12407e-13)
(978.58 2.84917e-08 1.09312e-13)
(978.58 4.09412e-08 1.09275e-13)
(978.58 5.86928e-08 1.06577e-13)
(978.58 8.40506e-08 1.05196e-13)
(978.58 1.2035e-07 1.07867e-13)
(978.58 1.72391e-07 1.03751e-13)
(978.58 2.47125e-07 1.09205e-13)
(978.58 3.54642e-07 1.09155e-13)
(978.58 5.09613e-07 1.10058e-13)
(978.58 7.33377e-07 1.08393e-13)
(978.58 1.05702e-06 1.06753e-13)
(978.58 1.52594e-06 1.06937e-13)
(978.58 2.20655e-06 1.08378e-13)
(978.58 3.19622e-06 1.07831e-13)
(978.58 4.63791e-06 1.07899e-13)
(978.58 6.74182e-06 1.06004e-13)
(978.58 9.81745e-06 1.0614e-13)
(978.58 1.43213e-05 1.08952e-13)
(978.58 2.0928e-05 1.1074e-13)
(978.58 3.06358e-05 1.11209e-13)
(978.58 4.49249e-05 1.0857e-13)
(978.58 6.59936e-05 1.09366e-13)
(978.58 9.71122e-05 1.10414e-13)
(978.58 0.000143153 1.12094e-13)
(978.58 0.000211394 1.11939e-13)
(978.58 0.000312701 1.12352e-13)
(978.579 0.000463429 1.12148e-13)
(978.579 0.000687826 1.15721e-13)
(978.579 0.00102415 1.14555e-13)
(978.578 0.00152366 1.11522e-13)
(978.577 0.00231396 1.10492e-13)
(978.576 0.00350139 1.10222e-13)
(978.58 7.85902e-09 1.22122e-13)
(978.58 1.1554e-08 1.21329e-13)
(978.58 1.67288e-08 1.22963e-13)
(978.58 2.39972e-08 1.2566e-13)
(978.58 3.42424e-08 1.23852e-13)
(978.58 4.87055e-08 1.24287e-13)
(978.58 6.9157e-08 1.22477e-13)
(978.58 9.81388e-08 1.18627e-13)
(978.58 1.39279e-07 1.17993e-13)
(978.58 1.97773e-07 1.18252e-13)
(978.58 2.81087e-07 1.20617e-13)
(978.58 3.99963e-07 1.17135e-13)
(978.58 5.69879e-07 1.17664e-13)
(978.58 8.1318e-07 1.22298e-13)
(978.58 1.16218e-06 1.21856e-13)
(978.58 1.66371e-06 1.21034e-13)
(978.58 2.38571e-06 1.19165e-13)
(978.58 3.42698e-06 1.22333e-13)
(978.58 4.93135e-06 1.21276e-13)
(978.58 7.1086e-06 1.20841e-13)
(978.58 1.02652e-05 1.18952e-13)
(978.58 1.48494e-05 1.19464e-13)
(978.58 2.15182e-05 1.19555e-13)
(978.58 3.12364e-05 1.22002e-13)
(978.58 4.54228e-05 1.2376e-13)
(978.58 6.61678e-05 1.23521e-13)
(978.58 9.65559e-05 1.22568e-13)
(978.58 0.000141145 1.19143e-13)
(978.58 0.000206684 1.20893e-13)
(978.58 0.000303174 1.2521e-13)
(978.579 0.000445472 1.25094e-13)
(978.579 0.000655682 1.2474e-13)
(978.579 0.000966707 1.24325e-13)
(978.578 0.00142787 1.24713e-13)
(978.577 0.00211209 1.25563e-13)
(978.576 0.00313374 1.23479e-13)
(978.574 0.00464583 1.22411e-13)
(978.571 0.00702453 1.25549e-13)
(978.567 0.0105798 1.25881e-13)
(978.58 2.96255e-08 1.3884e-13)
(978.58 4.18164e-08 1.36871e-13)
(978.58 5.88791e-08 1.35483e-13)
(978.58 8.28109e-08 1.35623e-13)
(978.58 1.16448e-07 1.33454e-13)
(978.58 1.63801e-07 1.35177e-13)
(978.58 2.30575e-07 1.36499e-13)
(978.58 3.24904e-07 1.33901e-13)
(978.58 4.58403e-07 1.30914e-13)
(978.58 6.47665e-07 1.32771e-13)
(978.58 9.16453e-07 1.32267e-13)
(978.58 1.29887e-06 1.31886e-13)
(978.58 1.84396e-06 1.30225e-13)
(978.58 2.62231e-06 1.30775e-13)
(978.58 3.73571e-06 1.37506e-13)
(978.58 5.33114e-06 1.37964e-13)
(978.58 7.62121e-06 1.37246e-13)
(978.58 1.0914e-05 1.3369e-13)
(978.58 1.56567e-05 1.3104e-13)
(978.58 2.24997e-05 1.3169e-13)
(978.58 3.23902e-05 1.33199e-13)
(978.58 4.67105e-05 1.33143e-13)
(978.58 6.74804e-05 1.31478e-13)
(978.58 9.76566e-05 1.32532e-13)
(978.58 0.000141573 1.34786e-13)
(978.58 0.000205593 1.35828e-13)
(978.58 0.000299074 1.30813e-13)
(978.579 0.000435801 1.32609e-13)
(978.579 0.000636112 1.3726e-13)
(978.579 0.000930067 1.38924e-13)
(978.578 0.00136215 1.37185e-13)
(978.577 0.00199834 1.34864e-13)
(978.576 0.0029365 1.35153e-13)
(978.574 0.00432279 1.36199e-13)
(978.572 0.00637249 1.36981e-13)
(978.568 0.00942147 1.36667e-13)
(978.562 0.0139179 1.38584e-13)
(978.554 0.0209509 1.3861e-13)
(978.541 0.0314063 1.36568e-13)
(978.58 7.22828e-08 1.51847e-13)
(978.58 1.0072e-07 1.49008e-13)
(978.58 1.4035e-07 1.48657e-13)
(978.58 1.95679e-07 1.49915e-13)
(978.58 2.73074e-07 1.49608e-13)
(978.58 3.81535e-07 1.49929e-13)
(978.58 5.33793e-07 1.50059e-13)
(978.58 7.47904e-07 1.49642e-13)
(978.58 1.04954e-06 1.47303e-13)
(978.58 1.47525e-06 1.48598e-13)
(978.58 2.07714e-06 1.464e-13)
(978.58 2.92963e-06 1.45927e-13)
(978.58 4.13915e-06 1.42952e-13)
(978.58 5.85819e-06 1.41769e-13)
(978.58 8.30557e-06 1.4687e-13)
(978.58 1.17959e-05 1.47897e-13)
(978.58 1.67823e-05 1.45873e-13)
(978.58 2.39187e-05 1.44802e-13)
(978.58 3.41501e-05 1.4424e-13)
(978.58 4.88443e-05 1.42403e-13)
(978.58 6.9984e-05 1.40514e-13)
(978.58 0.000100448 1.42742e-13)
(978.58 0.000144422 1.43424e-13)
(978.58 0.000208004 1.4257e-13)
(978.58 0.00030009 1.45778e-13)
(978.579 0.000433683 1.49138e-13)
(978.579 0.000627812 1.4492e-13)
(978.579 0.000910379 1.42898e-13)
(978.578 0.00132235 1.47036e-13)
(978.577 0.00192398 1.48083e-13)
(978.576 0.00280397 1.49132e-13)
(978.575 0.00409321 1.46928e-13)
(978.572 0.00598506 1.47666e-13)
(978.569 0.00876541 1.49438e-13)
(978.563 0.0128595 1.51661e-13)
(978.556 0.0188913 1.50284e-13)
(978.545 0.0278294 1.49343e-13)
(978.528 0.0409626 1.49593e-13)
(978.503 0.0613842 1.47908e-13)
(978.466 0.0915744 1.48546e-13)
(978.58 2.37382e-07 1.65215e-13)
(978.58 3.28456e-07 1.64561e-13)
(978.58 4.55062e-07 1.634e-13)
(978.58 6.31377e-07 1.61124e-13)
(978.58 8.77347e-07 1.62333e-13)
(978.58 1.2211e-06 1.63346e-13)
(978.58 1.70234e-06 1.63867e-13)
(978.58 2.37728e-06 1.61826e-13)
(978.58 3.32552e-06 1.61741e-13)
(978.58 4.66001e-06 1.61749e-13)
(978.58 6.54133e-06 1.56799e-13)
(978.58 9.1982e-06 1.57968e-13)
(978.58 1.29569e-05 1.5724e-13)
(978.58 1.82838e-05 1.56958e-13)
(978.58 2.58465e-05 1.58438e-13)
(978.58 3.66023e-05 1.57824e-13)
(978.58 5.19253e-05 1.54756e-13)
(978.58 7.37919e-05 1.53534e-13)
(978.58 0.000105048 1.55398e-13)
(978.58 0.000149802 1.5416e-13)
(978.58 0.000213987 1.57533e-13)
(978.58 0.000306199 1.59271e-13)
(978.579 0.000438896 1.59696e-13)
(978.579 0.000630175 1.57179e-13)
(978.579 0.000906352 1.56637e-13)
(978.578 0.00130577 1.57688e-13)
(978.577 0.00188435 1.56748e-13)
(978.576 0.00272381 1.56313e-13)
(978.575 0.00394375 1.57789e-13)
(978.572 0.0057194 1.60224e-13)
(978.569 0.008308 1.60304e-13)
(978.564 0.0120876 1.5983e-13)
(978.557 0.017615 1.5982e-13)
(978.547 0.0257096 1.61552e-13)
(978.532 0.0375862 1.62068e-13)
(978.51 0.0550204 1.57968e-13)
(978.477 0.0807511 1.59774e-13)
(978.43 0.11841 1.61029e-13)
(978.358 0.176612 1.61302e-13)
(978.256 0.262132 1.60898e-13)
(978.58 7.58342e-07 1.77058e-13)
(978.58 1.04515e-06 1.75177e-13)
(978.58 1.4428e-06 1.76178e-13)
(978.58 1.99509e-06 1.76813e-13)
(978.58 2.76346e-06 1.77432e-13)
(978.58 3.83432e-06 1.77952e-13)
(978.58 5.32937e-06 1.73783e-13)
(978.58 7.4203e-06 1.71441e-13)
(978.58 1.03498e-05 1.75392e-13)
(978.58 1.44614e-05 1.74194e-13)
(978.58 2.02422e-05 1.70847e-13)
(978.58 2.83842e-05 1.74435e-13)
(978.58 3.98712e-05 1.72643e-13)
(978.58 5.61047e-05 1.7005e-13)
(978.58 7.90845e-05 1.69567e-13)
(978.58 0.000111668 1.65725e-13)
(978.58 0.000157949 1.65006e-13)
(978.58 0.000223794 1.67826e-13)
(978.58 0.000317636 1.69047e-13)
(978.579 0.000451603 1.71325e-13)
(978.579 0.000643173 1.75625e-13)
(978.579 0.000917562 1.71415e-13)
(978.578 0.00131121 1.70056e-13)
(978.577 0.00187688 1.69806e-13)
(978.576 0.00269104 1.69587e-13)
(978.575 0.00386475 1.69757e-13)
(978.573 0.00555945 1.68495e-13)
(978.569 0.00801028 1.68135e-13)
(978.565 0.0115602 1.75048e-13)
(978.558 0.0167099 1.72029e-13)
(978.548 0.0241917 1.68712e-13)
(978.534 0.0350778 1.68548e-13)
(978.514 0.0509407 1.69167e-13)
(978.485 0.0740869 1.72295e-13)
(978.442 0.107916 1.74285e-13)
(978.379 0.157377 1.73156e-13)
(978.288 0.230062 1.7174e-13)
(978.155 0.335986 1.73229e-13)
(977.955 0.498583 1.77089e-13)
(977.67 0.735782 1.74393e-13)
(978.58 2.37399e-06 1.89776e-13)
(978.58 3.26185e-06 1.90757e-13)
(978.58 4.48952e-06 1.90072e-13)
(978.58 6.19002e-06 1.87872e-13)
(978.58 8.54963e-06 1.88435e-13)
(978.58 1.18296e-05 1.89694e-13)
(978.58 1.63969e-05 1.87139e-13)
(978.58 2.27677e-05 1.81966e-13)
(978.58 3.16693e-05 1.86115e-13)
(978.58 4.4128e-05 1.86382e-13)
(978.58 6.15944e-05 1.84168e-13)
(978.58 8.61225e-05 1.86725e-13)
(978.58 0.000120626 1.82241e-13)
(978.58 0.000169247 1.79731e-13)
(978.58 0.000237876 1.81359e-13)
(978.58 0.000334913 1.8016e-13)
(978.579 0.000472346 1.78403e-13)
(978.579 0.000667314 1.81759e-13)
(978.579 0.000944352 1.83405e-13)
(978.578 0.00133865 1.86131e-13)
(978.577 0.00190073 1.85028e-13)
(978.576 0.00270331 1.81497e-13)
(978.575 0.00385114 1.83798e-13)
(978.573 0.00549537 1.82422e-13)
(978.569 0.00785436 1.80131e-13)
(978.565 0.0112441 1.82882e-13)
(978.558 0.0161227 1.78852e-13)
(978.549 0.0231544 1.8157e-13)
(978.536 0.0333045 1.8218e-13)
(978.517 0.0479774 1.80164e-13)
(978.49 0.069219 1.82709e-13)
(978.45 0.100011 1.84126e-13)
(978.393 0.144706 1.82237e-13)
(978.311 0.209658 1.81841e-13)
(978.191 0.304188 1.85513e-13)
(978.017 0.441779 1.85739e-13)
(977.764 0.642914 1.86187e-13)
(977.399 0.934482 1.8676e-13)
(976.85 1.3785 1.85954e-13)
(976.077 2.02019 1.85136e-13)
(978.58 7.30012e-06 2.03087e-13)
(978.58 1.00029e-05 2.02865e-13)
(978.58 1.37306e-05 2.01686e-13)
(978.58 1.88805e-05 2.0055e-13)
(978.58 2.60073e-05 1.99105e-13)
(978.58 3.58869e-05 1.98799e-13)
(978.58 4.96053e-05 1.99693e-13)
(978.58 6.86867e-05 1.98366e-13)
(978.58 9.52729e-05 1.99242e-13)
(978.58 0.00013238 1.9801e-13)
(978.58 0.000184261 1.97435e-13)
(978.58 0.000256921 1.97744e-13)
(978.579 0.000358851 1.93438e-13)
(978.579 0.000502076 1.93482e-13)
(978.579 0.000703654 1.95631e-13)
(978.579 0.000987826 1.94523e-13)
(978.578 0.00138908 1.9402e-13)
(978.577 0.00195659 1.94466e-13)
(978.576 0.00276054 1.94132e-13)
(978.575 0.0039013 1.95579e-13)
(978.572 0.00552256 1.95025e-13)
(978.569 0.00783033 1.93308e-13)
(978.565 0.0111204 1.93378e-13)
(978.559 0.0158182 1.93301e-13)
(978.55 0.0225362 1.93426e-13)
(978.537 0.0321573 1.93055e-13)
(978.519 0.0459563 1.9397e-13)
(978.493 0.0657761 1.93964e-13)
(978.456 0.094283 1.92108e-13)
(978.403 0.135337 1.95267e-13)
(978.326 0.194535 1.95835e-13)
(978.217 0.279995 1.97749e-13)
(978.059 0.403506 1.93723e-13)
(977.832 0.58213 1.94316e-13)
(977.504 0.840711 1.97058e-13)
(977.031 1.21491 1.99299e-13)
(976.345 1.75844 1.98626e-13)
(975.361 2.5403 1.96744e-13)
(973.901 3.71789 1.96536e-13)
(971.868 5.3964 1.99667e-13)
(978.58 2.20702e-05 2.169e-13)
(978.58 3.01609e-05 2.16151e-13)
(978.58 4.12895e-05 2.15412e-13)
(978.58 5.66228e-05 2.12185e-13)
(978.58 7.77855e-05 2.12967e-13)
(978.58 0.000107044 2.16032e-13)
(978.58 0.000147566 2.14794e-13)
(978.58 0.000203781 2.10859e-13)
(978.58 0.000281897 2.1241e-13)
(978.579 0.000390623 2.12234e-13)
(978.579 0.000542199 2.10946e-13)
(978.579 0.000753859 2.10139e-13)
(978.578 0.00104991 2.06421e-13)
(978.578 0.00146469 2.08073e-13)
(978.577 0.00204675 2.09931e-13)
(978.576 0.0028649 2.07111e-13)
(978.574 0.00401677 2.08789e-13)
(978.572 0.00564105 2.10796e-13)
(978.569 0.00793507 2.08564e-13)
(978.564 0.01118 2.07368e-13)
(978.558 0.0157771 2.06156e-13)
(978.549 0.0222998 2.04663e-13)
(978.537 0.0315685 2.08607e-13)
(978.519 0.0447586 2.09207e-13)
(978.495 0.0635562 2.09435e-13)
(978.459 0.0903832 2.07267e-13)
(978.409 0.128719 2.04863e-13)
(978.337 0.183569 2.04633e-13)
(978.235 0.26214 2.04516e-13)
(978.089 0.374821 2.06891e-13)
(977.881 0.536559 2.06222e-13)
(977.583 0.768857 2.05973e-13)
(977.155 1.10269 2.07622e-13)
(976.543 1.58259 2.07575e-13)
(975.665 2.27231 2.054e-13)
(974.408 3.26184 2.07997e-13)
(972.605 4.68416 2.08523e-13)
(970.049 6.70734 2.07122e-13)
(966.327 9.70045 2.08846e-13)
(961.269 13.8643 2.1105e-13)
(978.58 6.56179e-05 2.33111e-13)
(978.58 8.94401e-05 2.30816e-13)
(978.58 0.000122123 2.28343e-13)
(978.58 0.000167037 2.26933e-13)
(978.58 0.000228864 2.27364e-13)
(978.58 0.00031411 2.26385e-13)
(978.579 0.000431837 2.26523e-13)
(978.579 0.00059469 2.25757e-13)
(978.579 0.000820339 2.26522e-13)
(978.578 0.00113353 2.22673e-13)
(978.578 0.00156893 2.20764e-13)
(978.577 0.00217525 2.21429e-13)
(978.576 0.00302091 2.20672e-13)
(978.574 0.00420229 2.22633e-13)
(978.572 0.00585526 2.22332e-13)
(978.568 0.00817169 2.24588e-13)
(978.564 0.0114229 2.24118e-13)
(978.558 0.0159933 2.21322e-13)
(978.549 0.0224279 2.22023e-13)
(978.536 0.0315008 2.22147e-13)
(978.519 0.0443123 2.17868e-13)
(978.495 0.0624293 2.18464e-13)
(978.46 0.0880856 2.19293e-13)
(978.412 0.124467 2.17719e-13)
(978.344 0.17612 2.19476e-13)
(978.247 0.249542 2.17456e-13)
(978.11 0.354034 2.17965e-13)
(977.915 0.502886 2.17797e-13)
(977.639 0.715073 2.16521e-13)
(977.247 1.01771 2.18961e-13)
(976.689 1.44955 2.20333e-13)
(975.895 2.06571 2.21074e-13)
(974.766 2.94404 2.21631e-13)
(973.163 4.19422 2.18067e-13)
(970.891 5.97134 2.19283e-13)
(967.685 8.4858 2.223e-13)
(963.18 12.0346 2.23292e-13)
(956.962 16.9624 2.2245e-13)
(948.212 24.0387 2.2352e-13)
(936.816 33.4804 2.25864e-13)
(978.58 0.000141419 2.47687e-13)
(978.58 0.000191928 2.47925e-13)
(978.58 0.000260921 2.43475e-13)
(978.579 0.000355319 2.42825e-13)
(978.579 0.00048469 2.43013e-13)
(978.579 0.000662283 2.39427e-13)
(978.579 0.000906487 2.41571e-13)
(978.578 0.00124285 2.38367e-13)
(978.577 0.00170691 2.36856e-13)
(978.577 0.00234817 2.38087e-13)
(978.575 0.00323569 2.35518e-13)
(978.573 0.004466 2.33259e-13)
(978.571 0.00617419 2.33836e-13)
(978.568 0.00854958 2.35306e-13)
(978.563 0.0118579 2.34195e-13)
(978.557 0.016473 2.34392e-13)
(978.548 0.0229208 2.36559e-13)
(978.535 0.0319427 2.32516e-13)
(978.518 0.0445843 2.30847e-13)
(978.494 0.0623238 2.3184e-13)
(978.46 0.0872525 2.31544e-13)
(978.412 0.122332 2.3007e-13)
(978.346 0.171757 2.31168e-13)
(978.253 0.241477 2.28663e-13)
(978.122 0.339942 2.28348e-13)
(977.937 0.479152 2.32889e-13)
(977.677 0.676115 2.3085e-13)
(977.311 0.95493 2.29183e-13)
(976.794 1.34983 2.29757e-13)
(976.064 1.90923 2.32239e-13)
(975.033 2.70115 2.32228e-13)
(973.579 3.82067 2.28412e-13)
(971.534 5.40082 2.33602e-13)
(968.664 7.62541 2.35198e-13)
(964.661 10.7406 2.31869e-13)
(959.126 15.0713 2.33997e-13)
(951.552 21.0392 2.36844e-13)
(941.303 29.187 2.3656e-13)
(927.804 40.0228 2.35436e-13)
(909.964 54.6608 2.36365e-13)
(888.182 72.9827 2.35138e-13)
(978.579 0.000407943 2.63709e-13)
(978.579 0.000552201 2.60443e-13)
(978.579 0.000748741 2.54661e-13)
(978.578 0.00101696 2.5629e-13)
(978.578 0.0013836 2.55605e-13)
(978.577 0.00188559 2.52673e-13)
(978.576 0.00257396 2.52148e-13)
(978.575 0.0035194 2.51037e-13)
(978.573 0.00482 2.53036e-13)
(978.57 0.00661203 2.5303e-13)
(978.567 0.00908508 2.48272e-13)
(978.562 0.0125033 2.47929e-13)
(978.555 0.0172354 2.49331e-13)
(978.546 0.0237965 2.48639e-13)
(978.533 0.0329071 2.46843e-13)
(978.515 0.045576 2.48058e-13)
(978.491 0.0632179 2.4784e-13)
(978.457 0.0878205 2.45071e-13)
(978.41 0.122179 2.44135e-13)
(978.344 0.170221 2.43858e-13)
(978.253 0.237476 2.43626e-13)
(978.126 0.331739 2.45015e-13)
(977.948 0.464007 2.40015e-13)
(977.7 0.649754 2.37132e-13)
(977.352 0.910743 2.4393e-13)
(976.865 1.27763 2.45789e-13)
(976.182 1.79357 2.41697e-13)
(975.225 2.51888 2.41743e-13)
(973.886 3.53718 2.41753e-13)
(972.015 4.96465 2.43159e-13)
(969.406 6.9615 2.42419e-13)
(965.785 9.74365 2.44384e-13)
(960.802 13.5926 2.47682e-13)
(954.008 18.8746 2.46724e-13)
(944.854 26.0533 2.48391e-13)
(932.716 35.6612 2.47103e-13)
(917.011 48.2186 2.4612e-13)
(897.103 64.3371 2.49063e-13)
(872.619 84.444 2.50717e-13)
(842.326 109.843 2.46594e-13)
(808.346 138.61 2.45356e-13)
(978.579 0.00085909 2.7635e-13)
(978.578 0.00115794 2.74666e-13)
(978.578 0.00156339 2.67177e-13)
(978.577 0.0021143 2.68655e-13)
(978.576 0.00286403 2.70693e-13)
(978.574 0.00388597 2.67207e-13)
(978.572 0.00528123 2.6726e-13)
(978.569 0.00718931 2.68213e-13)
(978.565 0.00980279 2.6611e-13)
(978.56 0.0133879 2.68091e-13)
(978.553 0.0183136 2.6696e-13)
(978.543 0.0250916 2.61165e-13)
(978.53 0.0344323 2.61376e-13)
(978.512 0.0473228 2.61315e-13)
(978.487 0.0651373 2.60851e-13)
(978.452 0.0897932 2.6203e-13)
(978.405 0.123966 2.62257e-13)
(978.339 0.171392 2.5711e-13)
(978.248 0.237283 2.54101e-13)
(978.123 0.328938 2.5457e-13)
(977.949 0.456581 2.55875e-13)
(977.707 0.634502 2.56477e-13)
(977.372 0.882648 2.54272e-13)
(976.906 1.22888 2.54049e-13)
(976.257 1.71221 2.56819e-13)
(975.355 2.38685 2.57873e-13)
(974.101 3.32755 2.564e-13)
(972.362 4.63704 2.55368e-13)
(969.953 6.45661 2.54886e-13)
(966.63 8.97718 2.54503e-13)
(962.076 12.4474 2.5766e-13)
(955.896 17.1871 2.60428e-13)
(947.598 23.6027 2.54984e-13)
(936.604 32.1814 2.52643e-13)
(922.333 43.4271 2.55986e-13)
(904.26 57.8254 2.57396e-13)
(881.847 75.9229 2.57317e-13)
(854.67 98.1631 2.57566e-13)
(822.749 124.583 2.6042e-13)
(787.008 154.328 2.58155e-13)
(747.806 187.402 2.54461e-13)
(708.812 220.457 2.53899e-13)
(978.577 0.00179232 2.87038e-13)
(978.576 0.00240554 2.85982e-13)
(978.575 0.00323385 2.83851e-13)
(978.573 0.00435451 2.84067e-13)
(978.571 0.00587323 2.84466e-13)
(978.568 0.00793477 2.8251e-13)
(978.564 0.0107375 2.81273e-13)
(978.558 0.0145534 2.82393e-13)
(978.55 0.0197567 2.81338e-13)
(978.54 0.0268629 2.80436e-13)
(978.526 0.0365825 2.80567e-13)
(978.507 0.0498957 2.76379e-13)
(978.481 0.0681563 2.73878e-13)
(978.445 0.0932403 2.74754e-13)
(978.396 0.127747 2.74636e-13)
(978.33 0.175279 2.73881e-13)
(978.238 0.240824 2.73676e-13)
(978.112 0.331314 2.70322e-13)
(977.939 0.456391 2.68152e-13)
(977.701 0.629449 2.67306e-13)
(977.372 0.869034 2.69831e-13)
(976.919 1.20085 2.71118e-13)
(976.293 1.66063 2.68479e-13)
(975.429 2.2978 2.66587e-13)
(974.237 3.18011 2.69075e-13)
(972.595 4.39978 2.68538e-13)
(970.336 6.08293 2.67039e-13)
(967.241 8.39967 2.65623e-13)
(963.021 11.5729 2.65962e-13)
(957.321 15.8848 2.65438e-13)
(949.699 21.6938 2.67547e-13)
(939.628 29.4399 2.70458e-13)
(926.545 39.5991 2.67806e-13)
(909.936 52.6265 2.64811e-13)
(889.345 68.9683 2.67917e-13)
(864.276 89.1405 2.6803e-13)
(834.569 113.337 2.68664e-13)
(800.66 141.205 2.69243e-13)
(763.528 171.917 2.67682e-13)
(724.929 204.134 2.6651e-13)
(687.992 235.206 2.67147e-13)
(654.735 263.476 2.6201e-13)
(627.893 286.122 2.61614e-13)
(978.572 0.00495107 3.00237e-13)
(978.57 0.00662788 3.01564e-13)
(978.566 0.00888724 3.0102e-13)
(978.562 0.0119361 2.9822e-13)
(978.555 0.0160561 2.95601e-13)
(978.547 0.0216323 2.94412e-13)
(978.536 0.029191 2.9512e-13)
(978.521 0.0394533 2.94147e-13)
(978.5 0.0534057 2.92095e-13)
(978.473 0.0724016 2.91897e-13)
(978.435 0.0983016 2.90402e-13)
(978.385 0.133667 2.87889e-13)
(978.316 0.18202 2.8917e-13)
(978.222 0.248203 2.8784e-13)
(978.094 0.338891 2.86945e-13)
(977.919 0.463307 2.86889e-13)
(977.68 0.634186 2.84552e-13)
(977.353 0.869017 2.85996e-13)
(976.905 1.19187 2.84584e-13)
(976.292 1.6359 2.83304e-13)
(975.452 2.24681 2.8639e-13)
(974.301 3.08681 2.84866e-13)
(972.726 4.24001 2.81008e-13)
(970.577 5.82015 2.80334e-13)
(967.651 7.9806 2.82219e-13)
(963.685 10.9228 2.8263e-13)
(958.354 14.9002 2.79601e-13)
(951.259 20.2309 2.77295e-13)
(941.925 27.3074 2.78712e-13)
(929.811 36.5778 2.82067e-13)
(914.416 48.4725 2.84044e-13)
(895.311 63.3916 2.81924e-13)
(872.064 81.7767 2.7837e-13)
(844.337 103.986 2.78259e-13)
(812.321 129.9 2.81262e-13)