/*--------------------------------*- C++ -*----------------------------------*\
| =========                 |                                                 |
| \\      /  F ield         | OpenFOAM: The Open Source CFD Toolbox           |
|  \\    /   O peration     | Version:  v1706                                 |
|   \\  /    A nd           | Web:      www.OpenFOAM.com                      |
|    \\/     M anipulation  |                                                 |
\*---------------------------------------------------------------------------*/
FoamFile
{
    version     2.0;
    format      ascii;
    class       volScalarField;
    location    "3.1e-05";
    object      wallHeatFlux;
}
// * * * * * * * * * * * * * * * * * * * * * * * * * * * * * * * * * * * * * //

dimensions      [1 0 -3 0 0 0 0];


internalField   uniform 0;

boundaryField
{
    cone
    {
        type            calculated;
        value           nonuniform List<scalar> 
153
(
10084.6
9953.45
9822.9
9692.88
9563.34
9434.26
9305.63
9177.46
9049.76
8922.56
8795.86
8669.68
8544.06
8418.99
8294.51
8170.62
8047.36
7924.73
7802.76
7681.47
7560.86
7440.96
7321.77
7203.32
7085.62
6968.68
6852.5
6737.1
6622.49
6508.66
6395.62
6283.37
6171.91
6061.23
5951.32
5842.19
5733.8
5626.15
5519.2
5412.94
5307.32
5202.29
5097.78
4993.67
4889.82
4785.97
4681.86
4575.31
4466.1
4358.08
4252.36
4149.5
4049.26
3951.46
3855.98
3762.71
3671.57
3582.54
3495.58
3410.66
3327.77
3246.91
3168.07
3091.23
3016.4
2943.56
2872.71
2803.83
2736.91
2671.92
2608.84
2547.63
2488.27
2430.7
2374.87
2320.74
2268.24
2217.29
2167.82
2119.74
2072.95
2027.37
1982.9
1939.44
1896.87
1855.1
1814
1773.48
1733.43
1693.75
1654.35
1615.16
1576.1
1537.14
1498.23
1459.37
1420.56
1381.85
1343.3
1305
1267.07
1229.65
1192.92
1157.09
1122.36
1089
1057.25
1027.46
999.833
974.582
952.082
932.738
916.862
904.837
897.092
893.85
894.655
899.422
909.036
923.484
942.651
966.4
994.548
1026.84
1062.92
1102.37
1144.64
1189.13
1235.15
1281.87
1328.42
1374.11
1417.97
1458.57
1495.1
1526.74
1552.69
1572.25
1584.85
1590.34
1588.73
1579.76
1563.38
1540.33
1511.57
1478.13
1441.25
1402.34
1362.92
1324.64
1289.17
1258.21
1233.19
)
;
    }
    inlet
    {
        type            calculated;
        value           uniform 0;
    }
    rWedge
    {
        type            wedge;
    }
    lWedge
    {
        type            wedge;
    }
    outlet
    {
        type            calculated;
        value           nonuniform 0();
    }
    procBoundary2to0
    {
        type            processor;
        value           uniform 0;
    }
    procBoundary2to1
    {
        type            processor;
        value           uniform 0;
    }
    procBoundary2to3
    {
        type            processor;
        value           uniform 0;
    }
}


// ************************************************************************* //
