/*--------------------------------*- C++ -*----------------------------------*\
| =========                 |                                                 |
| \\      /  F ield         | OpenFOAM: The Open Source CFD Toolbox           |
|  \\    /   O peration     | Version:  v1706                                 |
|   \\  /    A nd           | Web:      www.OpenFOAM.com                      |
|    \\/     M anipulation  |                                                 |
\*---------------------------------------------------------------------------*/
FoamFile
{
    version     2.0;
    format      ascii;
    class       volScalarField;
    location    "1.1e-05";
    object      kappatr;
}
// * * * * * * * * * * * * * * * * * * * * * * * * * * * * * * * * * * * * * //

dimensions      [1 1 -3 -1 0 0 0];


internalField   nonuniform List<scalar> 
30038
(
0.014593
0.014593
0.014593
0.014593
0.014593
0.014593
0.014593
0.014593
0.014593
0.014593
0.014593
0.014593
0.014593
0.014593
0.014593
0.014593
0.014593
0.014593
0.014593
0.014593
0.014593
0.014593
0.014593
0.014593
0.014593
0.014593
0.014593
0.014593
0.014593
0.014593
0.014593
0.014593
0.014593
0.014593
0.014593
0.0145931
0.0145931
0.0145931
0.014593
0.014593
0.014593
0.014593
0.014593
0.014593
0.014593
0.014593
0.014593
0.014593
0.014593
0.014593
0.014593
0.014593
0.014593
0.014593
0.014593
0.014593
0.014593
0.014593
0.014593
0.014593
0.014593
0.014593
0.014593
0.014593
0.014593
0.014593
0.014593
0.0145931
0.0145931
0.0145931
0.0145931
0.0145932
0.0145932
0.0145933
0.0145934
0.0145935
0.014593
0.014593
0.014593
0.014593
0.014593
0.014593
0.014593
0.014593
0.014593
0.014593
0.014593
0.014593
0.014593
0.014593
0.014593
0.014593
0.014593
0.014593
0.014593
0.014593
0.014593
0.014593
0.014593
0.014593
0.014593
0.0145931
0.0145931
0.0145931
0.0145931
0.0145932
0.0145932
0.0145933
0.0145934
0.0145935
0.0145936
0.0145938
0.014594
0.0145944
0.014593
0.014593
0.014593
0.014593
0.014593
0.014593
0.014593
0.014593
0.014593
0.014593
0.014593
0.014593
0.014593
0.014593
0.014593
0.014593
0.014593
0.014593
0.014593
0.014593
0.014593
0.0145931
0.0145931
0.0145931
0.0145931
0.0145932
0.0145932
0.0145933
0.0145933
0.0145934
0.0145935
0.0145937
0.0145939
0.0145942
0.0145945
0.014595
0.0145956
0.0145965
0.014593
0.014593
0.014593
0.014593
0.014593
0.014593
0.014593
0.014593
0.014593
0.014593
0.014593
0.014593
0.014593
0.014593
0.014593
0.014593
0.014593
0.0145931
0.0145931
0.0145931
0.0145931
0.0145931
0.0145932
0.0145932
0.0145933
0.0145934
0.0145935
0.0145936
0.0145938
0.014594
0.0145943
0.0145947
0.0145952
0.0145959
0.0145968
0.0145979
0.0145994
0.0146014
0.014593
0.014593
0.014593
0.014593
0.014593
0.014593
0.014593
0.014593
0.014593
0.014593
0.014593
0.014593
0.014593
0.014593
0.0145931
0.0145931
0.0145931
0.0145931
0.0145932
0.0145932
0.0145932
0.0145933
0.0145934
0.0145935
0.0145937
0.0145939
0.0145941
0.0145945
0.0145949
0.0145954
0.0145962
0.0145971
0.0145983
0.0145999
0.0146019
0.0146045
0.014608
0.0146127
0.014593
0.014593
0.014593
0.014593
0.014593
0.014593
0.014593
0.014593
0.014593
0.014593
0.0145931
0.0145931
0.0145931
0.0145931
0.0145931
0.0145932
0.0145932
0.0145933
0.0145934
0.0145935
0.0145936
0.0145938
0.014594
0.0145942
0.0145946
0.0145951
0.0145957
0.0145964
0.0145974
0.0145987
0.0146004
0.0146026
0.0146054
0.014609
0.0146137
0.0146198
0.0146278
0.0146384
0.014593
0.014593
0.014593
0.014593
0.014593
0.014593
0.014593
0.0145931
0.0145931
0.0145931
0.0145931
0.0145932
0.0145932
0.0145932
0.0145933
0.0145934
0.0145935
0.0145937
0.0145938
0.0145941
0.0145944
0.0145948
0.0145953
0.0145959
0.0145968
0.0145978
0.0145992
0.014601
0.0146033
0.0146063
0.0146101
0.0146151
0.0146215
0.0146297
0.0146404
0.0146542
0.0146722
0.0146959
0.014593
0.014593
0.014593
0.014593
0.0145931
0.0145931
0.0145931
0.0145931
0.0145931
0.0145932
0.0145932
0.0145933
0.0145934
0.0145934
0.0145936
0.0145937
0.0145939
0.0145942
0.0145945
0.0145949
0.0145955
0.0145962
0.0145971
0.0145982
0.0145997
0.0146016
0.0146041
0.0146073
0.0146114
0.0146166
0.0146234
0.014632
0.0146432
0.0146576
0.0146761
0.0146998
0.0147304
0.01477
0.0148216
0.0145931
0.0145931
0.0145931
0.0145931
0.0145931
0.0145932
0.0145932
0.0145932
0.0145933
0.0145934
0.0145935
0.0145936
0.0145938
0.014594
0.0145943
0.0145947
0.0145951
0.0145957
0.0145965
0.0145975
0.0145987
0.0146003
0.0146023
0.014605
0.0146083
0.0146127
0.0146182
0.0146254
0.0146345
0.0146463
0.0146613
0.0146806
0.0147053
0.014737
0.0147774
0.0148289
0.0148947
0.0149787
0.0150864
0.0145931
0.0145931
0.0145932
0.0145932
0.0145933
0.0145934
0.0145934
0.0145936
0.0145937
0.0145939
0.0145941
0.0145944
0.0145948
0.0145953
0.014596
0.0145968
0.0145979
0.0145992
0.0146009
0.0146031
0.0146059
0.0146095
0.0146141
0.01462
0.0146275
0.0146371
0.0146495
0.0146652
0.0146854
0.0147112
0.0147441
0.014786
0.0148392
0.0149067
0.014992
0.0150994
0.0152341
0.0154026
0.015613
0.0145932
0.0145933
0.0145933
0.0145934
0.0145935
0.0145936
0.0145938
0.014594
0.0145943
0.0145946
0.014595
0.0145956
0.0145963
0.0145972
0.0145983
0.0145997
0.0146016
0.0146039
0.0146069
0.0146107
0.0146156
0.0146218
0.0146298
0.0146399
0.0146529
0.0146694
0.0146905
0.0147174
0.0147516
0.014795
0.0148501
0.0149198
0.0150075
0.0151175
0.0152548
0.0154248
0.0156338
0.0158884
0.0161958
0.0165631
0.0145934
0.0145936
0.0145937
0.0145939
0.0145941
0.0145944
0.0145948
0.0145953
0.0145958
0.0145966
0.0145976
0.0145988
0.0146003
0.0146023
0.0146048
0.014608
0.0146121
0.0146172
0.0146238
0.0146322
0.0146429
0.0146565
0.0146739
0.0146959
0.0147239
0.0147595
0.0148045
0.0148615
0.0149334
0.0150236
0.0151365
0.0152769
0.0154504
0.0156629
0.0159203
0.0162283
0.0165919
0.0170145
0.0174974
0.0180375
0.014594
0.0145943
0.0145946
0.014595
0.0145955
0.0145961
0.014597
0.014598
0.0145993
0.014601
0.0146031
0.0146058
0.0146092
0.0146135
0.014619
0.014626
0.0146349
0.0146462
0.0146605
0.0146786
0.0147017
0.0147309
0.0147678
0.0148145
0.0148734
0.0149475
0.0150404
0.0151562
0.0152998
0.0154768
0.015693
0.0159541
0.0162657
0.0166324
0.0170565
0.0175376
0.0180703
0.0186463
0.0192548
0.0198806
0.0145952
0.0145958
0.0145965
0.0145974
0.0145985
0.0145999
0.0146017
0.014604
0.0146069
0.0146105
0.0146152
0.014621
0.0146284
0.0146378
0.0146497
0.0146647
0.0146837
0.0147078
0.0147383
0.0147767
0.0148251
0.014886
0.0149624
0.0150579
0.0151766
0.0153235
0.015504
0.0157238
0.0159886
0.0163038
0.0166736
0.0171006
0.0175838
0.018118
0.0186934
0.0192978
0.0199124
0.020511
0.0210651
0.0215569
0.0145978
0.0145991
0.0146006
0.0146026
0.014605
0.0146081
0.014612
0.0146169
0.0146232
0.014631
0.0146409
0.0146535
0.0146693
0.0146893
0.0147144
0.0147462
0.0147861
0.0148364
0.0148993
0.0149781
0.0150762
0.015198
0.0153481
0.0155321
0.0157555
0.0160239
0.0163425
0.0167154
0.0171449
0.0176301
0.0181659
0.0187422
0.0193469
0.0199625
0.0205639
0.0211211
0.0216079
0.0220086
0.0223203
0.0225574
0.0146035
0.0146061
0.0146094
0.0146136
0.0146189
0.0146255
0.0146339
0.0146444
0.0146576
0.0146743
0.0146952
0.0147216
0.0147547
0.0147963
0.0148483
0.0149135
0.0149947
0.0150956
0.0152204
0.0153738
0.0155613
0.0157883
0.0160603
0.0163822
0.0167579
0.0171897
0.0176766
0.0182136
0.0187906
0.0193951
0.0200114
0.020616
0.0211794
0.0216745
0.022084
0.0224038
0.0226408
0.022809
0.0229218
0.0229965
0.0146154
0.0146211
0.0146281
0.014637
0.0146482
0.0146621
0.0146797
0.0147017
0.0147293
0.0147639
0.0148071
0.0148612
0.0149286
0.0150124
0.0151162
0.0152441
0.0154009
0.0155919
0.0158225
0.016098
0.0164231
0.0168016
0.0172355
0.0177237
0.0182614
0.0188389
0.0194428
0.020059
0.0206657
0.0212346
0.0217377
0.0221569
0.0224864
0.0227324
0.0229071
0.0230253
0.0231004
0.0231456
0.0231701
0.0231812
0.014631
0.0146405
0.0146523
0.0146671
0.0146856
0.0147087
0.0147377
0.0147738
0.0148189
0.0148751
0.0149448
0.0150313
0.015138
0.0152692
0.0154295
0.0156242
0.0158584
0.0161374
0.0164657
0.0168468
0.0172826
0.017772
0.0183101
0.0188875
0.0194909
0.0201062
0.0207138
0.0212871
0.0217977
0.0222262
0.0225655
0.0228203
0.0230026
0.0231269
0.023207
0.0232549
0.0232819
0.0232945
0.0232944
0.0232892
0.0232799
0.0146726
0.0146921
0.0147165
0.0147468
0.0147846
0.0148317
0.01489
0.0149623
0.0150516
0.0151615
0.015296
0.01546
0.0156583
0.0158963
0.0161788
0.0165103
0.016894
0.0173315
0.0178218
0.01836
0.018937
0.0195397
0.0201534
0.0207611
0.0213377
0.0218551
0.0222923
0.022641
0.0229048
0.0230951
0.023226
0.0233111
0.0233628
0.0233924
0.0234064
0.0234075
0.0234036
0.0233956
0.0233814
0.0233678
0.0233543
0.014725
0.0147569
0.0147965
0.0148455
0.0149063
0.0149812
0.0150735
0.0151867
0.0153248
0.0154925
0.0156947
0.0159365
0.0162226
0.0165573
0.0169435
0.0173827
0.0178738
0.0184118
0.018988
0.0195897
0.0202015
0.0208084
0.0213869
0.0219102
0.0223556
0.0227136
0.0229864
0.0231845
0.0233215
0.0234118
0.0234676
0.0234998
0.0235167
0.0235203
0.0235168
0.0235081
0.0234965
0.023484
0.0234682
0.0234515
0.0234367
0.0234213
0.0148094
0.0148607
0.014924
0.0150018
0.0150972
0.0152139
0.0153558
0.0155274
0.0157336
0.0159794
0.0162692
0.0166071
0.0169959
0.0174368
0.0179284
0.0184661
0.0190412
0.0196413
0.0202515
0.0208564
0.0214357
0.0219637
0.0224166
0.0227833
0.0230649
0.0232709
0.0234149
0.0235107
0.0235705
0.0236056
0.0236245
0.02363
0.0236276
0.0236214
0.0236108
0.0235956
0.0235818
0.0235682
0.0235523
0.0235355
0.0235186
0.0235026
0.0234866
0.0150242
0.015123
0.0152434
0.0153892
0.0155651
0.0157755
0.0160254
0.016319
0.0166603
0.0170517
0.0174942
0.0179863
0.0185234
0.019097
0.0196953
0.0203035
0.0209059
0.0214849
0.0220161
0.0224758
0.0228508
0.023141
0.0233549
0.0235055
0.0236064
0.0236705
0.0237088
0.0237297
0.023738
0.023737
0.0237308
0.0237204
0.0237086
0.0236968
0.0236807
0.0236638
0.0236493
0.0236344
0.0236183
0.0236016
0.0235852
0.0235691
0.0235537
0.0152755
0.0154256
0.0156058
0.0158207
0.0160749
0.0163726
0.0167173
0.0171114
0.0175555
0.018048
0.0185843
0.0191563
0.0197524
0.0203581
0.0209576
0.0215352
0.0220682
0.0225336
0.0229162
0.0232145
0.0234361
0.0235933
0.0236999
0.0237684
0.0238098
0.0238332
0.0238438
0.0238439
0.0238393
0.0238311
0.0238195
0.0238044
0.023791
0.0237781
0.0237634
0.0237471
0.0237306
0.0237155
0.0237004
0.0236846
0.0236688
0.0236535
0.023639
0.0236254
0.0156501
0.0158697
0.0161284
0.0164303
0.0167787
0.0171755
0.0176213
0.0181142
0.0186496
0.0192197
0.019813
0.0204159
0.0210126
0.0215875
0.022121
0.0225908
0.0229803
0.0232862
0.0235152
0.0236791
0.0237914
0.0238642
0.0239089
0.0239347
0.023947
0.0239488
0.0239455
0.0239373
0.0239262
0.0239148
0.0239035
0.0238876
0.0238713
0.0238575
0.023844
0.0238291
0.0238136
0.0237982
0.0237833
0.0237687
0.0237543
0.0237403
0.023727
0.0237146
0.0237034
0.0161865
0.0164929
0.016845
0.0172447
0.0176921
0.0181854
0.0187198
0.0192877
0.0198781
0.0204776
0.021071
0.0216425
0.0221753
0.0226479
0.0230434
0.0233564
0.0235924
0.0237627
0.02388
0.0239573
0.0240055
0.0240336
0.0240483
0.0240523
0.0240498
0.0240427
0.0240333
0.0240224
0.0240076
0.0239946
0.0239827
0.0239693
0.0239536
0.0239379
0.0239241
0.0239106
0.0238964
0.023882
0.0238679
0.0238544
0.0238416
0.0238293
0.0238176
0.0238068
0.0237971
0.0237888
0.0165607
0.0169168
0.0173195
0.0177688
0.0182624
0.0187957
0.0193612
0.0199482
0.0205439
0.0211335
0.0217013
0.0222319
0.0227058
0.0231061
0.0234252
0.0236678
0.0238441
0.023967
0.0240488
0.0241004
0.0241311
0.0241479
0.0241535
0.024152
0.0241469
0.024138
0.0241257
0.0241144
0.0241039
0.0240893
0.0240736
0.0240605
0.0240487
0.0240351
0.0240206
0.0240063
0.023993
0.0239801
0.0239672
0.0239546
0.0239425
0.0239311
0.0239205
0.0239107
0.0239018
0.0238939
0.0238871
0.0238821
0.0178518
0.0183458
0.0188779
0.0194408
0.0200241
0.0206155
0.0212007
0.0217644
0.0222916
0.0227653
0.0231689
0.0234936
0.0237421
0.0239242
0.0240522
0.0241381
0.024193
0.0242263
0.0242448
0.0242526
0.0242526
0.0242481
0.0242395
0.0242296
0.0242203
0.0242063
0.0241927
0.0241812
0.0241698
0.0241554
0.0241403
0.0241278
0.024116
0.0241033
0.0240903
0.0240777
0.0240657
0.0240542
0.0240432
0.0240328
0.024023
0.0240141
0.0240062
0.0239993
0.0239934
0.0239888
0.0239856
0.0239842
0.0184363
0.0189671
0.0195271
0.0201065
0.0206931
0.0212733
0.0218322
0.022355
0.0228272
0.0232326
0.0235618
0.0238155
0.0240028
0.0241354
0.0242255
0.0242838
0.0243196
0.0243402
0.0243501
0.0243512
0.0243478
0.0243409
0.0243322
0.0243198
0.0243088
0.0242984
0.0242869
0.024272
0.0242586
0.0242478
0.0242362
0.0242229
0.0242096
0.0241978
0.0241866
0.0241753
0.0241641
0.0241533
0.0241432
0.0241339
0.0241252
0.0241173
0.0241103
0.0241043
0.0240994
0.0240957
0.0240933
0.0240924
0.024093
0.0240956
0.020196
0.0207774
0.0213519
0.0219054
0.0224233
0.0228924
0.023298
0.0236304
0.0238885
0.0240803
0.0242174
0.0243114
0.024373
0.0244113
0.024434
0.0244456
0.024448
0.0244459
0.0244395
0.0244304
0.0244207
0.0244121
0.0244
0.0243859
0.0243748
0.024365
0.0243528
0.0243388
0.0243264
0.0243164
0.0243054
0.0242937
0.0242822
0.0242716
0.0242617
0.0242522
0.0242431
0.0242345
0.0242267
0.0242198
0.0242138
0.0242088
0.0242048
0.024202
0.0242005
0.0242005
0.0242019
0.0242049
0.0242097
0.0242168
0.0219845
0.0224969
0.0229615
0.0233658
0.0236998
0.0239614
0.0241573
0.0242983
0.0243958
0.0244604
0.0245012
0.0245257
0.0245387
0.0245431
0.0245419
0.0245367
0.0245285
0.0245205
0.0245094
0.0244979
0.0244879
0.0244791
0.0244656
0.0244521
0.0244417
0.0244325
0.0244209
0.0244085
0.0243977
0.0243883
0.0243785
0.0243686
0.024359
0.0243502
0.0243421
0.0243347
0.0243279
0.0243218
0.0243167
0.0243126
0.0243096
0.0243077
0.0243072
0.0243079
0.0243102
0.024314
0.0243195
0.0243267
0.024336
0.0243477
0.0234367
0.0237709
0.0240349
0.024234
0.0243783
0.0244789
0.0245463
0.0245894
0.0246157
0.0246305
0.0246366
0.0246361
0.0246321
0.0246251
0.0246165
0.0246066
0.0245972
0.0245888
0.0245752
0.0245638
0.0245546
0.0245456
0.0245329
0.0245205
0.0245114
0.0245027
0.0244924
0.024482
0.0244727
0.0244643
0.0244561
0.0244482
0.0244407
0.0244341
0.0244282
0.0244232
0.024419
0.0244158
0.0244136
0.0244126
0.0244129
0.0244145
0.0244176
0.0244222
0.0244284
0.0244364
0.0244462
0.0244579
0.0244718
0.0244881
0.0243107
0.0244577
0.024561
0.0246309
0.0246763
0.0247043
0.0247206
0.0247282
0.0247287
0.0247258
0.0247192
0.024711
0.0247028
0.024695
0.0246829
0.024673
0.0246643
0.0246549
0.0246417
0.0246313
0.0246231
0.0246144
0.0246031
0.0245924
0.0245847
0.0245767
0.0245681
0.0245596
0.024552
0.0245452
0.0245389
0.0245331
0.024528
0.0245237
0.0245204
0.0245181
0.0245168
0.0245167
0.0245177
0.0245201
0.0245239
0.0245293
0.0245362
0.0245449
0.0245553
0.0245676
0.0245818
0.0245981
0.0246165
0.0246374
0.0247145
0.0247617
0.0247914
0.024809
0.0248178
0.0248197
0.0248176
0.0248119
0.0248046
0.0247973
0.0247876
0.0247785
0.0247705
0.0247614
0.0247488
0.0247397
0.0247322
0.0247227
0.0247107
0.0247016
0.0246947
0.0246867
0.024677
0.0246684
0.0246617
0.024655
0.0246482
0.0246418
0.0246361
0.0246312
0.024627
0.0246236
0.0246211
0.0246195
0.024619
0.0246196
0.0246215
0.0246246
0.0246292
0.0246352
0.0246428
0.0246521
0.0246631
0.0246759
0.0246906
0.0247072
0.0247259
0.0247466
0.0247695
0.0247947
0.0248959
0.024906
0.0249091
0.0249077
0.0249031
0.0248963
0.0248889
0.0248806
0.0248729
0.024865
0.0248535
0.0248451
0.0248383
0.024828
0.0248165
0.0248087
0.0248024
0.0247935
0.024783
0.0247755
0.0247698
0.0247628
0.024755
0.0247483
0.0247429
0.0247378
0.024733
0.0247288
0.0247252
0.0247226
0.0247209
0.0247201
0.0247203
0.0247216
0.0247242
0.024728
0.0247332
0.0247398
0.024748
0.0247578
0.0247693
0.0247826
0.0247977
0.0248147
0.0248336
0.0248546
0.0248775
0.0249024
0.0249295
0.0249588
0.0249962
0.0249925
0.0249862
0.0249792
0.024972
0.0249651
0.0249556
0.0249473
0.0249406
0.0249313
0.0249205
0.0249131
0.0249074
0.0248975
0.0248874
0.0248809
0.0248756
0.0248678
0.0248591
0.0248533
0.0248485
0.0248429
0.0248373
0.0248325
0.0248286
0.0248254
0.0248228
0.0248208
0.0248197
0.0248196
0.0248205
0.0248226
0.0248257
0.0248301
0.0248359
0.024843
0.0248517
0.024862
0.0248739
0.0248876
0.024903
0.0249203
0.0249395
0.0249606
0.0249836
0.0250085
0.0250354
0.0250642
0.0250951
0.0251279
0.0250681
0.0250616
0.0250543
0.0250463
0.0250395
0.0250322
0.025022
0.0250147
0.0250093
0.0249992
0.02499
0.0249839
0.024979
0.0249701
0.0249617
0.0249566
0.0249522
0.0249457
0.0249392
0.0249349
0.0249312
0.0249273
0.0249238
0.0249209
0.024919
0.0249179
0.0249176
0.0249181
0.0249196
0.0249222
0.024926
0.0249309
0.0249372
0.0249448
0.0249539
0.0249646
0.0249768
0.0249908
0.0250065
0.0250239
0.0250432
0.0250644
0.0250875
0.0251124
0.0251392
0.0251678
0.0251983
0.0252305
0.0252645
0.0253001
0.0251355
0.0251296
0.0251207
0.0251133
0.0251079
0.0250994
0.0250904
0.0250843
0.0250798
0.0250702
0.0250626
0.0250578
0.0250537
0.025046
0.0250394
0.0250358
0.0250323
0.0250275
0.0250231
0.0250201
0.0250179
0.025016
0.0250146
0.0250139
0.0250141
0.0250153
0.0250174
0.0250206
0.0250249
0.0250303
0.025037
0.025045
0.0250545
0.0250654
0.0250779
0.0250921
0.0251079
0.0251255
0.0251449
0.0251661
0.025189
0.0252139
0.0252405
0.0252689
0.025299
0.0253308
0.0253643
0.0253992
0.0254357
0.0254734
0.025203
0.0251972
0.0251881
0.025182
0.0251777
0.0251687
0.0251615
0.0251567
0.0251527
0.0251442
0.0251383
0.0251349
0.0251314
0.0251253
0.0251206
0.0251184
0.0251159
0.0251129
0.0251106
0.0251092
0.0251087
0.0251088
0.0251096
0.0251113
0.0251139
0.0251175
0.0251223
0.0251282
0.0251352
0.0251435
0.0251533
0.0251645
0.0251772
0.0251915
0.0252074
0.025225
0.0252443
0.0252654
0.0252883
0.0253129
0.0253392
0.0253673
0.0253971
0.0254285
0.0254614
0.0254958
0.0255315
0.0255685
0.0256066
0.0256455
0.0252723
0.0252656
0.025258
0.025253
0.0252495
0.0252408
0.0252354
0.025232
0.0252284
0.0252213
0.025217
0.0252151
0.0252123
0.025208
0.0252053
0.0252041
0.025203
0.025202
0.0252017
0.0252022
0.0252036
0.0252058
0.0252089
0.025213
0.0252181
0.0252244
0.0252318
0.0252404
0.0252503
0.0252617
0.0252745
0.0252888
0.0253048
0.0253223
0.0253415
0.0253625
0.0253851
0.0254094
0.0254354
0.0254631
0.0254924
0.0255233
0.0255557
0.0255895
0.0256245
0.0256607
0.025698
0.0257361
0.025775
0.0258142
0.0253435
0.0253361
0.0253304
0.0253267
0.0253234
0.0253158
0.0253119
0.02531
0.0253068
0.0253013
0.0252988
0.025298
0.0252963
0.025294
0.025293
0.025293
0.0252936
0.0252946
0.0252963
0.0252988
0.0253023
0.0253068
0.0253123
0.0253189
0.0253266
0.0253354
0.0253455
0.0253569
0.0253698
0.0253841
0.0254
0.0254174
0.0254365
0.0254571
0.0254794
0.0255034
0.025529
0.0255562
0.025585
0.0256153
0.025647
0.0256801
0.0257145
0.0257499
0.0257863
0.0258236
0.0258615
0.0258999
0.0259386
0.0259771
0.0254164
0.025409
0.0254051
0.0254029
0.0253996
0.0253934
0.025391
0.0253903
0.025388
0.0253843
0.0253834
0.0253835
0.0253831
0.0253829
0.0253835
0.0253851
0.0253874
0.0253905
0.0253943
0.025399
0.0254047
0.0254115
0.0254195
0.0254285
0.0254387
0.0254502
0.025463
0.0254773
0.025493
0.0255103
0.0255291
0.0255494
0.0255713
0.0255949
0.02562
0.0256466
0.0256748
0.0257044
0.0257355
0.0257678
0.0258014
0.025836
0.0258716
0.0259079
0.0259449
0.0259824
0.0260201
0.0260578
0.0260954
0.0261322
0.0254909
0.0254843
0.0254819
0.0254811
0.0254781
0.0254735
0.0254727
0.025473
0.0254716
0.02547
0.0254704
0.0254715
0.0254727
0.0254744
0.0254768
0.0254802
0.0254844
0.0254894
0.0254954
0.0255024
0.0255105
0.0255197
0.0255299
0.0255414
0.0255541
0.0255683
0.0255838
0.0256008
0.0256193
0.0256393
0.0256608
0.0256838
0.0257083
0.0257344
0.0257619
0.0257908
0.0258211
0.0258526
0.0258853
0.025919
0.0259537
0.0259891
0.0260252
0.0260616
0.0260983
0.0261351
0.0261716
0.0262078
0.0262434
0.0262776
0.0255695
0.0255669
0.0255619
0.0255608
0.0255611
0.0255587
0.025556
0.0255566
0.0255576
0.0255574
0.0255579
0.0255595
0.025562
0.0255649
0.0255684
0.0255727
0.0255779
0.0255841
0.0255913
0.0255995
0.0256088
0.0256191
0.0256304
0.0256431
0.025657
0.0256723
0.0256891
0.0257072
0.0257267
0.0257478
0.0257702
0.0257942
0.0258195
0.0258463
0.0258744
0.0259039
0.0259345
0.0259663
0.0259991
0.0260328
0.0260672
0.0261023
0.0261377
0.0261734
0.0262091
0.0262447
0.0262798
0.0263144
0.0263481
0.0263808
0.0264116
0.0256476
0.0256448
0.0256414
0.0256416
0.0256427
0.0256413
0.0256406
0.0256421
0.0256439
0.0256455
0.0256477
0.0256508
0.0256547
0.0256593
0.0256647
0.025671
0.0256782
0.0256864
0.0256957
0.025706
0.0257173
0.0257298
0.0257435
0.0257585
0.0257749
0.0257926
0.0258118
0.0258323
0.0258541
0.0258774
0.0259021
0.0259281
0.0259554
0.0259839
0.0260137
0.0260445
0.0260763
0.026109
0.0261424
0.0261763
0.0262107
0.0262454
0.0262801
0.0263146
0.0263488
0.0263823
0.0264151
0.0264469
0.0264773
0.0265063
0.026533
0.0257256
0.0257267
0.0257243
0.0257227
0.0257239
0.0257256
0.0257256
0.0257266
0.0257291
0.0257321
0.0257353
0.0257392
0.0257438
0.0257494
0.0257558
0.0257631
0.0257713
0.0257806
0.0257908
0.025802
0.0258143
0.0258277
0.0258424
0.0258584
0.0258757
0.0258943
0.0259143
0.0259355
0.0259581
0.025982
0.0260072
0.0260337
0.0260613
0.0260901
0.0261199
0.0261507
0.0261823
0.0262146
0.0262475
0.0262808
0.0263144
0.026348
0.0263814
0.0264146
0.0264472
0.026479
0.0265098
0.0265394
0.0265676
0.0265941
0.0266188
0.0266406
0.0258048
0.0258066
0.0258052
0.0258052
0.0258075
0.0258097
0.0258114
0.025814
0.0258175
0.0258218
0.0258267
0.0258322
0.0258385
0.0258458
0.025854
0.0258632
0.0258734
0.0258844
0.0258965
0.0259097
0.025924
0.0259396
0.0259564
0.0259745
0.0259938
0.0260144
0.0260363
0.0260595
0.0260838
0.0261094
0.0261361
0.0261639
0.0261927
0.0262224
0.0262529
0.0262841
0.0263159
0.0263481
0.0263805
0.026413
0.0264454
0.0264775
0.026509
0.0265399
0.0265698
0.0265985
0.0266259
0.0266517
0.0266757
0.0266976
0.0267173
0.0267338
0.0258851
0.0258872
0.0258873
0.0258887
0.0258918
0.025895
0.0258983
0.0259023
0.0259072
0.0259128
0.0259193
0.0259265
0.0259346
0.0259437
0.0259537
0.0259645
0.0259764
0.0259892
0.0260032
0.0260183
0.0260347
0.0260522
0.0260709
0.0260909
0.026112
0.0261344
0.0261579
0.0261826
0.0262083
0.0262351
0.0262629
0.0262915
0.0263209
0.026351
0.0263816
0.0264126
0.0264439
0.0264753
0.0265066
0.0265376
0.0265681
0.026598
0.0266269
0.0266548
0.0266814
0.0267064
0.0267297
0.0267511
0.0267703
0.0267871
0.0268015
0.0268124
0.025966
0.0259684
0.0259702
0.025973
0.0259768
0.0259812
0.0259861
0.0259915
0.0259978
0.026005
0.026013
0.026022
0.0260318
0.0260424
0.0260539
0.0260665
0.0260801
0.0260947
0.0261106
0.0261275
0.0261456
0.0261649
0.0261853
0.0262069
0.0262295
0.0262533
0.0262781
0.0263039
0.0263305
0.0263581
0.0263864
0.0264153
0.0264448
0.0264746
0.0265048
0.026535
0.0265651
0.026595
0.0266245
0.0266534
0.0266814
0.0267084
0.0267341
0.0267584
0.0267811
0.0268019
0.0268206
0.026837
0.0268511
0.0268625
0.026871
0.0268756
0.0260471
0.0260503
0.0260536
0.0260577
0.0260626
0.0260682
0.0260744
0.0260814
0.0260893
0.026098
0.0261076
0.026118
0.0261292
0.0261414
0.0261546
0.0261688
0.0261841
0.0262005
0.0262179
0.0262365
0.0262562
0.0262769
0.0262987
0.0263216
0.0263454
0.0263702
0.0263958
0.0264223
0.0264494
0.0264772
0.0265055
0.0265342
0.0265632
0.0265922
0.0266213
0.0266501
0.0266785
0.0267063
0.0267333
0.0267594
0.0267843
0.0268079
0.0268299
0.0268501
0.0268683
0.0268844
0.0268981
0.0269094
0.0269178
0.0269233
0.0269255
0.0269238
0.0261284
0.0261327
0.0261373
0.0261426
0.0261487
0.0261557
0.0261634
0.0261719
0.0261812
0.0261913
0.0262022
0.026214
0.0262268
0.0262405
0.0262553
0.0262711
0.0262879
0.0263058
0.0263247
0.0263446
0.0263656
0.0263875
0.0264104
0.0264342
0.0264588
0.0264841
0.0265102
0.0265368
0.026564
0.0265915
0.0266193
0.0266472
0.0266751
0.0267028
0.0267301
0.0267569
0.0267829
0.0268081
0.0268322
0.026855
0.0268763
0.0268959
0.0269136
0.0269293
0.0269427
0.0269538
0.0269622
0.0269677
0.0269702
0.0269693
0.0269654
0.0269571
0.0262098
0.0262152
0.0262212
0.0262278
0.0262353
0.0262436
0.0262526
0.0262623
0.0262729
0.0262843
0.0262967
0.0263099
0.0263242
0.0263394
0.0263555
0.0263727
0.0263909
0.02641
0.0264301
0.0264512
0.0264731
0.0264959
0.0265195
0.0265438
0.0265687
0.0265942
0.0266202
0.0266466
0.0266732
0.0267
0.0267267
0.0267533
0.0267795
0.0268053
0.0268304
0.0268546
0.0268778
0.0268998
0.0269205
0.0269395
0.0269567
0.0269719
0.026985
0.0269959
0.0270042
0.0270098
0.0270125
0.027012
0.0270085
0.0270015
0.026991
0.026976
0.0262979
0.0263051
0.0263131
0.0263218
0.0263312
0.0263414
0.0263524
0.0263643
0.0263771
0.0263908
0.0264054
0.0264209
0.0264374
0.0264548
0.0264732
0.0264925
0.0265126
0.0265336
0.0265554
0.026578
0.0266012
0.0266251
0.0266495
0.0266744
0.0266996
0.0267251
0.0267507
0.0267763
0.0268018
0.0268269
0.0268517
0.0268758
0.0268991
0.0269214
0.0269427
0.0269626
0.026981
0.0269977
0.0270125
0.0270253
0.0270359
0.0270442
0.0270498
0.0270527
0.0270525
0.0270494
0.027043
0.0270332
0.0270197
0.0270028
0.0269814
0.0263805
0.0263889
0.0263979
0.0264077
0.0264183
0.0264297
0.026442
0.0264551
0.0264692
0.0264841
0.0264999
0.0265166
0.0265342
0.0265526
0.0265719
0.026592
0.0266128
0.0266344
0.0266566
0.0266794
0.0267028
0.0267265
0.0267507
0.026775
0.0267995
0.026824
0.0268484
0.0268725
0.0268961
0.0269193
0.0269417
0.0269632
0.0269836
0.0270028
0.0270206
0.0270368
0.0270512
0.0270637
0.0270741
0.0270822
0.0270879
0.0270909
0.027091
0.0270883
0.0270824
0.0270733
0.0270607
0.0270447
0.0270251
0.027002
0.0269749
0.0264625
0.0264719
0.0264821
0.026493
0.0265048
0.0265173
0.0265308
0.0265451
0.0265602
0.0265762
0.026593
0.0266106
0.026629
0.0266482
0.0266682
0.0266888
0.02671
0.0267318
0.0267541
0.0267768
0.0267998
0.0268231
0.0268465
0.0268699
0.0268931
0.0269162
0.0269389
0.026961
0.0269825
0.0270032
0.0270228
0.0270413
0.0270585
0.0270741
0.0270881
0.0271003
0.0271104
0.0271184
0.0271241
0.0271273
0.0271276
0.0271254
0.02712
0.0271116
0.0270998
0.0270847
0.0270661
0.0270442
0.0270191
0.0269903
0.0269569
0.0265542
0.0265654
0.0265774
0.0265903
0.0266039
0.0266184
0.0266337
0.0266497
0.0266666
0.0266842
0.0267025
0.0267215
0.0267412
0.0267614
0.0267822
0.0268035
0.0268252
0.0268471
0.0268693
0.0268917
0.026914
0.0269363
0.0269583
0.02698
0.0270012
0.0270217
0.0270415
0.0270604
0.0270782
0.0270947
0.0271098
0.0271234
0.0271352
0.0271451
0.027153
0.0271587
0.027162
0.0271626
0.0271607
0.0271559
0.0271481
0.027137
0.0271228
0.0271053
0.0270845
0.0270607
0.0270333
0.0270021
0.0269673
0.0269278
0.0266355
0.0266477
0.0266608
0.0266746
0.0266891
0.0267045
0.0267205
0.0267373
0.0267548
0.0267729
0.0267917
0.026811
0.0268308
0.0268511
0.0268718
0.0268927
0.0269139
0.0269352
0.0269565
0.0269778
0.0269988
0.0270195
0.0270398
0.0270595
0.0270784
0.0270965
0.0271136
0.0271295
0.0271441
0.0271572
0.0271687
0.0271783
0.027186
0.0271917
0.0271952
0.027196
0.0271945
0.0271901
0.0271829
0.0271727
0.0271593
0.0271428
0.0271231
0.0271005
0.0270745
0.0270448
0.0270116
0.0269746
0.026934
0.0268889
0.0267156
0.0267288
0.0267427
0.0267573
0.0267726
0.0267886
0.0268052
0.0268225
0.0268404
0.0268588
0.0268777
0.026897
0.0269167
0.0269367
0.0269569
0.0269772
0.0269975
0.0270178
0.0270378
0.0270576
0.027077
0.0270958
0.0271139
0.0271313
0.0271476
0.0271629
0.027177
0.0271896
0.0272007
0.0272102
0.0272177
0.0272233
0.0272269
0.027228
0.0272267
0.0272229
0.0272163
0.0272068
0.0271943
0.0271788
0.0271601
0.0271387
0.027114
0.0270858
0.0270541
0.0270189
0.0269801
0.0269376
0.0268915
0.026841
0.0267943
0.0268082
0.0268228
0.026838
0.0268538
0.0268703
0.0268873
0.0269048
0.0269228
0.0269412
0.02696
0.026979
0.0269983
0.0270176
0.027037
0.0270563
0.0270755
0.0270943
0.0271128
0.0271308
0.0271482
0.0271647
0.0271804
0.0271951
0.0272086
0.0272208
0.0272316
0.0272407
0.0272481
0.0272536
0.0272572
0.0272586
0.0272576
0.0272542
0.0272482
0.0272394
0.0272278
0.0272132
0.0271956
0.0271753
0.0271519
0.0271252
0.0270951
0.0270615
0.0270245
0.0269839
0.0269398
0.0268921
0.0268409
0.0267854
0.0268712
0.0268857
0.0269007
0.0269164
0.0269326
0.0269493
0.0269664
0.0269839
0.0270017
0.0270199
0.0270382
0.0270566
0.0270751
0.0270935
0.0271118
0.0271298
0.0271474
0.0271646
0.0271812
0.0271971
0.0272121
0.0272262
0.0272391
0.0272509
0.0272613
0.0272702
0.0272774
0.0272828
0.0272864
0.027288
0.0272873
0.0272843
0.0272789
0.0272708
0.0272599
0.0272463
0.0272297
0.0272105
0.0271884
0.027163
0.0271344
0.0271025
0.0270672
0.0270285
0.0269864
0.0269408
0.0268917
0.0268391
0.0267831
0.026723
0.026946
0.0269609
0.0269762
0.0269921
0.0270084
0.027025
0.027042
0.0270593
0.0270767
0.0270943
0.0271119
0.0271294
0.0271468
0.027164
0.0271808
0.0271972
0.0272131
0.0272283
0.0272426
0.0272561
0.0272686
0.0272799
0.0272899
0.0272986
0.0273056
0.027311
0.0273145
0.0273162
0.0273158
0.0273133
0.0273083
0.0273009
0.0272908
0.027278
0.0272625
0.0272443
0.0272234
0.0271995
0.0271724
0.027142
0.0271085
0.0270716
0.0270314
0.0269878
0.0269409
0.0268906
0.0268368
0.0267797
0.0267192
0.0266547
0.0270184
0.0270335
0.0270489
0.0270648
0.0270809
0.0270973
0.0271139
0.0271306
0.0271474
0.0271641
0.0271807
0.027197
0.0272131
0.0272288
0.0272439
0.0272584
0.0272722
0.0272851
0.0272971
0.027308
0.0273176
0.027326
0.0273329
0.0273382
0.0273417
0.0273435
0.0273433
0.0273411
0.0273366
0.0273298
0.0273205
0.0273086
0.027294
0.0272769
0.0272572
0.0272345
0.0272089
0.0271801
0.0271482
0.0271131
0.0270748
0.0270333
0.0269884
0.0269403
0.0268889
0.0268341
0.026776
0.0267146
0.02665
0.0265815
0.0271032
0.0271185
0.0271341
0.0271499
0.0271658
0.0271817
0.0271976
0.0272134
0.027229
0.0272444
0.0272593
0.0272738
0.0272876
0.0273008
0.0273132
0.0273247
0.0273352
0.0273445
0.0273525
0.0273592
0.0273644
0.027368
0.0273698
0.0273698
0.027368
0.027364
0.0273577
0.0273491
0.027338
0.0273244
0.0273082
0.0272896
0.0272683
0.027244
0.0272168
0.0271866
0.0271532
0.0271168
0.0270772
0.0270344
0.0269884
0.0269392
0.0268868
0.0268311
0.0267723
0.0267102
0.0266449
0.0265764
0.0265043
0.0271698
0.0271848
0.0271999
0.027215
0.0272301
0.0272452
0.02726
0.0272746
0.0272889
0.0273027
0.027316
0.0273286
0.0273405
0.0273515
0.0273615
0.0273705
0.0273783
0.0273848
0.0273899
0.0273935
0.0273954
0.0273955
0.027394
0.0273904
0.0273847
0.0273767
0.0273664
0.0273536
0.0273384
0.027321
0.0273009
0.0272779
0.0272522
0.0272235
0.0271919
0.0271573
0.0271196
0.0270788
0.0270349
0.0269879
0.0269378
0.0268845
0.0268281
0.0267685
0.0267059
0.0266402
0.0265713
0.0264994
0.0264242