/*--------------------------------*- C++ -*----------------------------------*\
| =========                 |                                                 |
| \\      /  F ield         | OpenFOAM: The Open Source CFD Toolbox           |
|  \\    /   O peration     | Version:  v1706                                 |
|   \\  /    A nd           | Web:      www.OpenFOAM.com                      |
|    \\/     M anipulation  |                                                 |
\*---------------------------------------------------------------------------*/
FoamFile
{
    version     2.0;
    format      ascii;
    class       volScalarField;
    location    "1.1e-05";
    object      Mach;
}
// * * * * * * * * * * * * * * * * * * * * * * * * * * * * * * * * * * * * * //

dimensions      [0 0 0 0 0 0 0];


internalField   nonuniform List<scalar> 
30038
(
3.99498
3.99498
3.99498
3.99498
3.99498
3.99498
3.99498
3.99498
3.99498
3.99498
3.99498
3.99498
3.99498
3.99498
3.99498
3.99498
3.99498
3.99498
3.99498
3.99498
3.99498
3.99498
3.99498
3.99498
3.99498
3.99498
3.99498
3.99498
3.99498
3.99497
3.99497
3.99497
3.99497
3.99497
3.99497
3.99496
3.99496
3.99495
3.99498
3.99498
3.99498
3.99498
3.99498
3.99498
3.99498
3.99498
3.99498
3.99498
3.99498
3.99498
3.99498
3.99498
3.99498
3.99498
3.99498
3.99498
3.99498
3.99498
3.99498
3.99498
3.99498
3.99497
3.99497
3.99497
3.99497
3.99497
3.99497
3.99496
3.99496
3.99495
3.99494
3.99493
3.99492
3.9949
3.99488
3.99485
3.99498
3.99498
3.99498
3.99498
3.99498
3.99498
3.99498
3.99498
3.99498
3.99498
3.99498
3.99498
3.99498
3.99498
3.99498
3.99498
3.99498
3.99498
3.99498
3.99497
3.99497
3.99497
3.99497
3.99497
3.99497
3.99496
3.99496
3.99495
3.99494
3.99493
3.99492
3.9949
3.99488
3.99485
3.99482
3.99477
3.9947
3.99461
3.99498
3.99498
3.99498
3.99498
3.99498
3.99498
3.99498
3.99498
3.99498
3.99498
3.99498
3.99498
3.99498
3.99498
3.99498
3.99497
3.99497
3.99497
3.99497
3.99497
3.99497
3.99496
3.99496
3.99495
3.99495
3.99494
3.99493
3.99491
3.99489
3.99487
3.99483
3.99479
3.99473
3.99466
3.99457
3.99444
3.99428
3.99405
3.99498
3.99498
3.99498
3.99498
3.99498
3.99498
3.99498
3.99498
3.99498
3.99498
3.99498
3.99497
3.99497
3.99497
3.99497
3.99497
3.99497
3.99496
3.99496
3.99496
3.99495
3.99494
3.99493
3.99492
3.9949
3.99488
3.99485
3.99481
3.99477
3.9947
3.99462
3.99452
3.99438
3.99421
3.99398
3.99368
3.99328
3.99275
3.99498
3.99498
3.99498
3.99498
3.99498
3.99498
3.99498
3.99497
3.99497
3.99497
3.99497
3.99497
3.99497
3.99497
3.99496
3.99496
3.99495
3.99495
3.99494
3.99493
3.99491
3.99489
3.99487
3.99484
3.9948
3.99474
3.99467
3.99459
3.99447
3.99432
3.99413
3.99388
3.99356
3.99315
3.99261
3.9919
3.99097
3.98975
3.99498
3.99498
3.99498
3.99498
3.99497
3.99497
3.99497
3.99497
3.99497
3.99497
3.99496
3.99496
3.99496
3.99495
3.99494
3.99493
3.99492
3.9949
3.99488
3.99486
3.99482
3.99478
3.99472
3.99464
3.99455
3.99442
3.99426
3.99405
3.99379
3.99344
3.99299
3.99242
3.99167
3.99071
3.98946
3.98784
3.98571
3.98292
3.99497
3.99497
3.99497
3.99497
3.99497
3.99497
3.99497
3.99496
3.99496
3.99495
3.99495
3.99494
3.99493
3.99491
3.99489
3.99487
3.99484
3.9948
3.99475
3.99469
3.99461
3.9945
3.99437
3.99419
3.99397
3.99368
3.99331
3.99283
3.99221
3.99142
3.99039
3.98907
3.98737
3.98518
3.98235
3.97871
3.97393
3.96772
3.99497
3.99497
3.99497
3.99497
3.99496
3.99496
3.99496
3.99495
3.99494
3.99493
3.99492
3.9949
3.99488
3.99486
3.99482
3.99478
3.99473
3.99466
3.99457
3.99446
3.99431
3.99412
3.99388
3.99357
3.99317
3.99266
3.992
3.99115
3.99006
3.98866
3.98686
3.98455
3.98158
3.97777
3.97288
3.96661
3.95859
3.94818
3.93479
3.99497
3.99496
3.99496
3.99495
3.99495
3.99494
3.99493
3.99491
3.99489
3.99487
3.99484
3.99481
3.99476
3.9947
3.99462
3.99453
3.9944
3.99424
3.99404
3.99378
3.99344
3.99302
3.99247
3.99176
3.99086
3.9897
3.98822
3.98631
3.98388
3.98075
3.97676
3.97164
3.96511
3.95678
3.94619
3.93273
3.91571
3.89397
3.86657
3.99495
3.99494
3.99493
3.99492
3.9949
3.99488
3.99486
3.99483
3.99479
3.99474
3.99467
3.99459
3.99448
3.99434
3.99417
3.99395
3.99367
3.99331
3.99285
3.99226
3.99151
3.99055
3.98932
3.98774
3.98573
3.98316
3.97988
3.97568
3.97033
3.96351
3.95484
3.94385
3.92994
3.91241
3.89042
3.86297
3.82902
3.7868
3.73542
3.99492
3.99491
3.99489
3.99487
3.99484
3.99481
3.99476
3.99471
3.99463
3.99454
3.99443
3.99428
3.99409
3.99385
3.99355
3.99316
3.99267
3.99204
3.99123
3.99021
3.9889
3.98723
3.98511
3.9824
3.97894
3.97454
3.96894
3.96183
3.95281
3.94139
3.92699
3.9089
3.88627
3.85813
3.82344
3.78106
3.72981
3.66869
3.59598
3.51213
3.99486
3.99483
3.99479
3.99474
3.99467
3.9946
3.9945
3.99437
3.99421
3.994
3.99374
3.99341
3.993
3.99246
3.99179
3.99093
3.98984
3.98845
3.98668
3.98443
3.98157
3.97794
3.97333
3.96747
3.96005
3.95066
3.93882
3.92392
3.90524
3.88195
3.85308
3.81759
3.77436
3.7223
3.6604
3.58795
3.50466
3.41105
3.30648
3.19424
3.99471
3.99464
3.99455
3.99444
3.9943
3.99413
3.9939
3.99362
3.99327
3.99281
3.99224
3.99152
3.9906
3.98943
3.98796
3.98608
3.9837
3.98069
3.97687
3.97203
3.9659
3.95816
3.9484
3.93611
3.9207
3.90143
3.87747
3.84786
3.81157
3.76749
3.71457
3.65182
3.57859
3.4947
3.40054
3.29713
3.18607
3.07013
2.95041
2.83187
3.99438
3.99423
3.99403
3.99379
3.99349
3.9931
3.99261
3.992
3.99122
3.99024
3.98899
3.98742
3.98543
3.98292
3.97974
3.97572
3.97064
3.96423
3.95615
3.94599
3.93325
3.91731
3.89745
3.87281
3.84245
3.80535
3.76044
3.70667
3.64311
3.56912
3.48457
3.3899
3.28613
3.17494
3.0588
2.94058
2.82374
2.71312
2.6119
2.52388
3.99367
3.99333
3.99291
3.99239
3.99172
3.99089
3.98984
3.98851
3.98683
3.98472
3.98206
3.9787
3.97447
3.96914
3.96243
3.954
3.94344
3.93022
3.91373
3.89325
3.86792
3.83681
3.79891
3.75317
3.69857
3.63422
3.55953
3.47438
3.37924
3.27518
3.16382
3.04759
2.92929
2.81227
2.70065
2.59921
2.51168
2.44064
2.38518
2.34347
3.99214
3.99142
3.99052
3.98939
3.98797
3.98619
3.98394
3.98112
3.97757
3.97311
3.96752
3.96049
3.9517
3.9407
3.92698
3.90993
3.88881
3.86278
3.83091
3.7922
3.74563
3.69022
3.62511
3.54974
3.46405
3.36852
3.26423
3.15278
3.0365
2.91826
2.80107
2.68878
2.58603
2.49692
2.42379
2.36699
2.3249
2.29542
2.27548
2.26236
3.9889
3.98738
3.98547
3.98308
3.98009
3.97634
3.97164
3.96576
3.9584
3.94921
3.93776
3.92352
3.90588
3.8841
3.85735
3.82469
3.78516
3.73776
3.68154
3.61569
3.53969
3.4535
3.35763
3.25318
3.14173
3.02551
2.90742
2.79019
2.67744
2.57356
2.48281
2.40776
2.34894
2.30518
2.27418
2.25329
2.23995
2.23219
2.22837
2.22717
3.98468
3.98214
3.97896
3.97499
3.97003
3.96384
3.95612
3.94652
3.93459
3.91981
3.90155
3.87908
3.85157
3.81811
3.77775
3.72951
3.67248
3.6059
3.52929
3.44265
3.3465
3.24195
3.13057
3.01451
2.89657
2.77952
2.6665
2.56166
2.46938
2.39246
2.33171
2.28615
2.25359
2.2314
2.21707
2.20852
2.20432
2.20318
2.20401
2.20606
2.20905
3.9735
3.96826
3.96174
3.95364
3.9436
3.93116
3.91579
3.89688
3.87369
3.8454
3.81112
3.76989
3.7208
3.66296
3.59566
3.51847
3.43141
3.33503
3.23042
3.11919
3.00337
2.88564
2.76889
2.65579
2.55024
2.45657
2.37789
2.31524
2.26782
2.23364
2.21016
2.19481
2.18555
2.18066
2.17883
2.17934
2.18154
2.18449
2.18672
2.19058
2.1945
3.95944
3.95093
3.94041
3.92742
3.91145
3.89185
3.8679
3.83879
3.80364
3.76153
3.71156
3.6529
3.58488
3.50712
3.41967
3.3231
3.2185
3.10747
2.99197
2.87457
2.75818
2.6452
2.53917
2.44427
2.36391
2.29937
2.25014
2.21439
2.18955
2.17312
2.16296
2.1573
2.15509
2.15539
2.15708
2.15942
2.16269
2.16597
2.16906
2.1731
2.17795
2.18239
3.93692
3.92335
3.90672
3.88639
3.86164
3.83167
3.79562
3.7526
3.70172
3.64222
3.57347
3.49515
3.40733
3.31061
3.20607
3.09529
2.98021
2.86323
2.7472
2.63456
2.52829
2.43237
2.35047
2.28416
2.23313
2.1957
2.16948
2.15194
2.14087
2.13467
2.13197
2.13167
2.13298
2.13574
2.13814
2.14064
2.14457
2.14881
2.15279
2.15719
2.16177
2.16647
2.17091
3.88045
3.85485
3.82398
3.78698
3.743
3.69119
3.63083
3.56135
3.48246
3.3943
3.29746
3.19302
3.08254
2.96794
2.85149
2.73589
2.62373
2.51744
2.42079
2.33748
2.26947
2.21667
2.17763
2.15004
2.13136
2.11942
2.11243
2.10898
2.10831
2.10959
2.11164
2.11407
2.11719
2.1206
2.12365
2.12762
2.13234
2.13682
2.14139
2.14603
2.15059
2.15501
2.15938
3.81563
3.77764
3.73266
3.67988
3.61863
3.54839
3.46895
3.38045
3.28351
3.17923
3.06911
2.95505
2.83921
2.72417
2.61255
2.50649
2.40936
2.32482
2.25524
2.20075
2.16011
2.1311
2.11125
2.09835
2.09056
2.08667
2.08565
2.08643
2.08819
2.09106
2.09342
2.09596
2.09976
2.10395
2.10778
2.11193
2.11635
2.12089
2.12531
2.12978
2.13433
2.13883
2.14323
2.14747
3.72147
3.66768
3.60551
3.53451
3.45449
3.36567
3.26867
3.16457
3.05487
2.9414
2.82628
2.7119
2.60085
2.49525
2.39791
2.3124
2.24138
2.18531
2.14309
2.11269
2.09171
2.07786
2.06937
2.06485
2.06315
2.06359
2.06528
2.06755
2.06993
2.07313
2.07655
2.07957
2.0833
2.08774
2.09205
2.09631
2.10073
2.10513
2.10939
2.11365
2.11799
2.12235
2.12666
2.13084
2.1348
3.59137
3.51957
3.43898
3.34983
3.25279
3.14893
3.03969
2.92689
2.81256
2.69896
2.58855
2.48358
2.3863
2.3001
2.22779
2.17024
2.12652
2.09478
2.07262
2.05783
2.04857
2.04332
2.04115
2.04135
2.04276
2.04471
2.04748
2.05006
2.05253
2.05622
2.06027
2.06395
2.06782
2.07192
2.07627
2.0805
2.0847
2.08899
2.09326
2.09746
2.1016
2.10571
2.10977
2.11373
2.11755
2.1211
3.50345
3.42228
3.33282
3.23576
3.13217
3.02346
2.91138
2.79792
2.68521
2.57558
2.47131
2.37436
2.28776
2.21437
2.15548
2.11036
2.07727
2.05398
2.03823
2.02814
2.02233
2.01975
2.01942
2.02049
2.02257
2.0248
2.02692
2.03008
2.03375
2.03662
2.04009
2.04425
2.04842
2.05236
2.05647
2.06063
2.06473
2.06873
2.0728
2.07691
2.08099
2.08497
2.08885
2.09262
2.09628
2.0998
2.10313
2.10614
3.21745
3.11416
3.00603
2.89475
2.78223
2.67052
2.5618
2.45829
2.36193
2.27522
2.20101
2.14092
2.0945
2.06017
2.0358
2.01912
2.00827
2.00183
1.9986
1.99777
1.99874
2.00042
2.00238
2.00494
2.00806
2.01037
2.01371
2.01757
2.02133
2.02481
2.02856
2.03272
2.03675
2.04075
2.04483
2.04886
2.05275
2.05659
2.06043
2.06425
2.06801
2.07166
2.07516
2.0785
2.08167
2.08464
2.08737
2.08971
3.09477
2.98728
2.87687
2.76538
2.65477
2.54708
2.44446
2.34887
2.26233
2.1876
2.12646
2.07889
2.0434
2.01796
2.00038
1.98877
1.98164
1.97785
1.97672
1.97734
1.97877
1.98086
1.98325
1.98515
1.98828
1.99184
1.99494
1.99807
2.00176
2.00582
2.00954
2.01327
2.01711
2.02103
2.0249
2.02875
2.03263
2.03645
2.04017
2.04379
2.04733
2.05078
2.05412
2.05732
2.06033
2.06314
2.06571
2.06801
2.07002
2.07157
2.74723
2.63782
2.5313
2.4297
2.33498
2.24892
2.17397
2.11201
2.06343
2.02688
2.00045
1.98201
1.96965
1.96188
1.95764
1.95604
1.95624
1.95751
1.95925
1.96126
1.96374
1.96701
1.96939
1.97229
1.97591
1.97971
1.98295
1.98636
1.99015
1.99409
1.99776
2.00151
2.00529
2.009
2.01265
2.01627
2.01988
2.02342
2.02685
2.03014
2.03328
2.03629
2.03912
2.04176
2.04417
2.04632
2.04817
2.0497
2.05085
2.05147
2.4139
2.32017
2.23485
2.15997
2.09748
2.04803
2.01055
1.98323
1.96399
1.95091
1.94256
1.93779
1.93564
1.93553
1.93666
1.93818
1.94014
1.94276
1.94476
1.94756
1.95087
1.95435
1.95709
1.96035
1.96411
1.96786
1.97121
1.9747
1.97842
1.9821
1.98568
1.98931
1.99291
1.99641
1.99981
2.00314
2.00641
2.00958
2.0126
2.01545
2.01812
2.02058
2.02281
2.02479
2.02648
2.02785
2.02887
2.02948
2.02967
2.02924
2.14546
2.08273
2.0326
1.99434
1.96622
1.94624
1.93251
1.92357
1.91824
1.91567
1.91527
1.91613
1.91754
1.9194
1.92137
1.9236
1.92657
1.92969
1.932
1.93531
1.93886
1.94225
1.94526
1.94858
1.95235
1.95591
1.9593
1.96279
1.9663
1.96974
1.97314
1.97654
1.97988
1.98311
1.9862
1.98918
1.99203
1.99473
1.99726
1.99957
2.00165
2.00346
2.00499
2.0062
2.00706
2.00753
2.00759
2.00718
2.00628
2.00468
1.97816
1.94936
1.92872
1.91439
1.90489
1.89907
1.89613
1.89534
1.89593
1.89718
1.89873
1.90057
1.90304
1.90583
1.90787
1.91099
1.91436
1.91728
1.92003
1.92343
1.92703
1.9303
1.93338
1.93671
1.94034
1.94368
1.94702
1.95038
1.95367
1.95687
1.96
1.96309
1.96609
1.96896
1.97167
1.97421
1.97657
1.97873
1.98067
1.98234
1.98371
1.98477
1.98548
1.98581
1.98573
1.9852
1.98419
1.98265
1.98055
1.97769
1.89653
1.88652
1.88026
1.87691
1.87573
1.87608
1.87718
1.87857
1.88036
1.88265
1.8846
1.88732
1.89053
1.8931
1.89564
1.89897
1.90243
1.90526
1.90815
1.91152
1.91507
1.91821
1.92129
1.92457
1.92789
1.93106
1.93424
1.93738
1.94041
1.94332
1.94613
1.94885
1.95143
1.95385
1.95608
1.9581
1.95989
1.96141
1.96265
1.96357
1.96415
1.96435
1.96413
1.96348
1.96235
1.96071
1.95853
1.95577
1.9524
1.9482
1.85799
1.85647
1.85658
1.85753
1.85881
1.86038
1.86228
1.86436
1.86723
1.86978
1.87201
1.87514
1.87847
1.88088
1.88371
1.88703
1.89046
1.89323
1.8961
1.89942
1.90279
1.90581
1.90885
1.91195
1.91498
1.91793
1.92084
1.92369
1.92641
1.92898
1.9314
1.93367
1.93575
1.93765
1.93931
1.94071
1.94182
1.94261
1.94306
1.94314
1.94281
1.94204
1.94081
1.93907
1.9368
1.93397
1.93055
1.9265
1.9218
1.91622
1.8382
1.83934
1.84071
1.84239
1.84459
1.84714
1.84913
1.85189
1.85508
1.85733
1.86
1.86316
1.86645
1.86887
1.87173
1.87498
1.87828
1.88098
1.88381
1.88702
1.89009
1.89299
1.89591
1.89876
1.90151
1.90417
1.90675
1.90922
1.91155
1.91371
1.91568
1.91741
1.91894
1.92021
1.92121
1.92189
1.92223
1.9222
1.92177
1.92091
1.91958
1.91776
1.91541
1.91252
1.90904
1.90495
1.90024
1.89485
1.88879
1.88181
1.82299
1.825
1.82706
1.82932
1.83221
1.83463
1.8369
1.83988
1.84305
1.84519
1.84804
1.85115
1.85431
1.85672
1.85952
1.8627
1.86578
1.86842
1.87122
1.87416
1.87695
1.87967
1.88235
1.88492
1.88736
1.88967
1.89185
1.89389
1.89576
1.89742
1.89881
1.89996
1.90085
1.90142
1.90166
1.90154
1.90102
1.90007
1.89867
1.89678
1.89438
1.89143
1.88791
1.88379
1.87906
1.87368
1.86764
1.8609
1.85348
1.84512
1.80992
1.81256
1.81447
1.81715
1.82023
1.82232
1.82495
1.8279
1.83093
1.83308
1.83593
1.83899
1.84194
1.84432
1.84704
1.85011
1.8529
1.8555
1.85817
1.86079
1.86331
1.86575
1.86812
1.87035
1.87242
1.87432
1.87606
1.8776
1.87891
1.87996
1.88073
1.88122
1.88137
1.88116
1.88056
1.87955
1.87808
1.87614
1.87369
1.87071
1.86717
1.86304
1.8583
1.85293
1.84691
1.84023
1.83287
1.8248
1.81604
1.80634
1.79781
1.80028
1.80238
1.80518
1.80819
1.81014
1.81292
1.81584
1.81865
1.82082
1.82358
1.82658
1.82929
1.83163
1.83428
1.83708
1.83962
1.8421
1.84453
1.84686
1.84906
1.85116
1.85314
1.85497
1.85661
1.85805
1.85926
1.86021
1.86088
1.86127
1.86135
1.86107
1.86041
1.85934
1.85783
1.85585
1.85337
1.85037
1.84682
1.84269
1.83796
1.83262
1.82664
1.82001
1.81272
1.80475
1.7961
1.78674
1.77671
1.76574
1.78593
1.78799
1.79043
1.79318
1.796
1.79793
1.8007
1.8036
1.80615
1.80831
1.81097
1.81385
1.81632
1.81864
1.82113
1.82357
1.82588
1.82813
1.83027
1.83227
1.83411
1.83581
1.83735
1.83871
1.83985
1.84073
1.84133
1.84162
1.84162
1.84128
1.84056
1.83945
1.8379
1.8359
1.8334
1.8304
1.82685
1.82275
1.81805
1.81276
1.80683
1.80027
1.79306
1.78519
1.77665
1.76743
1.75755
1.74697
1.73575
1.72361
1.77393
1.77574
1.77835
1.78109
1.78359
1.78559
1.78826
1.79111
1.79341
1.79554
1.7981
1.80073
1.803
1.80524
1.80747
1.80959
1.81161
1.81353
1.81532
1.81694
1.81838
1.81963
1.82068
1.82149
1.82204
1.82227
1.82219
1.8218
1.82104
1.81989
1.81832
1.8163
1.8138
1.81081
1.80729
1.80321
1.79857
1.79333
1.78748
1.78101
1.7739
1.76614
1.75772
1.74865
1.73892
1.72853
1.71748
1.70578
1.69346
1.68027
1.76171
1.76346
1.76608
1.76882
1.771
1.77304
1.77559
1.77831
1.78042
1.78252
1.78491
1.78718
1.78928
1.79133
1.79326
1.79506
1.79673
1.79826
1.79964
1.80083
1.80181
1.80255
1.80303
1.80321
1.80307
1.80263
1.80184
1.80066
1.79908
1.79706
1.79457
1.7916
1.78811
1.78408
1.7795
1.77434
1.76858
1.76221
1.75521
1.74758
1.73931
1.7304
1.72083
1.71063
1.69978
1.6883
1.67621
1.66348
1.65018
1.63606
1.74926
1.75108
1.7536
1.75629
1.75826
1.76027
1.7627
1.76516
1.76716
1.76919
1.77127
1.77323
1.77509
1.77684
1.77845
1.77989
1.78116
1.78227
1.78319
1.78389
1.78432
1.78446
1.78428
1.78379
1.78296
1.78177
1.78019
1.77817
1.77571
1.77277
1.76932
1.76536
1.76085
1.75578
1.75012
1.74387
1.737
1.72952
1.72141
1.71266
1.70329
1.69328
1.68265
1.67139
1.65953
1.64707
1.63402
1.62039
1.60625
1.59133
1.73465
1.73664
1.73854
1.74094
1.7435
1.74533
1.74727
1.74955
1.75166
1.75356
1.75541
1.75718
1.75882
1.76036
1.76176
1.76299
1.76403
1.76487
1.7655
1.76589
1.76601
1.7658
1.76528
1.76443
1.76323
1.76165
1.75965
1.75722
1.75432
1.75093
1.74704
1.74261
1.73764
1.7321
1.72598
1.71926
1.71193
1.704
1.69544
1.68627
1.67647
1.66606
1.65505
1.64343
1.63123
1.61846
1.60513
1.59126
1.57686
1.56199
1.54641
1.7222
1.72393
1.72583
1.72812
1.73042
1.73218
1.73404
1.73603
1.73784
1.73954
1.74114
1.74259
1.74389
1.74504
1.74604
1.74685
1.74745
1.74779
1.74787
1.74764
1.7471
1.74624
1.74504
1.74347
1.7415
1.7391
1.73625
1.73293
1.72912
1.72479
1.71992
1.71451
1.70853
1.70197
1.69481
1.68706
1.67871
1.66975
1.66018
1.65002
1.63925
1.6279
1.61597
1.60348
1.59044
1.57687
1.5628
1.54823
1.53319
1.51774
1.50164
1.70709
1.7095
1.71112
1.71293
1.7151
1.71707
1.71877
1.72047
1.72211
1.72364
1.72506
1.72633
1.72744
1.72837
1.72911
1.72967
1.72999
1.73006
1.72982
1.72926
1.7284
1.7272
1.72565
1.72371
1.72136
1.71857
1.71532
1.7116
1.70737
1.70263
1.69735
1.69151
1.68512
1.67815
1.6706
1.66246
1.65372
1.6444
1.63448
1.62398
1.61291
1.60126
1.58907
1.57633
1.56308
1.54932
1.53508
1.52038
1.50525
1.4897
1.4738
1.45733
1.69441
1.69658
1.69815
1.69987
1.70177
1.70345
1.70501
1.70647
1.7078
1.70901
1.71008
1.71099
1.71171
1.71223
1.71251
1.71256
1.71231
1.71176
1.7109
1.70972
1.70819
1.70629
1.70399
1.70127
1.6981
1.69447
1.69036
1.68574
1.6806
1.67493
1.66871
1.66193
1.65458
1.64666
1.63817
1.62909
1.61944
1.60922
1.59843
1.58709
1.5752
1.56278
1.54985
1.53642
1.52252
1.50816
1.49338
1.47819
1.46262
1.44669
1.4305
1.4138
1.6816
1.68345
1.68498
1.68656
1.68812
1.68955
1.69087
1.69204
1.69305
1.6939
1.69458
1.69509
1.69537
1.6954
1.69515
1.6946
1.69375
1.6926
1.6911
1.68924
1.687
1.68435
1.68127
1.67774
1.67374
1.66926
1.66427
1.65876
1.65272
1.64614
1.63901
1.63132
1.62307
1.61425
1.60488
1.59494
1.58445
1.57341
1.56184
1.54975
1.53715
1.52407
1.51051
1.49651
1.48208
1.46725
1.45204
1.43648
1.42063
1.40447
1.3881
1.37128
1.66855
1.67013
1.67156
1.67292
1.67417
1.6753
1.67631
1.67715
1.67781
1.67828
1.67853
1.67856
1.67832
1.67779
1.67696
1.67583
1.67437
1.67257
1.67039
1.66781
1.66483
1.6614
1.65753
1.65318
1.64834
1.64301
1.63715
1.63078
1.62387
1.61641
1.60841
1.59986
1.59077
1.58112
1.57094
1.56022
1.54898
1.53722
1.52497
1.51223
1.49903
1.48539
1.47133
1.45686
1.44203
1.42684
1.41135
1.39556
1.37953
1.36325
1.34677
1.32989
1.65525
1.6566
1.65783
1.65892
1.65986
1.66066
1.66132
1.66179
1.66205
1.66207
1.66183
1.66131
1.66051
1.65942
1.65801
1.65626
1.65415
1.65165
1.64876
1.64545
1.6417
1.63749
1.63281
1.62765
1.62199
1.61582
1.60914
1.60192
1.59418
1.5859
1.57709
1.56775
1.55788
1.54748
1.53657
1.52516
1.51326
1.50089
1.48805
1.47478
1.46109
1.447
1.43254
1.41773
1.40261
1.3872
1.37154
1.35564
1.3395
1.32315
1.30668
1.28987
1.64171
1.64279
1.64375
1.64454
1.64517
1.64561
1.64587
1.64591
1.64569
1.64518
1.64441
1.64336
1.642
1.64031
1.63827
1.63587
1.63308
1.62988
1.62626
1.6222
1.61768
1.6127
1.60723
1.60127
1.59481
1.58784
1.58036
1.57236
1.56384
1.5548
1.54524
1.53518
1.52461
1.51355
1.50201
1.49
1.47754
1.46464
1.45134
1.43763
1.42356
1.40913
1.39439
1.37936
1.36407
1.34855
1.33279
1.31683
1.30069
1.28439
1.26802
1.25138
1.6279
1.62868
1.62933
1.62979
1.63004
1.63008
1.62986
1.62939
1.62866
1.62765
1.62635
1.62472
1.62277
1.62045
1.61776
1.61468
1.61119
1.60728
1.60293
1.59813
1.59286
1.58711
1.58088
1.57416
1.56694
1.55921
1.55098
1.54225
1.53302
1.52328
1.51306
1.50236
1.49118
1.47954
1.46746
1.45495
1.44203
1.42872
1.41503
1.401
1.38665
1.37201
1.3571
1.34196
1.32658
1.311
1.29523
1.27932
1.26328
1.24713
1.23097
1.21459
1.61425
1.61452
1.61459
1.61439
1.61395
1.61325
1.61229
1.61105
1.6095
1.60762
1.6054
1.60282
1.59986
1.59651
1.59274
1.58856
1.58393
1.57886
1.57333
1.56733
1.56086
1.5539
1.54645
1.53852
1.53009
1.52118
1.51178
1.50191
1.49156
1.48075
1.46949
1.45779
1.44567
1.43314
1.42022
1.40694
1.39331
1.37935
1.36511
1.35059
1.33583
1.32085
1.30565
1.29026
1.27472
1.25905
1.24327
1.22743
1.21153
1.19564
1.17957
1.59941
1.59923
1.59883
1.59819
1.59728
1.5961
1.59462
1.59283
1.59071
1.58824
1.5854
1.58218
1.57857
1.57455
1.57011
1.56524
1.55992
1.55415
1.54792
1.54123
1.53406
1.52642
1.5183
1.50971
1.50065
1.49112
1.48113
1.47069
1.45981
1.44849
1.43676
1.42463
1.41212
1.39924
1.38602
1.37247
1.35862
1.3445
1.33013
1.31554
1.30074
1.28574
1.27057
1.25527
1.23987
1.22438
1.20884
1.19326
1.17764
1.16209
1.1464
1.58406
1.58346
1.58261
1.5815
1.5801
1.57839
1.57637
1.57401
1.5713
1.56822
1.56476
1.56091
1.55665
1.55198
1.54688
1.54134
1.53535
1.52892
1.52203
1.51468
1.50687
1.4986
1.48987
1.48069
1.47106
1.46099
1.45048
1.43955
1.42822
1.41649
1.40438
1.3919
1.37909
1.36595
1.3525
1.33879
1.32482
1.31063
1.29622
1.28161
1.26683
1.25192
1.23688
1.22175
1.20657
1.19134
1.17607
1.16081
1.14556
1.13041
1.11517
1.56723
1.56591
1.5643
1.56238
1.56013
1.55755
1.55461
1.5513
1.54762
1.54355
1.53907
1.53418
1.52887
1.52313
1.51695
1.51034
1.50328
1.49577
1.48782
1.47943
1.47059
1.46132
1.45161
1.44148
1.43094
1.42
1.40867
1.39697
1.3849
1.3725
1.35977
1.34674
1.33343
1.31986
1.30607
1.29206
1.27785
1.26347
1.24893
1.23427
1.21952
1.20469
1.18982
1.1749
1.15997
1.14505
1.13017
1.11535
1.10066
1.08593
1.55054
1.54872
1.54659
1.54414
1.54134
1.53819
1.53467
1.53078
1.5265
1.52182
1.51674
1.51124
1.50532
1.49898
1.49221
1.485
1.47737
1.4693
1.46081
1.45189
1.44255
1.4328
1.42264
1.41209
1.40116
1.38986
1.3782
1.36621
1.3539
1.34128
1.32838
1.31522
1.30183
1.28823
1.27442
1.26043
1.24629
1.23201
1.21763
1.20317
1.18865
1.17408
1.15949
1.1449
1.13035
1.11584
1.10141
1.08707
1.0729
1.05871
1.53338
1.53106
1.5284
1.52541
1.52206
1.51835
1.51427
1.5098
1.50494
1.49968
1.49402
1.48794
1.48145
1.47455
1.46722
1.45948
1.45133
1.44276
1.43378
1.4244
1.41462
1.40447
1.39393
1.38303
1.37179
1.36021
1.34831
1.33611
1.32362
1.31087
1.29789
1.28469
1.27129
1.2577
1.24394
1.23005
1.21604
1.20195
1.1878
1.17358
1.15934
1.14508
1.13085
1.11666
1.10253
1.08849
1.07456
1.06073
1.04713
1.03352
1.51579
1.51295
1.50977
1.50624
1.50235
1.49809
1.49346
1.48843
1.48302
1.47721
1.471
1.46439
1.45738
1.44996
1.44213
1.43391
1.42529
1.41627
1.40688
1.3971
1.38696
1.37647
1.36563
1.35446
1.34297
1.33118
1.31911
1.30677
1.2942
1.2814
1.26841
1.25522
1.24186
1.22836
1.21474
1.20102
1.18723
1.17337
1.15947
1.14556
1.13165
1.11778
1.10396
1.09021
1.07656
1.06302
1.04962
1.03635
1.02334
1.01033
1.49779
1.49444
1.49075
1.48669
1.48228
1.47749
1.47233
1.46678
1.46085
1.45452
1.44781
1.4407
1.43321
1.42532
1.41706
1.40841
1.39938
1.38999
1.38024
1.37014
1.3597
1.34894
1.33786
1.32648
1.31483
1.30291
1.29074
1.27835
1.26576
1.25298
1.24002
1.22691
1.21366
1.20032
1.1869
1.1734
1.15985
1.14628
1.13271
1.11915
1.10564
1.0922
1.07883
1.06557
1.05243
1.03943
1.02659
1.01392
1.00151
0.989141
1.47944
1.47559
1.47139
1.46684
1.46192
1.45663
1.45097
1.44493
1.43851
1.43172
1.42454
1.41699
1.40907
1.40078
1.39212
1.3831
1.37374
1.36403
1.35399
1.34362
1.33296
1.32199
1.31075
1.29924
1.28748
1.2755
1.2633
1.25093
1.23837
1.22565
1.2128
1.19983
1.18678
1.17365
1.16045
1.14722
1.13398
1.12075
1.10756
1.09441
1.08134
1.06835
1.05548
1.04274
1.03014
1.0177
1.00546
0.993388
0.981615
0.969898
1.46079
1.45646
1.45178
1.44675
1.44135
1.43559
1.42947
1.42298
1.41612
1.4089
1.40132
1.39337
1.38508
1.37643
1.36744
1.35812
1.34847
1.3385
1.32824
1.31768
1.30684
1.29574
1.2844
1.27282
1.26103
1.24905
1.2369
1.22457
1.21211
1.19952
1.18684
1.17407
1.16123
1.14835
1.13545
1.12255
1.10966
1.09682
1.08404
1.07134
1.05873
1.04625
1.03389
1.0217
1.00966
0.997818
0.986177
0.974734
0.963606
0.952553
1.43712
1.43199
1.42651
1.42067
1.41448
1.40793
1.40104
1.39378
1.38618
1.37824
1.36995
1.36134
1.35239
1.34313
1.33356
1.32369
1.31353
1.3031
1.2924
1.28146
1.27029
1.2589
1.24732
1.23556
1.22364
1.21156
1.19935
1.18705
1.17465
1.16217
1.14964
1.13707
1.12449
1.11193
1.09939
1.08691
1.07449
1.06215
1.04993
1.03782
1.02586
1.01405
1.00242
0.990975
0.979731
0.968709
0.957898
0.947427
0.937044
1.41765
1.41209
1.4062
1.39996
1.39338
1.38645
1.37919
1.37159
1.36366
1.35541
1.34684
1.33795
1.32877
1.31929
1.30952
1.29949
1.2892
1.27866
1.26789
1.2569
1.24572
1.23435
1.22282
1.21113
1.19931
1.18737
1.17534
1.16322
1.15104
1.13882
1.12657
1.11433
1.1021
1.08991
1.07777
1.06572
1.05375
1.0419
1.03017
1.01859
1.00717
0.995924
0.98487
0.974023
0.963393
0.952996
0.942824
0.933007
0.923289
1.39811
1.39218
1.38591
1.3793
1.37237
1.36512
1.35754
1.34964
1.34143
1.33292
1.32411
1.31502
1.30564
1.296
1.2861
1.27596
1.26559
1.255
1.24421
1.23323
1.22209
1.21079
1.19935
1.18779
1.17613
1.16437
1.15254
1.14066
1.12875
1.11683
1.10491
1.09302
1.08117
1.06939
1.05769
1.04608
1.0346
1.02324
1.01204
1.00099
0.990129
0.979459
0.968997
0.958753
0.94874
0.938972
0.929439
0.920267
0.9112
1.37231
1.36571
1.35879
1.35155
1.34401
1.33616
1.32802
1.31958
1.31086
1.30187
1.29262
1.28311
1.27336
1.26338
1.25318
1.24278
1.23219
1.22143
1.21052
1.19946
1.18828
1.17698
1.16559
1.15411
1.14258
1.131
1.1194
1.10779
1.09621
1.08465
1.07315
1.06171
1.05036
1.03911
1.02799
1.017
1.00616
0.995485
0.984993
0.974697
0.964608
0.954739
0.945101
0.935704
0.926561
0.917663
0.909124
0.90069
1.35258
1.34569
1.33849
1.331
1.32321
1.31514
1.3068
1.29818
1.28931
1.28019
1.27082
1.26123
1.25142
1.24141
1.2312
1.22083
1.21029
1.19962
1.1888
1.17787
1.16685
1.15572
1.14453
1.13329
1.12202
1.11073
1.09944
1.08818
1.07696
1.06579
1.0547
1.0437
1.0328
1.02203
1.01139
1.00091
0.990602
0.980473
0.970539
0.960813
0.951307
0.942031
0.932995
0.924208
0.91568
0.907406
0.899485
0.891672
1.3259
1.31848
1.31077
1.3028
1.29455
1.28606
1.27731
1.26833
1.25912
1.24969
1.24007
1.23025
1.22025
1.21009
1.19979
1.18935
1.17878
1.16812
1.15735
1.14651
1.1356
1.12466
1.11368
1.10271
1.09174
1.0808
1.0699
1.05907
1.04832
1.03765
1.0271
1.01668
1.00639
0.996262
0.986303
0.976526
0.966944
0.95757
0.948415
0.939488
0.930799
0.922358
0.91417
0.906245
0.898576
0.891257
0.884045
1.30642
1.29881
1.29094
1.28282
1.27445
1.26585
1.25702
1.24798
1.23873
1.22929
1.21967
1.20989
1.19995
1.18988
1.17969
1.16938
1.15897
1.14847
1.1379
1.12729
1.11664
1.10597
1.0953
1.08465
1.07403
1.06345
1.05295
1.04252
1.0322
1.02198
1.0119
1.00195
0.992164
0.982546
0.973112
0.963871
0.954838
0.946021
0.937431
0.929076
0.920966
0.913107
0.905504
0.898164
0.891082
0.884342
0.87771
1.27953
1.27154
1.26332
1.25488
1.24622
1.23735
1.22829
1.21905
1.20964
1.20008
1.19038
1.18055
1.1706
1.16054
1.15039
1.14017
1.12988
1.11955
1.1092
1.09883
1.08847
1.07812
1.06782
1.05757
1.04739
1.03729
1.02729
1.0174
1.00765
0.998036
0.98858
0.979294
0.970191
0.961281
0.952577
0.944087
0.935821
0.927788
0.919995
0.91245
0.905157
0.898121
0.891347
0.884829
0.878644
0.872567
1.26067
1.25261
1.24434
1.23586
1.22719
1.21833
1.2093
1.20012
1.19079
1.18132
1.17174
1.16204
1.15224
1.14236
1.13241
1.12241
1.11236
1.1023
1.09223
1.08217
1.07214
1.06215
1.05221
1.04235
1.03257
1.02289
1.01333
1.00389
0.994605
0.985472
0.976509
0.967727
0.959136
0.950749
0.942574
0.93462
0.926896
0.919408
0.912163
0.905166
0.898422
0.891932
0.885701
0.879723
0.874067
0.868518
1.24222
1.23415
1.22587
1.21742
1.20878
1.19999
1.19104
1.18195
1.17274
1.1634
1.15396
1.14443
1.13482
1.12515
1.11543
1.10568
1.09591
1.08614
1.07638
1.06665
1.05697
1.04734
1.03779
1.02832
1.01896
1.00971
1.0006
0.991621
0.982803
0.974152
0.965681
0.9574
0.949318
0.941447
0.933793
0.926365
0.919169
0.912212
0.905498
0.899031
0.892814
0.886848
0.881136
0.87567
0.870516
0.865467
1.22416
1.21614
1.20794
1.19955
1.19101
1.18232
1.1735
1.16454
1.15547
1.1463
1.13705
1.12772
1.11833
1.1089
1.09944
1.08997
1.0805
1.07104
1.06162
1.05224
1.04292
1.03367
1.02452
1.01546
1.00652
0.997714
0.989047
0.980534
0.972187
0.964016
0.956034
0.948248
0.940669
0.933303
0.92616
0.919244
0.912562
0.906118
0.899916
0.893958
0.888245
0.882779
0.87756
0.87258
0.867898
0.863319
1.2065
1.19859
1.1905
1.18225
1.17385
1.1653
1.15663
1.14785
1.13898
1.13001
1.12098
1.11188
1.10275
1.09359
1.08442
1.07525
1.0661
1.05698
1.04791
1.0389
1.02996
1.0211
1.01235
1.00372
0.99521
0.986842
0.978626
0.970575
0.962697
0.955003
0.947503
0.940205
0.933117
0.926247
0.919599
0.913181
0.906995
0.901045
0.895334
0.889862
0.884631
0.879639
0.874886
0.870364
0.866126
0.861987
1.18915
1.18141
1.1735
1.16543
1.15721
1.14887
1.14041
1.13185
1.12321
1.11449
1.10572
1.0969
1.08805
1.07919
1.07034
1.0615
1.05269
1.04392
1.03521
1.02658
1.01803
1.00958
1.00125
0.993037
0.984963
0.977039
0.969275
0.961682
0.954269
0.947046
0.94002
0.9332
0.926592
0.920203
0.914036
0.908097
0.902388
0.896912
0.89167
0.886662
0.881887
0.877343
0.873029
0.868936
0.865113
0.861384
1.17195
1.16446
1.1568
1.14898
1.14103
1.13295
1.12476
1.11647
1.10811
1.09968
1.09121
1.0827
1.07418
1.06565
1.05714
1.04865
1.0402
1.03181
1.02348
1.01524
1.00709
0.999058
0.991143
0.983361
0.975724
0.968244
0.96093
0.953791
0.946837
0.940076
0.933515
0.927161
0.92102
0.915096
0.909393
0.903916
0.898664
0.89364
0.888844
0.884275
0.879931
0.87581
0.871907
0.868216
0.86478
0.861432
1.14757
1.14025
1.13278
1.12516
1.11742
1.10956
1.10162
1.09359
1.0855
1.07738
1.06922
1.06106
1.05289
1.04475
1.03664
1.02857
1.02057
1.01265
1.00481
0.997081
0.989465
0.981976
0.974627
0.967429
0.96039
0.953523
0.946833
0.94033
0.934022
0.927915
0.922014
0.916325
0.910851
0.905595
0.900559
0.895744
0.891151
0.886778
0.882624
0.878686
0.874961
0.871443
0.868127
0.865048
0.862054
1.1305
1.12365
1.11663
1.10944
1.10212
1.09468
1.08714
1.07952
1.07184
1.06411
1.05636
1.04859
1.04083
1.03309
1.02538
1.01773
1.01014
1.00264
0.995223
0.987917
0.98073
0.973675
0.966763
0.960003
0.953406
0.94698
0.940734
0.934676
0.928811
0.923146
0.917685
0.912433
0.907392
0.902564
0.897951
0.893552
0.889367
0.885395
0.881632
0.878076
0.874721
0.871563
0.868594
0.865848
0.863179
1.11294
1.1067
1.10025
1.09362
1.08684
1.07991
1.07287
1.06574
1.05853
1.05127
1.04396
1.03665
1.02934
1.02205
1.01478
1.00757
1.00043
0.993358
0.986385
0.979519
0.972772
0.966158
0.959687
0.953368
0.947212
0.941225
0.935418
0.929796
0.924366
0.919131
0.914097
0.909267
0.904643
0.900226
0.896016
0.892013
0.888216
0.884621
0.881227
0.878028
0.875019
0.872195