/*--------------------------------*- C++ -*----------------------------------*\
| =========                 |                                                 |
| \\      /  F ield         | OpenFOAM: The Open Source CFD Toolbox           |
|  \\    /   O peration     | Version:  v1706                                 |
|   \\  /    A nd           | Web:      www.OpenFOAM.com                      |
|    \\/     M anipulation  |                                                 |
\*---------------------------------------------------------------------------*/
FoamFile
{
    version     2.0;
    format      ascii;
    class       volScalarField;
    location    "1.1e-05";
    object      mu;
}
// * * * * * * * * * * * * * * * * * * * * * * * * * * * * * * * * * * * * * //

dimensions      [1 -1 -1 0 0 0 0];


internalField   nonuniform List<scalar> 
30038
(
1.0351e-05
1.0351e-05
1.0351e-05
1.0351e-05
1.0351e-05
1.0351e-05
1.0351e-05
1.0351e-05
1.0351e-05
1.0351e-05
1.0351e-05
1.0351e-05
1.0351e-05
1.0351e-05
1.0351e-05
1.0351e-05
1.0351e-05
1.0351e-05
1.0351e-05
1.0351e-05
1.0351e-05
1.0351e-05
1.0351e-05
1.0351e-05
1.0351e-05
1.0351e-05
1.0351e-05
1.0351e-05
1.0351e-05
1.0351e-05
1.0351e-05
1.0351e-05
1.0351e-05
1.0351e-05
1.0351e-05
1.0351e-05
1.03511e-05
1.03511e-05
1.0351e-05
1.0351e-05
1.0351e-05
1.0351e-05
1.0351e-05
1.0351e-05
1.0351e-05
1.0351e-05
1.0351e-05
1.0351e-05
1.0351e-05
1.0351e-05
1.0351e-05
1.0351e-05
1.0351e-05
1.0351e-05
1.0351e-05
1.0351e-05
1.0351e-05
1.0351e-05
1.0351e-05
1.0351e-05
1.0351e-05
1.0351e-05
1.0351e-05
1.0351e-05
1.0351e-05
1.0351e-05
1.0351e-05
1.0351e-05
1.03511e-05
1.03511e-05
1.03511e-05
1.03511e-05
1.03512e-05
1.03512e-05
1.03513e-05
1.03513e-05
1.0351e-05
1.0351e-05
1.0351e-05
1.0351e-05
1.0351e-05
1.0351e-05
1.0351e-05
1.0351e-05
1.0351e-05
1.0351e-05
1.0351e-05
1.0351e-05
1.0351e-05
1.0351e-05
1.0351e-05
1.0351e-05
1.0351e-05
1.0351e-05
1.0351e-05
1.0351e-05
1.0351e-05
1.0351e-05
1.0351e-05
1.0351e-05
1.0351e-05
1.0351e-05
1.03511e-05
1.03511e-05
1.03511e-05
1.03511e-05
1.03512e-05
1.03512e-05
1.03513e-05
1.03513e-05
1.03514e-05
1.03516e-05
1.03517e-05
1.0352e-05
1.0351e-05
1.0351e-05
1.0351e-05
1.0351e-05
1.0351e-05
1.0351e-05
1.0351e-05
1.0351e-05
1.0351e-05
1.0351e-05
1.0351e-05
1.0351e-05
1.0351e-05
1.0351e-05
1.0351e-05
1.0351e-05
1.0351e-05
1.0351e-05
1.0351e-05
1.0351e-05
1.0351e-05
1.0351e-05
1.0351e-05
1.03511e-05
1.03511e-05
1.03511e-05
1.03511e-05
1.03512e-05
1.03512e-05
1.03513e-05
1.03514e-05
1.03515e-05
1.03516e-05
1.03518e-05
1.03521e-05
1.03524e-05
1.03529e-05
1.03535e-05
1.0351e-05
1.0351e-05
1.0351e-05
1.0351e-05
1.0351e-05
1.0351e-05
1.0351e-05
1.0351e-05
1.0351e-05
1.0351e-05
1.0351e-05
1.0351e-05
1.0351e-05
1.0351e-05
1.0351e-05
1.0351e-05
1.0351e-05
1.0351e-05
1.0351e-05
1.03511e-05
1.03511e-05
1.03511e-05
1.03511e-05
1.03512e-05
1.03512e-05
1.03513e-05
1.03513e-05
1.03514e-05
1.03516e-05
1.03517e-05
1.03519e-05
1.03522e-05
1.03526e-05
1.0353e-05
1.03537e-05
1.03545e-05
1.03555e-05
1.03569e-05
1.0351e-05
1.0351e-05
1.0351e-05
1.0351e-05
1.0351e-05
1.0351e-05
1.0351e-05
1.0351e-05
1.0351e-05
1.0351e-05
1.0351e-05
1.0351e-05
1.0351e-05
1.0351e-05
1.0351e-05
1.03511e-05
1.03511e-05
1.03511e-05
1.03511e-05
1.03511e-05
1.03512e-05
1.03512e-05
1.03513e-05
1.03514e-05
1.03515e-05
1.03516e-05
1.03518e-05
1.0352e-05
1.03523e-05
1.03527e-05
1.03532e-05
1.03539e-05
1.03548e-05
1.03559e-05
1.03573e-05
1.03592e-05
1.03617e-05
1.0365e-05
1.0351e-05
1.0351e-05
1.0351e-05
1.0351e-05
1.0351e-05
1.0351e-05
1.0351e-05
1.0351e-05
1.0351e-05
1.0351e-05
1.0351e-05
1.0351e-05
1.03511e-05
1.03511e-05
1.03511e-05
1.03511e-05
1.03512e-05
1.03512e-05
1.03513e-05
1.03513e-05
1.03514e-05
1.03515e-05
1.03517e-05
1.03519e-05
1.03521e-05
1.03525e-05
1.03529e-05
1.03534e-05
1.03542e-05
1.03551e-05
1.03563e-05
1.03578e-05
1.03598e-05
1.03623e-05
1.03657e-05
1.037e-05
1.03757e-05
1.03832e-05
1.0351e-05
1.0351e-05
1.0351e-05
1.0351e-05
1.0351e-05
1.0351e-05
1.0351e-05
1.0351e-05
1.03511e-05
1.03511e-05
1.03511e-05
1.03511e-05
1.03511e-05
1.03512e-05
1.03512e-05
1.03513e-05
1.03514e-05
1.03515e-05
1.03516e-05
1.03518e-05
1.0352e-05
1.03523e-05
1.03526e-05
1.03531e-05
1.03537e-05
1.03544e-05
1.03554e-05
1.03567e-05
1.03583e-05
1.03604e-05
1.03632e-05
1.03667e-05
1.03712e-05
1.03771e-05
1.03846e-05
1.03944e-05
1.04072e-05
1.0424e-05
1.0351e-05
1.0351e-05
1.0351e-05
1.0351e-05
1.0351e-05
1.0351e-05
1.03511e-05
1.03511e-05
1.03511e-05
1.03511e-05
1.03512e-05
1.03512e-05
1.03512e-05
1.03513e-05
1.03514e-05
1.03515e-05
1.03517e-05
1.03518e-05
1.03521e-05
1.03524e-05
1.03528e-05
1.03533e-05
1.03539e-05
1.03547e-05
1.03558e-05
1.03571e-05
1.03589e-05
1.03611e-05
1.0364e-05
1.03677e-05
1.03725e-05
1.03787e-05
1.03866e-05
1.03968e-05
1.04099e-05
1.04268e-05
1.04485e-05
1.04765e-05
1.05131e-05
1.0351e-05
1.0351e-05
1.03511e-05
1.03511e-05
1.03511e-05
1.03511e-05
1.03511e-05
1.03512e-05
1.03512e-05
1.03513e-05
1.03514e-05
1.03514e-05
1.03516e-05
1.03517e-05
1.03519e-05
1.03522e-05
1.03525e-05
1.03529e-05
1.03535e-05
1.03542e-05
1.0355e-05
1.03562e-05
1.03576e-05
1.03595e-05
1.03619e-05
1.03649e-05
1.03689e-05
1.03739e-05
1.03804e-05
1.03888e-05
1.03995e-05
1.04131e-05
1.04307e-05
1.04531e-05
1.04818e-05
1.05183e-05
1.0565e-05
1.06246e-05
1.0701e-05
1.03511e-05
1.03511e-05
1.03511e-05
1.03512e-05
1.03512e-05
1.03512e-05
1.03513e-05
1.03514e-05
1.03515e-05
1.03516e-05
1.03518e-05
1.0352e-05
1.03523e-05
1.03527e-05
1.03531e-05
1.03537e-05
1.03544e-05
1.03554e-05
1.03566e-05
1.03582e-05
1.03601e-05
1.03627e-05
1.03659e-05
1.03701e-05
1.03755e-05
1.03823e-05
1.0391e-05
1.04022e-05
1.04166e-05
1.04348e-05
1.04582e-05
1.04879e-05
1.05256e-05
1.05735e-05
1.0634e-05
1.07102e-05
1.08057e-05
1.09253e-05
1.10745e-05
1.03511e-05
1.03512e-05
1.03512e-05
1.03513e-05
1.03514e-05
1.03514e-05
1.03516e-05
1.03517e-05
1.03519e-05
1.03521e-05
1.03524e-05
1.03528e-05
1.03533e-05
1.0354e-05
1.03548e-05
1.03558e-05
1.03571e-05
1.03587e-05
1.03609e-05
1.03636e-05
1.0367e-05
1.03714e-05
1.03771e-05
1.03843e-05
1.03935e-05
1.04052e-05
1.04202e-05
1.04392e-05
1.04635e-05
1.04943e-05
1.05334e-05
1.05828e-05
1.0645e-05
1.0723e-05
1.08204e-05
1.0941e-05
1.10893e-05
1.12698e-05
1.14879e-05
1.17484e-05
1.03513e-05
1.03514e-05
1.03515e-05
1.03516e-05
1.03518e-05
1.0352e-05
1.03523e-05
1.03526e-05
1.0353e-05
1.03536e-05
1.03542e-05
1.03551e-05
1.03562e-05
1.03576e-05
1.03594e-05
1.03616e-05
1.03645e-05
1.03682e-05
1.03729e-05
1.03788e-05
1.03864e-05
1.03961e-05
1.04084e-05
1.0424e-05
1.04439e-05
1.04691e-05
1.0501e-05
1.05415e-05
1.05924e-05
1.06564e-05
1.07365e-05
1.08361e-05
1.09592e-05
1.11099e-05
1.12925e-05
1.1511e-05
1.17689e-05
1.20686e-05
1.24111e-05
1.27942e-05
1.03517e-05
1.03519e-05
1.03521e-05
1.03524e-05
1.03528e-05
1.03532e-05
1.03538e-05
1.03545e-05
1.03555e-05
1.03567e-05
1.03582e-05
1.03601e-05
1.03625e-05
1.03656e-05
1.03695e-05
1.03744e-05
1.03807e-05
1.03887e-05
1.03989e-05
1.04117e-05
1.04281e-05
1.04488e-05
1.0475e-05
1.05081e-05
1.05499e-05
1.06025e-05
1.06683e-05
1.07505e-05
1.08524e-05
1.09779e-05
1.11312e-05
1.13165e-05
1.15375e-05
1.17975e-05
1.20984e-05
1.24396e-05
1.28175e-05
1.32261e-05
1.36577e-05
1.41015e-05
1.03526e-05
1.0353e-05
1.03535e-05
1.03541e-05
1.03549e-05
1.03559e-05
1.03572e-05
1.03588e-05
1.03609e-05
1.03634e-05
1.03667e-05
1.03709e-05
1.03761e-05
1.03828e-05
1.03912e-05
1.04019e-05
1.04154e-05
1.04324e-05
1.0454e-05
1.04813e-05
1.05156e-05
1.05588e-05
1.0613e-05
1.06807e-05
1.0765e-05
1.08691e-05
1.09972e-05
1.11531e-05
1.13409e-05
1.15645e-05
1.18268e-05
1.21297e-05
1.24724e-05
1.28513e-05
1.32595e-05
1.36882e-05
1.41241e-05
1.45487e-05
1.49417e-05
1.52906e-05
1.03544e-05
1.03553e-05
1.03564e-05
1.03578e-05
1.03595e-05
1.03617e-05
1.03645e-05
1.0368e-05
1.03724e-05
1.0378e-05
1.0385e-05
1.03939e-05
1.04051e-05
1.04193e-05
1.04371e-05
1.04596e-05
1.0488e-05
1.05236e-05
1.05683e-05
1.06242e-05
1.06938e-05
1.07801e-05
1.08866e-05
1.10171e-05
1.11755e-05
1.1366e-05
1.15919e-05
1.18564e-05
1.21611e-05
1.25053e-05
1.28853e-05
1.32941e-05
1.3723e-05
1.41596e-05
1.45863e-05
1.49815e-05
1.53267e-05
1.5611e-05
1.5832e-05
1.60002e-05
1.03584e-05
1.03603e-05
1.03627e-05
1.03656e-05
1.03694e-05
1.03741e-05
1.038e-05
1.03874e-05
1.03968e-05
1.04086e-05
1.04235e-05
1.04422e-05
1.04657e-05
1.04952e-05
1.05321e-05
1.05783e-05
1.06359e-05
1.07075e-05
1.0796e-05
1.09049e-05
1.10378e-05
1.11988e-05
1.13917e-05
1.16201e-05
1.18866e-05
1.21929e-05
1.25382e-05
1.29191e-05
1.33284e-05
1.37572e-05
1.41943e-05
1.46232e-05
1.50228e-05
1.5374e-05
1.56645e-05
1.58913e-05
1.60594e-05
1.61787e-05
1.62587e-05
1.63117e-05
1.03669e-05
1.03709e-05
1.03759e-05
1.03822e-05
1.03901e-05
1.04e-05
1.04125e-05
1.04281e-05
1.04477e-05
1.04722e-05
1.05029e-05
1.05412e-05
1.05891e-05
1.06485e-05
1.07221e-05
1.08128e-05
1.09241e-05
1.10595e-05
1.12231e-05
1.14185e-05
1.16491e-05
1.19176e-05
1.22253e-05
1.25717e-05
1.29531e-05
1.33627e-05
1.3791e-05
1.42281e-05
1.46584e-05
1.50619e-05
1.54189e-05
1.57161e-05
1.59499e-05
1.61244e-05
1.62483e-05
1.63321e-05
1.63854e-05
1.64174e-05
1.64349e-05
1.64427e-05
1.0378e-05
1.03847e-05
1.03931e-05
1.04036e-05
1.04167e-05
1.04331e-05
1.04536e-05
1.04793e-05
1.05112e-05
1.05511e-05
1.06006e-05
1.06619e-05
1.07376e-05
1.08306e-05
1.09444e-05
1.10824e-05
1.12485e-05
1.14464e-05
1.16793e-05
1.19496e-05
1.22588e-05
1.26059e-05
1.29876e-05
1.33972e-05
1.38251e-05
1.42615e-05
1.46925e-05
1.50992e-05
1.54614e-05
1.57653e-05
1.6006e-05
1.61867e-05
1.6316e-05
1.64042e-05
1.6461e-05
1.6495e-05
1.65142e-05
1.65231e-05
1.6523e-05
1.65193e-05
1.65127e-05
1.04074e-05
1.04213e-05
1.04386e-05
1.04601e-05
1.04869e-05
1.05203e-05
1.05617e-05
1.0613e-05
1.06763e-05
1.07542e-05
1.08497e-05
1.0966e-05
1.11066e-05
1.12754e-05
1.14758e-05
1.17109e-05
1.19831e-05
1.22935e-05
1.26412e-05
1.3023e-05
1.34323e-05
1.38598e-05
1.42951e-05
1.47261e-05
1.51351e-05
1.55021e-05
1.58122e-05
1.60595e-05
1.62467e-05
1.63817e-05
1.64745e-05
1.65349e-05
1.65715e-05
1.65925e-05
1.66024e-05
1.66032e-05
1.66005e-05
1.65948e-05
1.65847e-05
1.65751e-05
1.65655e-05
1.04446e-05
1.04672e-05
1.04953e-05
1.05301e-05
1.05732e-05
1.06264e-05
1.06918e-05
1.07721e-05
1.08701e-05
1.0989e-05
1.11325e-05
1.13039e-05
1.15069e-05
1.17443e-05
1.20182e-05
1.23298e-05
1.26781e-05
1.30597e-05
1.34685e-05
1.38952e-05
1.43292e-05
1.47597e-05
1.517e-05
1.55412e-05
1.58571e-05
1.6111e-05
1.63046e-05
1.6445e-05
1.65422e-05
1.66063e-05
1.66459e-05
1.66687e-05
1.66807e-05
1.66832e-05
1.66807e-05
1.66746e-05
1.66663e-05
1.66575e-05
1.66463e-05
1.66345e-05
1.6624e-05
1.6613e-05
1.05045e-05
1.05409e-05
1.05858e-05
1.0641e-05
1.07087e-05
1.07914e-05
1.0892e-05
1.10138e-05
1.11601e-05
1.13344e-05
1.15399e-05
1.17796e-05
1.20554e-05
1.23681e-05
1.27168e-05
1.30982e-05
1.35061e-05
1.39319e-05
1.43646e-05
1.47937e-05
1.52046e-05
1.55791e-05
1.59004e-05
1.61605e-05
1.63602e-05
1.65063e-05
1.66085e-05
1.66764e-05
1.67189e-05
1.67438e-05
1.67572e-05
1.6761e-05
1.67594e-05
1.67549e-05
1.67475e-05
1.67366e-05
1.67269e-05
1.67172e-05
1.6706e-05
1.6694e-05
1.6682e-05
1.66707e-05
1.66594e-05
1.06569e-05
1.0727e-05
1.08123e-05
1.09158e-05
1.10405e-05
1.11898e-05
1.1367e-05
1.15753e-05
1.18174e-05
1.2095e-05
1.24088e-05
1.27579e-05
1.31389e-05
1.35457e-05
1.39702e-05
1.44015e-05
1.48288e-05
1.52395e-05
1.56163e-05
1.59423e-05
1.62084e-05
1.64142e-05
1.65659e-05
1.66728e-05
1.67443e-05
1.67898e-05
1.6817e-05
1.68318e-05
1.68377e-05
1.6837e-05
1.68326e-05
1.68252e-05
1.68168e-05
1.68085e-05
1.6797e-05
1.67851e-05
1.67747e-05
1.67642e-05
1.67527e-05
1.67409e-05
1.67293e-05
1.67179e-05
1.67069e-05
1.08351e-05
1.09416e-05
1.10694e-05
1.12218e-05
1.14021e-05
1.16133e-05
1.18578e-05
1.21373e-05
1.24523e-05
1.28017e-05
1.31821e-05
1.35878e-05
1.40106e-05
1.44403e-05
1.48655e-05
1.52752e-05
1.56533e-05
1.59834e-05
1.62548e-05
1.64664e-05
1.66235e-05
1.6735e-05
1.68106e-05
1.68592e-05
1.68886e-05
1.69052e-05
1.69127e-05
1.69128e-05
1.69095e-05
1.69037e-05
1.68955e-05
1.68847e-05
1.68752e-05
1.68661e-05
1.68557e-05
1.68441e-05
1.68324e-05
1.68217e-05
1.6811e-05
1.67998e-05
1.67886e-05
1.67777e-05
1.67674e-05
1.67578e-05
1.11008e-05
1.12566e-05
1.14401e-05
1.16542e-05
1.19013e-05
1.21828e-05
1.2499e-05
1.28486e-05
1.32284e-05
1.36327e-05
1.40536e-05
1.44813e-05
1.49045e-05
1.53123e-05
1.56907e-05
1.60239e-05
1.63002e-05
1.65172e-05
1.66796e-05
1.67959e-05
1.68755e-05
1.69272e-05
1.69589e-05
1.69772e-05
1.69859e-05
1.69872e-05
1.69849e-05
1.6979e-05
1.69711e-05
1.69631e-05
1.69551e-05
1.69438e-05
1.69322e-05
1.69224e-05
1.69129e-05
1.69023e-05
1.68913e-05
1.68804e-05
1.68698e-05
1.68594e-05
1.68492e-05
1.68393e-05
1.68298e-05
1.6821e-05
1.68132e-05
1.14813e-05
1.16986e-05
1.19483e-05
1.22319e-05
1.25493e-05
1.28991e-05
1.32782e-05
1.3681e-05
1.40998e-05
1.4525e-05
1.4946e-05
1.53513e-05
1.57292e-05
1.60644e-05
1.6345e-05
1.6567e-05
1.67344e-05
1.68552e-05
1.69384e-05
1.69932e-05
1.70274e-05
1.70473e-05
1.70578e-05
1.70606e-05
1.70588e-05
1.70538e-05
1.70471e-05
1.70394e-05
1.70289e-05
1.70197e-05
1.70112e-05
1.70017e-05
1.69906e-05
1.69795e-05
1.69697e-05
1.69601e-05
1.695e-05
1.69398e-05
1.69298e-05
1.69203e-05
1.69111e-05
1.69024e-05
1.68942e-05
1.68865e-05
1.68795e-05
1.68737e-05
1.17467e-05
1.19993e-05
1.2285e-05
1.26036e-05
1.29537e-05
1.3332e-05
1.37331e-05
1.41495e-05
1.45721e-05
1.49903e-05
1.5393e-05
1.57694e-05
1.61055e-05
1.63894e-05
1.66158e-05
1.67879e-05
1.69129e-05
1.70001e-05
1.70581e-05
1.70947e-05
1.71165e-05
1.71284e-05
1.71324e-05
1.71313e-05
1.71277e-05
1.71214e-05
1.71127e-05
1.71047e-05
1.70972e-05
1.70869e-05
1.70757e-05
1.70664e-05
1.7058e-05
1.70484e-05
1.70381e-05
1.7028e-05
1.70185e-05
1.70094e-05
1.70003e-05
1.69913e-05
1.69827e-05
1.69746e-05
1.69671e-05
1.69602e-05
1.69538e-05
1.69482e-05
1.69435e-05
1.69399e-05
1.26625e-05
1.30129e-05
1.33903e-05
1.37896e-05
1.42034e-05
1.46228e-05
1.50379e-05
1.54377e-05
1.58117e-05
1.61477e-05
1.6434e-05
1.66643e-05
1.68406e-05
1.69697e-05
1.70605e-05
1.71215e-05
1.71604e-05
1.71841e-05
1.71972e-05
1.72027e-05
1.72027e-05
1.71995e-05
1.71934e-05
1.71864e-05
1.71798e-05
1.71699e-05
1.71602e-05
1.7152e-05
1.7144e-05
1.71337e-05
1.7123e-05
1.71141e-05
1.71058e-05
1.70968e-05
1.70876e-05
1.70786e-05
1.70701e-05
1.70619e-05
1.70542e-05
1.70467e-05
1.70398e-05
1.70335e-05
1.70279e-05
1.7023e-05
1.70188e-05
1.70156e-05
1.70133e-05
1.70123e-05
1.30771e-05
1.34536e-05
1.38508e-05
1.42618e-05
1.46779e-05
1.50894e-05
1.54859e-05
1.58567e-05
1.61916e-05
1.64792e-05
1.67127e-05
1.68927e-05
1.70255e-05
1.71196e-05
1.71834e-05
1.72248e-05
1.72502e-05
1.72648e-05
1.72719e-05
1.72726e-05
1.72702e-05
1.72653e-05
1.72592e-05
1.72503e-05
1.72425e-05
1.72352e-05
1.7227e-05
1.72164e-05
1.72069e-05
1.71993e-05
1.7191e-05
1.71816e-05
1.71722e-05
1.71638e-05
1.71559e-05
1.71479e-05
1.71399e-05
1.71323e-05
1.71251e-05
1.71184e-05
1.71123e-05
1.71067e-05
1.71017e-05
1.70975e-05
1.7094e-05
1.70914e-05
1.70897e-05
1.7089e-05
1.70895e-05
1.70913e-05
1.43253e-05
1.47376e-05
1.51452e-05
1.55378e-05
1.59051e-05
1.62379e-05
1.65256e-05
1.67613e-05
1.69444e-05
1.70805e-05
1.71777e-05
1.72443e-05
1.72881e-05
1.73153e-05
1.73313e-05
1.73395e-05
1.73413e-05
1.73398e-05
1.73353e-05
1.73288e-05
1.73219e-05
1.73158e-05
1.73072e-05
1.72972e-05
1.72894e-05
1.72824e-05
1.72737e-05
1.72638e-05
1.72551e-05
1.7248e-05
1.72401e-05
1.72318e-05
1.72237e-05
1.72162e-05
1.72092e-05
1.72024e-05
1.71959e-05
1.71898e-05
1.71843e-05
1.71794e-05
1.71752e-05
1.71716e-05
1.71688e-05
1.71668e-05
1.71657e-05
1.71657e-05
1.71667e-05
1.71688e-05
1.71723e-05
1.71773e-05
1.55939e-05
1.59574e-05
1.62869e-05
1.65736e-05
1.68106e-05
1.69961e-05
1.71351e-05
1.72351e-05
1.73043e-05
1.73501e-05
1.7379e-05
1.73964e-05
1.74056e-05
1.74087e-05
1.74079e-05
1.74042e-05
1.73984e-05
1.73927e-05
1.73848e-05
1.73767e-05
1.73696e-05
1.73633e-05
1.73538e-05
1.73442e-05
1.73368e-05
1.73302e-05
1.73221e-05
1.73132e-05
1.73056e-05
1.72989e-05
1.7292e-05
1.72849e-05
1.72782e-05
1.72719e-05
1.72662e-05
1.72609e-05
1.72561e-05
1.72518e-05
1.72481e-05
1.72452e-05
1.72431e-05
1.72418e-05
1.72414e-05
1.72419e-05
1.72435e-05
1.72462e-05
1.72501e-05
1.72553e-05
1.72618e-05
1.72701e-05
1.66239e-05
1.6861e-05
1.70483e-05
1.71895e-05
1.72918e-05
1.73632e-05
1.7411e-05
1.74416e-05
1.74602e-05
1.74707e-05
1.7475e-05
1.74747e-05
1.74719e-05
1.74669e-05
1.74608e-05
1.74538e-05
1.74471e-05
1.74411e-05
1.74315e-05
1.74234e-05
1.74169e-05
1.74105e-05
1.74015e-05
1.73927e-05
1.73863e-05
1.73801e-05
1.73728e-05
1.73654e-05
1.73588e-05
1.73528e-05
1.73471e-05
1.73414e-05
1.73361e-05
1.73314e-05
1.73272e-05
1.73236e-05
1.73207e-05
1.73184e-05
1.73168e-05
1.73162e-05
1.73164e-05
1.73175e-05
1.73197e-05
1.7323e-05
1.73274e-05
1.7333e-05
1.734e-05
1.73483e-05
1.73581e-05
1.73697e-05
1.72439e-05
1.73481e-05
1.74214e-05
1.7471e-05
1.75032e-05
1.75231e-05
1.75346e-05
1.754e-05
1.75404e-05
1.75383e-05
1.75336e-05
1.75278e-05
1.7522e-05
1.75165e-05
1.75079e-05
1.75009e-05
1.74947e-05
1.74881e-05
1.74786e-05
1.74713e-05
1.74655e-05
1.74593e-05
1.74513e-05
1.74437e-05
1.74382e-05
1.74326e-05
1.74264e-05
1.74204e-05
1.7415e-05
1.74102e-05
1.74057e-05
1.74016e-05
1.7398e-05
1.7395e-05
1.73926e-05
1.7391e-05
1.73901e-05
1.739e-05
1.73907e-05
1.73924e-05
1.73951e-05
1.73989e-05
1.74039e-05
1.741e-05
1.74174e-05
1.74261e-05
1.74362e-05
1.74477e-05
1.74608e-05
1.74756e-05
1.75303e-05
1.75638e-05
1.75849e-05
1.75973e-05
1.76036e-05
1.76049e-05
1.76034e-05
1.75994e-05
1.75942e-05
1.7589e-05
1.75821e-05
1.75757e-05
1.75701e-05
1.75636e-05
1.75546e-05
1.75482e-05
1.75429e-05
1.75361e-05
1.75276e-05
1.75211e-05
1.75163e-05
1.75106e-05
1.75037e-05
1.74976e-05
1.74928e-05
1.74881e-05
1.74833e-05
1.74787e-05
1.74747e-05
1.74712e-05
1.74683e-05
1.74659e-05
1.74641e-05
1.74629e-05
1.74626e-05
1.7463e-05
1.74643e-05
1.74666e-05
1.74698e-05
1.74741e-05
1.74794e-05
1.7486e-05
1.74938e-05
1.75029e-05
1.75134e-05
1.75252e-05
1.75384e-05
1.75531e-05
1.75693e-05
1.75872e-05
1.7659e-05
1.76661e-05
1.76683e-05
1.76673e-05
1.76641e-05
1.76593e-05
1.7654e-05
1.76481e-05
1.76426e-05
1.7637e-05
1.76289e-05
1.7623e-05
1.76181e-05
1.76108e-05
1.76027e-05
1.75971e-05
1.75926e-05
1.75863e-05
1.75789e-05
1.75736e-05
1.75695e-05
1.75645e-05
1.75591e-05
1.75543e-05
1.75504e-05
1.75468e-05
1.75434e-05
1.75404e-05
1.75379e-05
1.75361e-05
1.75348e-05
1.75343e-05
1.75344e-05
1.75354e-05
1.75372e-05
1.75399e-05
1.75435e-05
1.75483e-05
1.75541e-05
1.7561e-05
1.75692e-05
1.75786e-05
1.75893e-05
1.76014e-05
1.76148e-05
1.76296e-05
1.76459e-05
1.76636e-05
1.76828e-05
1.77036e-05
1.77301e-05
1.77275e-05
1.7723e-05
1.77181e-05
1.7713e-05
1.77081e-05
1.77013e-05
1.76954e-05
1.76907e-05
1.76841e-05
1.76764e-05
1.76712e-05
1.76671e-05
1.76601e-05
1.7653e-05
1.76483e-05
1.76446e-05
1.7639e-05
1.76329e-05
1.76288e-05
1.76254e-05
1.76214e-05
1.76174e-05
1.7614e-05
1.76112e-05
1.7609e-05
1.76071e-05
1.76057e-05
1.76049e-05
1.76049e-05
1.76055e-05
1.7607e-05
1.76092e-05
1.76123e-05
1.76164e-05
1.76215e-05
1.76276e-05
1.76349e-05
1.76434e-05
1.76531e-05
1.7664e-05
1.76763e-05
1.76899e-05
1.77048e-05
1.77212e-05
1.77389e-05
1.77579e-05
1.77784e-05
1.78003e-05
1.78235e-05
1.77811e-05
1.77765e-05
1.77713e-05
1.77657e-05
1.77608e-05
1.77557e-05
1.77484e-05
1.77433e-05
1.77394e-05
1.77323e-05
1.77257e-05
1.77214e-05
1.77179e-05
1.77116e-05
1.77056e-05
1.7702e-05
1.76989e-05
1.76943e-05
1.76897e-05
1.76866e-05
1.7684e-05
1.76813e-05
1.76787e-05
1.76767e-05
1.76754e-05
1.76746e-05
1.76744e-05
1.76747e-05
1.76758e-05
1.76777e-05
1.76803e-05
1.76838e-05
1.76882e-05
1.76937e-05
1.77001e-05
1.77077e-05
1.77164e-05
1.77263e-05
1.77374e-05
1.77498e-05
1.77635e-05
1.77785e-05
1.77949e-05
1.78125e-05
1.78315e-05
1.78518e-05
1.78734e-05
1.78963e-05
1.79204e-05
1.79457e-05
1.78289e-05
1.78248e-05
1.78184e-05
1.78132e-05
1.78093e-05
1.78033e-05
1.77969e-05
1.77926e-05
1.77894e-05
1.77826e-05
1.77772e-05
1.77738e-05
1.77709e-05
1.77654e-05
1.77607e-05
1.77582e-05
1.77557e-05
1.77523e-05
1.77492e-05
1.77471e-05
1.77455e-05
1.77441e-05
1.77431e-05
1.77427e-05
1.77428e-05
1.77437e-05
1.77452e-05
1.77474e-05
1.77505e-05
1.77543e-05
1.7759e-05
1.77647e-05
1.77714e-05
1.77792e-05
1.77881e-05
1.77981e-05
1.78094e-05
1.78219e-05
1.78356e-05
1.78506e-05
1.78669e-05
1.78845e-05
1.79034e-05
1.79235e-05
1.79449e-05
1.79675e-05
1.79912e-05
1.8016e-05
1.80419e-05
1.80686e-05
1.78768e-05
1.78727e-05
1.78662e-05
1.78619e-05
1.78589e-05
1.78525e-05
1.78474e-05
1.7844e-05
1.78411e-05
1.78351e-05
1.78309e-05
1.78285e-05
1.7826e-05
1.78217e-05
1.78184e-05
1.78168e-05
1.7815e-05
1.78129e-05
1.78112e-05
1.78103e-05
1.78099e-05
1.781e-05
1.78106e-05
1.78117e-05
1.78136e-05
1.78162e-05
1.78195e-05
1.78237e-05
1.78287e-05
1.78346e-05
1.78415e-05
1.78495e-05
1.78585e-05
1.78686e-05
1.78799e-05
1.78924e-05
1.79061e-05
1.79211e-05
1.79373e-05
1.79547e-05
1.79734e-05
1.79934e-05
1.80145e-05
1.80367e-05
1.80601e-05
1.80845e-05
1.81098e-05
1.81361e-05
1.81631e-05
1.81907e-05
1.7926e-05
1.79212e-05
1.79158e-05
1.79123e-05
1.79098e-05
1.79036e-05
1.78998e-05
1.78974e-05
1.78948e-05
1.78898e-05
1.78867e-05
1.78854e-05
1.78834e-05
1.78804e-05
1.78784e-05
1.78776e-05
1.78768e-05
1.78761e-05
1.78759e-05
1.78762e-05
1.78772e-05
1.78788e-05
1.7881e-05
1.78839e-05
1.78875e-05
1.7892e-05
1.78972e-05
1.79033e-05
1.79104e-05
1.79184e-05
1.79275e-05
1.79377e-05
1.7949e-05
1.79614e-05
1.79751e-05
1.79899e-05
1.80059e-05
1.80232e-05
1.80416e-05
1.80613e-05
1.80821e-05
1.8104e-05
1.8127e-05
1.81509e-05
1.81758e-05
1.82015e-05
1.82279e-05
1.82549e-05
1.82825e-05
1.83103e-05
1.79765e-05
1.79712e-05
1.79671e-05
1.79645e-05
1.79622e-05
1.79568e-05
1.7954e-05
1.79527e-05
1.79504e-05
1.79466e-05
1.79447e-05
1.79442e-05
1.7943e-05
1.79413e-05
1.79406e-05
1.79407e-05
1.7941e-05
1.79418e-05
1.7943e-05
1.79448e-05
1.79473e-05
1.79504e-05
1.79543e-05
1.7959e-05
1.79645e-05
1.79707e-05
1.79779e-05
1.7986e-05
1.79951e-05
1.80053e-05
1.80165e-05
1.80289e-05
1.80424e-05
1.80571e-05
1.80729e-05
1.80899e-05
1.8108e-05
1.81273e-05
1.81477e-05
1.81692e-05
1.81918e-05
1.82152e-05
1.82396e-05
1.82647e-05
1.82906e-05
1.8317e-05
1.83439e-05
1.83711e-05
1.83986e-05
1.84259e-05
1.80282e-05
1.80229e-05
1.80201e-05
1.80186e-05
1.80162e-05
1.80119e-05
1.80102e-05
1.80097e-05
1.8008e-05
1.80054e-05
1.80048e-05
1.80049e-05
1.80046e-05
1.80044e-05
1.80048e-05
1.8006e-05
1.80076e-05
1.80098e-05
1.80125e-05
1.80158e-05
1.80199e-05
1.80247e-05
1.80304e-05
1.80368e-05
1.8044e-05
1.80521e-05
1.80612e-05
1.80714e-05
1.80825e-05
1.80948e-05
1.81081e-05
1.81225e-05
1.81381e-05
1.81548e-05
1.81726e-05
1.81915e-05
1.82114e-05
1.82325e-05
1.82545e-05
1.82774e-05
1.83012e-05
1.83258e-05
1.8351e-05
1.83768e-05
1.84031e-05
1.84296e-05
1.84564e-05
1.84831e-05
1.85098e-05
1.85359e-05
1.8081e-05
1.80764e-05
1.80746e-05
1.8074e-05
1.80719e-05
1.80687e-05
1.80681e-05
1.80683e-05
1.80673e-05
1.80662e-05
1.80665e-05
1.80673e-05
1.80681e-05
1.80693e-05
1.8071e-05
1.80734e-05
1.80764e-05
1.808e-05
1.80842e-05
1.80892e-05
1.80949e-05
1.81014e-05
1.81087e-05
1.81168e-05
1.81259e-05
1.81359e-05
1.81469e-05
1.8159e-05
1.81721e-05
1.81863e-05
1.82015e-05
1.82178e-05
1.82353e-05
1.82537e-05
1.82732e-05
1.82937e-05
1.83152e-05
1.83376e-05
1.83608e-05
1.83847e-05
1.84093e-05
1.84344e-05
1.846e-05
1.84858e-05
1.85119e-05
1.85379e-05
1.85639e-05
1.85895e-05
1.86148e-05
1.8639e-05
1.81368e-05
1.8135e-05
1.81314e-05
1.81306e-05
1.81308e-05
1.81291e-05
1.81272e-05
1.81276e-05
1.81283e-05
1.81282e-05
1.81285e-05
1.81297e-05
1.81314e-05
1.81335e-05
1.8136e-05
1.81391e-05
1.81427e-05
1.81471e-05
1.81522e-05
1.8158e-05
1.81646e-05
1.81719e-05
1.818e-05
1.8189e-05
1.81988e-05
1.82097e-05
1.82216e-05
1.82344e-05
1.82483e-05
1.82632e-05
1.82791e-05
1.82961e-05
1.83141e-05
1.83331e-05
1.83531e-05
1.83739e-05
1.83957e-05
1.84182e-05
1.84415e-05
1.84654e-05
1.84898e-05
1.85147e-05
1.85398e-05
1.85651e-05
1.85905e-05
1.86157e-05
1.86406e-05
1.86652e-05
1.86891e-05
1.87123e-05
1.87341e-05
1.81921e-05
1.81902e-05
1.81878e-05
1.81879e-05
1.81887e-05
1.81877e-05
1.81872e-05
1.81883e-05
1.81895e-05
1.81907e-05
1.81922e-05
1.81944e-05
1.81972e-05
1.82005e-05
1.82043e-05
1.82087e-05
1.82138e-05
1.82197e-05
1.82263e-05
1.82336e-05
1.82416e-05
1.82505e-05
1.82602e-05
1.82709e-05
1.82825e-05
1.8295e-05
1.83086e-05
1.83231e-05
1.83387e-05
1.83552e-05
1.83727e-05
1.83911e-05
1.84105e-05
1.84307e-05
1.84518e-05
1.84737e-05
1.84962e-05
1.85194e-05
1.85431e-05
1.85672e-05
1.85916e-05
1.86162e-05
1.86408e-05
1.86653e-05
1.86895e-05
1.87133e-05
1.87366e-05
1.87591e-05
1.87807e-05
1.88013e-05
1.88202e-05
1.82475e-05
1.82482e-05
1.82466e-05
1.82454e-05
1.82463e-05
1.82475e-05
1.82475e-05
1.82482e-05
1.825e-05
1.82521e-05
1.82544e-05
1.82571e-05
1.82604e-05
1.82643e-05
1.82689e-05
1.82741e-05
1.82799e-05
1.82865e-05
1.82937e-05
1.83017e-05
1.83104e-05
1.83199e-05
1.83304e-05
1.83417e-05
1.8354e-05
1.83672e-05
1.83813e-05
1.83964e-05
1.84124e-05
1.84294e-05
1.84473e-05
1.8466e-05
1.84856e-05
1.8506e-05
1.85272e-05
1.8549e-05
1.85714e-05
1.85944e-05
1.86177e-05
1.86413e-05
1.86651e-05
1.86889e-05
1.87127e-05
1.87362e-05
1.87593e-05
1.87819e-05
1.88037e-05
1.88248e-05
1.88448e-05
1.88635e-05
1.8881e-05
1.88965e-05
1.83037e-05
1.83049e-05
1.8304e-05
1.83039e-05
1.83056e-05
1.83071e-05
1.83084e-05
1.83102e-05
1.83127e-05
1.83157e-05
1.83192e-05
1.83231e-05
1.83276e-05
1.83327e-05
1.83386e-05
1.83451e-05
1.83523e-05
1.83601e-05
1.83687e-05
1.8378e-05
1.83882e-05
1.83993e-05
1.84112e-05
1.8424e-05
1.84377e-05
1.84524e-05
1.84679e-05
1.84843e-05
1.85016e-05
1.85197e-05
1.85387e-05
1.85584e-05
1.85788e-05
1.85999e-05
1.86215e-05
1.86437e-05
1.86662e-05
1.8689e-05
1.8712e-05
1.87351e-05
1.8758e-05
1.87808e-05
1.88032e-05
1.88251e-05
1.88463e-05
1.88667e-05
1.88861e-05
1.89044e-05
1.89214e-05
1.8937e-05
1.89509e-05
1.89626e-05
1.83606e-05
1.83621e-05
1.83622e-05
1.83632e-05
1.83654e-05
1.83676e-05
1.837e-05
1.83729e-05
1.83763e-05
1.83803e-05
1.83849e-05
1.839e-05
1.83957e-05
1.84022e-05
1.84093e-05
1.8417e-05
1.84254e-05
1.84345e-05
1.84444e-05
1.84551e-05
1.84667e-05
1.84791e-05
1.84924e-05
1.85066e-05
1.85216e-05
1.85375e-05
1.85541e-05
1.85716e-05
1.85899e-05
1.86089e-05
1.86286e-05
1.86489e-05
1.86697e-05
1.86911e-05
1.87128e-05
1.87348e-05
1.8757e-05
1.87792e-05
1.88014e-05
1.88234e-05
1.88451e-05
1.88663e-05
1.88868e-05
1.89066e-05
1.89254e-05
1.89432e-05
1.89597e-05
1.89749e-05
1.89885e-05
1.90005e-05
1.90107e-05
1.90183e-05
1.8418e-05
1.84197e-05
1.8421e-05
1.8423e-05
1.84257e-05
1.84288e-05
1.84322e-05
1.84361e-05
1.84406e-05
1.84457e-05
1.84514e-05
1.84577e-05
1.84646e-05
1.84722e-05
1.84804e-05
1.84893e-05
1.84989e-05
1.85093e-05
1.85205e-05
1.85326e-05
1.85454e-05
1.85591e-05
1.85736e-05
1.85889e-05
1.86049e-05
1.86218e-05
1.86394e-05
1.86577e-05
1.86766e-05
1.86961e-05
1.87162e-05
1.87367e-05
1.87576e-05
1.87788e-05
1.88002e-05
1.88216e-05
1.8843e-05
1.88642e-05
1.88851e-05
1.89056e-05
1.89254e-05
1.89446e-05
1.89629e-05
1.89801e-05
1.89962e-05
1.90109e-05
1.90242e-05
1.90358e-05
1.90458e-05
1.90539e-05
1.906e-05
1.90632e-05
1.84755e-05
1.84778e-05
1.84802e-05
1.8483e-05
1.84865e-05
1.84905e-05
1.84949e-05
1.84999e-05
1.85054e-05
1.85116e-05
1.85184e-05
1.85258e-05
1.85338e-05
1.85424e-05
1.85518e-05
1.85619e-05
1.85727e-05
1.85843e-05
1.85967e-05
1.86099e-05
1.86238e-05
1.86386e-05
1.8654e-05
1.86702e-05
1.86871e-05
1.87047e-05
1.87229e-05
1.87416e-05
1.87609e-05
1.87806e-05
1.88007e-05
1.88211e-05
1.88416e-05
1.88622e-05
1.88828e-05
1.89032e-05
1.89234e-05
1.89431e-05
1.89623e-05
1.89808e-05
1.89985e-05
1.90152e-05
1.90308e-05
1.90451e-05
1.9058e-05
1.90694e-05
1.90792e-05
1.90872e-05
1.90932e-05
1.9097e-05
1.90986e-05
1.90974e-05
1.85332e-05
1.85362e-05
1.85395e-05
1.85433e-05
1.85476e-05
1.85525e-05
1.8558e-05
1.85641e-05
1.85706e-05
1.85778e-05
1.85855e-05
1.85939e-05
1.8603e-05
1.86127e-05
1.86232e-05
1.86344e-05
1.86463e-05
1.8659e-05
1.86724e-05
1.86866e-05
1.87014e-05
1.8717e-05
1.87332e-05
1.87501e-05
1.87675e-05
1.87855e-05
1.8804e-05
1.88229e-05
1.88422e-05
1.88617e-05
1.88814e-05
1.89012e-05
1.8921e-05
1.89406e-05
1.896e-05
1.8979e-05
1.89975e-05
1.90153e-05
1.90324e-05
1.90486e-05
1.90637e-05
1.90776e-05
1.90902e-05
1.91013e-05
1.91108e-05
1.91186e-05
1.91246e-05
1.91285e-05
1.91303e-05
1.91297e-05
1.91269e-05
1.9121e-05
1.8591e-05
1.85948e-05
1.8599e-05
1.86037e-05
1.8609e-05
1.86149e-05
1.86213e-05
1.86282e-05
1.86357e-05
1.86438e-05
1.86526e-05
1.8662e-05
1.86721e-05
1.86828e-05
1.86943e-05
1.87065e-05
1.87194e-05
1.8733e-05
1.87472e-05
1.87622e-05
1.87777e-05
1.87939e-05
1.88106e-05
1.88278e-05
1.88455e-05
1.88636e-05
1.88821e-05
1.89008e-05
1.89197e-05
1.89386e-05
1.89576e-05
1.89764e-05
1.8995e-05
1.90133e-05
1.90311e-05
1.90483e-05
1.90648e-05
1.90804e-05
1.9095e-05
1.91085e-05
1.91207e-05
1.91315e-05
1.91408e-05
1.91485e-05
1.91545e-05
1.91584e-05
1.91603e-05
1.91599e-05
1.91575e-05
1.91525e-05
1.9145e-05
1.91344e-05
1.86534e-05
1.86586e-05
1.86642e-05
1.86704e-05
1.86771e-05
1.86843e-05
1.86921e-05
1.87005e-05
1.87096e-05
1.87193e-05
1.87297e-05
1.87407e-05
1.87524e-05
1.87648e-05
1.87778e-05
1.87914e-05
1.88057e-05
1.88206e-05
1.88361e-05
1.88521e-05
1.88686e-05
1.88855e-05
1.89028e-05
1.89205e-05
1.89384e-05
1.89565e-05
1.89746e-05
1.89928e-05
1.90108e-05
1.90287e-05
1.90462e-05
1.90633e-05
1.90799e-05
1.90957e-05
1.91108e-05
1.91249e-05
1.9138e-05
1.91498e-05
1.91603e-05
1.91694e-05
1.91769e-05
1.91828e-05
1.91868e-05
1.91888e-05
1.91886e-05
1.91865e-05
1.91819e-05
1.9175e-05
1.91654e-05
1.91534e-05
1.91382e-05
1.8712e-05
1.8718e-05
1.87244e-05
1.87313e-05
1.87388e-05
1.87469e-05
1.87556e-05
1.8765e-05
1.87749e-05
1.87855e-05
1.87967e-05
1.88085e-05
1.8821e-05
1.88341e-05
1.88478e-05
1.8862e-05
1.88768e-05
1.88921e-05
1.89079e-05
1.89241e-05
1.89406e-05
1.89575e-05
1.89746e-05
1.89919e-05
1.90092e-05
1.90266e-05
1.90439e-05
1.9061e-05
1.90778e-05
1.90942e-05
1.91101e-05
1.91253e-05
1.91398e-05
1.91534e-05
1.91661e-05
1.91775e-05
1.91878e-05
1.91966e-05
1.9204e-05
1.92098e-05
1.92138e-05
1.92159e-05
1.9216e-05
1.92141e-05
1.92099e-05
1.92034e-05
1.91945e-05
1.91832e-05
1.91692e-05
1.91529e-05
1.91336e-05
1.87702e-05
1.87768e-05