/*--------------------------------*- C++ -*----------------------------------*\
| =========                 |                                                 |
| \\      /  F ield         | OpenFOAM: The Open Source CFD Toolbox           |
|  \\    /   O peration     | Version:  v1706                                 |
|   \\  /    A nd           | Web:      www.OpenFOAM.com                      |
|    \\/     M anipulation  |                                                 |
\*---------------------------------------------------------------------------*/
FoamFile
{
    version     2.0;
    format      ascii;
    class       volScalarField;
    location    "1.1e-05";
    object      rho;
}
// * * * * * * * * * * * * * * * * * * * * * * * * * * * * * * * * * * * * * //

dimensions      [1 -3 0 0 0 0 0];


internalField   nonuniform List<scalar> 
30038
(
0.000511309
0.000511309
0.000511309
0.000511309
0.000511309
0.000511309
0.000511309
0.000511309
0.000511309
0.000511309
0.000511309
0.000511309
0.000511309
0.000511309
0.000511309
0.000511309
0.000511309
0.000511309
0.000511309
0.000511309
0.000511309
0.000511309
0.000511309
0.000511309
0.000511309
0.000511309
0.000511309
0.00051131
0.00051131
0.00051131
0.00051131
0.00051131
0.00051131
0.00051131
0.000511311
0.000511311
0.000511312
0.000511313
0.000511309
0.000511309
0.000511309
0.000511309
0.000511309
0.000511309
0.000511309
0.000511309
0.000511309
0.000511309
0.000511309
0.000511309
0.000511309
0.000511309
0.000511309
0.000511309
0.000511309
0.000511309
0.000511309
0.000511309
0.000511309
0.00051131
0.00051131
0.00051131
0.00051131
0.00051131
0.00051131
0.00051131
0.00051131
0.000511311
0.000511311
0.000511312
0.000511313
0.000511313
0.000511315
0.000511317
0.000511319
0.000511322
0.000511309
0.000511309
0.000511309
0.000511309
0.000511309
0.000511309
0.000511309
0.000511309
0.000511309
0.000511309
0.000511309
0.000511309
0.000511309
0.000511309
0.000511309
0.000511309
0.000511309
0.00051131
0.00051131
0.00051131
0.00051131
0.00051131
0.00051131
0.00051131
0.00051131
0.000511311
0.000511311
0.000511312
0.000511312
0.000511313
0.000511314
0.000511316
0.000511318
0.000511321
0.000511324
0.000511329
0.000511335
0.000511344
0.000511309
0.000511309
0.000511309
0.000511309
0.000511309
0.000511309
0.000511309
0.000511309
0.000511309
0.000511309
0.000511309
0.000511309
0.000511309
0.00051131
0.00051131
0.00051131
0.00051131
0.00051131
0.00051131
0.00051131
0.00051131
0.000511311
0.000511311
0.000511311
0.000511312
0.000511313
0.000511314
0.000511315
0.000511317
0.000511319
0.000511322
0.000511326
0.000511331
0.000511338
0.000511347
0.000511358
0.000511373
0.000511396
0.000511309
0.000511309
0.000511309
0.000511309
0.000511309
0.000511309
0.000511309
0.000511309
0.000511309
0.000511309
0.00051131
0.00051131
0.00051131
0.00051131
0.00051131
0.00051131
0.00051131
0.00051131
0.000511311
0.000511311
0.000511312
0.000511312
0.000511313
0.000511314
0.000511316
0.000511318
0.00051132
0.000511324
0.000511328
0.000511334
0.000511341
0.000511351
0.000511363
0.000511379
0.0005114
0.000511428
0.000511463
0.000511516
0.000511309
0.000511309
0.000511309
0.000511309
0.000511309
0.000511309
0.00051131
0.00051131
0.00051131
0.00051131
0.00051131
0.00051131
0.00051131
0.00051131
0.000511311
0.000511311
0.000511311
0.000511312
0.000511313
0.000511314
0.000511315
0.000511317
0.000511319
0.000511322
0.000511325
0.00051133
0.000511336
0.000511344
0.000511354
0.000511368
0.000511385
0.000511408
0.000511437
0.000511475
0.000511524
0.000511589
0.000511672
0.000511794
0.000511309
0.000511309
0.00051131
0.00051131
0.00051131
0.00051131
0.00051131
0.00051131
0.00051131
0.00051131
0.00051131
0.000511311
0.000511311
0.000511312
0.000511312
0.000511313
0.000511314
0.000511316
0.000511318
0.00051132
0.000511323
0.000511327
0.000511332
0.000511339
0.000511347
0.000511358
0.000511373
0.000511391
0.000511415
0.000511446
0.000511487
0.000511539
0.000511607
0.000511695
0.00051181
0.000511959
0.00051215
0.000512429
0.00051131
0.00051131
0.00051131
0.00051131
0.00051131
0.00051131
0.00051131
0.000511311
0.000511311
0.000511311
0.000511312
0.000511313
0.000511314
0.000511315
0.000511316
0.000511318
0.000511321
0.000511324
0.000511329
0.000511334
0.000511341
0.000511351
0.000511362
0.000511378
0.000511398
0.000511423
0.000511456
0.000511499
0.000511554
0.000511626
0.000511719
0.000511839
0.000511994
0.000512195
0.000512456
0.000512795
0.000513229
0.000513858
0.00051131
0.00051131
0.00051131
0.00051131
0.00051131
0.000511311
0.000511311
0.000511312
0.000511312
0.000511313
0.000511314
0.000511316
0.000511317
0.000511319
0.000511322
0.000511326
0.000511331
0.000511337
0.000511344
0.000511354
0.000511367
0.000511383
0.000511405
0.000511432
0.000511467
0.000511512
0.000511571
0.000511646
0.000511744
0.00051187
0.000512032
0.000512242
0.000512513
0.000512864
0.000513317
0.000513901
0.000514659
0.000515626
0.000517023
0.00051131
0.000511311
0.000511311
0.000511311
0.000511312
0.000511313
0.000511314
0.000511315
0.000511316
0.000511318
0.000511321
0.000511324
0.000511328
0.000511333
0.000511339
0.000511348
0.000511358
0.000511372
0.00051139
0.000511412
0.000511441
0.000511479
0.000511527
0.000511588
0.000511668
0.000511771
0.000511902
0.000512072
0.000512291
0.000512573
0.000512937
0.000513406
0.00051401
0.000514787
0.000515791
0.000517085
0.000518756
0.000520878
0.000523914
0.000511312
0.000511312
0.000511313
0.000511314
0.000511315
0.000511317
0.000511319
0.000511322
0.000511325
0.00051133
0.000511335
0.000511342
0.000511351
0.000511363
0.000511377
0.000511396
0.00051142
0.000511451
0.000511491
0.000511542
0.000511607
0.000511691
0.000511799
0.000511937
0.000512114
0.000512343
0.000512637
0.000513015
0.0005135
0.000514123
0.000514924
0.000515955
0.000517283
0.000518988
0.000521172
0.000523971
0.000527579
0.000532147
0.000538638
0.000511314
0.000511315
0.000511316
0.000511318
0.00051132
0.000511323
0.000511327
0.000511332
0.000511338
0.000511345
0.000511355
0.000511368
0.000511383
0.000511404
0.000511429
0.000511462
0.000511505
0.000511559
0.000511628
0.000511716
0.000511829
0.000511974
0.00051216
0.000512398
0.000512704
0.000513096
0.000513598
0.000514241
0.000515066
0.000516126
0.000517488
0.000519232
0.00052146
0.000524307
0.000527956
0.000532634
0.000538602
0.000546188
0.00055568
0.000569095
0.000511319
0.000511322
0.000511325
0.000511329
0.000511334
0.000511341
0.000511349
0.00051136
0.000511373
0.00051139
0.000511412
0.000511439
0.000511475
0.00051152
0.000511577
0.00051165
0.000511743
0.000511862
0.000512014
0.000512208
0.000512457
0.000512775
0.000513182
0.000513702
0.000514366
0.000515216
0.000516305
0.000517701
0.000519485
0.000521756
0.000524652
0.000528355
0.000533093
0.000539126
0.000546754
0.00055639
0.000568617
0.000584236
0.000603564
0.000630436
0.000511331
0.000511337
0.000511344
0.000511353
0.000511365
0.000511379
0.000511397
0.000511421
0.00051145
0.000511488
0.000511536
0.000511597
0.000511674
0.000511772
0.000511898
0.000512057
0.000512261
0.00051252
0.000512852
0.000513274
0.000513812
0.000514498
0.000515373
0.000516493
0.000517924
0.000519748
0.000522064
0.000525009
0.000528766
0.000533563
0.000539659
0.000547348
0.000557022
0.000569264
0.000584813
0.00060442
0.000628709
0.000658915
0.000696208
0.000749732
0.000511358
0.00051137
0.000511386
0.000511406
0.000511431
0.000511463
0.000511503
0.000511554
0.000511618
0.0005117
0.000511804
0.000511936
0.000512104
0.000512317
0.000512588
0.000512933
0.000513372
0.00051393
0.000514638
0.000515541
0.000516692
0.000518159
0.000520023
0.000522385
0.00052538
0.000529191
0.000534046
0.000540204
0.00054795
0.000557664
0.00056991
0.000585437
0.000605008
0.000629263
0.000659067
0.000696418
0.000743979
0.000804077
0.000874777
0.000962132
0.000511415
0.000511442
0.000511476
0.000511519
0.000511574
0.000511642
0.000511729
0.000511839
0.000511979
0.000512155
0.000512378
0.000512662
0.000513022
0.000513478
0.000514056
0.000514788
0.000515719
0.000516903
0.000518407
0.000520313
0.000522722
0.000525769
0.000529636
0.000534549
0.000540766
0.000548569
0.000558324
0.000570574
0.000586067
0.000605584
0.000629778
0.000659347
0.000696087
0.000742728
0.000801584
0.000872754
0.00095346
0.00103925
0.00112187
0.00120334
0.000511537
0.000511596
0.000511669
0.000511761
0.000511878
0.000512025
0.000512211
0.000512445
0.000512742
0.000513117
0.000513592
0.000514191
0.00051495
0.00051591
0.000517128
0.000518671
0.000520621
0.00052308
0.000526181
0.000530104
0.000535076
0.000541352
0.000549212
0.000559008
0.000571264
0.000586715
0.000606159
0.000630268
0.000659654
0.000695804
0.000741475
0.000799225
0.000869514
0.000949922
0.0010356
0.00112055
0.00119882
0.00126708
0.00132147
0.00136604
0.000511797
0.00051192
0.000512076
0.000512272
0.000512518
0.000512829
0.000513221
0.000513716
0.000514338
0.000515124
0.000516116
0.00051737
0.000518954
0.00052095
0.00052346
0.000526618
0.000530602
0.000535634
0.000541969
0.000549885
0.000559726
0.000571992
0.0005874
0.000606758
0.000630759
0.000659987
0.000695605
0.000740314
0.000796842
0.000866121
0.000945977
0.0010318
0.00111765
0.00119771
0.00126744
0.00132457
0.0013687
0.00140124
0.00142375
0.00144036
0.000512132
0.000512339
0.000512599
0.000512925
0.000513335
0.00051385
0.000514498
0.000515313
0.000516338
0.00051763
0.000519258
0.000521303
0.000523868
0.000527086
0.000531133
0.000536228
0.000542624
0.0005506
0.00056049
0.000572775
0.000588143
0.000607406
0.00063128
0.000660349
0.000695536
0.000739282
0.000794521
0.00086264
0.000941778
0.00102757
0.00111416
0.00119559
0.00126726
0.00132663
0.00137289
0.00140691
0.00143125
0.00144823
0.00145847
0.00146339
0.00146542
0.00051303
0.00051346
0.000513998
0.000514672
0.000515518
0.00051658
0.000517913
0.000519586
0.000521683
0.000524307
0.000527589
0.000531704
0.000536866
0.000543327
0.000551365
0.000561309
0.00057362
0.000588955
0.000608118
0.000631848
0.000660745
0.000695595
0.000738441
0.000792377
0.00085917
0.000937464
0.00102303
0.00111018
0.00119296
0.0012666
0.00132799
0.00137612
0.00141209
0.00143796
0.00145586
0.00146792
0.00147477
0.00147595
0.00147469
0.0014736
0.00147238
0.00051416
0.000514863
0.000515743
0.000516843
0.00051822
0.000519943
0.000522096
0.000524783
0.000528134
0.000532321
0.000537555
0.000544086
0.00055219
0.000562194
0.00057454
0.000589855
0.000608922
0.000632505
0.000661223
0.000695793
0.000737845
0.000790489
0.000855824
0.000933111
0.00101828
0.00110581
0.00118979
0.00126503
0.00132834
0.00137871
0.00141654
0.00144381
0.00146347
0.00147669
0.00148325
0.00148548
0.00148641
0.00148624
0.00148388
0.00148002
0.00147705
0.00147386
0.000515989
0.000517131
0.000518556
0.000520333
0.000522546
0.0005253
0.000528726
0.000532991
0.000538304
0.00054491
0.000553088
0.00056316
0.000575553
0.000590863
0.000609845
0.000633277
0.000661804
0.000696115
0.000737531
0.000788896
0.0008527
0.000928798
0.00101341
0.00110114
0.00118608
0.00126302
0.00132852
0.00138087
0.00142043
0.00144954
0.0014704
0.00148415
0.00149267
0.00149733
0.00149739
0.00149547
0.00149384
0.00149249
0.00148992
0.00148609
0.00148158
0.0014774
0.0014732
0.00052076
0.000523039
0.000525866
0.000529372
0.000533723
0.000539122
0.000545812
0.000554071
0.00056422
0.000576672
0.000591991
0.000610902
0.000634185
0.00066252
0.000696583
0.000737502
0.000787687
0.000849951
0.000924669
0.00100861
0.00109635
0.00118215
0.00126065
0.0013279
0.00138213
0.00142382
0.00145447
0.00147638
0.00149219
0.00150198
0.00150533
0.00150592
0.00150644
0.00150646
0.00150408
0.00150001
0.00149691
0.00149392
0.00149024
0.00148595
0.00148127
0.00147652
0.00147146
0.000526487
0.000530081
0.000534524
0.000540019
0.000546803
0.000555152
0.000565388
0.000577911
0.000593258
0.000612121
0.00063527
0.000663418
0.000697245
0.000737761
0.000786915
0.000847646
0.000920825
0.0010039
0.00109146
0.00117786
0.00125763
0.0013267
0.00138309
0.00142657
0.00145878
0.00148248
0.00149929
0.00150942
0.00151491
0.00151792
0.00151765
0.00151525
0.0015131
0.00151177
0.00150959
0.00150597
0.00150151
0.00149745
0.00149358
0.00148939
0.00148473
0.00147973
0.00147456
0.00146903
0.000535406
0.000541005
0.000547894
0.000556345
0.00056668
0.00057929
0.000594686
0.000613525
0.000636561
0.00066453
0.000698127
0.000738285
0.00078662
0.000845844
0.000917394
0.000999407
0.00108668
0.00117351
0.00125447
0.00132537
0.00138367
0.00142893
0.00146296
0.00148797
0.0015057
0.00151794
0.00152453
0.00152588
0.00152573
0.00152588
0.00152591
0.00152351
0.00151923
0.00151606
0.00151339
0.00151005
0.00150602
0.00150156
0.00149705
0.00149248
0.00148773
0.00148274
0.00147749
0.00147208
0.00146628
0.0005491
0.000557668
0.000568115
0.000580827
0.000596294
0.000615136
0.000638084
0.000665889
0.000699269
0.000739109
0.000786799
0.000844641
0.000914568
0.000995298
0.00108214
0.00116922
0.0012512
0.00132354
0.00138351
0.00143075
0.00146641
0.00149252
0.00151173
0.00152512
0.00153202
0.00153502
0.00153706
0.00153697
0.00153448
0.00153201
0.00153076
0.00152896
0.0015255
0.00152094
0.00151703
0.00151349
0.00150967
0.00150539
0.00150075
0.00149588
0.00149088
0.00148576
0.00148048
0.00147499
0.00146937
0.00146333
0.000559136
0.000569713
0.000582545
0.000598103
0.000616978
0.000639872
0.000667538
0.000700723
0.000740282
0.000787452
0.00084411
0.000912404
0.000991669
0.00107786
0.00116499
0.00124772
0.00132142
0.00138324
0.00143228
0.00146944
0.00149729
0.00151788
0.0015318
0.00154046
0.00154534
0.00154596
0.00154494
0.00154426
0.00154424
0.00154227
0.00153816
0.00153494
0.00153274
0.00152981
0.00152596
0.00152154
0.00151723
0.0015131
0.00150879
0.00150422
0.00149938
0.0014943
0.00148905
0.00148365
0.0014781
0.00147235
0.00146648
0.00146016
0.000600141
0.00061908
0.000641957
0.000669519
0.000702534
0.000741843
0.00078857
0.000844283
0.000910976
0.000988681
0.00107402
0.00116109
0.0012444
0.0013194
0.00138285
0.00143347
0.00147233
0.00150155
0.00152292
0.00153828
0.00154839
0.00155268
0.00155394
0.00155512
0.00155581
0.00155373
0.00155051
0.00154879
0.00154749
0.00154452
0.00154005
0.00153646
0.00153339
0.00152991
0.0015259
0.00152152
0.001517
0.00151241
0.00150771
0.00150285
0.00149779
0.00149251
0.00148705
0.0014814
0.00147557
0.00146954
0.00146339
0.00145675
0.000621473
0.000644374
0.00067187
0.000704745
0.000743838
0.000790191
0.000845151
0.00091038
0.00098652
0.00107077
0.00115763
0.00124135
0.00131734
0.00138212
0.00143434
0.00147471
0.00150505
0.00152778
0.00154456
0.00155518
0.00156077
0.00156422
0.00156504
0.00156361
0.00156207
0.00156175
0.00156085
0.00155735
0.00155343
0.00155128
0.00154902
0.00154559
0.00154131
0.00153732
0.00153363
0.00152979
0.0015256
0.00152112
0.00151641
0.00151154
0.00150654
0.0015014
0.00149609
0.00149057
0.00148486
0.00147895
0.00147283
0.0014665
0.00146003
0.00145305
0.000707409
0.000746326
0.000792368
0.000846724
0.000910732
0.000985279
0.00106825
0.00115468
0.00123859
0.00131535
0.00138139
0.00143514
0.00147692
0.00150865
0.00153275
0.00155036
0.00156216
0.00156934
0.00157214
0.00157247
0.00157267
0.00157352
0.00157225
0.00156882
0.00156645
0.00156548
0.00156345
0.00155937
0.00155543
0.00155283
0.00154989
0.00154624
0.00154211
0.0015379
0.00153378
0.00152957
0.00152515
0.00152049
0.00151559
0.00151051
0.00150526
0.00149984
0.00149424
0.00148845
0.00148245
0.00147625
0.00146983
0.00146317
0.00145639
0.00144904
0.000849022
0.000912047
0.000985043
0.00106662
0.00115237
0.00123635
0.00131369
0.00138087
0.00143593
0.00147902
0.00151206
0.00153707
0.00155551
0.00156864
0.00157646
0.00157969
0.00158153
0.00158299
0.00158206
0.00157988
0.00157882
0.00157861
0.00157612
0.00157192
0.00156935
0.00156781
0.00156513
0.001561
0.00155713
0.00155394
0.00155055
0.00154674
0.0015426
0.00153826
0.00153384
0.00152932
0.00152462
0.00151972
0.00151461
0.00150929
0.00150379
0.00149809
0.00149219
0.0014861
0.00147979
0.00147327
0.00146652
0.00145953
0.00145241
0.00144469
0.00106605
0.00115088
0.00123477
0.00131252
0.00138055
0.0014367
0.00148101
0.00151508
0.00154101
0.0015607
0.00157487
0.00158338
0.00158809
0.0015906
0.00159077
0.00158998
0.00158987
0.00159002
0.00158741
0.00158418
0.00158281
0.00158181
0.00157862
0.00157427
0.00157171
0.0015696
0.00156651
0.00156255
0.00155862
0.00155493
0.00155117
0.00154717
0.0015429
0.00153843
0.00153378
0.00152897
0.00152398
0.00151881
0.00151344
0.00150786
0.00150208
0.00149609
0.00148988
0.00148347
0.00147683
0.00146997
0.00146289
0.00145555
0.0014481
0.00144
0.0013119
0.00138053
0.00143762
0.00148298
0.00151805
0.00154504
0.00156575
0.00158073
0.00159041
0.00159592
0.00159801
0.00159861
0.00159945
0.00159992
0.0015979
0.00159568
0.00159521
0.0015944
0.00159084
0.00158738
0.00158589
0.00158428
0.00158071
0.00157655
0.00157387
0.00157117
0.00156781
0.00156395
0.00155992
0.00155589
0.0015518
0.00154755
0.00154308
0.00153841
0.00153353
0.00152844
0.00152317
0.00151771
0.00151205
0.00150618
0.00150009
0.00149378
0.00148726
0.00148051
0.00147354
0.00146633
0.00145891
0.00145123
0.00144346
0.001435
0.0014851
0.0015211
0.00154899
0.00157046
0.00158626
0.00159699
0.00160297
0.0016056
0.0016073
0.00160834
0.0016075
0.0016062
0.00160633
0.00160568
0.00160235
0.00159983
0.0015992
0.00159762
0.00159363
0.00159025
0.00158861
0.00158649
0.00158282
0.00157894
0.00157584
0.00157266
0.00156909
0.00156517
0.00156103
0.00155675
0.00155236
0.00154783
0.00154311
0.00153819
0.00153304
0.00152768
0.00152212
0.00151636
0.00151038
0.00150419
0.00149777
0.00149114
0.00148428
0.0014772
0.00146989
0.00146235
0.0014546
0.00144659
0.00143851
0.00142971
0.00157496
0.00159166
0.00160326
0.00160992
0.00161345
0.00161545
0.00161594
0.0016156
0.00161588
0.00161577
0.00161325
0.00161139
0.00161138
0.00160975
0.00160587
0.00160343
0.00160262
0.00160049
0.00159632
0.00159314
0.00159122
0.00158862
0.00158501
0.00158123
0.00157769
0.00157411
0.0015703
0.00156623
0.00156192
0.00155742
0.00155275
0.00154794
0.00154294
0.00153772
0.00153228
0.00152663
0.00152076
0.00151467
0.00150837
0.00150185
0.0014951
0.00148813
0.00148094
0.00147353
0.00146589
0.00145803
0.00144997
0.00144166
0.0014333
0.00142421
0.00161682
0.00162096
0.00162294
0.00162362
0.0016242
0.0016247
0.0016234
0.00162193
0.00162216
0.00162094
0.00161757
0.00161577
0.00161553
0.00161324
0.0016092
0.0016069
0.00160583
0.00160326
0.00159914
0.00159612
0.00159371
0.0015907
0.00158712
0.00158329
0.00157943
0.0015755
0.00157141
0.00156711
0.00156257
0.00155783
0.00155291
0.00154781
0.00154249
0.00153694
0.00153119
0.00152522
0.00151903
0.00151262
0.00150598
0.00149913
0.00149205
0.00148475
0.00147724
0.0014695
0.00146156
0.00145341
0.00144507
0.0014365
0.00142792
0.00141858
0.00163148
0.00163247
0.00163241
0.00163149
0.0016316
0.00163128
0.00162862
0.00162706
0.00162725
0.00162514
0.00162151
0.0016199
0.00161936
0.0016166
0.00161256
0.0016104
0.00160893
0.00160602
0.00160215
0.00159901
0.00159603
0.00159272
0.00158904
0.00158509
0.00158098
0.00157674
0.00157234
0.00156775
0.00156294
0.00155795
0.00155276
0.00154733
0.00154168
0.00153581
0.00152973
0.00152343
0.0015169
0.00151016
0.00150319
0.00149601
0.00148861
0.001481
0.00147319
0.00146517
0.00145696
0.00144855
0.00143998
0.0014312
0.00142245
0.00141293
0.00164001
0.00164041
0.00163897
0.0016374
0.0016377
0.00163634
0.00163314
0.00163186
0.00163178
0.00162905
0.00162544
0.00162398
0.00162309
0.00161993
0.00161605
0.00161393
0.00161189
0.00160877
0.00160512
0.00160166
0.00159823
0.00159461
0.00159073
0.00158659
0.00158225
0.00157771
0.00157299
0.00156809
0.00156301
0.00155774
0.00155221
0.00154644
0.00154046
0.00153426
0.00152784
0.00152121
0.00151435
0.00150728
0.0015
0.00149251
0.00148481
0.00147692
0.00146884
0.00146058
0.00145214
0.00144353
0.00143479
0.00142586
0.00141701
0.00140738
0.00164685
0.00164672
0.00164416
0.00164274
0.00164307
0.00164085
0.00163759
0.0016366
0.00163612
0.0016329
0.00162943
0.00162807
0.00162669
0.00162328
0.00161968
0.00161731
0.00161468
0.00161141
0.00160778
0.00160404
0.00160024
0.0015963
0.00159214
0.00158776
0.00158314
0.0015783
0.00157328
0.0015681
0.00156272
0.00155708
0.0015512
0.0015451
0.00153879
0.00153226
0.00152551
0.00151855
0.00151138
0.001504
0.00149642
0.00148866
0.0014807
0.00147257
0.00146427
0.00145581
0.0014472
0.00143846
0.00142961
0.0014206
0.00141171
0.00140206
0.00165308
0.00165201
0.00164903
0.00164805
0.0016481
0.00164522
0.00164211
0.00164129
0.00164033
0.00163677
0.0016335
0.00163208
0.00163013
0.00162667
0.00162326
0.00162038
0.00161728
0.00161383
0.00161007
0.00160609
0.00160197
0.00159769
0.00159322
0.00158851
0.00158359
0.00157848
0.0015732
0.0015677
0.00156193
0.00155593
0.00154972
0.00154329
0.00153665
0.00152979
0.00152273
0.00151547
0.001508
0.00150035
0.00149252
0.00148451
0.00147634
0.00146802
0.00145955
0.00145096
0.00144225
0.00143343
0.00142455
0.00141554
0.0014067
0.0013971
0.00165893
0.00165694
0.00165397
0.00165339
0.00165294
0.00164957
0.00164667
0.00164591
0.00164439
0.00164063
0.00163763
0.00163586
0.00163335
0.00162996
0.0016265
0.00162313
0.00161965
0.00161593
0.00161195
0.00160773
0.0016033
0.00159868
0.00159385
0.00158883
0.00158364
0.00157826
0.00157263
0.00156674
0.00156062
0.00155428
0.00154774
0.00154099
0.00153404
0.00152688
0.00151953
0.00151199
0.00150427
0.00149639
0.00148834
0.00148015
0.00147182
0.00146337
0.0014548
0.00144614
0.0014374
0.00142858
0.00141974
0.0014108
0.00140208
0.00139261
0.0016645
0.00166178
0.00165901
0.00165865
0.00165759
0.0016539
0.00165125
0.00165033
0.00164824
0.00164451
0.00164163
0.00163926
0.00163633
0.00163292
0.00162928
0.00162554
0.00162169
0.00161765
0.00161338
0.00160887
0.00160411
0.00159916
0.00159403
0.00158874
0.00158324
0.00157748
0.00157146
0.00156523
0.00155878
0.00155213
0.00154528
0.00153823
0.00153098
0.00152356
0.00151595
0.00150818
0.00150026
0.00149219
0.00148399
0.00147567
0.00146725
0.00145873
0.00145014
0.00144148
0.00143277
0.00142403
0.0014153
0.0014065
0.00139798
0.00138871
0.00166983
0.00166656
0.00166407
0.00166372
0.00166202
0.00165819
0.00165577
0.00165442
0.00165184
0.00164831
0.00164524
0.00164226
0.00163899
0.00163541
0.00163156
0.00162752
0.00162331
0.00161891
0.00161429
0.00160943
0.00160438
0.00159916
0.00159377
0.00158812
0.00158222
0.00157609
0.00156974
0.00156319
0.00155644
0.00154949
0.00154235
0.00153503
0.00152754
0.00151988
0.00151207
0.00150413
0.00149605
0.00148786
0.00147957
0.00147118
0.00146273
0.00145422
0.00144566
0.00143708
0.00142849
0.00141989
0.00141134
0.00140276
0.0013945
0.00138551
0.00167587
0.00167486
0.00167126
0.00166905
0.00166848
0.00166619
0.00166241
0.00166008
0.00165806
0.00165515
0.00165173
0.00164832
0.00164487
0.00164125
0.00163739
0.00163328
0.00162894
0.00162438
0.0016196
0.00161464
0.0016095
0.0016042
0.00159867
0.00159288
0.00158686
0.00158061
0.00157415
0.0015675
0.00156065
0.00155362
0.0015464
0.00153902
0.00153147
0.00152378
0.00151594
0.00150799
0.00149992
0.00149175
0.0014835
0.00147518
0.0014668
0.00145839
0.00144995
0.00144151
0.00143307
0.00142465
0.00141627
0.00140797
0.00139967
0.00139174
0.00138311
0.00168134
0.00167959
0.00167585
0.00167386
0.0016728
0.00167006
0.00166651
0.00166391
0.00166123
0.00165807
0.00165456
0.00165085
0.00164702
0.00164303
0.00163884
0.00163439
0.0016297
0.00162481
0.00161974
0.00161451
0.00160909
0.00160341
0.0015975
0.00159136
0.001585
0.00157844
0.00157169
0.00156476
0.00155765
0.00155037
0.00154294
0.00153535
0.00152763
0.00151979
0.00151183
0.00150379
0.00149566
0.00148746
0.00147922
0.00147094
0.00146264
0.00145433
0.00144604
0.00143776
0.00142954
0.00142137
0.00141326
0.00140528
0.00139734
0.0013898
0.00138157
0.0016867
0.00168636
0.00168397
0.00168027
0.00167837
0.0016766
0.0016736
0.00167022
0.00166713
0.00166394
0.00166048
0.00165675
0.00165277
0.0016486
0.00164423
0.00163964
0.00163485
0.00162987
0.00162472
0.00161939
0.00161381
0.001608
0.00160196
0.00159571
0.00158925
0.0015826
0.00157577
0.00156877
0.00156159
0.00155426
0.00154678
0.00153917
0.00153144
0.0015236
0.00151567
0.00150766
0.00149959
0.00149146
0.00148331
0.00147514
0.00146696
0.0014588
0.00145066
0.00144257
0.00143454
0.00142658
0.00141872
0.00141096
0.00140336
0.00139582
0.00138872
0.00138088
0.00169169
0.00169084
0.00168798
0.00168451
0.00168232
0.00167985
0.0016767
0.00167327
0.00166976
0.00166614
0.00166234
0.0016583
0.00165401
0.00164948
0.00164475
0.00163985
0.00163478
0.00162954
0.00162406
0.00161836
0.00161242
0.00160627
0.00159991
0.00159337
0.00158664
0.00157973
0.00157266
0.00156544
0.00155807
0.00155056
0.00154294
0.00153521
0.00152739
0.0015195
0.00151154
0.00150353
0.0014955
0.00148744
0.00147939
0.00147135
0.00146334
0.00145538
0.00144748
0.00143965
0.00143192
0.00142429
0.0014168
0.00140944
0.00140226
0.00139511
0.00138837
0.00138091
0.00169629
0.00169472
0.00169162
0.00168834
0.00168557
0.00168257
0.00167922
0.00167559
0.00167175
0.00166775
0.00166356
0.00165915
0.00165452
0.00164969
0.0016447
0.00163954
0.00163416
0.00162855
0.00162271
0.00161666
0.00161041
0.00160397
0.00159734
0.00159054
0.00158357
0.00157645
0.00156919
0.00156179
0.00155428
0.00154666
0.00153895
0.00153116
0.00152331
0.00151542
0.0015075
0.00149956
0.00149162
0.0014837
0.00147581
0.00146796
0.00146018
0.00145247
0.00144486
0.00143736
0.00142998
0.00142274
0.00141566
0.0014087
0.00140187
0.00139508
0.00138878
0.00138184
0.00170028
0.00169797
0.0016948
0.00169147
0.00168817
0.00168474
0.00168109
0.00167718
0.00167302
0.00166864
0.00166408
0.00165935
0.00165445
0.00164938
0.00164408
0.00163857
0.00163283
0.00162688
0.00162073
0.00161439
0.00160786
0.00160117
0.00159431
0.00158729
0.00158014
0.00157285
0.00156544
0.00155793
0.00155033
0.00154265
0.00153491
0.00152712
0.00151931
0.00151148
0.00150365
0.00149584
0.00148805
0.00148032
0.00147265
0.00146505
0.00145755
0.00145016
0.00144289
0.00143576
0.00142878
0.00142194
0.00141521
0.0014086
0.00140218
0.0013959
0.00139019
0.00138381
0.00170349
0.00170064
0.00169735
0.00169381
0.00169012
0.00168629
0.00168226
0.00167799
0.00167351
0.00166884
0.00166402
0.00165902
0.00165382
0.0016484
0.00164276
0.00163691
0.00163086
0.00162462
0.0016182
0.00161161
0.00160486
0.00159795
0.0015909
0.00158372
0.00157642
0.00156902
0.00156152
0.00155395
0.00154632
0.00153864
0.00153093
0.0015232
0.00151548
0.00150777
0.00150009
0.00149246
0.00148489
0.0014774
0.00146999
0.0014627
0.00145553
0.00144849
0.00144161
0.00143488
0.00142826
0.00142176
0.00141541
0.00140928
0.00140344
0.00139771
0.00139253
0.00138663
0.00170598
0.00170271
0.00169917
0.00169537
0.00169133
0.00168711
0.00168271
0.00167814
0.00167341
0.0016685
0.00166338
0.00165804
0.0016525
0.00164675
0.0016408
0.00163466
0.00162835
0.00162186
0.00161522
0.00160842
0.00160148
0.00159441
0.00158722
0.00157992
0.00157253
0.00156507
0.00155754
0.00154996
0.00154235
0.00153473
0.0015271
0.00151949
0.00151191
0.00150438
0.00149691
0.00148951
0.0014822
0.00147499
0.00146791
0.00146096
0.00145416
0.00144753
0.00144101
0.00143461
0.00142835
0.0014223
0.0014165
0.00141092
0.00140558
0.00140034
0.00139567
0.00139029
0.0017078
0.00170413
0.00170023
0.00169609
0.00169176
0.00168724
0.00168259
0.00167776
0.00167273
0.00166749
0.00166203
0.00165638
0.00165053
0.0016445
0.00163829
0.00163191
0.00162538
0.00161869
0.00161186
0.00160489
0.00159781
0.00159063
0.00158335
0.00157599
0.00156857
0.00156109
0.00155359
0.00154606
0.00153853
0.00153102
0.00152353
0.00151609
0.00150871
0.00150139
0.00149417
0.00148705
0.00148005
0.00147318
0.00146645
0.00145989
0.00145347
0.00144716
0.00144099
0.00143499
0.00142925
0.00142374
0.00141845
0.00141334
0.0014085
0.00140376
0.00139963
0.00139478
0.0017048
0.00170056
0.00169615
0.00169158
0.00168683
0.00168187
0.00167672
0.00167136
0.0016658
0.00166006
0.00165413
0.00164803
0.00164176
0.00163533
0.00162875
0.00162203
0.00161518
0.00160821
0.00160113
0.00159396
0.00158671
0.0015794
0.00157203
0.00156462
0.0015572
0.00154976
0.00154234
0.00153495
0.00152759
0.00152029
0.00151306
0.00150592
0.00149887
0.00149194
0.00148514
0.00147849
0.00147198
0.00146564
0.00145942
0.00145332
0.00144739
0.00144169
0.00143623
0.00143099
0.00142595
0.00142113
0.00141652
0.00141219
0.00140798
0.00140434
0.00139993
0.00170484
0.00170035
0.00169568
0.00169081
0.00168575
0.00168048
0.00167502
0.00166937
0.00166354
0.00165755
0.00165139
0.00164507
0.0016386
0.00163199
0.00162525
0.0016184
0.00161143
0.00160438
0.00159723
0.00159002
0.00158276
0.00157546
0.00156813
0.00156079
0.00155346
0.00154616
0.00153889
0.00153167
0.00152452
0.00151745
0.00151047
0.00150361
0.00149687
0.00149027
0.00148383
0.00147755
0.00147141
0.00146538
0.0014595
0.00145383
0.00144841
0.00144322
0.00143822
0.00143344
0.00142887
0.00142455
0.00142045
0.00141661
0.00141283
0.00140963
0.00140564
0.00170433
0.00169953
0.00169455
0.00168937
0.00168401
0.00167847
0.00167274
0.00166685
0.0016608
0.00165459
0.00164824
0.00164174
0.00163512
0.00162838
0.00162153
0.00161458
0.00160755
0.00160045
0.00159329
0.00158609
0.00157886
0.00157162
0.00156438
0.00155717
0.00154998
0.00154284
0.00153576
0.00152876
0.00152186
0.00151506
0.00150837
0.00150183
0.00149543
0.0014892
0.00148312
0.00147716
0.00147134
0.0014657
0.0014603
0.00145513
0.00145018
0.00144542
0.00144089
0.00143659
0.00143252
0.00142867
0.001425
0.00142157
0.00141821
0.00141548
0.00141198
0.00169805
0.00169278
0.00168734
0.00168172
0.00167594
0.00166999
0.0016639
0.00165765
0.00165127
0.00164477
0.00163814
0.0016314
0.00162457
0.00161766
0.00161066
0.00160362
0.00159652
0.00158939
0.00158225
0.00157511
0.00156797
0.00156087
0.00155381
0.00154681
0.00153988
0.00153303
0.00152629
0.00151966
0.00151316
0.00150681
0.00150061
0.00149459
0.00148869
0.00148292
0.0014773
0.00147191
0.00146676
0.00146183
0.0014571
0.00145259
0.0014483
0.00144425
0.00144041
0.00143676
0.00143331
0.00143005
0.00142708
0.0014242
0.00142195
0.00141891
0.00169599
0.00169048
0.0016848
0.00167896
0.00167298
0.00166685
0.00166059
0.0016542
0.00164769
0.00164107
0.00163435
0.00162755
0.00162067
0.00161373
0.00160674
0.00159972
0.00159267
0.00158562
0.00157858
0.00157156
0.00156458
0.00155765
0.00155079
0.00154401
0.00153732
0.00153074
0.00152429
0.00151797
0.00151181
0.00150581
0.00149997
0.00149425
0.00148866
0.00148327
0.00147813
0.00147321
0.00146849