/*--------------------------------*- C++ -*----------------------------------*\
| =========                 |                                                 |
| \\      /  F ield         | OpenFOAM: The Open Source CFD Toolbox           |
|  \\    /   O peration     | Version:  v1706                                 |
|   \\  /    A nd           | Web:      www.OpenFOAM.com                      |
|    \\/     M anipulation  |                                                 |
\*---------------------------------------------------------------------------*/
FoamFile
{
    version     2.0;
    format      ascii;
    class       volScalarField;
    location    "1.1e-05";
    object      Tv;
}
// * * * * * * * * * * * * * * * * * * * * * * * * * * * * * * * * * * * * * //

dimensions      [0 0 0 1 0 0 0];


internalField   nonuniform List<scalar> 
30038
(
144.4
144.4
144.4
144.4
144.4
144.4
144.4
144.4
144.4
144.4
144.4
144.4
144.4
144.4
144.4
144.4
144.4
144.4
144.4
144.4
144.4
144.4
144.4
144.4
144.4
144.4
144.4
144.4
144.4
144.4
144.4
144.4
144.4
144.4
144.4
144.4
144.4
144.4
144.4
144.4
144.4
144.4
144.4
144.4
144.4
144.4
144.4
144.4
144.4
144.4
144.4
144.4
144.4
144.4
144.4
144.4
144.4
144.4
144.4
144.4
144.4
144.4
144.4
144.4
144.4
144.4
144.4
144.4
144.4
144.4
144.4
144.4
144.4
144.4
144.4
144.4
144.4
144.4
144.4
144.4
144.4
144.4
144.4
144.4
144.4
144.4
144.4
144.4
144.4
144.4
144.4
144.4
144.4
144.4
144.4
144.4
144.4
144.4
144.4
144.4
144.4
144.4
144.4
144.4
144.4
144.4
144.4
144.4
144.4
144.4
144.4
144.4
144.4
144.4
144.4
144.4
144.4
144.4
144.4
144.4
144.4
144.4
144.4
144.4
144.4
144.4
144.4
144.4
144.4
144.4
144.4
144.4
144.4
144.4
144.4
144.4
144.4
144.4
144.4
144.4
144.4
144.4
144.4
144.4
144.4
144.4
144.4
144.4
144.4
144.4
144.4
144.4
144.4
144.4
144.4
144.4
144.4
144.4
144.4
144.4
144.4
144.4
144.4
144.4
144.4
144.4
144.4
144.4
144.4
144.4
144.4
144.4
144.4
144.4
144.4
144.4
144.4
144.4
144.4
144.4
144.4
144.4
144.4
144.4
144.4
144.4
144.4
144.4
144.4
144.4
144.4
144.4
144.4
144.4
144.4
144.4
144.4
144.4
144.4
144.4
144.4
144.4
144.4
144.4
144.4
144.4
144.4
144.4
144.4
144.4
144.4
144.4
144.4
144.4
144.4
144.4
144.4
144.4
144.4
144.4
144.4
144.4
144.4
144.4
144.4
144.4
144.4
144.4
144.4
144.4
144.4
144.4
144.4
144.4
144.4
144.4
144.4
144.4
144.4
144.4
144.4
144.4
144.4
144.4
144.4
144.4
144.4
144.4
144.4
144.4
144.4
144.4
144.4
144.4
144.4
144.4
144.4
144.4
144.4
144.4
144.4
144.4
144.4
144.4
144.4
144.4
144.4
144.4
144.4
144.4
144.4
144.4
144.4
144.4
144.4
144.4
144.4
144.4
144.4
144.4
144.4
144.4
144.4
144.4
144.4
144.4
144.4
144.4
144.4
144.4
144.4
144.4
144.4
144.4
144.4
144.4
144.4
144.4
144.4
144.4
144.4
144.4
144.4
144.4
144.4
144.4
144.4
144.4
144.4
144.4
144.4
144.4
144.4
144.4
144.4
144.4
144.4
144.4
144.4
144.4
144.4
144.4
144.4
144.4
144.4
144.4
144.4
144.4
144.4
144.4
144.4
144.4
144.4
144.4
144.4
144.4
144.4
144.4
144.4
144.4
144.4
144.4
144.4
144.4
144.4
144.4
144.4
144.4
144.4
144.4
144.4
144.4
144.4
144.4
144.4
144.4
144.4
144.4
144.4
144.4
144.4
144.4
144.4
144.4
144.4
144.4
144.4
144.4
144.4
144.4
144.4
144.4
144.4
144.4
144.4
144.4
144.4
144.4
144.4
144.4
144.4
144.4
144.4
144.4
144.4
144.4
144.4
144.4
144.4
144.4
144.4
144.4
144.4
144.4
144.4
144.4
144.4
144.4
144.4
144.4
144.4
144.4
144.4
144.4
144.4
144.4
144.4
144.4
144.4
144.4
144.4
144.4
144.4
144.4
144.4
144.4
144.4
144.4
144.4
144.4
144.4
144.4
144.4
144.4
144.4
144.4
144.4
144.4
144.4
144.4
144.4
144.4
144.4
144.4
144.4
144.4
144.4
144.4
144.4
144.4
144.4
144.4
144.4
144.4
144.4
144.4
144.4
144.4
144.4
144.4
144.4
144.4
144.4
144.4
144.4
144.4
144.4
144.4
144.4
144.4
144.4
144.4
144.4
144.4
144.4
144.4
144.4
144.4
144.4
144.4
144.4
144.4
144.4
144.4
144.4
144.4
144.4
144.4
144.4
144.4
144.4
144.4
144.4
144.4
144.4
144.4
144.4
144.4
144.4
144.4
144.4
144.4
144.4
144.4
144.4
144.4
144.4
144.4
144.4
144.4
144.4
144.4
144.4
144.4
144.4
144.4
144.4
144.4
144.4
144.4
144.4
144.4
144.4
144.4
144.4
144.4
144.4
144.4
144.4
144.4
144.4
144.4
144.4
144.4
144.4
144.4
144.4
144.4
144.4
144.4
144.4
144.4
144.4
144.4
144.4
144.4
144.4
144.4
144.4
144.4
144.4
144.4
144.4
144.4
144.4
144.4
144.4
144.4
144.4
144.4
144.4
144.4
144.4
144.4
144.4
144.4
144.4
144.4
144.4
144.4
144.4
144.4
144.4
144.4
144.4
144.4
144.4
144.4
144.4
144.4
144.4
144.4
144.4
144.4
144.4
144.4
144.4
144.4
144.4
144.4
144.4
144.4
144.4
144.4
144.4
144.4
144.4
144.4
144.4
144.4
144.4
144.4
144.4
144.4
144.4
144.4
144.4
144.4
144.4
144.4
144.4
144.4
144.4
144.4
144.4
144.4
144.4
144.4
144.4
144.4
144.4
144.4
144.4
144.4
144.4
144.4
144.4
144.4
144.4
144.4
144.4
144.4
144.4
144.4
144.4
144.4
144.4
144.4
144.4
144.4
144.4
144.4
144.4
144.4
144.4
144.4
144.4
144.4
144.4
144.4
144.4
144.4
144.4
144.4
144.4
144.4
144.4
144.4
144.4
144.4
144.4
144.4
144.4
144.4
144.4
144.4
144.4
144.4
144.4
144.4
144.4
144.4
144.4
144.4
144.4
144.4
144.4
144.4
144.4
144.4
144.4
144.4
144.4
144.4
144.4
144.4
144.4
144.4
144.4
144.4
144.4
144.4
144.4
144.4
144.4
144.4
144.4
144.4
144.4
144.4
144.4
144.4
144.4
144.4
144.4
144.4
144.4
144.4
144.4
144.4
144.4
144.4
144.4
144.4
144.4
144.4
144.4
144.4
144.4
144.4
144.4
144.4
144.4
144.4
144.4
144.4
144.4
144.4
144.4
144.4
144.4
144.4
144.4
144.4
144.4
144.4
144.4
144.4
144.4
144.4
144.4
144.4
144.4
144.4
144.4
144.4
144.4
144.4
144.4
144.4
144.4
144.4
144.4
144.4
144.4
144.4
144.4
144.4
144.4
144.4
144.4
144.4
144.4
144.4
144.4
144.4
144.4
144.4
144.4
144.4
144.4
144.4
144.4
144.4
144.4
144.4
144.4
144.4
144.4
144.4
144.4
144.4
144.4
144.4
144.4
144.4
144.4
144.4
144.4
144.4
144.4
144.4
144.4
144.4
144.4
144.4
144.4
144.4
144.4
144.4
144.4
144.4
144.4
144.4
144.4
144.4
144.4
144.4
144.4
144.4
144.4
144.4
144.4
144.4
144.4
144.4
144.4
144.4
144.4
144.4
144.4
144.4
144.4
144.4
144.4
144.4
144.4
144.4
144.4
144.4
144.4
144.4
144.4
144.4
144.4
144.4
144.4
144.4
144.4
144.4
144.4
144.4
144.4
144.4
144.4
144.4
144.4
144.4
144.4
144.4
144.4
144.4
144.4
144.4
144.4
144.4
144.4
144.4
144.4
144.4
144.4
144.4
144.4
144.4
144.4
144.4
144.4
144.4
144.4
144.4
144.4
144.4
144.4
144.4
144.4
144.4
144.4
144.4
144.4
144.4
144.4
144.4
144.4
144.4
144.4
144.4
144.4
144.4
144.4
144.4
144.4
144.4
144.4
144.4
144.4
144.4
144.4
144.4
144.4
144.4
144.4
144.4
144.4
144.4
144.4
144.4
144.4
144.4
144.4
144.4
144.4
144.4
144.4
144.4
144.4
144.4
144.4
144.4
144.4
144.4
144.4
144.4
144.4
144.4
144.4
144.4
144.4
144.4
144.4
144.4
144.4
144.4
144.4
144.4
144.4
144.4
144.4
144.4
144.4
144.4
144.4
144.4
144.4
144.4
144.4
144.4
144.4
144.4
144.4
144.4
144.4
144.4
144.4
144.4
144.4
144.4
144.4
144.4
144.4
144.4
144.4
144.4
144.4
144.4
144.4
144.4
144.4
144.4
144.4
144.4
144.4
144.4
144.4
144.4
144.4
144.4
144.4
144.4
144.4
144.4
144.4
144.4
144.4
144.4
144.4
144.4
144.4
144.4
144.4
144.4
144.4
144.4
144.4
144.4
144.4
144.4
144.4
144.4
144.4
144.4
144.4
144.4
144.4
144.4
144.4
144.4
144.4
144.4
144.4
144.4
144.4
144.4
144.4
144.4
144.4
144.4
144.4
144.4
144.4
144.4
144.4
144.4
144.4
144.4
144.4
144.4
144.4
144.4
144.4
144.4
144.4
144.4
144.4
144.4
144.4
144.4
144.4
144.4
144.4
144.4
144.4
144.4
144.4
144.4
144.4
144.4
144.4
144.4
144.4
144.4
144.4
144.4
144.4
144.4
144.4
144.4
144.4
144.4
144.4
144.4
144.4
144.4
144.4
144.4
144.4
144.4
144.4
144.4
144.4
144.4
144.4
144.4
144.4
144.4
144.4
144.4
144.4
144.4
144.4
144.4
144.4
144.4
144.4
144.4
144.4
144.4
144.4
144.4
144.4
144.4
144.4
144.4
144.4
144.4
144.4
144.4
144.4
144.4
144.4
144.4
144.4
144.4
144.4
144.4
144.4
144.4
144.4
144.4
144.4
144.4
144.4
144.4
144.4
144.4
144.4
144.4
144.4
144.4
144.4
144.4
144.4
144.4
144.4
144.4
144.4
144.4
144.4
144.4
144.4
144.4
144.4
144.4
144.4
144.4
144.4
144.4
144.4
144.4
144.4
144.4
144.4
144.4
144.4
144.4
144.4
144.4
144.4
144.4
144.4
144.4
144.4
144.4
144.4
144.4
144.4
144.4
144.4
144.4
144.4
144.4
144.4
144.4
144.4
144.4
144.4
144.4
144.4
144.4
144.4
144.4
144.4
144.4
144.4
144.4
144.4
144.4
144.4
144.4
144.4
144.4
144.4
144.4
144.4
144.4
144.4
144.4
144.4
144.4
144.4
144.4
144.4
144.4
144.4
144.4
144.4
144.4
144.4
144.4
144.4
144.4
144.4
144.4
144.4
144.4
144.4
144.4
144.4
144.4
144.4
144.4
144.4
144.4
144.4
144.4
144.4
144.4
144.4
144.4
144.4
144.4
144.4
144.4
144.4
144.4
144.4
144.4
144.4
144.4
144.4
144.4
144.4
144.4
144.4
144.4
144.4
144.4
144.4
144.4
144.4
144.4
144.4
144.4
144.4
144.4
144.4
144.4
144.4
144.4
144.4
144.4
144.4
144.4
144.4
144.4
144.4
144.4
144.4
144.4
144.4
144.4
144.4
144.4
144.4
144.4
144.4
144.4
144.4
144.4
144.4
144.4
144.4
144.4
144.4
144.4
144.4
144.4
144.4
144.4
144.4
144.4
144.4
144.4
144.4
144.4
144.4
144.4
144.4
144.4
144.4
144.4
144.4
144.4
144.4
144.4
144.4
144.4
144.4
144.4
144.4
144.4
144.4
144.4
144.4
144.4
144.4
144.4
144.4
144.4
144.4
144.4
144.4
144.4
144.4
144.4
144.4
144.4
144.4
144.4
144.4
144.4
144.4
144.4
144.4
144.4
144.4
144.4
144.4
144.4
144.4
144.4
144.4
144.4
144.4
144.4
144.4
144.4
144.4
144.4
144.4
144.4
144.4
144.4
144.4
144.4
144.4
144.4
144.4
144.4
144.4
144.4
144.4
144.401
144.4
144.4
144.4
144.4
144.4
144.4
144.4
144.4
144.4
144.4
144.4
144.4
144.4
144.4
144.4
144.4
144.4
144.4
144.4
144.4
144.4
144.4
144.4
144.4
144.4
144.4
144.4
144.4
144.4
144.4
144.4
144.4
144.4
144.4
144.4
144.4
144.4
144.4
144.4
144.4
144.4
144.4
144.4
144.4
144.4
144.4
144.401
144.401
144.401
144.401
144.4
144.4
144.4
144.4
144.4
144.4
144.4
144.4
144.4
144.4
144.4
144.4
144.4
144.4
144.4
144.4
144.4
144.4
144.4
144.4
144.4
144.4
144.4
144.4
144.4
144.4
144.4
144.4
144.4
144.4
144.4
144.4
144.4
144.4
144.4
144.4
144.4
144.4
144.4
144.4
144.4
144.4
144.4
144.401
144.401
144.401
144.401
144.401
144.401
144.402
144.4
144.4
144.4
144.4
144.4
144.4
144.4
144.4
144.4
144.4
144.4
144.4
144.4
144.4
144.4
144.4
144.4
144.4
144.4
144.4
144.4
144.4
144.4
144.4
144.4
144.4
144.4
144.4
144.4
144.4
144.4
144.4
144.4
144.4
144.4
144.4
144.4
144.4
144.4
144.4
144.401
144.401
144.401
144.401
144.401
144.401
144.402
144.402
144.403
144.403
144.4
144.4
144.4
144.4
144.4
144.4
144.4
144.4
144.4
144.4
144.4
144.4
144.4
144.4
144.4
144.4
144.4
144.4
144.4
144.4
144.4
144.4
144.4
144.4
144.4
144.4
144.4
144.4
144.4
144.4
144.4
144.4
144.4
144.4
144.4
144.4
144.4
144.401
144.401
144.401
144.401
144.401
144.402
144.402
144.402
144.403
144.403
144.404
144.404
144.405
144.4
144.4
144.4
144.4
144.4
144.4
144.4
144.4
144.4
144.4
144.4
144.4
144.4
144.4
144.4
144.4
144.4
144.4
144.4
144.4
144.4
144.4
144.4
144.4
144.4
144.4
144.4
144.4
144.4
144.4
144.4
144.4
144.4
144.4
144.401
144.401
144.401
144.401
144.401
144.402
144.402
144.402
144.403
144.403
144.404
144.405
144.405
144.406
144.408
144.409
144.4
144.4
144.4
144.4
144.4
144.4
144.4
144.4
144.4
144.4
144.4
144.4
144.4
144.4
144.4
144.4
144.4
144.4
144.4
144.4
144.4
144.4
144.4
144.4
144.4
144.4
144.4
144.4
144.4
144.4
144.401
144.401
144.401
144.401
144.401
144.401
144.402
144.402
144.402
144.403
144.403
144.404
144.405
144.405
144.406
144.408
144.409
144.411
144.412
144.415
144.4
144.4
144.4
144.4
144.4
144.4
144.4
144.4
144.4
144.4
144.4
144.4
144.4
144.4
144.4
144.4
144.4
144.4
144.4
144.4
144.4
144.4
144.4
144.4
144.4
144.4
144.4
144.401
144.401
144.401
144.401
144.401
144.401
144.402
144.402
144.402
144.403
144.403
144.404
144.405
144.406
144.407
144.408
144.409
144.411
144.413
144.415
144.417
144.42
144.424
144.4
144.4
144.4
144.4
144.4
144.4
144.4
144.4
144.4
144.4
144.4
144.4
144.4
144.4
144.4
144.4
144.4
144.4
144.4
144.4
144.4
144.4
144.4
144.4
144.401
144.401
144.401
144.401
144.401
144.401
144.402
144.402
144.402
144.403
144.403
144.404
144.405
144.406
144.407
144.408
144.409
144.411
144.413
144.415
144.418
144.42
144.424
144.428
144.432
144.438
144.4
144.4
144.4
144.4
144.4
144.4
144.4
144.4
144.4
144.4
144.4
144.4
144.4
144.4
144.4
144.4
144.4
144.4
144.4
144.4
144.4
144.401
144.401
144.401
144.401
144.401
144.401
144.402
144.402
144.402
144.403
144.403
144.404
144.405
144.406
144.407
144.408
144.409
144.411
144.413
144.415
144.418
144.421
144.424
144.428
144.433
144.438
144.444
144.45
144.458
144.4
144.4
144.4
144.4
144.4
144.4
144.4
144.4
144.4
144.4
144.4
144.4
144.4
144.4
144.4
144.4
144.4
144.4
144.401
144.401
144.401
144.401
144.401
144.401
144.402
144.402
144.402
144.403
144.403
144.404
144.405
144.406
144.407
144.408
144.409
144.411
144.413
144.415
144.418
144.421
144.424
144.428
144.433
144.438
144.444
144.451
144.458
144.467
144.477
144.489
144.4
144.4
144.4
144.4
144.4
144.4
144.4
144.4
144.4
144.4
144.4
144.4
144.4
144.4
144.4
144.401
144.401
144.401
144.401
144.401
144.401
144.402
144.402
144.402
144.403
144.403
144.404
144.405
144.406
144.407
144.408
144.409
144.411
144.413
144.415
144.418
144.421
144.424
144.428
144.432
144.438
144.444
144.451
144.458
144.467
144.477
144.489
144.502
144.516
144.533
144.4
144.4
144.4
144.4
144.4
144.4
144.4
144.4
144.4
144.4
144.4
144.4
144.4
144.401
144.401
144.401
144.401
144.401
144.401
144.402
144.402
144.402
144.403
144.403
144.404
144.405
144.405
144.406
144.408
144.409
144.411
144.413
144.415
144.417
144.42
144.424
144.428
144.432
144.437
144.443
144.45
144.458
144.467
144.477
144.489
144.501
144.516
144.533
144.551
144.572
144.596
144.4
144.4
144.4
144.4
144.4
144.4
144.4
144.4
144.4
144.4
144.401
144.401
144.401
144.401
144.401
144.401
144.402
144.402
144.402
144.403
144.403
144.404
144.405
144.405
144.406
144.408
144.409
144.411
144.412
144.415
144.417
144.42
144.423
144.427
144.432
144.437
144.443
144.45
144.457
144.466
144.476
144.488
144.501
144.515
144.532
144.55
144.571
144.595
144.621
144.65
144.684
144.4
144.4
144.4
144.4
144.4
144.4
144.4
144.4
144.401
144.401
144.401
144.401
144.401
144.401
144.402
144.402
144.402
144.403
144.403
144.404
144.404
144.405
144.406
144.407
144.409
144.41
144.412
144.414
144.417
144.42
144.423
144.427
144.431
144.436
144.442
144.449
144.456
144.465
144.475
144.486
144.499
144.514
144.53
144.549
144.569
144.593
144.619
144.648
144.681
144.717
144.758
144.804
144.4
144.4
144.4
144.4
144.4
144.401
144.401
144.401
144.401
144.401
144.401
144.402
144.402
144.402
144.403
144.403
144.404
144.404
144.405
144.406
144.407
144.409
144.41
144.412
144.414
144.416
144.419
144.422
144.426
144.431
144.435
144.441
144.448
144.455
144.464
144.474
144.485
144.497
144.512
144.528
144.546
144.567
144.59
144.616
144.645
144.677
144.713
144.754
144.798
144.848
144.903
144.965
144.4
144.4
144.401
144.401
144.401
144.401
144.401
144.401
144.402
144.402
144.402
144.403
144.403
144.404
144.404
144.405
144.406
144.407
144.408
144.41
144.412
144.414
144.416
144.419
144.422
144.425
144.43
144.435
144.44
144.447
144.454
144.462
144.472
144.483
144.495
144.509
144.525
144.543
144.563
144.586
144.612
144.64
144.672
144.708
144.748
144.792
144.841
144.896
144.956
145.022
145.096
145.178
144.401
144.401
144.401
144.401
144.401
144.401
144.402
144.402
144.402
144.403
144.404
144.404
144.405
144.406
144.407
144.408
144.41
144.411
144.413
144.415
144.418
144.421
144.425
144.429
144.434
144.439
144.445
144.452
144.46
144.47
144.48
144.493
144.506
144.522
144.539
144.559
144.581
144.607
144.635
144.666
144.701
144.74
144.784
144.833
144.886
144.946
145.011
145.084
145.163
145.251
145.347
145.454
144.401
144.401
144.401
144.402
144.402
144.402
144.403
144.403
144.404
144.405
144.406
144.407
144.408
144.409
144.411
144.413
144.415
144.418
144.42
144.424
144.428
144.432
144.438
144.444
144.451
144.458
144.468
144.478
144.49
144.503
144.518
144.535
144.554
144.576
144.601
144.628
144.659
144.693
144.732
144.774
144.822
144.875
144.933
144.998
145.069
145.147
145.233
145.327
145.431
145.544
145.667
145.804
144.402
144.402
144.402
144.403
144.403
144.404
144.405
144.405
144.406
144.408
144.409
144.411
144.412
144.414
144.417
144.42
144.423
144.427
144.431
144.436
144.442
144.449
144.456
144.465
144.475
144.486
144.499
144.514
144.53
144.549
144.57
144.594
144.621
144.651
144.684
144.721
144.763
144.81
144.861
144.918
144.981
145.051
145.128
145.212
145.305
145.406
145.517
145.637
145.769
145.912
146.067
146.237
144.403
144.403
144.404
144.404
144.405
144.406
144.407
144.409
144.41
144.412
144.414
144.416
144.419
144.422
144.426
144.43
144.435
144.44
144.447
144.454
144.462
144.472
144.483
144.495
144.509
144.525
144.543
144.564
144.587
144.612
144.641
144.674
144.71
144.751
144.796
144.846
144.902
144.963
145.031
145.106
145.188
145.279
145.378
145.486
145.604
145.733
145.872
146.024
146.187
146.364
146.556
146.764
144.405
144.406
144.407
144.408
144.41
144.411
144.413
144.416
144.418
144.421
144.425
144.429
144.433
144.439
144.445
144.452
144.46
144.469
144.479
144.491
144.505
144.52
144.537
144.557
144.579
144.604
144.632
144.663
144.698
144.737
144.781
144.829
144.883
144.943
145.009
145.082
145.162
145.25
145.347
145.452
145.567
145.693
145.829
145.977
146.137
146.309
146.495
146.695
146.91
147.141
147.389
144.408
144.409
144.411
144.413
144.415
144.417
144.42
144.424
144.427
144.432
144.437
144.443
144.449
144.457
144.466
144.476
144.487
144.5
144.515
144.531
144.55
144.571
144.595
144.621
144.652
144.685
144.723
144.765
144.812
144.863
144.921
144.985
145.055
145.133
145.218
145.312
145.415
145.527
145.649
145.782
145.926
146.081
146.25
146.431
146.626
146.835
147.058
147.297
147.553
147.825
148.116
144.412
144.414
144.417
144.419
144.423
144.426
144.43
144.435
144.441
144.447
144.454
144.463
144.472
144.483
144.495
144.509
144.525
144.543
144.563
144.585
144.611
144.64
144.672
144.708
144.748
144.793
144.843
144.898
144.96
145.027
145.102
145.185
145.275
145.374
145.483
145.601
145.73
145.87
146.021
146.185
146.362
146.551
146.755
146.973
147.205
147.453
147.717
147.997
148.294
148.609
148.944
144.421
144.425
144.429
144.433
144.439
144.445
144.452
144.459
144.468
144.479
144.49
144.503
144.518
144.535
144.554
144.576
144.6
144.628
144.658
144.693
144.731
144.774
144.821
144.874
144.933
144.998
145.07
145.149
145.236
145.332
145.437
145.551
145.675
145.811
145.957
146.116
146.287
146.471
146.669
146.881
147.108
147.349
147.606
147.878
148.166
148.471
148.793
149.132
149.49
149.867
144.432
144.437
144.442
144.449
144.456
144.465
144.474
144.485
144.498
144.512
144.528
144.546
144.567
144.59
144.616
144.645
144.677
144.714
144.754
144.8
144.85
144.906
144.968
145.037
145.113
145.196
145.288
145.388
145.498
145.618
145.748
145.89
146.043
146.209
146.387
146.579
146.784
147.004
147.239
147.488
147.753
148.034
148.33
148.643
148.972
149.318
149.681
150.062
150.46
150.878
144.446
144.453
144.461
144.47
144.481
144.492
144.506
144.521
144.538
144.557
144.579
144.603
144.631
144.662
144.696
144.735
144.778
144.826
144.879
144.938
145.004
145.076
145.155
145.243
145.339
145.444
145.559
145.684
145.82
145.967
146.127
146.299
146.484
146.683
146.896
147.123
147.365
147.622
147.895
148.184
148.488
148.808
149.145
149.497
149.867
150.252
150.655
151.075
151.512
151.969
144.466
144.476
144.487
144.5
144.514
144.53
144.548
144.569
144.592
144.617
144.647
144.679
144.716
144.756
144.802
144.852
144.908
144.97
145.038
145.114
145.197
145.289
145.389
145.499
145.618
145.748
145.89
146.043
146.208
146.386
146.578
146.783
147.003
147.237
147.486
147.751
148.031
148.326
148.638
148.965
149.308
149.668
150.043
150.434
150.842
151.265
151.705
152.161
152.635
153.127
144.494
144.507
144.522
144.539
144.558
144.58
144.604
144.632
144.662
144.697
144.735
144.778
144.825
144.878
144.936
145.001
145.073
145.152
145.238
145.334
145.438
145.552
145.676
145.811
145.957
146.116
146.286
146.47
146.668
146.879
147.105
147.346
147.602
147.873
148.159
148.461
148.779
149.113
149.462
149.828
150.209
150.605
151.017
151.445
151.889
152.347
152.822
153.312
153.819
154.344
144.53
144.548
144.569
144.592
144.617
144.646
144.678
144.714
144.754
144.799
144.848
144.904
144.965
145.032
145.107
145.189
145.279
145.378
145.486
145.604
145.732
145.871
146.022
146.186
146.362
146.551
146.754
146.971
147.202
147.449
147.71
147.987
148.28
148.588
148.912
149.251
149.606
149.977
150.363
150.765
151.181
151.613
152.06
152.521
152.998
153.489
153.995
154.517
155.054
155.608
144.579
144.603
144.63
144.66
144.694
144.731
144.773
144.82
144.872
144.929
144.992
145.062
145.14
145.225
145.318
145.42
145.532
145.653
145.786
145.929
146.085
146.252
146.433
146.627
146.835
147.057
147.294
147.546
147.813
148.095
148.393
148.706
149.035
149.38
149.74
150.115
150.506
150.912
151.332
151.768
152.218
152.682
153.161
153.653
154.16
154.681
155.216
155.765
156.33
156.91
144.674
144.709
144.748
144.792
144.84
144.894
144.954
145.019
145.092
145.172
145.26
145.356
145.461
145.576
145.701
145.837
145.985
146.144
146.316
146.501
146.699
146.912
147.138
147.38
147.636
147.908
148.195
148.497
148.815
149.149
149.498
149.862
150.242
150.636
151.046
151.47
151.909
152.362
152.828
153.309
153.803
154.31
154.831
155.365
155.913
156.474
157.049
157.638
158.242
144.765
144.811
144.861
144.916
144.978
145.046
145.121
145.203
145.293
145.392
145.501
145.619
145.747
145.886
146.037
146.2
146.376
146.564
146.767
146.983
147.214
147.459
147.72
147.995
148.286
148.593
148.915
149.252
149.605
149.973
150.356
150.754
151.167
151.594
152.036
152.491
152.96
153.442
153.937
154.445
154.966
155.5
156.047
156.606
157.177
157.762
158.36
158.972
159.597
144.881
144.938
145.001
145.071
145.148
145.233
145.326
145.427
145.538
145.659
145.79
145.933
146.087
146.253
146.432
146.624
146.83
147.049
147.284
147.533
147.797
148.076
148.37
148.68
149.006
149.346
149.702
150.073
150.459
150.86
151.275
151.705
152.148
152.605
153.076
153.559
154.056
154.564
155.086
155.619
156.165
156.722
157.292
157.873
158.467
159.073
159.692
160.324
160.969
145.096
145.175
145.262
145.357
145.46
145.574
145.697
145.831
145.976
146.133
146.302
146.484
146.679
146.888
147.11
147.348
147.6
147.867
148.149
148.446
148.759
149.087
149.43
149.789
150.162
150.55
150.953
151.371
151.802
152.247
152.705
153.177
153.661
154.158
154.667
155.189
155.722
156.266
156.822
157.39
157.969
158.559
159.161
159.775
160.4
161.038
161.689
162.353
145.289
145.386
145.492
145.607
145.733
145.869
146.017
146.176
146.347
146.532
146.729
146.941
147.166
147.406
147.661
147.93
148.215
148.514
148.829
149.159
149.505
149.865
150.24
150.63
151.034
151.453
151.885
152.331
152.791
153.263
153.748
154.245
154.754
155.275
155.807
156.351
156.906
157.472
158.049
158.636
159.235
159.844
160.464
161.096
161.739
162.395
163.063
163.743
145.639
145.767
145.905
146.054
146.216
146.389
146.576
146.776
146.989
147.217
147.459
147.715
147.986
148.273
148.574
148.891
149.223
149.569
149.931
150.307
150.698
151.104
151.523
151.956
152.402
152.862
153.334
153.819
154.316
154.825
155.345
155.876
156.419
156.972
157.536
158.111
158.696
159.291
159.897
160.513
161.14
161.777
162.426
163.086
163.757
164.441
165.137
145.938
146.089
146.252
146.428
146.616
146.818
147.033
147.262
147.505
147.763
148.036
148.324
148.627
148.944
149.277
149.625
149.987
150.364
150.756
151.161
151.581
152.014
152.46
152.919
153.391
153.875
154.372
154.88
155.399
155.929
156.47
157.022
157.584
158.156
158.739
159.331
159.934
160.546
161.168
161.801
162.444
163.097
163.76
164.435
165.122
165.821
166.531
146.463
146.652
146.855
147.072
147.302
147.547
147.806
148.079
148.368
148.671
148.99
149.323
149.671
150.034
150.411
150.802
151.208
151.627
152.059
152.505
152.964
153.435
153.918
154.413
154.919
155.437
155.966
156.505
157.055
157.615
158.185
158.765
159.354
159.953
160.562
161.18
161.808
162.446
163.093
163.751
164.418
165.097
165.786
166.486
167.199
167.923
146.889
147.106
147.338
147.583
147.842
148.117
148.406
148.709
149.028
149.361
149.709
150.071
150.448
150.839
151.243
151.662
152.093
152.538
152.995
153.465
153.947
154.44
154.945
155.461
155.987
156.525
157.072
157.63
158.197
158.774
159.36
159.956
160.561
161.176
161.799
162.432
163.075
163.726
164.388
165.059
165.74
166.432
167.134
167.848
168.574
169.311
147.369
147.615
147.874
148.149
148.437
148.741
149.059
149.391
149.739
150.1
150.476
150.866
151.269
151.686
152.116
152.559
153.015
153.482
153.962
154.454
154.956
155.47
155.994
156.529
157.074
157.628
158.193
158.767
159.35
159.942
160.544
161.154
161.774
162.402
163.04
163.686
164.342
165.007
165.681
166.365
167.059
167.764
168.479
169.205
169.943
170.693
147.903
148.176
148.464
148.767
149.084
149.415
149.761
150.121
150.496
150.884
151.286
151.701
152.129
152.57
153.023
153.489
153.966
154.455
154.955
155.466
155.987
156.519
157.061
157.612
158.173
158.744
159.324
159.913
160.51
161.117
161.732
162.356
162.989
163.63
164.28
164.94
165.608
166.285
166.971
167.668
168.374
169.09
169.817
170.556
171.306
172.067
148.489
148.79
149.105
149.435
149.779
150.137
150.509
150.895
151.294
151.707
152.132
152.571
153.021
153.484
153.958
154.444
154.941
155.449
155.967
156.496
157.034
157.582
158.14
158.707
159.283
159.867
160.461
161.064
161.675
162.294
162.922
163.558
164.203
164.857
165.519
166.19
166.87
167.559
168.257
168.964
169.682
170.41
171.148
171.898
172.66
173.432
149.125
149.452
149.793
150.149
150.518
150.901
151.297
151.707
152.129
152.564
153.011
153.471
153.941
154.424
154.917
155.421
155.936
156.46
156.995
157.539
158.093
158.655
159.227
159.808
160.397
160.995
161.602
162.217
162.84
163.471
164.111
164.759
165.415
166.08
166.754
167.436
168.126
168.826
169.536
170.254
170.983
171.722
172.471
173.232
174.004
174.787
149.81
150.161
150.526
150.905
151.297
151.703
152.121
152.552
152.995
153.45
153.917
154.395
154.884
155.384
155.894
156.414
156.944
157.484
158.033
158.592
159.159
159.735
160.32
160.913
161.515
162.125
162.743
163.369
164.004
164.646
165.297
165.956
166.623
167.299
167.982
168.675
169.376
170.087
170.807
171.536
172.275
173.024
173.784
174.555
175.338
176.132
150.915
151.301
151.701
152.114
152.539
152.977
153.427
153.888
154.361
154.845
155.34
155.845
156.36
156.885
157.42
157.964
158.518
159.08
159.651
160.231
160.819
161.415
162.02
162.633
163.254
163.883
164.52
165.165
165.818
166.478
167.148
167.825
168.51
169.204
169.907
170.618
171.339
172.069
172.808
173.557
174.317
175.087
175.868
176.661
177.465
151.712
152.116
152.534
152.965
153.407
153.862
154.328
154.805
155.293
155.792
156.301
156.821
157.349
157.888
158.435
158.992
159.557
160.131
160.714
161.304
161.903
162.511
163.126
163.749
164.38
165.019
165.666
166.321
166.983
167.654
168.333
169.019
169.715
170.418
171.13
171.851
172.581
173.321
174.07
174.829
175.598
176.378
177.169
177.972
178.785
152.551
152.971
153.403
153.848
154.304
154.773
155.252
155.743
156.244
156.756
157.277
157.808
158.349
158.898
159.457
160.025
160.601
161.185
161.778
162.379
162.988
163.604
164.229
164.862
165.502
166.15
166.806
167.47
168.142
168.822
169.51
170.206
170.91
171.623
172.344
173.075
173.814
174.563
175.321
176.089
176.868
177.657
178.457
179.27
180.092
153.865
154.308
154.763
155.23
155.709
156.199
156.7
157.212
157.734
158.265
158.806
159.357
159.916
160.484
161.061
161.646
162.24
162.842
163.452
164.069
164.695
165.329
165.97
166.619
167.276
167.941
168.613
169.294
169.982
170.679
171.383
172.096
172.818
173.548
174.287
175.035
175.793
176.56
177.338
178.125
178.924
179.733
180.554
181.386
154.804
155.252
155.713
156.186
156.672
157.169
157.677
158.196
158.726
159.265
159.814
160.372
160.939
161.515
162.1
162.693
163.295
163.905
164.523
165.148
165.782
166.423
167.073
167.73
168.395
169.068
169.748
170.437
171.133
171.838
172.551
173.273
174.003
174.741
175.489
176.246
177.012
177.788
178.574
179.37
180.177
180.996
181.826
182.666
155.795
156.241
156.702
157.176
157.664
158.164
158.675
159.199
159.732
160.277
160.831
161.395
161.968
162.55
163.142
163.741
164.35
164.966
165.591
166.223
166.864
167.513
168.169
168.834
169.506
170.187
170.875
171.571
172.275
172.988
173.709
174.438
175.176
175.923
176.679
177.444
178.219
179.003
179.797
180.602
181.418
182.245
183.083
183.932
156.847
157.284
157.738
158.207
158.69
159.188
159.699
160.222
160.757
161.303
161.86
162.427
163.004
163.59
164.186
164.79
165.404
166.026
166.656
167.295
167.942
168.597
169.26
169.931
170.61
171.298
171.993
172.696
173.408
174.128
174.857
175.594
176.339
177.094
177.858
178.631
179.413
180.205
181.008
181.821
182.645
183.48
184.326
185.183
158.394
158.831
159.287
159.76
160.249
160.753
161.272
161.803
162.347
162.903
163.47
164.048
164.636
165.234
165.842
166.459
167.085
167.72
168.364
169.016
169.676
170.345
171.022
171.707
172.401
173.103
173.813
174.531
175.258
175.994
176.738
177.491
178.253
179.024
179.805
180.595
181.395
182.205
183.026
183.858
184.7
185.555
186.419
159.588
159.999
160.432
160.885
161.358
161.848
162.355
162.878
163.415
163.966
164.529
165.105
165.692
166.29
166.898
167.517
168.145
168.783
169.43
170.086
170.751
171.424
172.106
172.797
173.496
174.204
174.92
175.645
176.378
177.12
177.871
178.631
179.4
180.179
180.967
181.764
182.572
183.389
184.218
185.057
185.907
186.769
187.641
160.886
161.258
161.657
162.081
162.528
162.996
163.484
163.991
164.515
165.055
165.61
166.179
166.761
167.356
167.962
168.58
169.209
169.847
170.496
171.154
171.822
172.499
173.185
173.88
174.584
175.297
176.019
176.749
177.489
178.237
178.994
179.761
180.536
181.321
182.116
182.921
183.735
184.56
185.396
186.242
187.099
187.968
188.848
162.63
162.983
163.365
163.775
164.211
164.671
165.154
165.658
166.181
166.721
167.279
167.851
168.439
169.039
169.653
170.279
170.916
171.565
172.223
172.893
173.572
174.261
174.959
175.667
176.384
177.11
177.846
178.59
179.344
180.107
180.879
181.661
182.453
183.254
184.065
184.886
185.718
186.56
187.413
188.277
189.153
190.039
164.134
164.429
164.758
165.119
165.512
165.934
166.383
166.857
167.355
167.874
168.413
168.97
169.545
170.136
170.741
171.361
171.994
172.639
173.296
173.965
174.644
175.334
176.035
176.745
177.465
178.195
178.934
179.683
180.442
181.21
181.988
182.775
183.573
184.38
185.197
186.024
186.862
187.711
188.571
189.441
190.324
191.216
165.786
166.012
166.277
166.579
166.917
167.29
167.694
168.129
168.592
169.081
169.594
170.129
170.685
171.26
171.853
172.462
173.086
173.725
174.377
175.042
175.72
176.409
177.109
177.821
178.542
179.275
180.017
180.77
181.532
182.305
183.087
183.88
184.682
185.495
186.317
187.151
187.994
188.849
189.715
190.591
191.48
192.379
167.592
167.743
167.936
168.17
168.444
168.756
169.106
169.491
169.909
170.358
170.836