/*--------------------------------*- C++ -*----------------------------------*\
| =========                 |                                                 |
| \\      /  F ield         | OpenFOAM: The Open Source CFD Toolbox           |
|  \\    /   O peration     | Version:  v1706                                 |
|   \\  /    A nd           | Web:      www.OpenFOAM.com                      |
|    \\/     M anipulation  |                                                 |
\*---------------------------------------------------------------------------*/
FoamFile
{
    version     2.0;
    format      ascii;
    class       volVectorField;
    location    "1.1e-05";
    object      U;
}
// * * * * * * * * * * * * * * * * * * * * * * * * * * * * * * * * * * * * * //

dimensions      [0 1 -1 0 0 0 0];


internalField   nonuniform List<vector> 
30038
(
(978.58 9.18643e-08 6.80759e-15)
(978.58 1.18526e-07 6.77265e-15)
(978.58 1.53086e-07 8.81511e-15)
(978.58 1.97926e-07 5.40236e-15)
(978.58 2.56156e-07 6.72193e-15)
(978.58 3.31841e-07 7.69662e-15)
(978.58 4.30296e-07 9.99476e-15)
(978.58 5.58477e-07 9.49659e-15)
(978.58 7.25501e-07 6.15672e-15)
(978.58 9.43328e-07 8.22531e-15)
(978.58 1.22766e-06 1.1015e-14)
(978.58 1.59914e-06 7.56432e-15)
(978.58 2.08489e-06 6.25208e-15)
(978.58 2.72054e-06 5.32583e-15)
(978.58 3.5529e-06 8.36976e-15)
(978.58 4.64344e-06 9.43779e-15)
(978.58 6.07306e-06 6.79632e-15)
(978.58 7.94838e-06 4.97148e-15)
(978.58 1.04104e-05 6.7626e-15)
(978.58 1.36456e-05 8.65726e-15)
(978.58 1.79009e-05 7.98027e-15)
(978.58 2.35024e-05 5.45104e-15)
(978.58 3.08793e-05 4.4121e-15)
(978.58 4.05956e-05 8.98057e-15)
(978.58 5.33945e-05 6.75245e-15)
(978.58 7.02595e-05 4.46949e-15)
(978.58 9.24985e-05 5.03061e-15)
(978.58 0.000121856 8.81745e-15)
(978.58 0.000160655 1.0379e-14)
(978.58 0.000211966 8.16338e-15)
(978.58 0.000279835 7.705e-15)
(978.58 0.000369576 9.53454e-15)
(978.58 0.000488211 7.3209e-15)
(978.579 0.000645237 8.24278e-15)
(978.579 0.000852925 1.0458e-14)
(978.579 0.00112752 6.30854e-15)
(978.579 0.00152865 3.42597e-15)
(978.578 0.00203894 7.66574e-15)
(978.58 4.71686e-07 2.03184e-14)
(978.58 6.07299e-07 2.28145e-14)
(978.58 7.82641e-07 2.13211e-14)
(978.58 1.00955e-06 2.15789e-14)
(978.58 1.30344e-06 2.35082e-14)
(978.58 1.68442e-06 2.2809e-14)
(978.58 2.17873e-06 2.40776e-14)
(978.58 2.82062e-06 2.18104e-14)
(978.58 3.65484e-06 1.86868e-14)
(978.58 4.73989e-06 2.2057e-14)
(978.58 6.15221e-06 2.0948e-14)
(978.58 7.99176e-06 1.81169e-14)
(978.58 1.03894e-05 2.02239e-14)
(978.58 1.35166e-05 2.1361e-14)
(978.58 1.75985e-05 2.21717e-14)
(978.58 2.29307e-05 2.1495e-14)
(978.58 2.99021e-05 2.14144e-14)
(978.58 3.9023e-05 2.05681e-14)
(978.58 5.09634e-05 1.98955e-14)
(978.58 6.66015e-05 2.13027e-14)
(978.58 8.70895e-05 2.08864e-14)
(978.58 0.000113943 2.18973e-14)
(978.58 0.00014916 2.17547e-14)
(978.58 0.000195384 2.04968e-14)
(978.58 0.000256107 1.97796e-14)
(978.58 0.000335935 2.05334e-14)
(978.58 0.000440916 2.07766e-14)
(978.579 0.000578981 2.03842e-14)
(978.579 0.000760552 2.32305e-14)
(978.579 0.000999381 2.09903e-14)
(978.579 0.00131372 1.94671e-14)
(978.578 0.00172781 2.69791e-14)
(978.578 0.00227376 2.53979e-14)
(978.577 0.00299393 2.2986e-14)
(978.576 0.00394618 2.33584e-14)
(978.575 0.00518124 1.92266e-14)
(978.573 0.00694552 1.98166e-14)
(978.571 0.00925335 2.20441e-14)
(978.58 1.40824e-06 3.47294e-14)
(978.58 1.80876e-06 3.62352e-14)
(978.58 2.32534e-06 3.31336e-14)
(978.58 2.99221e-06 3.23711e-14)
(978.58 3.85381e-06 3.44439e-14)
(978.58 4.96793e-06 3.48597e-14)
(978.58 6.40971e-06 3.34457e-14)
(978.58 8.27695e-06 2.89676e-14)
(978.58 1.0697e-05 3.06066e-14)
(978.58 1.38358e-05 3.07317e-14)
(978.58 1.791e-05 2.97525e-14)
(978.58 2.32024e-05 3.23065e-14)
(978.58 3.00825e-05 3.42191e-14)
(978.58 3.90334e-05 3.37658e-14)
(978.58 5.06862e-05 3.32221e-14)
(978.58 6.58653e-05 3.47949e-14)
(978.58 8.5648e-05 3.34538e-14)
(978.58 0.000111444 3.26453e-14)
(978.58 0.000145101 3.23255e-14)
(978.58 0.000189044 3.17371e-14)
(978.58 0.00024646 3.19697e-14)
(978.58 0.000321531 3.30926e-14)
(978.579 0.000419734 3.11071e-14)
(978.579 0.000548239 3.27742e-14)
(978.579 0.000716432 3.56855e-14)
(978.579 0.000936637 3.42912e-14)
(978.579 0.00122508 3.17863e-14)
(978.578 0.00160317 3.05352e-14)
(978.578 0.0020991 3.43372e-14)
(978.577 0.00274991 3.54702e-14)
(978.576 0.00360406 3.5478e-14)
(978.575 0.00472503 3.7618e-14)
(978.573 0.00619621 3.54589e-14)
(978.571 0.00812698 3.59404e-14)
(978.568 0.0106712 3.68601e-14)
(978.564 0.0139589 3.58826e-14)
(978.559 0.0186147 3.29986e-14)
(978.553 0.0246146 3.54287e-14)
(978.58 3.73847e-06 4.72105e-14)
(978.58 4.79305e-06 4.72234e-14)
(978.58 6.15072e-06 4.5335e-14)
(978.58 7.90003e-06 4.52166e-14)
(978.58 1.01558e-05 4.7453e-14)
(978.58 1.30668e-05 4.45608e-14)
(978.58 1.68266e-05 4.32221e-14)
(978.58 2.16864e-05 4.37715e-14)
(978.58 2.79733e-05 4.52452e-14)
(978.58 3.61123e-05 4.43474e-14)
(978.58 4.6657e-05 4.61588e-14)
(978.58 6.03275e-05 4.61852e-14)
(978.58 7.80612e-05 4.61766e-14)
(978.58 0.00010108 4.13554e-14)
(978.58 0.000130976 4.36015e-14)
(978.58 0.000169834 4.44013e-14)
(978.58 0.000220377 4.39188e-14)
(978.58 0.000286166 4.72345e-14)
(978.58 0.000371851 4.68789e-14)
(978.579 0.000483499 4.50097e-14)
(978.579 0.000629023 4.43538e-14)
(978.579 0.000818767 4.39944e-14)
(978.579 0.00106629 4.74753e-14)
(978.578 0.00138942 4.81938e-14)
(978.578 0.00181156 4.69398e-14)
(978.577 0.00236338 4.72263e-14)
(978.576 0.00308493 4.61172e-14)
(978.575 0.00402843 4.47364e-14)
(978.574 0.00526217 4.73711e-14)
(978.572 0.00687583 4.83666e-14)
(978.569 0.00898771 4.7287e-14)
(978.566 0.0117537 4.91211e-14)
(978.562 0.0153785 4.80713e-14)
(978.556 0.0201268 4.77395e-14)
(978.549 0.0263676 5.00679e-14)
(978.54 0.034409 5.0998e-14)
(978.527 0.0457274 4.98529e-14)
(978.511 0.0602399 5.07231e-14)
(978.58 9.47955e-06 5.68206e-14)
(978.58 1.21366e-05 5.8354e-14)
(978.58 1.55523e-05 5.80597e-14)
(978.58 1.9947e-05 5.67341e-14)
(978.58 2.5606e-05 5.53949e-14)
(978.58 3.2899e-05 5.66503e-14)
(978.58 4.2305e-05 5.74338e-14)
(978.58 5.44455e-05 5.85981e-14)
(978.58 7.01259e-05 5.9337e-14)
(978.58 9.03922e-05 5.91332e-14)
(978.58 0.000116603 5.75033e-14)
(978.58 0.000150528 5.66774e-14)
(978.58 0.000194468 5.49396e-14)
(978.58 0.000251425 5.60945e-14)
(978.58 0.000325304 5.83765e-14)
(978.579 0.00042119 5.99861e-14)
(978.579 0.00054569 6.19275e-14)
(978.579 0.000707413 5.9286e-14)
(978.579 0.000917589 5.74766e-14)
(978.578 0.00119092 5.99395e-14)
(978.578 0.00154664 5.62357e-14)
(978.577 0.00200992 5.6516e-14)
(978.577 0.00261359 6.20202e-14)
(978.576 0.00340034 6.01356e-14)
(978.574 0.00442578 6.07796e-14)
(978.573 0.0057626 6.2018e-14)
(978.57 0.00750624 6.12797e-14)
(978.568 0.00978231 5.48247e-14)
(978.564 0.0127555 5.42989e-14)
(978.559 0.0166407 5.59997e-14)
(978.553 0.0217169 6.15707e-14)
(978.545 0.0283475 6.50118e-14)
(978.535 0.0370093 6.17546e-14)
(978.522 0.0483239 6.046e-14)
(978.505 0.0631672 6.14487e-14)
(978.483 0.0822814 6.2732e-14)
(978.453 0.109087 6.39608e-14)
(978.414 0.143361 6.42466e-14)
(978.58 2.34555e-05 7.18728e-14)
(978.58 2.9996e-05 7.06486e-14)
(978.58 3.83946e-05 6.70906e-14)
(978.58 4.91877e-05 6.47408e-14)
(978.58 6.30686e-05 6.7492e-14)
(978.58 8.09338e-05 6.84847e-14)
(978.58 0.000103944 6.77897e-14)
(978.58 0.000133603 7.52267e-14)
(978.58 0.000171861 7.37961e-14)
(978.58 0.00022125 7.06157e-14)
(978.58 0.000285057 7.00404e-14)
(978.579 0.000367545 6.90963e-14)
(978.579 0.000474243 6.8336e-14)
(978.579 0.000612326 6.94668e-14)
(978.579 0.000791119 6.89381e-14)
(978.579 0.00102277 7.04115e-14)
(978.578 0.00132313 7.30993e-14)
(978.578 0.00171287 6.98889e-14)
(978.577 0.00221893 6.83429e-14)
(978.576 0.00287626 7.20306e-14)
(978.575 0.00373027 7.23237e-14)
(978.573 0.00484002 7.41878e-14)
(978.572 0.0062827 7.2498e-14)
(978.569 0.00815956 7.02817e-14)
(978.566 0.0106033 7.07484e-14)
(978.562 0.013787 7.53856e-14)
(978.557 0.0179353 7.62265e-14)
(978.55 0.0233395 6.94967e-14)
(978.542 0.0303786 7.2661e-14)
(978.53 0.0395505 7.24619e-14)
(978.516 0.0515106 7.08533e-14)
(978.497 0.0671184 7.21475e-14)
(978.473 0.0874934 7.32972e-14)
(978.442 0.114068 7.67965e-14)
(978.402 0.148829 7.53372e-14)
(978.35 0.19347 7.18365e-14)
(978.28 0.255772 7.3578e-14)
(978.19 0.335253 7.45483e-14)
(978.58 5.7075e-05 8.15814e-14)
(978.58 7.2916e-05 8.08874e-14)
(978.58 9.3234e-05 8.37845e-14)
(978.58 0.000119315 8.47056e-14)
(978.58 0.000152819 8.25703e-14)
(978.58 0.000195895 8.0745e-14)
(978.58 0.000251321 8.36127e-14)
(978.58 0.00032269 8.52453e-14)
(978.579 0.000414647 8.06704e-14)
(978.579 0.000533204 8.45417e-14)
(978.579 0.000686142 8.30792e-14)
(978.579 0.000883558 8.09429e-14)
(978.578 0.00113857 8.00984e-14)
(978.578 0.00146823 7.9729e-14)
(978.577 0.00189472 8.01724e-14)
(978.577 0.00244677 8.28291e-14)
(978.576 0.00316162 8.38292e-14)
(978.574 0.00408752 8.53392e-14)
(978.573 0.00528722 8.30863e-14)
(978.571 0.00684262 8.52111e-14)
(978.568 0.00886086 8.36439e-14)
(978.564 0.0114817 8.3311e-14)
(978.56 0.0148866 8.30803e-14)
(978.554 0.0193102 8.46694e-14)
(978.547 0.0250562 8.31932e-14)
(978.538 0.0325211 8.73359e-14)
(978.526 0.0422247 8.62505e-14)
(978.51 0.0548506 7.96566e-14)
(978.49 0.0712901 8.11489e-14)
(978.464 0.0926951 8.41302e-14)
(978.43 0.12055 8.50336e-14)
(978.387 0.156782 8.51396e-14)
(978.331 0.203921 8.811e-14)
(978.259 0.265266 9.08277e-14)
(978.165 0.345409 9.11143e-14)
(978.045 0.44827 8.75244e-14)
(977.885 0.591137 8.7846e-14)
(977.679 0.772719 8.8748e-14)
(978.58 0.00013698 9.5322e-14)
(978.58 0.00017483 9.64528e-14)
(978.58 0.00022333 9.79819e-14)
(978.58 0.000285529 9.92235e-14)
(978.579 0.000365351 9.64986e-14)
(978.579 0.000467863 9.36407e-14)
(978.579 0.000599599 9.61578e-14)
(978.579 0.000769 9.74116e-14)
(978.578 0.000986991 9.83146e-14)
(978.578 0.00126773 9.55528e-14)
(978.578 0.00162954 9.35018e-14)
(978.577 0.00209617 9.32752e-14)
(978.576 0.00269831 9.26087e-14)
(978.575 0.0034756 9.41387e-14)
(978.574 0.00447936 9.48664e-14)
(978.572 0.00577625 9.81662e-14)
(978.569 0.00745312 9.8863e-14)
(978.567 0.00962311 9.61192e-14)
(978.563 0.0124332 9.57063e-14)
(978.558 0.0160732 9.59168e-14)
(978.552 0.0207884 9.44176e-14)
(978.544 0.0268962 9.66875e-14)
(978.533 0.0348106 9.39412e-14)
(978.52 0.0450747 9.40526e-14)
(978.503 0.0583988 9.40853e-14)
(978.481 0.0757041 9.91399e-14)
(978.453 0.0981751 9.60663e-14)
(978.417 0.127336 9.58796e-14)
(978.371 0.16517 9.90832e-14)
(978.311 0.214282 1.00625e-13)
(978.234 0.2781 1.00815e-13)
(978.135 0.36107 9.98951e-14)
(978.007 0.468896 1.00698e-13)
(977.843 0.6088 9.95403e-14)
(977.631 0.79075 1.02148e-13)
(977.359 1.02351 1.03867e-13)
(976.997 1.34535 9.90625e-14)
(976.536 1.75302 9.60031e-14)
(978.58 0.000254854 1.08933e-13)
(978.579 0.000324698 1.09143e-13)
(978.579 0.000414034 1.11248e-13)
(978.579 0.000528384 1.10375e-13)
(978.579 0.000674857 1.10002e-13)
(978.579 0.000862613 1.10593e-13)
(978.578 0.00110347 1.11895e-13)
(978.578 0.00141269 1.09146e-13)
(978.577 0.00180997 1.09346e-13)
(978.576 0.00232073 1.06468e-13)
(978.576 0.00297774 1.04965e-13)
(978.574 0.00382324 1.07783e-13)
(978.573 0.00491185 1.03622e-13)
(978.571 0.00631439 1.08837e-13)
(978.568 0.00812282 1.08621e-13)
(978.565 0.0104565 1.09847e-13)
(978.561 0.0134696 1.08264e-13)
(978.555 0.0173612 1.05874e-13)
(978.549 0.0223873 1.06135e-13)
(978.54 0.0288799 1.07486e-13)
(978.529 0.0372718 1.072e-13)
(978.514 0.0481288 1.07034e-13)
(978.496 0.0621876 1.05393e-13)
(978.472 0.0803979 1.05755e-13)
(978.442 0.103977 1.08526e-13)
(978.403 0.134493 1.10344e-13)
(978.353 0.173987 1.11198e-13)
(978.29 0.225144 1.08511e-13)
(978.207 0.291484 1.08957e-13)
(978.102 0.377544 1.10224e-13)
(977.966 0.489098 1.12045e-13)
(977.792 0.633515 1.11993e-13)
(977.569 0.820374 1.12329e-13)
(977.282 1.06231 1.12024e-13)
(976.914 1.37561 1.15589e-13)
(976.44 1.78238 1.14317e-13)
(975.835 2.30093 1.11037e-13)
(975.035 3.01193 1.09889e-13)
(974.023 3.90608 1.09514e-13)
(978.579 0.000597506 1.20172e-13)
(978.579 0.000760525 1.19279e-13)
(978.578 0.000968819 1.21454e-13)
(978.578 0.00123517 1.24191e-13)
(978.577 0.00157604 1.22567e-13)
(978.577 0.00201259 1.23385e-13)
(978.576 0.00257205 1.21802e-13)
(978.575 0.00328941 1.18559e-13)
(978.574 0.00420975 1.1789e-13)
(978.572 0.0053912 1.18069e-13)
(978.57 0.00690894 1.20469e-13)
(978.567 0.00886028 1.16977e-13)
(978.563 0.0113709 1.17572e-13)
(978.559 0.0146029 1.22053e-13)
(978.553 0.0187643 1.2122e-13)
(978.545 0.0241235 1.20544e-13)
(978.536 0.0310276 1.18676e-13)
(978.524 0.0399285 1.2175e-13)
(978.508 0.0514149 1.20755e-13)
(978.488 0.066249 1.20367e-13)
(978.463 0.0854093 1.18436e-13)
(978.43 0.110148 1.18485e-13)
(978.388 0.142078 1.18743e-13)
(978.335 0.183303 1.21645e-13)
(978.267 0.236585 1.23133e-13)
(978.179 0.305528 1.22841e-13)
(978.067 0.394744 1.22362e-13)
(977.923 0.510077 1.18788e-13)
(977.738 0.658987 1.20443e-13)
(977.503 0.8512 1.24853e-13)
(977.2 1.09954 1.24945e-13)
(976.813 1.4207 1.24774e-13)
(976.317 1.83571 1.24299e-13)
(975.683 2.3708 1.24431e-13)
(974.874 3.05884 1.25454e-13)
(973.839 3.94531 1.23233e-13)
(972.527 5.07054 1.21781e-13)
(970.805 6.60205 1.25261e-13)
(968.648 8.50879 1.2563e-13)
(978.578 0.00138458 1.36777e-13)
(978.577 0.00176072 1.35823e-13)
(978.576 0.00224088 1.34277e-13)
(978.575 0.00285424 1.34257e-13)
(978.574 0.00363822 1.31835e-13)
(978.573 0.00464092 1.34158e-13)
(978.571 0.00592422 1.35746e-13)
(978.568 0.00756792 1.33651e-13)
(978.565 0.00967488 1.30733e-13)
(978.561 0.0123775 1.32636e-13)
(978.556 0.0158459 1.32321e-13)
(978.55 0.0202984 1.32107e-13)
(978.542 0.0260159 1.29871e-13)
(978.531 0.0333614 1.30374e-13)
(978.518 0.0428065 1.36717e-13)
(978.501 0.0549624 1.37137e-13)
(978.479 0.0706168 1.36852e-13)
(978.452 0.0907777 1.32691e-13)
(978.417 0.116734 1.29941e-13)
(978.372 0.150146 1.30821e-13)
(978.315 0.193182 1.32751e-13)
(978.242 0.248678 1.32029e-13)
(978.148 0.320311 1.30501e-13)
(978.029 0.412763 1.31792e-13)
(977.876 0.531951 1.33881e-13)
(977.681 0.685433 1.35038e-13)
(977.432 0.883085 1.30416e-13)
(977.114 1.13793 1.32033e-13)
(976.707 1.46683 1.36679e-13)
(976.187 1.89091 1.38681e-13)
(975.524 2.43624 1.37121e-13)
(974.68 3.13586 1.34651e-13)
(973.606 4.03294 1.34843e-13)
(972.24 5.18398 1.36027e-13)
(970.506 6.65792 1.36863e-13)
(968.31 8.54255 1.36719e-13)
(965.561 10.9003 1.38478e-13)
(962.011 14.0568 1.38346e-13)
(957.645 17.9224 1.36275e-13)
(978.576 0.00249887 1.50016e-13)
(978.575 0.00317207 1.47437e-13)
(978.573 0.00402981 1.46945e-13)
(978.572 0.0051234 1.48366e-13)
(978.57 0.00651874 1.48355e-13)
(978.567 0.00830049 1.48597e-13)
(978.563 0.0105774 1.48907e-13)
(978.559 0.013489 1.48743e-13)
(978.553 0.0172139 1.46691e-13)
(978.546 0.0219812 1.48317e-13)
(978.537 0.0280852 1.46157e-13)
(978.526 0.0359057 1.45641e-13)
(978.512 0.0459337 1.42917e-13)
(978.493 0.0588034 1.4112e-13)
(978.47 0.0753285 1.46478e-13)
(978.44 0.0965475 1.47571e-13)
(978.402 0.123788 1.45212e-13)
(978.354 0.158764 1.44645e-13)
(978.293 0.203703 1.44145e-13)
(978.215 0.261512 1.42018e-13)
(978.115 0.335938 1.39696e-13)
(977.988 0.431728 1.41621e-13)
(977.827 0.554875 1.42106e-13)
(977.62 0.713042 1.41406e-13)
(977.358 0.916259 1.4454e-13)
(977.022 1.17772 1.48079e-13)
(976.595 1.5144 1.43882e-13)
(976.051 1.94743 1.42177e-13)
(975.357 2.5028 1.46116e-13)
(974.477 3.2134 1.47311e-13)
(973.36 4.12241 1.48661e-13)
(971.943 5.28627 1.46489e-13)
(970.148 6.77463 1.4727e-13)
(967.884 8.6685 1.49387e-13)
(965.042 11.0629 1.52047e-13)
(961.493 14.077 1.506e-13)
(957.075 17.8735 1.4934e-13)
(951.636 22.5721 1.49615e-13)
(944.783 28.7066 1.47953e-13)
(936.603 35.9865 1.48132e-13)
(978.571 0.0056649 1.63861e-13)
(978.568 0.00718381 1.6254e-13)
(978.565 0.00911727 1.6155e-13)
(978.561 0.0115803 1.59664e-13)
(978.556 0.0147199 1.61318e-13)
(978.55 0.018724 1.6235e-13)
(978.543 0.023833 1.62805e-13)
(978.533 0.0303554 1.60657e-13)
(978.52 0.0386881 1.61056e-13)
(978.505 0.0493424 1.6134e-13)
(978.485 0.0629756 1.56464e-13)
(978.459 0.0804284 1.57237e-13)
(978.427 0.102772 1.56777e-13)
(978.386 0.131376 1.56467e-13)
(978.335 0.168006 1.57993e-13)
(978.269 0.214952 1.57557e-13)
(978.186 0.275186 1.54345e-13)
(978.079 0.352519 1.53088e-13)
(977.945 0.451764 1.55051e-13)
(977.773 0.578994 1.53484e-13)
(977.555 0.741992 1.56902e-13)
(977.278 0.950928 1.58785e-13)
(976.925 1.21913 1.59182e-13)
(976.476 1.56367 1.56663e-13)
(975.906 2.00565 1.55824e-13)
(975.182 2.57096 1.56754e-13)
(974.264 3.2924 1.55923e-13)
(973.103 4.21308 1.55338e-13)
(971.633 5.38935 1.5696e-13)
(969.776 6.89046 1.59804e-13)
(967.439 8.79619 1.60158e-13)
(964.513 11.199 1.59527e-13)
(960.869 14.2156 1.59467e-13)
(956.351 17.9974 1.61368e-13)
(950.776 22.7227 1.62415e-13)
(943.963 28.561 1.58224e-13)
(935.73 35.6869 1.59537e-13)
(925.991 44.1387 1.60779e-13)
(914.159 54.8356 1.60595e-13)
(900.609 67.057 1.59405e-13)
(978.559 0.012698 1.75755e-13)
(978.554 0.0160873 1.73293e-13)
(978.547 0.0203961 1.74434e-13)
(978.538 0.0258773 1.75284e-13)
(978.527 0.0328538 1.76263e-13)
(978.514 0.0417406 1.77166e-13)
(978.497 0.0530697 1.7269e-13)
(978.475 0.0675226 1.70702e-13)
(978.448 0.0859681 1.74778e-13)
(978.413 0.109512 1.7387e-13)
(978.369 0.139568 1.70368e-13)
(978.313 0.177954 1.74029e-13)
(978.243 0.227021 1.72515e-13)
(978.154 0.289804 1.69804e-13)
(978.04 0.370175 1.69418e-13)
(977.897 0.473018 1.65802e-13)
(977.715 0.604497 1.64862e-13)
(977.484 0.772514 1.67632e-13)
(977.192 0.987375 1.6853e-13)
(976.821 1.26252 1.71064e-13)
(976.35 1.61505 1.75843e-13)
(975.752 2.06603 1.71257e-13)
(974.996 2.64129 1.69484e-13)
(974.04 3.37353 1.69593e-13)
(972.834 4.30576 1.69062e-13)
(971.31 5.49401 1.69273e-13)
(969.39 7.00696 1.68013e-13)
(966.979 8.92306 1.67711e-13)
(963.968 11.3325 1.7505e-13)
(960.229 14.3483 1.71939e-13)
(955.605 18.1191 1.68233e-13)
(949.914 22.8207 1.68014e-13)
(942.971 28.6241 1.6842e-13)
(934.613 35.6727 1.71555e-13)
(924.686 44.1223 1.73623e-13)
(913.034 54.1786 1.7228e-13)
(899.485 66.1178 1.7036e-13)
(884.15 79.7598 1.70563e-13)
(866.56 95.9521 1.73843e-13)
(847.607 113.102 1.70313e-13)
(978.533 0.0281411 1.88257e-13)
(978.521 0.0356122 1.89235e-13)
(978.507 0.0451001 1.8852e-13)
(978.488 0.0571586 1.86135e-13)
(978.464 0.0724943 1.86821e-13)
(978.434 0.092006 1.88316e-13)
(978.397 0.116837 1.86275e-13)
(978.35 0.148444 1.81365e-13)
(978.29 0.188701 1.85447e-13)
(978.214 0.240018 1.85596e-13)
(978.119 0.305492 1.83361e-13)
(977.998 0.389058 1.86622e-13)
(977.845 0.495676 1.82093e-13)
(977.652 0.631607 1.79713e-13)
(977.408 0.80487 1.81576e-13)
(977.099 1.02589 1.80445e-13)
(976.709 1.30819 1.78048e-13)
(976.214 1.66887 1.81557e-13)
(975.589 2.12897 1.83088e-13)
(974.799 2.71426 1.8579e-13)
(973.804 3.4574 1.85117e-13)
(972.55 4.40117 1.81483e-13)
(970.971 5.60119 1.84076e-13)
(968.987 7.1253 1.82421e-13)
(966.501 9.05071 1.80092e-13)
(963.405 11.4654 1.82837e-13)
(959.571 14.4792 1.78468e-13)
(954.841 18.2366 1.81779e-13)
(949.035 22.9109 1.81913e-13)
(941.967 28.6709 1.79812e-13)
(933.475 35.6539 1.82223e-13)
(923.414 43.997 1.83667e-13)
(911.633 53.8961 1.80411e-13)
(897.986 65.5867 1.79328e-13)
(882.446 79.139 1.82648e-13)
(865.142 94.3957 1.81676e-13)
(846.332 111.177 1.808e-13)
(826.774 128.791 1.79524e-13)
(806.759 147.597 1.76848e-13)
(787.732 165.536 1.74295e-13)
(978.478 0.0616584 2.01365e-13)
(978.452 0.0779485 2.01353e-13)
(978.42 0.0986098 1.99773e-13)
(978.379 0.124824 1.99196e-13)
(978.328 0.158097 1.9783e-13)
(978.264 0.200354 1.97131e-13)
(978.182 0.254068 1.98437e-13)
(978.08 0.322396 1.97083e-13)
(977.951 0.409339 1.98368e-13)
(977.789 0.519937 1.97178e-13)
(977.584 0.660551 1.96656e-13)
(977.325 0.83932 1.97235e-13)
(976.999 1.06678 1.93054e-13)
(976.588 1.35649 1.93092e-13)
(976.069 1.72556 1.95312e-13)
(975.414 2.195 1.94276e-13)
(974.59 2.79057 1.94093e-13)
(973.553 3.54488 1.94541e-13)
(972.25 4.50043 1.93893e-13)
(970.615 5.71221 1.95521e-13)
(968.564 7.24708 1.95234e-13)
(966.003 9.18096 1.93627e-13)
(962.821 11.6 1.93749e-13)
(958.891 14.6106 1.93641e-13)
(954.056 18.3528 1.93484e-13)
(948.137 22.9965 1.92866e-13)
(940.948 28.7077 1.94321e-13)
(932.328 35.6197 1.94291e-13)
(922.137 43.8544 1.91403e-13)
(910.235 53.5884 1.94483e-13)
(896.481 65.0499 1.93745e-13)
(880.831 78.3438 1.95232e-13)
(863.413 93.3115 1.89853e-13)
(844.499 109.717 1.88309e-13)
(824.609 127.236 1.90028e-13)
(804.65 145.231 1.89403e-13)
(785.629 162.923 1.87526e-13)
(768.798 178.963 1.82836e-13)
(754.327 193.445 1.80338e-13)
(742.746 205.162 1.80525e-13)
(978.359 0.133566 2.15222e-13)
(978.304 0.168631 2.14362e-13)
(978.234 0.213035 2.13524e-13)
(978.147 0.26931 2.10481e-13)
(978.038 0.340677 2.1128e-13)
(977.9 0.431207 2.14421e-13)
(977.727 0.546023 2.13237e-13)
(977.509 0.691593 2.09784e-13)
(977.235 0.876172 2.11432e-13)
(976.891 1.11039 2.11729e-13)
(976.457 1.40785 2.10338e-13)
(975.912 1.78564 2.09955e-13)
(975.226 2.26477 2.05812e-13)
(974.365 2.87099 2.07683e-13)
(973.285 3.63684 2.10006e-13)
(971.932 4.60447 2.07082e-13)
(970.237 5.82809 2.08835e-13)
(968.119 7.37342 2.10976e-13)
(965.48 9.31514 2.08571e-13)
(962.211 11.7377 2.07288e-13)
(958.184 14.7445 2.06409e-13)
(953.244 18.4706 2.04841e-13)
(947.213 23.0816 2.09284e-13)
(939.907 28.7402 2.09765e-13)
(931.163 35.5765 2.10082e-13)
(920.849 43.7013 2.07515e-13)
(908.833 53.2697 2.04794e-13)
(894.981 64.4978 2.04128e-13)
(879.234 77.524 2.02716e-13)
(861.727 92.1863 2.03897e-13)
(842.702 108.25 2.02119e-13)
(822.633 125.427 1.99377e-13)
(802.366 143.188 1.99796e-13)
(782.996 160.675 1.95792e-13)
(765.558 176.929 1.92372e-13)
(750.832 191.097 1.9203e-13)
(739.026 202.915 1.8958e-13)
(730.256 212.031 1.84956e-13)
(723.779 219.384 1.84182e-13)
(719.206 224.963 1.83116e-13)
(978.108 0.285906 2.31547e-13)
(977.991 0.360523 2.29365e-13)
(977.843 0.454881 2.26446e-13)
(977.659 0.574193 2.25151e-13)
(977.427 0.725035 2.25558e-13)
(977.137 0.915775 2.24617e-13)
(976.772 1.15712 2.24748e-13)
(976.316 1.46273 2.24403e-13)
(975.742 1.84966 2.25511e-13)
(975.024 2.33889 2.21781e-13)
(974.124 2.95622 2.19975e-13)
(972.998 3.73408 2.20819e-13)
(971.592 4.71423 2.19801e-13)
(969.836 5.94998 2.22399e-13)
(967.647 7.50585 2.22239e-13)
(964.929 9.45529 2.24374e-13)
(961.571 11.8813 2.24328e-13)
(957.445 14.8843 2.21467e-13)
(952.399 18.5944 2.22148e-13)
(946.256 23.1711 2.2273e-13)
(938.834 28.7742 2.18043e-13)
(929.972 35.5306 2.18445e-13)
(919.539 43.5436 2.19414e-13)
(907.415 52.9473 2.17423e-13)
(893.474 63.9415 2.18111e-13)
(877.648 76.6828 2.15339e-13)
(860.068 91.0363 2.14724e-13)
(840.959 106.752 2.13066e-13)
(820.749 123.57 2.09954e-13)
(800.226 141.04 2.11195e-13)
(780.479 158.358 2.10609e-13)
(762.573 174.569 2.09944e-13)
(747.298 188.862 2.06452e-13)
(735.045 200.754 2.00483e-13)
(725.747 210.22 1.98551e-13)
(719.03 217.528 1.98185e-13)
(714.329 223.197 1.94829e-13)
(711.297 227.399 1.90973e-13)
(709.497 230.511 1.87203e-13)
(708.575 232.783 1.85923e-13)
(977.78 0.480613 2.45495e-13)
(977.583 0.604738 2.46217e-13)
(977.337 0.761211 2.41792e-13)
(977.029 0.95851 2.41459e-13)
(976.643 1.20743 2.41771e-13)
(976.161 1.52163 2.37643e-13)
(975.558 1.91819 2.40076e-13)
(974.805 2.41808 2.36734e-13)
(973.864 3.04711 2.35235e-13)
(972.69 3.83763 2.36919e-13)
(971.228 4.83096 2.34726e-13)
(969.407 6.0794 2.3263e-13)
(967.146 7.64621 2.32987e-13)
(964.346 9.60361 2.34779e-13)
(960.896 12.0332 2.34091e-13)
(956.669 15.0326 2.34323e-13)
(951.514 18.7267 2.36531e-13)
(945.258 23.2683 2.3242e-13)
(937.722 28.8134 2.30613e-13)
(928.746 35.4866 2.31832e-13)
(918.198 43.386 2.31635e-13)
(905.97 52.6278 2.2984e-13)
(891.947 63.3915 2.29746e-13)
(876.055 75.8388 2.26971e-13)
(858.407 89.8885 2.25788e-13)
(839.246 105.246 2.28019e-13)
(818.935 121.688 2.23843e-13)
(798.193 138.835 2.20465e-13)
(778.099 155.955 2.17828e-13)
(759.741 172.109 2.17571e-13)
(743.965 186.458 2.15732e-13)
(731.207 198.485 2.07641e-13)
(721.445 208.101 2.1058e-13)
(714.316 215.592 2.08691e-13)
(709.31 221.398 2.03663e-13)
(705.952 225.865 1.99522e-13)
(704.025 229.083 2.00569e-13)
(703.182 231.266 1.95756e-13)
(702.907 232.97 1.90988e-13)
(702.982 234.556 1.87464e-13)
(703.285 236.152 1.84297e-13)
(976.91 1.00481 2.62115e-13)
(976.501 1.26179 2.58915e-13)
(975.992 1.58515 2.53231e-13)
(975.357 1.99194 2.54846e-13)
(974.566 2.50316 2.54272e-13)
(973.581 3.14463 2.50952e-13)
(972.357 3.94859 2.50376e-13)
(970.835 4.95586 2.49267e-13)
(968.948 6.21772 2.51586e-13)
(966.61 7.79606 2.52069e-13)
(963.724 9.76185 2.476e-13)
(960.179 12.1954 2.47004e-13)
(955.848 15.1918 2.48656e-13)
(950.582 18.8705 2.47944e-13)
(944.213 23.3773 2.46121e-13)
(936.562 28.8636 2.47728e-13)
(927.472 35.452 2.47636e-13)
(916.814 43.2369 2.44664e-13)
(904.484 52.3206 2.42998e-13)
(890.383 62.8583 2.42532e-13)
(874.437 75.0093 2.41532e-13)
(856.734 88.7427 2.41789e-13)
(837.539 103.746 2.35807e-13)
(817.16 119.801 2.31304e-13)
(796.25 136.594 2.35573e-13)
(775.847 153.481 2.34094e-13)
(757.076 169.533 2.28515e-13)
(740.812 183.9 2.25045e-13)
(727.537 196.044 2.22308e-13)
(717.303 205.82 2.20379e-13)
(709.776 213.488 2.15445e-13)
(704.438 219.463 2.13033e-13)
(700.867 224.019 2.13638e-13)
(698.708 227.347 2.07096e-13)
(697.578 229.733 2.08832e-13)
(697.169 231.561 2.02014e-13)
(697.293 233.243 1.96901e-13)
(697.646 234.819 1.94641e-13)
(697.726 235.963 1.92678e-13)
(698.409 237.075 1.85154e-13)
(699.112 238.212 1.81404e-13)
(975.806 1.65392 2.75079e-13)
(975.137 2.07166 2.73666e-13)
(974.306 2.59499 2.65861e-13)
(973.275 3.24975 2.67557e-13)
(971.995 4.06805 2.69486e-13)
(970.412 5.09018 2.65735e-13)
(968.452 6.36638 2.65689e-13)
(966.034 7.95718 2.66869e-13)
(963.059 9.93227 2.64888e-13)
(959.415 12.3706 2.66968e-13)
(954.976 15.365 2.65932e-13)
(949.596 19.0297 2.6016e-13)
(943.109 23.503 2.60487e-13)
(935.342 28.9303 2.60641e-13)
(926.14 35.4331 2.60223e-13)
(915.374 43.1023 2.61778e-13)
(902.945 52.0298 2.61563e-13)
(888.769 62.3469 2.55853e-13)
(872.777 74.2043 2.52403e-13)
(855.035 87.6062 2.5168e-13)
(835.817 102.263 2.50931e-13)
(815.403 117.927 2.49806e-13)
(794.372 134.34 2.45511e-13)
(773.698 150.956 2.436e-13)
(754.53 166.888 2.42295e-13)
(737.786 181.266 2.4006e-13)
(724.018 193.511 2.36467e-13)
(713.316 203.443 2.33237e-13)
(705.368 211.268 2.29071e-13)
(699.7 217.357 2.25567e-13)
(695.833 222.061 2.2304e-13)
(693.364 225.628 2.24131e-13)
(692.097 228.19 2.13578e-13)
(691.678 229.994 2.06221e-13)
(691.647 231.638 2.04099e-13)
(691.775 233.167 2.02448e-13)
(692.21 234.55 2.00779e-13)
(692.671 235.855 1.96256e-13)
(693.128 236.691 1.96684e-13)
(693.854 237.672 1.92063e-13)
(694.882 238.752 1.85884e-13)
(695.808 239.656 1.82884e-13)
(974.021 2.69454 2.85764e-13)
(972.939 3.36358 2.84519e-13)
(971.602 4.19726 2.82707e-13)
(969.951 5.23537 2.83196e-13)
(967.916 6.52711 2.83526e-13)
(965.413 8.13162 2.81568e-13)
(962.343 10.1173 2.80107e-13)
(958.596 12.5617 2.81384e-13)
(954.044 15.5553 2.8004e-13)
(948.545 19.2074 2.7934e-13)
(941.937 23.6485 2.79415e-13)
(934.053 29.0176 2.75028e-13)
(924.737 35.4344 2.72814e-13)
(913.865 42.9875 2.73584e-13)
(901.339 51.7612 2.73143e-13)
(887.088 61.8661 2.72197e-13)
(871.054 73.4364 2.71113e-13)
(853.288 86.4992 2.66847e-13)
(834.044 100.821 2.634e-13)
(813.63 116.088 2.61925e-13)
(792.522 132.104 2.61862e-13)
(771.622 148.416 2.59962e-13)
(752.097 164.19 2.54203e-13)
(734.915 178.531 2.49893e-13)
(720.659 190.844 2.49934e-13)
(709.472 200.906 2.44491e-13)
(701.114 208.864 2.39326e-13)
(695.094 215.119 2.34073e-13)
(690.917 219.994 2.32838e-13)
(688.292 223.605 2.29085e-13)
(686.876 226.203 2.25308e-13)
(686.216 228.207 2.24388e-13)
(686.051 229.927 2.19898e-13)
(686.302 231.678 2.14807e-13)
(686.491 233.036 2.1406e-13)
(686.67 234.104 2.09744e-13)
(687.389 235.215 2.06581e-13)
(688.225 236.34 2.033e-13)
(688.987 237.25 1.98755e-13)
(689.874 238.149 1.96314e-13)
(690.804 239.119 1.94308e-13)
(691.797 240.074 1.8665e-13)
(692.755 240.86 1.84346e-13)
(969.449 5.39304 2.99071e-13)
(967.334 6.70172 3.00558e-13)
(964.74 8.32144 3.00271e-13)
(961.571 10.3192 2.97608e-13)
(957.714 12.7712 2.946e-13)
(953.045 15.7654 2.93626e-13)
(947.421 19.4065 2.94367e-13)
(940.687 23.8176 2.93315e-13)
(932.681 29.1305 2.91106e-13)
(923.249 35.4624 2.90936e-13)
(912.27 42.9008 2.88724e-13)
(899.649 51.5232 2.85776e-13)
(885.323 61.4236 2.86538e-13)
(869.251 72.7144 2.84867e-13)
(851.471 85.4366 2.82883e-13)
(832.212 99.4128 2.81913e-13)
(811.815 114.294 2.7752e-13)
(790.67 129.901 2.76082e-13)
(769.608 145.86 2.73694e-13)
(749.762 161.436 2.7056e-13)
(732.159 175.722 2.69403e-13)
(717.428 188.082 2.65304e-13)
(705.783 198.258 2.58341e-13)
(697.006 206.374 2.55256e-13)
(690.62 212.769 2.53919e-13)
(686.176 217.733 2.51598e-13)
(683.273 221.517 2.44745e-13)
(681.542 224.355 2.38606e-13)
(680.774 226.45 2.34568e-13)
(680.633 228.164 2.34443e-13)
(680.678 229.819 2.31344e-13)
(680.839 231.246 2.25213e-13)
(681.274 232.493 2.19354e-13)
(681.805 233.804 2.15389e-13)
(682.265 234.608 2.16233e-13)
(682.976 235.605 2.11321e-13)
(683.97 236.703 2.07991e-13)
(684.921 237.666 2.03503e-13)
(685.893 238.566 1.99537e-13)
(686.879 239.474 1.94103e-13)
(687.846 240.349 1.94873e-13)
(688.803 241.136 1.90532e-13)
(689.772 241.859 1.87665e-13)
(964.008 8.52881 3.16431e-13)
(960.732 10.5405 3.15276e-13)
(956.76 13.0019 3.14746e-13)
(951.966 15.9987 3.13465e-13)
(946.213 19.631 3.11381e-13)
(939.347 24.0148 3.0956e-13)
(931.213 29.2742 3.08148e-13)
(921.663 35.523 3.07941e-13)
(910.575 42.848 3.03629e-13)
(897.859 51.321 3.03902e-13)
(883.459 61.0223 3.05285e-13)
(867.347 72.0433 2.99419e-13)
(849.561 84.4288 2.96179e-13)
(830.302 98.0463 2.94981e-13)
(809.928 112.559 2.91861e-13)
(788.787 127.751 2.91405e-13)
(767.613 143.335 2.89351e-13)
(747.487 158.678 2.89329e-13)
(729.493 172.883 2.82626e-13)
(714.315 185.267 2.75048e-13)
(702.207 195.543 2.76785e-13)
(693.002 203.781 2.72732e-13)
(686.264 210.289 2.65613e-13)
(681.502 215.41 2.62521e-13)
(678.313 219.347 2.54874e-13)
(676.464 222.203 2.5053e-13)
(675.61 224.329 2.50895e-13)
(675.268 226.179 2.482e-13)
(675.232 227.864 2.42312e-13)