# St ()      
# Time       	patch        	min          	max          	average      
2e-05        	cone	4.610890e-03	2.123112e-01	6.124708e-02
