/*--------------------------------*- C++ -*----------------------------------*\
| =========                 |                                                 |
| \\      /  F ield         | OpenFOAM: The Open Source CFD Toolbox           |
|  \\    /   O peration     | Version:  v1706                                 |
|   \\  /    A nd           | Web:      www.OpenFOAM.com                      |
|    \\/     M anipulation  |                                                 |
\*---------------------------------------------------------------------------*/
FoamFile
{
    version     2.0;
    format      ascii;
    class       volScalarField;
    location    "1.6e-05";
    object      rho;
}
// * * * * * * * * * * * * * * * * * * * * * * * * * * * * * * * * * * * * * //

dimensions      [1 -3 0 0 0 0 0];


internalField   nonuniform List<scalar> 
30038
(
0.000511309
0.000511309
0.000511309
0.000511309
0.000511309
0.000511309
0.000511309
0.000511309
0.000511309
0.000511309
0.000511309
0.000511309
0.000511309
0.000511309
0.000511309
0.000511309
0.000511309
0.000511309
0.000511309
0.000511309
0.000511309
0.000511309
0.000511309
0.000511309
0.000511309
0.000511309
0.000511309
0.000511309
0.000511309
0.000511309
0.000511309
0.000511309
0.000511309
0.000511309
0.000511309
0.000511309
0.000511309
0.000511309
0.000511309
0.000511309
0.000511309
0.000511309
0.000511309
0.000511309
0.000511309
0.000511309
0.000511309
0.000511309
0.000511309
0.000511309
0.000511309
0.000511309
0.000511309
0.000511309
0.000511309
0.000511309
0.000511309
0.000511309
0.000511309
0.000511309
0.000511309
0.000511309
0.000511309
0.000511309
0.000511309
0.000511309
0.000511309
0.000511309
0.000511309
0.000511309
0.000511309
0.000511309
0.000511309
0.000511309
0.000511309
0.000511309
0.000511309
0.000511309
0.000511309
0.000511309
0.000511309
0.000511309
0.000511309
0.000511309
0.000511309
0.000511309
0.000511309
0.000511309
0.000511309
0.000511309
0.000511309
0.000511309
0.000511309
0.000511309
0.000511309
0.000511309
0.000511309
0.000511309
0.000511309
0.000511309
0.000511309
0.000511309
0.000511309
0.000511309
0.000511309
0.000511309
0.000511309
0.000511309
0.000511309
0.000511309
0.000511309
0.000511309
0.000511309
0.000511309
0.000511309
0.000511309
0.000511309
0.000511309
0.000511309
0.000511309
0.000511309
0.000511309
0.000511309
0.000511309
0.000511309
0.000511309
0.000511309
0.000511309
0.000511309
0.000511309
0.000511309
0.000511309
0.000511309
0.000511309
0.000511309
0.000511309
0.000511309
0.000511309
0.000511309
0.000511309
0.000511309
0.000511309
0.000511309
0.000511309
0.000511309
0.000511309
0.000511309
0.000511309
0.000511309
0.000511309
0.000511309
0.000511309
0.000511309
0.000511309
0.000511309
0.000511309
0.000511309
0.000511309
0.000511309
0.000511309
0.000511309
0.000511309
0.000511309
0.000511309
0.000511309
0.000511309
0.000511309
0.000511309
0.000511309
0.000511309
0.000511309
0.000511309
0.000511309
0.000511309
0.000511309
0.000511309
0.000511309
0.000511309
0.000511309
0.000511309
0.000511309
0.000511309
0.000511309
0.000511309
0.000511309
0.000511309
0.000511309
0.000511309
0.000511309
0.000511309
0.000511309
0.000511309
0.000511309
0.000511309
0.000511309
0.000511309
0.000511309
0.000511309
0.000511309
0.000511309
0.000511309
0.000511309
0.000511309
0.000511309
0.000511309
0.000511309
0.000511309
0.000511309
0.000511309
0.000511309
0.000511309
0.000511309
0.000511309
0.000511309
0.000511309
0.000511309
0.000511309
0.000511309
0.000511309
0.000511309
0.000511309
0.000511309
0.000511309
0.000511309
0.000511309
0.000511309
0.000511309
0.000511309
0.000511309
0.000511309
0.000511309
0.000511309
0.000511309
0.000511309
0.000511309
0.000511309
0.000511309
0.000511309
0.000511309
0.000511309
0.000511309
0.000511309
0.000511309
0.000511309
0.000511309
0.000511309
0.000511309
0.000511309
0.000511309
0.000511309
0.000511309
0.000511309
0.000511309
0.000511309
0.000511309
0.000511309
0.000511309
0.000511309
0.000511309
0.000511309
0.000511309
0.000511309
0.000511309
0.000511309
0.000511309
0.000511309
0.000511309
0.000511309
0.000511309
0.000511309
0.000511309
0.000511309
0.000511309
0.000511309
0.000511309
0.000511309
0.000511309
0.000511309
0.000511309
0.000511309
0.000511309
0.000511309
0.000511309
0.000511309
0.000511309
0.000511309
0.000511309
0.000511309
0.000511309
0.000511309
0.000511309
0.000511309
0.000511309
0.000511309
0.000511309
0.000511309
0.000511309
0.000511309
0.000511309
0.000511309
0.000511309
0.000511309
0.000511309
0.000511309
0.000511309
0.000511309
0.000511309
0.000511309
0.000511309
0.000511309
0.000511309
0.000511309
0.000511309
0.000511309
0.000511309
0.000511309
0.000511309
0.000511309
0.000511309
0.000511309
0.000511309
0.000511309
0.000511309
0.000511309
0.000511309
0.000511309
0.000511309
0.000511309
0.000511309
0.000511309
0.000511309
0.000511309
0.000511309
0.000511309
0.000511309
0.000511309
0.000511309
0.000511309
0.000511309
0.000511309
0.000511309
0.000511309
0.000511309
0.000511309
0.000511309
0.000511309
0.000511309
0.000511309
0.000511309
0.000511309
0.000511309
0.000511309
0.000511309
0.000511309
0.000511309
0.000511309
0.000511309
0.000511309
0.000511309
0.000511309
0.000511309
0.000511309
0.000511309
0.000511309
0.000511309
0.000511309
0.000511309
0.000511309
0.000511309
0.000511309
0.000511309
0.000511309
0.000511309
0.000511309
0.000511309
0.000511309
0.000511309
0.000511309
0.000511309
0.000511309
0.000511309
0.000511309
0.000511309
0.000511309
0.000511309
0.000511309
0.000511309
0.000511309
0.000511309
0.000511309
0.000511309
0.000511309
0.000511309
0.000511309
0.000511309
0.000511309
0.000511309
0.000511309
0.000511309
0.000511309
0.000511309
0.000511309
0.000511309
0.000511309
0.000511309
0.000511309
0.000511309
0.000511309
0.000511309
0.000511309
0.000511309
0.000511309
0.000511309
0.000511309
0.000511309
0.000511309
0.000511309
0.000511309
0.000511309
0.000511309
0.000511309
0.000511309
0.000511309
0.000511309
0.000511309
0.000511309
0.000511309
0.000511309
0.000511309
0.000511309
0.000511309
0.000511309
0.000511309
0.000511309
0.000511309
0.000511309
0.000511309
0.000511309
0.000511309
0.000511309
0.000511309
0.000511309
0.000511309
0.000511309
0.000511309
0.000511309
0.000511309
0.000511309
0.000511309
0.000511309
0.000511309
0.000511309
0.000511309
0.000511309
0.000511309
0.000511309
0.000511309
0.000511309
0.000511309
0.00051131
0.00051131
0.000511309
0.000511309
0.000511309
0.000511309
0.000511309
0.000511309
0.000511309
0.000511309
0.000511309
0.000511309
0.000511309
0.000511309
0.000511309
0.000511309
0.000511309
0.000511309
0.000511309
0.000511309
0.000511309
0.000511309
0.000511309
0.000511309
0.000511309
0.000511309
0.000511309
0.000511309
0.000511309
0.000511309
0.000511309
0.000511309
0.000511309
0.000511309
0.000511309
0.000511309
0.000511309
0.000511309
0.00051131
0.00051131
0.00051131
0.00051131
0.000511309
0.000511309
0.000511309
0.000511309
0.000511309
0.000511309
0.000511309
0.000511309
0.000511309
0.000511309
0.000511309
0.000511309
0.000511309
0.000511309
0.000511309
0.000511309
0.000511309
0.000511309
0.000511309
0.000511309
0.000511309
0.000511309
0.000511309
0.000511309
0.000511309
0.000511309
0.000511309
0.000511309
0.000511309
0.000511309
0.000511309
0.000511309
0.000511309
0.000511309
0.00051131
0.00051131
0.00051131
0.00051131
0.00051131
0.00051131
0.000511309
0.000511309
0.000511309
0.000511309
0.000511309
0.000511309
0.000511309
0.000511309
0.000511309
0.000511309
0.000511309
0.000511309
0.000511309
0.000511309
0.000511309
0.000511309
0.000511309
0.000511309
0.000511309
0.000511309
0.000511309
0.000511309
0.000511309
0.000511309
0.000511309
0.000511309
0.000511309
0.000511309
0.000511309
0.000511309
0.000511309
0.000511309
0.00051131
0.00051131
0.00051131
0.00051131
0.00051131
0.00051131
0.000511311
0.000511312
0.000511309
0.000511309
0.000511309
0.000511309
0.000511309
0.000511309
0.000511309
0.000511309
0.000511309
0.000511309
0.000511309
0.000511309
0.000511309
0.000511309
0.000511309
0.000511309
0.000511309
0.000511309
0.000511309
0.000511309
0.000511309
0.000511309
0.000511309
0.000511309
0.000511309
0.000511309
0.000511309
0.000511309
0.000511309
0.000511309
0.00051131
0.00051131
0.00051131
0.00051131
0.00051131
0.000511311
0.000511311
0.000511312
0.000511313
0.000511314
0.000511309
0.000511309
0.000511309
0.000511309
0.000511309
0.000511309
0.000511309
0.000511309
0.000511309
0.000511309
0.000511309
0.000511309
0.000511309
0.000511309
0.000511309
0.000511309
0.000511309
0.000511309
0.000511309
0.000511309
0.000511309
0.000511309
0.000511309
0.000511309
0.000511309
0.000511309
0.000511309
0.00051131
0.00051131
0.00051131
0.00051131
0.00051131
0.00051131
0.000511311
0.000511311
0.000511312
0.000511313
0.000511314
0.000511316
0.00051132
0.000511309
0.000511309
0.000511309
0.000511309
0.000511309
0.000511309
0.000511309
0.000511309
0.000511309
0.000511309
0.000511309
0.000511309
0.000511309
0.000511309
0.000511309
0.000511309
0.000511309
0.000511309
0.000511309
0.000511309
0.000511309
0.000511309
0.000511309
0.000511309
0.00051131
0.00051131
0.00051131
0.00051131
0.00051131
0.00051131
0.00051131
0.000511311
0.000511311
0.000511312
0.000511313
0.000511315
0.000511317
0.00051132
0.000511324
0.000511331
0.000511309
0.000511309
0.000511309
0.000511309
0.000511309
0.000511309
0.000511309
0.000511309
0.000511309
0.000511309
0.000511309
0.000511309
0.000511309
0.000511309
0.000511309
0.000511309
0.000511309
0.000511309
0.000511309
0.000511309
0.000511309
0.000511309
0.00051131
0.00051131
0.00051131
0.00051131
0.00051131
0.00051131
0.00051131
0.000511311
0.000511311
0.000511312
0.000511312
0.000511314
0.000511315
0.000511318
0.000511321
0.000511325
0.000511332
0.000511341
0.000511354
0.000511309
0.000511309
0.000511309
0.000511309
0.000511309
0.000511309
0.000511309
0.000511309
0.000511309
0.000511309
0.000511309
0.000511309
0.000511309
0.000511309
0.000511309
0.000511309
0.000511309
0.000511309
0.00051131
0.00051131
0.00051131
0.00051131
0.00051131
0.00051131
0.00051131
0.00051131
0.000511311
0.000511311
0.000511312
0.000511312
0.000511313
0.000511315
0.000511317
0.000511319
0.000511323
0.000511328
0.000511334
0.000511344
0.000511357
0.000511376
0.000511404
0.000511309
0.000511309
0.000511309
0.000511309
0.000511309
0.000511309
0.000511309
0.000511309
0.000511309
0.000511309
0.000511309
0.000511309
0.000511309
0.00051131
0.00051131
0.00051131
0.00051131
0.00051131
0.00051131
0.00051131
0.00051131
0.00051131
0.00051131
0.000511311
0.000511311
0.000511312
0.000511312
0.000511313
0.000511314
0.000511315
0.000511317
0.000511319
0.000511323
0.000511327
0.000511333
0.00051134
0.000511351
0.000511366
0.000511386
0.000511414
0.000511453
0.000511511
0.000511309
0.000511309
0.000511309
0.000511309
0.000511309
0.000511309
0.000511309
0.000511309
0.000511309
0.00051131
0.00051131
0.00051131
0.00051131
0.00051131
0.00051131
0.00051131
0.00051131
0.00051131
0.00051131
0.000511311
0.000511311
0.000511311
0.000511312
0.000511313
0.000511313
0.000511314
0.000511316
0.000511317
0.000511319
0.000511322
0.000511325
0.00051133
0.000511336
0.000511343
0.000511353
0.000511367
0.000511385
0.000511409
0.000511441
0.000511485
0.000511546
0.000511628
0.00051175
0.000511309
0.000511309
0.000511309
0.00051131
0.00051131
0.00051131
0.00051131
0.00051131
0.00051131
0.00051131
0.00051131
0.00051131
0.00051131
0.000511311
0.000511311
0.000511311
0.000511312
0.000511312
0.000511313
0.000511314
0.000511315
0.000511316
0.000511317
0.000511319
0.000511322
0.000511324
0.000511328
0.000511332
0.000511338
0.000511345
0.000511354
0.000511366
0.00051138
0.000511399
0.000511424
0.000511456
0.000511498
0.000511553
0.000511627
0.000511725
0.000511858
0.000512036
0.000512297
0.00051131
0.00051131
0.00051131
0.00051131
0.00051131
0.00051131
0.00051131
0.00051131
0.000511311
0.000511311
0.000511311
0.000511312
0.000511312
0.000511313
0.000511313
0.000511314
0.000511315
0.000511317
0.000511318
0.00051132
0.000511323
0.000511326
0.000511329
0.000511334
0.000511339
0.000511346
0.000511354
0.000511364
0.000511377
0.000511393
0.000511412
0.000511436
0.000511467
0.000511505
0.000511554
0.000511615
0.000511695
0.000511797
0.000511929
0.000512101
0.000512327
0.000512626
0.00051302
0.000513591
0.00051131
0.00051131
0.00051131
0.000511311
0.000511311
0.000511311
0.000511312
0.000511312
0.000511313
0.000511313
0.000511314
0.000511315
0.000511316
0.000511318
0.00051132
0.000511322
0.000511325
0.000511328
0.000511332
0.000511337
0.000511343
0.00051135
0.000511359
0.00051137
0.000511383
0.000511398
0.000511418
0.000511442
0.000511471
0.000511506
0.00051155
0.000511604
0.00051167
0.000511753
0.000511855
0.000511982
0.000512142
0.000512343
0.000512597
0.00051292
0.000513334
0.000513867
0.000514559
0.000515452
0.000516724
0.000511311
0.000511311
0.000511312
0.000511312
0.000511313
0.000511314
0.000511315
0.000511316
0.000511317
0.000511319
0.000511321
0.000511324
0.000511327
0.000511331
0.000511335
0.000511341
0.000511348
0.000511356
0.000511365
0.000511377
0.000511392
0.000511409
0.000511431
0.000511457
0.000511488
0.000511526
0.000511572
0.000511628
0.000511696
0.000511778
0.000511879
0.000512001
0.00051215
0.000512333
0.000512556
0.00051283
0.000513168
0.000513586
0.000514103
0.000514747
0.000515551
0.000516563
0.000517838
0.000519464
0.000521513
0.000524385
0.000511313
0.000511314
0.000511315
0.000511316
0.000511317
0.000511319
0.000511321
0.000511323
0.000511326
0.00051133
0.000511334
0.000511339
0.000511345
0.000511353
0.000511362
0.000511373
0.000511387
0.000511403
0.000511423
0.000511447
0.000511475
0.00051151
0.000511552
0.000511603
0.000511665
0.00051174
0.000511829
0.000511938
0.000512069
0.000512228
0.00051242
0.000512651
0.000512931
0.00051327
0.00051368
0.000514177
0.00051478
0.000515512
0.000516404
0.00051749
0.000518818
0.000520444
0.000522442
0.000524906
0.000527953
0.000531757
0.000536428
0.000542856
0.00051132
0.000511323
0.000511325
0.000511329
0.000511333
0.000511338
0.000511343
0.00051135
0.000511359
0.000511369
0.000511382
0.000511397
0.000511415
0.000511437
0.000511464
0.000511497
0.000511536
0.000511583
0.00051164
0.000511708
0.000511791
0.000511891
0.000512011
0.000512156
0.000512331
0.000512542
0.000512795
0.0005131
0.000513467
0.000513907
0.000514437
0.000515074
0.000515838
0.000516756
0.000517858
0.000519181
0.000520768
0.000522675
0.000524966
0.00052772
0.000531033
0.000535022
0.000539829
0.000545637
0.000552661
0.000561255
0.000571569
0.000585509
0.000511332
0.000511336
0.000511342
0.000511348
0.000511356
0.000511366
0.000511378
0.000511392
0.000511409
0.000511429
0.000511454
0.000511484
0.00051152
0.000511563
0.000511615
0.000511678
0.000511755
0.000511846
0.000511957
0.00051209
0.000512251
0.000512444
0.000512676
0.000512956
0.000513291
0.000513694
0.000514178
0.000514758
0.000515453
0.000516284
0.000517279
0.000518466
0.000519882
0.000521569
0.000523578
0.000525965
0.0005288
0.000532162
0.000536143
0.00054085
0.000546413
0.000552987
0.000560764
0.000569977
0.000580905
0.000593867
0.000609189
0.000627528
0.000648918
0.00067844
0.000511374
0.000511387
0.000511403
0.000511422
0.000511445
0.000511472
0.000511505
0.000511545
0.000511593
0.000511651
0.000511721
0.000511805
0.000511906
0.000512027
0.000512174
0.00051235
0.000512562
0.000512817
0.000513123
0.000513491
0.000513932
0.000514461
0.000515095
0.000515853
0.00051676
0.000517843
0.000519135
0.000520672
0.0005225
0.000524668
0.000527236
0.000530272
0.000533853
0.000538066
0.00054301
0.000548798
0.000555564
0.000563468
0.000572699
0.000583472
0.000596018
0.00061057
0.000627433
0.00064706
0.000670152
0.00069782
0.000731505
0.000773574
0.000824344
0.000896354
0.000511493
0.00051153
0.000511574
0.000511627
0.000511691
0.000511767
0.000511859
0.00051197
0.000512103
0.000512263
0.000512456
0.000512687
0.000512964
0.000513297
0.000513697
0.000514176
0.000514749
0.000515436
0.000516257
0.000517239
0.00051841
0.000519805
0.000521464
0.000523434
0.000525768
0.000528529
0.000531786
0.000535621
0.000540122
0.000545386
0.000551527
0.000558672
0.000566976
0.000576616
0.000587789
0.0006007
0.000615538
0.00063254
0.000652066
0.000674687
0.000701269
0.000733028
0.000771433
0.000818068
0.00087443
0.000941797
0.0010206
0.00111192
0.00121087
0.00133245
0.000511821
0.000511922
0.000512043
0.000512188
0.000512363
0.000512572
0.000512822
0.000513123
0.000513483
0.000513914
0.000514431
0.000515048
0.000515787
0.000516669
0.000517721
0.000518976
0.000520469
0.000522242
0.000524345
0.000526834
0.000529773
0.000533237
0.000537309
0.000542081
0.000547654
0.00055414
0.00056167
0.000570399
0.000580504
0.000592182
0.000605639
0.00062105
0.000638624
0.000658681
0.000681749
0.000708624
0.000740407
0.0007784
0.00082392
0.000878113
0.000941771
0.00101518
0.00109797
0.0011892
0.00128734
0.00139049
0.00149583
0.00160294
0.0017046
0.00181314
0.000512703
0.000512975
0.0005133
0.000513688
0.000514153
0.000514707
0.000515369
0.000516159
0.000517101
0.000518223
0.000519558
0.000521144
0.000523024
0.00052525
0.000527879
0.00053098
0.000534627
0.000538908
0.000543917
0.000549757
0.000556542
0.000564402
0.000573494
0.000584
0.000596121
0.000610066
0.000626025
0.000644178
0.000664825
0.000688469
0.000715883
0.00074814
0.000786486
0.000832151
0.000886111
0.000948914
0.00102057
0.00110045
0.00118733
0.00127956
0.00137515
0.00147184
0.00156769
0.00166097
0.00175013
0.00183437
0.00191248
0.00198563
0.00205091
0.00211594
0.000515019
0.000515728
0.000516571
0.000517575
0.000518767
0.000520182
0.000521859
0.000523843
0.000526185
0.000528946
0.000532194
0.000536006
0.000540471
0.000545685
0.000551752
0.000558786
0.000566918
0.000576299
0.000587117
0.000599578
0.000613897
0.00063028
0.000648888
0.000669995
0.000694074
0.000721876
0.000754455
0.000793059
0.000838888
0.000892875
0.000955464
0.0010265
0.00110523
0.00119027
0.00127977
0.00137164
0.00146369
0.00155379
0.00164033
0.00172205
0.00179803
0.00186802
0.00193183
0.00198991
0.00204281
0.00209143
0.00213642
0.00217922
0.00221939
0.00225966
0.00052088
0.000522651
0.00052474
0.000527199
0.000530089
0.000533478
0.000537444
0.000542078
0.000547475
0.000553741
0.000560987
0.000569341
0.000578954
0.000590009
0.000602718
0.000617301
0.000633975
0.000652906
0.000674322
0.000698654
0.000726624
0.000759253
0.000797805
0.000843489
0.000897236
0.00095948
0.00103002
0.00110799
0.00119197
0.00128
0.00136989
0.00145939
0.00154636
0.00162902
0.00170624
0.00177726
0.00184168
0.00189983
0.0019517
0.00199801
0.00203957
0.00207732
0.00211247
0.00214586
0.00217807
0.00220969
0.00224092
0.0022719
0.00230245
0.00233315
0.000534906
0.000539027
0.000543825
0.000549397
0.000555846
0.000563284
0.000571832
0.000581637
0.000592878
0.000605769
0.000620535
0.000637396
0.000656542
0.000678143
0.000702586
0.000730542
0.000762995
0.000801202
0.000846408
0.000899575
0.000961159
0.00103098
0.00110819
0.0011913
0.00127839
0.00136717
0.00145531
0.00154068
0.0016214
0.00169612
0.00176419
0.00182533
0.00187954
0.00192747
0.00196936
0.00200607
0.00203859
0.00206781
0.00209488
0.00212055
0.00214552
0.00217042
0.0021955
0.00222077
0.00224701
0.002274
0.00230133
0.00232844
0.0023551
0.00238093
0.000565831
0.000574564
0.000584546
0.000595948
0.000608984
0.000623885
0.000640873
0.000660151
0.000681859
0.000706323
0.000734153
0.00076629
0.00080395
0.00084843
0.000900732
0.000961365
0.0010302
0.00110644
0.00118865
0.0012749
0.00136294
0.00145038
0.00153499
0.00161491
0.00168866
0.00175535
0.00181481
0.00186712
0.00191258
0.00195201
0.00198582
0.00201488
0.00204018
0.00206258
0.00208318
0.00210265
0.00212159
0.00214045
0.00215965
0.00217956
0.00220082
0.00222342
0.0022469
0.00227098
0.0022949
0.00231821
0.00234115
0.00236325
0.002385
0.00240557
0.00062765
0.000644741
0.000664104
0.000685888
0.000710333
0.000737992
0.000769753
0.000806785
0.000850408
0.000901672
0.000961148
0.00102878
0.00110382
0.00118495
0.00127029
0.00135763
0.0014446
0.0015289
0.00160857
0.00168213
0.00174859
0.00180748
0.00185899
0.00190348
0.00194148
0.00197388
0.00200116
0.00202421
0.00204392
0.00206112
0.00207678
0.00209151
0.00210582
0.00212012
0.00213487
0.00215043
0.00216702
0.00218478
0.00220364
0.00222338
0.0022434
0.00226314
0.00228314
0.00230356
0.00232445
0.00234537
0.002366
0.00238576
0.00240461
0.00242189
0.000742581
0.000773982
0.000810411
0.000853165
0.000903348
0.000961584
0.00102788
0.00110158
0.00118144
0.0012657
0.00135222
0.00143866
0.00152275
0.00160243
0.00167614
0.00174281
0.00180192
0.00185339
0.00189767
0.00193525
0.00196688
0.00199345
0.00201542
0.00203367
0.00204901
0.00206219
0.0020741
0.00208525
0.0020961
0.00210702
0.0021184
0.00213052
0.00214348
0.00215733
0.00217197
0.0021873
0.00220314
0.00221946
0.0022363
0.00225381
0.00227212
0.00229126
0.00231087
0.00233052
0.00234999
0.00236886
0.00238686
0.00240352
0.00241882
0.00243235
0.000963708
0.00102866
0.00110095
0.00117941
0.00126241
0.0013479
0.00143365
0.00151738
0.00159703
0.00167094
0.001738
0.00179756
0.00184949
0.00189399
0.00193172
0.00196325
0.00198941
0.00201108
0.00202871
0.00204308
0.00205495
0.002065
0.00207403
0.00208249
0.00209076
0.00209912
0.00210788
0.0021172
0.00212714
0.00213768
0.0021488
0.00216048
0.00217274
0.00218566
0.00219932
0.00221387
0.0022294
0.00224584
0.00226316
0.00228111
0.00229939
0.00231777
0.00233605
0.00235388
0.00237106
0.00238719
0.00240214
0.00241537
0.00242716
0.00243695
0.00134602
0.0014308
0.00151391
0.00159328
0.00166723
0.00173456
0.00179456
0.00184701
0.00189206
0.00193013
0.00196192
0.00198815
0.0020096
0.00202714
0.00204116
0.00205237
0.00206146
0.00206907
0.00207589
0.00208231
0.00208862
0.00209498
0.00210162
0.00210864
0.00211606
0.0021239
0.00213215
0.00214088
0.0021502
0.00216021
0.00217103
0.00218278
0.00219553
0.0022093
0.00222401
0.00223956
0.00225582
0.00227261
0.00228977
0.00230706
0.00232427
0.00234109
0.00235736
0.0023727
0.0023871
0.00240007
0.00241183
0.00242163
0.00243045
0.00243719
0.00173324
0.00179346
0.00184627
0.00189176
0.00193031
0.00196247
0.00198893
0.00201051
0.00202792
0.00204193
0.00205294
0.00206155
0.00206841
0.00207412
0.00207926
0.00208412
0.00208887
0.0020936
0.00209847
0.00210357
0.00210893
0.00211458
0.00212055
0.00212695
0.0021339
0.00214154
0.00214995
0.00215925
0.0021695
0.00218072
0.0021929
0.00220599
0.00221992
0.00223462
0.00224996
0.00226579
0.00228194
0.0022982
0.00231438
0.00233025
0.00234561
0.00236021
0.0023739
0.00238643
0.00239775
0.00240764
0.00241623
0.00242355
0.00242946
0.00243321
0.00196483
0.00199158
0.00201331
0.0020308
0.00204471
0.00205571
0.00206419
0.00207068
0.00207577
0.00208
0.00208383
0.00208744
0.00209091
0.00209425
0.00209763
0.00210114
0.00210482
0.00210873
0.0021129
0.00211746
0.00212254
0.00212826
0.00213469
0.00214193
0.00215002
0.002159
0.00216889
0.00217967
0.00219132
0.00220382
0.00221709
0.00223105
0.00224556
0.0022605
0.0022757
0.00229102
0.00230625
0.00232121
0.00233568
0.00234952
0.00236249
0.00237451
0.00238532
0.00239499
0.00240327
0.00241057
0.00241672
0.00242125
0.00242449
0.00242554
0.00204938
0.00206026
0.00206868
0.00207506
0.00207984
0.00208355
0.00208662
0.0020894
0.00209195
0.00209429
0.00209644
0.00209856
0.00210076
0.00210311
0.00210563
0.00210839
0.0021115
0.00211509
0.00211927
0.00212408
0.00212961
0.00213589
0.00214297
0.00215087
0.00215961
0.0021692
0.00217962
0.00219084
0.00220281
0.00221546
0.00222871
0.00224246
0.00225658
0.00227093
0.00228537
0.00229971
0.0023138
0.00232744
0.00234051
0.00235277
0.00236417
0.0023745
0.00238375
0.00239179
0.00239868
0.00240484
0.00240955
0.00241325
0.00241517
0.00241609
0.00241541
0.00208912
0.00209174
0.00209388
0.00209575
0.00209735
0.0020987
0.00209983
0.00210091
0.00210207
0.00210334
0.00210476
0.0021064
0.00210837
0.00211078
0.00211371
0.00211721
0.00212132
0.00212609
0.00213158
0.00213781
0.00214481
0.00215259
0.00216115
0.00217049
0.00218057
0.00219137
0.00220284
0.00221492
0.00222753
0.00224056
0.00225393
0.00226748
0.00228109
0.00229461
0.00230788
0.00232074
0.00233305
0.00234464
0.00235539
0.00236521
0.00237393
0.00238167
0.00238816
0.00239407
0.00239873
0.00240248
0.00240481
0.00240616
0.00240616
0.00240555
0.0024035
0.00210271
0.00210347
0.00210395
0.00210423
0.00210447
0.00210477
0.00210519
0.00210574
0.00210649
0.00210755
0.00210902
0.00211094
0.00211336
0.00211631
0.00211984
0.00212401
0.00212884
0.00213436
0.00214059
0.00214754
0.00215521
0.00216359
0.00217268
0.00218244
0.00219285
0.00220386
0.0022154
0.0022274
0.00223978
0.00225243
0.00226524
0.00227809
0.00229083
0.00230332
0.00231544
0.00232701
0.00233796
0.00234807
0.00235736
0.00236557
0.00237291
0.00237902
0.00238447
0.00238902
0.0023926
0.0023951
0.00239659
0.00239685
0.00239664
0.00239529
0.00239358
0.00239037
0.00210906
0.00210868
0.00210841
0.00210827
0.00210833
0.00210867
0.00210937
0.00211047
0.002112
0.002114
0.00211651
0.00211958
0.00212325
0.00212753
0.00213245
0.00213801
0.00214423
0.00215113
0.00215868
0.00216689
0.00217573
0.00218518
0.00219521
0.00220578
0.00221681
0.00222825
0.00224001
0.002252
0.00226411
0.00227624
0.00228825
0.00230001
0.00231142
0.0023223
0.0023326
0.0023421
0.00235085
0.00235858
0.00236545
0.00237122
0.00237615
0.00238046
0.00238377
0.00238622
0.00238769
0.0023881
0.00238795
0.0023869
0.00238555
0.00238315
0.00238034
0.002376
0.00211166
0.00211143
0.0021115
0.00211194
0.00211274
0.00211395
0.00211562
0.00211779
0.00212049
0.00212373
0.00212754
0.00213193
0.00213692
0.00214251
0.00214872
0.00215554
0.00216297
0.002171
0.0021796
0.00218875
0.00219841
0.00220855
0.0022191
0.00223001
0.00224119
0.00225255
0.00226401
0.00227546
0.00228679
0.00229785
0.00230859
0.00231881
0.00232848
0.0023374
0.00234558
0.00235286
0.00235922
0.00236466
0.00236909
0.00237308
0.00237607
0.00237831
0.00237966
0.00238006
0.00237984
0.00237892
0.00237759
0.00237561
0.00237328
0.00236971
0.00236605
0.00236082
0.00211527
0.00211585
0.00211683
0.00211825
0.00212014
0.00212251
0.00212538
0.00212878
0.00213271
0.0021372
0.00214224
0.00214785
0.00215402
0.00216076
0.00216805
0.00217588
0.00218424
0.00219309
0.0022024
0.00221213
0.00222222
0.00223262
0.00224325
0.00225403
0.00226487
0.00227567
0.00228635
0.00229677
0.00230685
0.00231644
0.0023255
0.00233387
0.0023415
0.00234832
0.0023542
0.00235928
0.00236329
0.00236686
0.00236954
0.00237148
0.00237266
0.00237288
0.00237252
0.00237154
0.00237013
0.0023683
0.00236613
0.00236309
0.00235985
0.0023554
0.00235113
0.00234512
0.00212187
0.00212351
0.0021256
0.00212815
0.00213119
0.00213473
0.00213877
0.00214332
0.00214839
0.00215399
0.00216011
0.00216674
0.00217389
0.00218152
0.00218963
0.00219819
0.00220715
0.00221649
0.00222614
0.00223605
0.00224615
0.00225637
0.00226663
0.00227683
0.00228688
0.00229667
0.00230613
0.00231514
0.0023236
0.00233144
0.00233853
0.0023449
0.00235032
0.00235502
0.00235865
0.00236177
0.00236415
0.00236576
0.0023667
0.00236668
0.00236614
0.00236495
0.00236337
0.00236146
0.00235929
0.00235656
0.00235347
0.00234963
0.00234571
0.00234058
0.00233583
0.00232907
0.00213201
0.00213474
0.00213791
0.00214156
0.00214567
0.00215027
0.00215535
0.00216091
0.00216696
0.00217348
0.00218046
0.0021879
0.00219576
0.00220402
0.00221264
0.00222159
0.00223082
0.00224026
0.00224986
0.00225955
0.00226924
0.00227886
0.00228832
0.00229752
0.00230639
0.00231482
0.00232271
0.00233003
0.00233662
0.00234253
0.00234752
0.00235182
0.00235511
0.00235777
0.00235984
0.00236111
0.00236176
0.00236153
0.00236074
0.0023593
0.00235749
0.00235535
0.00235302
0.00235036
0.00234733
0.00234382
0.00234007
0.00233562
0.00233117
0.00232551
0.00232029
0.00231286
0.00214552
0.00214925
0.00215342
0.00215803
0.0021631
0.00216861
0.00217457
0.00218096
0.00218778
0.002195
0.00220261
0.00221057
0.00221886
0.00222743
0.00223624
0.00224523
0.00225435
0.00226352
0.00227268
0.00228174
0.00229063
0.00229927
0.00230756
0.00231544
0.00232279
0.0023296
0.00233569
0.00234115
0.00234574
0.00234962
0.00235259
0.00235479
0.00235658
0.00235752
0.00235784
0.00235741
0.00235633
0.00235464
0.00235255
0.00235014
0.00234754
0.00234476
0.00234167
0.00233825
0.00233458
0.00233051
0.00232627
0.00232136
0.00231647
0.00231038
0.00230463
0.00229664
0.0021666
0.00217163
0.00217708
0.00218293
0.00218918
0.00219582
0.00220282
0.00221017
0.00221784
0.0022258
0.002234
0.0022424
0.00225095
0.00225959
0.00226827
0.0022769
0.00228543
0.00229378
0.00230187
0.00230961
0.00231696
0.00232378
0.00233009
0.00233572
0.00234072
0.00234492
0.00234838
0.00235105
0.00235284
0.00235431
0.00235493
0.00235494
0.00235432
0.00235291
0.00235098
0.0023486
0.00234589
0.00234296
0.00233993
0.0023367
0.00233319
0.00232948
0.00232555
0.00232142
0.00231695
0.00231232
0.00230707
0.00230176
0.00229531
0.00228901
0.00228061
0.00218631
0.00219204
0.00219814
0.00220459
0.00221137
0.00221846
0.00222583
0.00223345
0.00224128
0.00224928
0.0022574
0.00226558
0.00227377
0.00228191
0.00228992
0.00229774
0.0023053
0.00231251
0.00231934
0.00232566
0.00233148
0.00233666
0.00234121
0.00234503
0.00234808
0.00235045
0.00235188
0.00235299
0.0023533
0.00235305
0.00235219
0.00235049
0.00234832
0.00234565
0.00234262
0.00233937
0.002336
0.00233253
0.00232885
0.002325
0.00232101
0.00231689
0.00231259
0.00230813
0.00230338
0.00229842
0.0022929
0.00228718
0.00228039
0.00227361
0.00226494
0.00220785
0.00221409
0.00222064
0.00222746
0.00223453
0.00224181
0.00224928
0.00225688
0.00226457
0.00227231
0.00228003
0.00228767
0.00229518
0.00230249
0.00230954
0.00231624
0.00232256
0.0023284
0.00233373
0.00233848
0.00234258
0.00234604
0.00234871
0.00235074
0.00235187
0.00235259
0.00235263
0.00235209
0.00235096
0.00234904
0.00234661
0.00234369
0.00234036
0.00233678
0.00233304
0.00232927
0.00232535
0.00232128
0.00231711
0.00231288
0.00230857
0.00230417
0.00229963
0.00229494
0.00228996
0.00228473
0.00227895
0.00227284
0.00226578
0.00225863
0.00224979
0.00223719
0.00224395
0.0022509
0.002258
0.0022652
0.00227248
0.00227977
0.00228703
0.00229419
0.00230121
0.00230802
0.00231457
0.00232078
0.0023266
0.00233197
0.00233683
0.00234115
0.00234481
0.00234792
0.0023502
0.00235192
0.00235277
0.00235307
0.00235289
0.00235204
0.00235065
0.00234852
0.00234585
0.00234267
0.00233908