/*--------------------------------*- C++ -*----------------------------------*\
| =========                 |                                                 |
| \\      /  F ield         | OpenFOAM: The Open Source CFD Toolbox           |
|  \\    /   O peration     | Version:  v1706                                 |
|   \\  /    A nd           | Web:      www.OpenFOAM.com                      |
|    \\/     M anipulation  |                                                 |
\*---------------------------------------------------------------------------*/
FoamFile
{
    version     2.0;
    format      ascii;
    class       volScalarField;
    location    "1.6e-05";
    object      Tt;
}
// * * * * * * * * * * * * * * * * * * * * * * * * * * * * * * * * * * * * * //

dimensions      [0 0 0 1 0 0 0];


internalField   nonuniform List<scalar> 
30038
(
144.4
144.4
144.4
144.4
144.4
144.4
144.4
144.4
144.4
144.4
144.4
144.4
144.4
144.4
144.4
144.4
144.4
144.4
144.4
144.4
144.4
144.4
144.4
144.4
144.4
144.4
144.4
144.4
144.4
144.4
144.4
144.4
144.4
144.4
144.4
144.4
144.4
144.4
144.4
144.4
144.4
144.4
144.4
144.4
144.4
144.4
144.4
144.4
144.4
144.4
144.4
144.4
144.4
144.4
144.4
144.4
144.4
144.4
144.4
144.4
144.4
144.4
144.4
144.4
144.4
144.4
144.4
144.4
144.4
144.4
144.4
144.4
144.4
144.4
144.4
144.4
144.4
144.4
144.4
144.4
144.4
144.4
144.4
144.4
144.4
144.4
144.4
144.4
144.4
144.4
144.4
144.4
144.4
144.4
144.4
144.4
144.4
144.4
144.4
144.4
144.4
144.4
144.4
144.4
144.4
144.4
144.4
144.4
144.4
144.4
144.4
144.4
144.4
144.4
144.4
144.4
144.4
144.4
144.4
144.4
144.4
144.4
144.4
144.4
144.4
144.4
144.4
144.4
144.4
144.4
144.4
144.4
144.4
144.4
144.4
144.4
144.4
144.4
144.4
144.4
144.4
144.4
144.4
144.4
144.4
144.4
144.4
144.4
144.4
144.4
144.4
144.4
144.4
144.4
144.4
144.4
144.4
144.4
144.4
144.4
144.4
144.4
144.4
144.4
144.4
144.4
144.4
144.4
144.4
144.4
144.4
144.4
144.4
144.4
144.4
144.4
144.4
144.4
144.4
144.4
144.4
144.4
144.4
144.4
144.4
144.4
144.4
144.4
144.4
144.4
144.4
144.4
144.4
144.4
144.4
144.4
144.4
144.4
144.4
144.4
144.4
144.4
144.4
144.4
144.4
144.4
144.4
144.4
144.4
144.4
144.4
144.4
144.4
144.4
144.4
144.4
144.4
144.4
144.4
144.4
144.4
144.4
144.4
144.4
144.4
144.4
144.4
144.4
144.4
144.4
144.4
144.4
144.4
144.4
144.4
144.4
144.4
144.4
144.4
144.4
144.4
144.4
144.4
144.4
144.4
144.4
144.4
144.4
144.4
144.4
144.4
144.4
144.4
144.4
144.4
144.4
144.4
144.4
144.4
144.4
144.4
144.4
144.4
144.4
144.4
144.4
144.4
144.4
144.4
144.4
144.4
144.4
144.4
144.4
144.4
144.4
144.4
144.4
144.4
144.4
144.4
144.4
144.4
144.4
144.4
144.4
144.4
144.4
144.4
144.4
144.4
144.4
144.4
144.4
144.4
144.4
144.4
144.4
144.4
144.4
144.4
144.4
144.4
144.4
144.4
144.4
144.4
144.4
144.4
144.4
144.4
144.4
144.4
144.4
144.4
144.4
144.4
144.4
144.4
144.4
144.4
144.4
144.4
144.4
144.4
144.4
144.4
144.4
144.4
144.4
144.4
144.4
144.4
144.4
144.4
144.4
144.4
144.4
144.4
144.4
144.4
144.4
144.4
144.4
144.4
144.4
144.4
144.4
144.4
144.4
144.4
144.4
144.4
144.4
144.4
144.4
144.4
144.4
144.4
144.4
144.4
144.4
144.4
144.4
144.4
144.4
144.4
144.4
144.4
144.4
144.4
144.4
144.4
144.4
144.4
144.4
144.4
144.4
144.4
144.4
144.4
144.4
144.4
144.4
144.4
144.4
144.4
144.4
144.4
144.4
144.4
144.4
144.4
144.4
144.4
144.4
144.4
144.4
144.4
144.4
144.4
144.4
144.4
144.4
144.4
144.4
144.4
144.4
144.4
144.4
144.4
144.4
144.4
144.4
144.4
144.4
144.4
144.4
144.4
144.4
144.4
144.4
144.4
144.4
144.4
144.4
144.4
144.4
144.4
144.4
144.4
144.4
144.4
144.4
144.4
144.4
144.4
144.4
144.4
144.4
144.4
144.4
144.4
144.4
144.4
144.4
144.4
144.4
144.4
144.4
144.4
144.4
144.4
144.4
144.4
144.4
144.4
144.4
144.4
144.4
144.4
144.4
144.4
144.4
144.4
144.4
144.4
144.4
144.4
144.4
144.4
144.4
144.4
144.4
144.4
144.4
144.4
144.4
144.4
144.4
144.4
144.4
144.4
144.4
144.4
144.4
144.4
144.4
144.4
144.4
144.4
144.4
144.4
144.4
144.4
144.4
144.4
144.4
144.4
144.4
144.4
144.4
144.4
144.4
144.4
144.4
144.4
144.4
144.4
144.4
144.4
144.4
144.4
144.4
144.4
144.4
144.4
144.4
144.4
144.4
144.4
144.4
144.4
144.4
144.4
144.4
144.4
144.4
144.4
144.4
144.4
144.4
144.4
144.4
144.4
144.4
144.4
144.4
144.4
144.4
144.401
144.4
144.4
144.4
144.4
144.4
144.4
144.4
144.4
144.4
144.4
144.4
144.4
144.4
144.4
144.4
144.4
144.4
144.4
144.4
144.4
144.4
144.4
144.4
144.4
144.4
144.4
144.4
144.4
144.4
144.4
144.4
144.4
144.4
144.4
144.4
144.4
144.401
144.401
144.401
144.401
144.4
144.4
144.4
144.4
144.4
144.4
144.4
144.4
144.4
144.4
144.4
144.4
144.4
144.4
144.4
144.4
144.4
144.4
144.4
144.4
144.4
144.4
144.4
144.4
144.4
144.4
144.4
144.4
144.4
144.4
144.4
144.4
144.4
144.4
144.401
144.401
144.401
144.402
144.402
144.403
144.4
144.4
144.4
144.4
144.4
144.4
144.4
144.4
144.4
144.4
144.4
144.4
144.4
144.4
144.4
144.4
144.4
144.4
144.4
144.4
144.4
144.4
144.4
144.4
144.4
144.4
144.4
144.4
144.4
144.4
144.4
144.4
144.401
144.401
144.401
144.402
144.402
144.403
144.405
144.407
144.4
144.4
144.4
144.4
144.4
144.4
144.4
144.4
144.4
144.4
144.4
144.4
144.4
144.4
144.4
144.4
144.4
144.4
144.4
144.4
144.4
144.4
144.4
144.4
144.4
144.4
144.4
144.4
144.4
144.401
144.401
144.401
144.401
144.402
144.403
144.404
144.405
144.407
144.41
144.414
144.4
144.4
144.4
144.4
144.4
144.4
144.4
144.4
144.4
144.4
144.4
144.4
144.4
144.4
144.4
144.4
144.4
144.4
144.4
144.4
144.4
144.4
144.4
144.4
144.4
144.4
144.401
144.401
144.401
144.401
144.401
144.402
144.403
144.403
144.405
144.406
144.409
144.412
144.416
144.422
144.431
144.4
144.4
144.4
144.4
144.4
144.4
144.4
144.4
144.4
144.4
144.4
144.4
144.4
144.4
144.4
144.4
144.4
144.4
144.4
144.4
144.4
144.4
144.401
144.401
144.401
144.401
144.401
144.402
144.402
144.403
144.404
144.405
144.407
144.409
144.411
144.415
144.42
144.427
144.437
144.45
144.468
144.4
144.4
144.4
144.4
144.4
144.4
144.4
144.4
144.4
144.4
144.4
144.4
144.4
144.4
144.4
144.4
144.4
144.401
144.401
144.401
144.401
144.401
144.401
144.402
144.402
144.403
144.403
144.404
144.405
144.407
144.408
144.411
144.413
144.417
144.422
144.429
144.437
144.449
144.465
144.486
144.515
144.556
144.4
144.4
144.4
144.4
144.4
144.4
144.4
144.4
144.4
144.4
144.4
144.4
144.4
144.401
144.401
144.401
144.401
144.401
144.402
144.402
144.402
144.403
144.404
144.404
144.405
144.407
144.408
144.41
144.412
144.415
144.419
144.424
144.43
144.437
144.447
144.46
144.476
144.497
144.524
144.561
144.61
144.675
144.765
144.4
144.4
144.4
144.4
144.4
144.4
144.4
144.401
144.401
144.401
144.401
144.401
144.402
144.402
144.402
144.403
144.403
144.404
144.405
144.406
144.408
144.409
144.411
144.414
144.417
144.42
144.425
144.43
144.437
144.446
144.456
144.469
144.486
144.506
144.532
144.564
144.605
144.658
144.726
144.813
144.928
145.08
145.285
144.4
144.4
144.401
144.401
144.401
144.401
144.401
144.402
144.402
144.402
144.403
144.403
144.404
144.405
144.406
144.407
144.409
144.411
144.413
144.416
144.419
144.423
144.428
144.435
144.442
144.451
144.462
144.475
144.491
144.511
144.536
144.565
144.602
144.647
144.703
144.772
144.858
144.965
145.101
145.271
145.488
145.766
146.126
146.6
144.401
144.401
144.402
144.402
144.402
144.403
144.403
144.404
144.405
144.406
144.407
144.409
144.41
144.413
144.415
144.419
144.423
144.427
144.433
144.44
144.449
144.459
144.471
144.486
144.504
144.526
144.553
144.585
144.624
144.671
144.729
144.798
144.883
144.986
145.112
145.265
145.453
145.684
145.968
146.318
146.754
147.296
147.977
148.838
149.947
144.403
144.403
144.404
144.405
144.406
144.407
144.408
144.41
144.412
144.415
144.418
144.422
144.426
144.432
144.439
144.447
144.456
144.468
144.482
144.5
144.521
144.546
144.576
144.613
144.657
144.71
144.774
144.852
144.945
145.058
145.193
145.357
145.554
145.792
146.079
146.426
146.845
147.352
147.967
148.712
149.617
150.718
152.061
153.704
155.728
158.248
144.406
144.407
144.408
144.41
144.412
144.414
144.417
144.421
144.425
144.431
144.437
144.445
144.454
144.465
144.479
144.495
144.515
144.539
144.568
144.602
144.644
144.695
144.755
144.829
144.917
145.023
145.15
145.304
145.488
145.709
145.974
146.292
146.673
147.13
147.676
148.329
149.11
150.042
151.155
152.481
154.061
155.941
158.175
160.825
163.967
167.689
172.1
177.345
144.417
144.42
144.425
144.43
144.436
144.443
144.452
144.462
144.475
144.491
144.509
144.532
144.559
144.592
144.631
144.679
144.736
144.805
144.888
144.988
145.108
145.253
145.427
145.635
145.885
146.185
146.544
146.974
147.487
148.1
148.83
149.698
150.729
151.952
153.398
155.105
157.113
159.47
162.227
165.44
169.168
173.475
178.425
184.085
190.519
197.793
205.981
215.143
144.435
144.441
144.45
144.46
144.472
144.487
144.504
144.525
144.551
144.582
144.619
144.663
144.717
144.781
144.859
144.952
145.065
145.2
145.363
145.558
145.792
146.073
146.41
146.813
147.295
147.871
148.558
149.376
150.349
151.503
152.868
154.48
156.376
158.6
161.198
164.22
167.72
171.752
176.37
181.627
187.573
194.25
201.69
209.909
218.915
228.697
239.209
250.389
262.173
274.45
144.5
144.52
144.544
144.573
144.607
144.649
144.699
144.759
144.831
144.918
145.023
145.148
145.299
145.48
145.697
145.957
146.27
146.644
147.092
147.627
148.266
149.029
149.937
151.015
152.295
153.808
155.592
157.69
160.147
163.013
166.341
170.184
174.599
179.636
185.347
191.773
198.95
206.898
215.622
225.112
235.346
246.262
257.774
269.775
282.139
294.722
307.349
319.792
331.779
343.091
144.684
144.74
144.808
144.888
144.985
145.101
145.241
145.408
145.608
145.848
146.136
146.48
146.892
147.385
147.974
148.676
149.513
150.508
151.69
153.091
154.746
156.697
158.988
161.669
164.792
168.413
172.589
177.376
182.828
188.994
195.913
203.619
212.124
221.427
231.508
242.332
253.834
265.918
278.471
291.366
304.452
317.569
330.502
342.986
354.722
365.398
374.679
382.288
388.089
392.259
145.192
145.347
145.532
145.753
146.017
146.334
146.712
147.163
147.702
148.345
149.11
150.021
151.103
152.386
153.904
155.696
157.804
160.276
163.164
166.523
170.411
174.886
180.007
185.828
192.396
199.75
207.92
216.916
226.732
237.343
248.704
260.751
273.379
286.47
299.895
313.501
327.124
340.567
353.578
365.873
377.171
387.207
395.727
402.559
407.712
411.202
413.005
413.128
411.997
409.752
146.56
146.974
147.468
148.056
148.755
149.587
150.574
151.743
153.127
154.761
156.685
158.945
161.588
164.67
168.247
172.377
177.12
182.534
188.673
195.584
203.303
211.856
221.252
231.48
242.512
254.297
266.767
279.818
293.326
307.163
321.18
335.206
349.053
362.489
375.236
387.014
397.586
406.755
414.365
420.341
424.782
427.729
429.194
429.173
428.16
426.09
423.241
419.666
415.398
410.566
150.128
151.195
152.457
153.946
155.698
157.756
160.166
162.977
166.245
170.027
174.381
179.368
185.043
191.461
198.664
206.688
215.554
225.268
235.818
247.17
259.271
272.047
285.4
299.201
313.319
327.614
341.917
356.041
369.764
382.83
394.965
405.925
415.543
423.703
430.339
435.449
439.185
441.598
442.741
442.605
441.673
439.848
437.377
434.231
430.465
426.148
421.374
416.268
410.888
405.275
158.96
161.525
164.508
167.962
171.945
176.516
181.732
187.648
194.315
201.775
210.058
219.183
229.151
239.948
251.538
263.866
276.854
290.409
304.401
318.697
333.16
347.634
361.933
375.844
389.124
401.516
412.779
422.73
431.278
438.385
444.051
448.332
451.393
453.306
454.131
453.897
452.998
451.39
449.222
446.469
443.18
439.384
435.171
430.59
425.681
420.499
415.049
409.451
403.811
398.165
178.885
184.327
190.475
197.376
205.069
213.581
222.926
233.101
244.09
255.856
268.341
281.469
295.143
309.241
323.63
338.175
352.731
367.12
381.142
394.561
407.132
418.625
428.852
437.708
445.168
451.256
456.014
459.544
461.998
463.467
464
463.685
462.783
461.314
459.372
456.929
454.037
450.707
447.011
442.972
438.608
433.927
428.908
423.645
418.254
412.778
407.271
401.802
396.456
391.251
217.44
226.98
237.33
248.471
260.364
272.953
286.16
299.889
314.025
328.436
342.99
357.55
371.955
386.013
399.503
412.186
423.841
434.285
443.397
451.145
457.556
462.696
466.63
469.497
471.424
472.512
472.786
472.404
471.496
470.122
468.354
466.166
463.594
460.652
457.398
453.834
449.962
445.764
441.236
436.452
431.477
426.338
421.049
415.664
410.211
404.777
399.457
394.328
389.47
384.88
277.957
291.196
304.928
319.044
333.414
347.912
362.409
376.758
390.778
404.267
416.995
428.744
439.334
448.646
456.626
463.297
468.726
473.005
476.205
478.491
479.966
480.732
480.778
480.339
479.423
478.116
476.481
474.499
472.188
469.566
466.678
463.518
460.082
456.344
452.306
448.018
443.507
438.789
433.865
428.761
423.501
418.142
412.766
407.435
402.213
397.158
392.332
387.791
383.585
379.712
353.231
367.6
381.824
395.735
409.145
421.84
433.609
444.273
453.708
461.859
468.731
474.384
478.91
482.41
484.977
486.75
487.837
488.326
488.192
487.684
486.762
485.504
483.97
482.152
480.051
477.685
475.096
472.273
469.208
465.876
462.273
458.435
454.375
450.091
445.576
440.848
435.932
430.863
425.685
420.446
415.194
409.976
404.843
399.849
395.055
390.511
386.271
382.371
378.841
375.662
426.991
438.693
449.345
458.821
467.061
474.063
479.877
484.587
488.293
491.096
493.111
494.445
495.196
495.428
495.184
494.587
493.653
492.434
490.976
489.286
487.355
485.195
482.849
480.304
477.549
474.559
471.325
467.873
464.209
460.324
456.21
451.88
447.353
442.65
437.794
432.815
427.745
422.618
417.475
412.358
407.315
402.395
397.649
393.125
388.869
384.918
381.308
378.056
375.174
372.627
479.486
485.383
490.207
494.052
497.019
499.211
500.741
501.696
502.162
502.161
501.826
501.158
500.205
499.008
497.616
496.023
494.226
492.235
490.087
487.772
485.272
482.564
479.635
476.507
473.182
469.651
465.904
461.951
457.804
453.477
448.981
444.332
439.551
434.661
429.689
424.665
419.624
414.607
409.655
404.811
400.121
395.628
391.377
387.401
383.735
380.398
377.409
374.767
372.463
370.447
505.203
506.867
507.972
508.596
508.8
508.637
508.19
507.464
506.496
505.309
503.968
502.453
500.764
498.91
496.926
494.797
492.506
490.029
487.35
484.492
481.455
478.231
474.808
471.194
467.398
463.426
459.283
454.977
450.521
445.929
441.218
436.409
431.526
426.597
421.655
416.733
411.87
407.105
402.478
398.029
393.797
389.815
386.115
382.719
379.645
376.898
374.481
372.369
370.551
368.997
515.181
514.901
514.35
513.565
512.577
511.401
510.093
508.641
507.043
505.302
503.452
501.472
499.347
497.058
494.586
491.954
489.162
486.201
483.059
479.743
476.258
472.608
468.792
464.814
460.681
456.402
451.987
447.448
442.802
438.068
433.268
428.429
423.579
418.749
413.974
409.289
404.729
400.332
396.13
392.158
388.441
385.006
381.868
379.04
376.522
374.305
372.374
370.717
369.324
368.154
519.507
518.491
517.328
516.043
514.641
513.118
511.471
509.725
507.865
505.872
503.737
501.438
498.996
496.411
493.673
490.772
487.714
484.502
481.137
477.614
473.937
470.107
466.13
462.011
457.758
453.381
448.893
444.308
439.644
434.923
430.169
425.407
420.667
415.978
411.373
406.883
402.542
398.381
394.429
390.712
387.253
384.071
381.177
378.578
376.27
374.24
372.476
370.972
369.709
368.67
367.801
520.496
519.031
517.461
515.795
514.027
512.143
510.133
507.98
505.698
503.286
500.738
498.044
495.207
492.232
489.115
485.852
482.442
478.887
475.19
471.353
467.38
463.275
459.048
454.708
450.268
445.741
441.145
436.5
431.827
427.151
422.496
417.892
413.366
408.948
404.667
400.552
396.629
392.924
389.457
386.246
383.304
380.639
378.251
376.135
374.275
372.67
371.307
370.167
369.23
368.448
367.787
521.698
520.004
518.208
516.303
514.273
512.123
509.857
507.469
504.951
502.305
499.533
496.63
493.593
490.42
487.111
483.667
480.088
476.376
472.532
468.563
464.474
460.274
455.971
451.578
447.108
442.578
438.006
433.412
428.817
424.246
419.724
415.277
410.931
406.713
402.649
398.763
395.078
391.614
388.389
385.413
382.698
380.245
378.053
376.109
374.41
372.951
371.717
370.693
369.849
369.127
368.557
368.086
520.36
518.32
516.176
513.924
511.557
509.075
506.476
503.758
500.917
497.95
494.858
491.64
488.293
484.819
481.217
477.492
473.646
469.684
465.613
461.439
457.174
452.828
448.415
443.949
439.447
434.929
430.414
425.924
421.483
417.113
412.84
408.686
404.676
400.832
397.176
393.724
390.495
387.5
384.748
382.244
379.988
377.971
376.189
374.639
373.315
372.199
371.282
370.5
369.87
369.352
368.964
368.654
517.914
515.569
513.118
510.56
507.888
505.102
502.199
499.179
496.04
492.779
489.397
485.896
482.277
478.543
474.697
470.745
466.693
462.549
458.322
454.023
449.665
445.262
440.83
436.386
431.948
427.538
423.176
418.882
414.681
410.593
406.64
402.842
399.219
395.788
392.564
389.559
386.782
384.24
381.932
379.855
377.999
376.37
374.958
373.755
372.751
371.907
371.209
370.641
370.203
369.859
369.625
369.441
514.561
511.931
509.194
506.348
503.39
500.319
497.135
493.838
490.427
486.904
483.271
479.531
475.689
471.75
467.719
463.605
459.417
455.166
450.864
446.523
442.159
437.787
433.426
429.093
424.809
420.591
416.461
412.439
408.544
404.796
401.211
397.806
394.594
391.589
388.797
386.227
383.879
381.751
379.834
378.135
376.643
375.361
374.269
373.357
372.587
371.957
371.459
371.075
370.804
370.599
370.487
370.402
510.399
507.497
504.488
501.373
498.15
494.82
491.384
487.844
484.201
480.46
476.625
472.701
468.694
464.613
460.466
456.263
452.015
447.736
443.44
439.14
434.853
430.596
426.388
422.245
418.186
414.23
410.395
406.697
403.154
399.78
396.587
393.588
390.79
388.201
385.822
383.653
381.687
379.926
378.364
377.007
375.834
374.844
374.01
373.311
372.749
372.309
371.987
371.755
371.616
371.522
371.51
371.502
505.498
502.343
499.086
495.729
492.273
488.719
485.072
481.333
477.508
473.602
469.622
465.575
461.47
457.316
453.124
448.907
444.676
440.447
436.234
432.052
427.918
423.848
419.86
415.971
412.195
408.551
405.052
401.712
398.543
395.556
392.759
390.159
387.759
385.557
383.55
381.736
380.116
378.688
377.444
376.377
375.478
374.709
374.078
373.573
373.193
372.917
372.737
372.627
372.593
372.594
372.655
372.711
499.946
496.567
493.095
489.533
485.885
482.152
478.342
474.457
470.506
466.496
462.434
458.33
454.194
450.038
445.873
441.714
437.572
433.464
429.404
425.407
421.489
417.665
413.951
410.36
406.907
403.605
400.463
397.494
394.704
392.1
389.684
387.459
385.419
383.561
381.891
380.401
379.091
377.952
376.982
376.151
375.451
374.88
374.434
374.101
373.871
373.727
373.659
373.652
373.698
373.77
373.894
373.998
490.289
486.644
482.922
479.128
475.269
471.349
467.377
463.36
459.307
455.228
451.133
447.034
442.943
438.873
434.838
430.85
426.925
423.076
419.318
415.665
412.129
408.724
405.461
402.351
399.402
396.624
394.021
391.597
389.354
387.288
385.394
383.682
382.138
380.768
379.567
378.527
377.637
376.869
376.231
375.714
375.319
375.031
374.837
374.729
374.692
374.715
374.783
374.898
375.027
375.195
375.337
483.644
479.871
476.039
472.154
468.222
464.251
460.25
456.228
452.195
448.162
444.14
440.14
436.176
432.261
428.406
424.626
420.933
417.341
413.86
410.504
407.283
404.206
401.283
398.52
395.923
393.495
391.241
389.154
387.235
385.483
383.895
382.472
381.214
380.108
379.155
378.328
377.625
377.041
376.577
376.225
375.974
375.815
375.733
375.726
375.769
375.865
375.996
376.163
376.335
376.531
376.698
476.771
472.922
469.033
465.11
461.162
457.198
453.227
449.259
445.305
441.376
437.483
433.638
429.854
426.142
422.514
418.982
415.558
412.251
409.073
406.032
403.135
400.392
397.805
395.379
393.117
391.015
389.076
387.29
385.665
384.198
382.887
381.725
380.708
379.828
379.06
378.412
377.879
377.46
377.146
376.927
376.795
376.739
376.749
376.814
376.928
377.082
377.261
377.464
377.665
377.876
378.057
465.938
462.045
458.139
454.231
450.328
446.442
442.583
438.76
434.986
431.271
427.626
424.063
420.592
417.224
413.968
410.834
407.83
404.963
402.241
399.668
397.248
394.984
392.872
390.914
389.103
387.446
385.939
384.582
383.369
382.294
381.357
380.534
379.825
379.226
378.739
378.359
378.077
377.884
377.774
377.738
377.763
377.843
377.972
378.139
378.335
378.548
378.772
378.989
379.205
379.39
459.054
455.208
451.372
447.554
443.763
440.011
436.306
432.66
429.082
425.583
422.173
418.861
415.656
412.567
409.602
406.767
404.068
401.512
399.101
396.837
394.722
392.751
390.918
389.235
387.693
386.295
385.036
383.911
382.916
382.044
381.275
380.616
380.062
379.615
379.268
379.012
378.841
378.747
378.727
378.762
378.854
378.992
379.168
379.373
379.597
379.829
380.062
380.283
380.495
380.672
452.391
448.64
444.919
441.236
437.601
434.023
430.512
427.077
423.727
420.472
417.318
414.275
411.35
408.549
405.876
403.34
400.938
398.681
396.561
394.581
392.734
391.028
389.457
388.023
386.722
385.552
384.504
383.581
382.761
382.044
381.428
380.915
380.502
380.181
379.946
379.792
379.711
379.7
379.743
379.841
379.984
380.165
380.375
380.603
380.842
381.08
381.311
381.525
381.723
381.883
446.052
442.439
438.873
435.363
431.918
428.547
425.257
422.058
418.957
415.96
413.076
410.309
407.665
405.149
402.761
400.514
398.391
396.406
394.549
392.824
391.229
389.763
388.426
387.213
386.12
385.144
384.278
383.506
382.834
382.257
381.78
381.394
381.094
380.876
380.733
380.661
380.656
380.702
380.802
380.946
381.127
381.337
381.566
381.806
382.047
382.279
382.498
382.695
382.87
383.003
440.122
436.68
433.301
429.993
426.764
423.622
420.572
417.623
414.78
412.049
409.435
406.942
404.573
402.333
400.214
398.227
396.362
394.621
393.005
391.513
390.143
388.893
387.758
386.734
385.82
385.001
384.275
383.64
383.1
382.65
382.286
382.003
381.796
381.662
381.594
381.59
381.636
381.733
381.875
382.052
382.258
382.484
382.72
382.958
383.19
383.406
383.603
383.774
383.917
384.016
434.663
431.418
428.249
425.163
422.166
419.265
416.465
413.771
411.188
408.718
406.371
404.14
402.029
400.042
398.172
396.419
394.786
393.27
391.872
390.588
389.415
388.349
387.387
386.525
385.748
385.06
384.46
383.949
383.522
383.175
382.904
382.705
382.574
382.507
382.501
382.543
382.634
382.768
382.938
383.136
383.354
383.584
383.815
384.041
384.253
384.444
384.611
384.746
384.85
384.906
429.714
426.684
423.741
420.888
418.13
415.475
412.924
410.482
408.153
405.936
403.836
401.85
399.979
398.217
396.57
395.034
393.61
392.296
391.089
389.984
388.979
388.072
387.251
386.514
385.858
385.288
384.8
384.391
384.056
383.793
383.597
383.467
383.397
383.385
383.42
383.502
383.626
383.785
383.971
384.178
384.396
384.618
384.834
385.037
385.221
385.378
385.506
385.599
385.657
385.664
422.49
419.778
417.161
414.643
412.232
409.922
407.721
405.633
403.651
401.78
400.014
398.356
396.803
395.357
394.016
392.778
391.637
390.594
389.642
388.781
387.997
387.292
386.665
386.119
385.65
385.253
384.927
384.667
384.472
384.338
384.262
384.241
384.266
384.335
384.446
384.59
384.762
384.954
385.158
385.366
385.57
385.761
385.933
386.08
386.196
386.278
386.322
386.325
386.283
418.829
416.349
413.964
411.679
409.497
407.42
405.446
403.577
401.809
400.142
398.576
397.111
395.747
394.48
393.308
392.227
391.236
390.332
389.507
388.756
388.079
387.477
386.95
386.494
386.106
385.784
385.525
385.326
385.185
385.1
385.067
385.08
385.134
385.228
385.355
385.51
385.684
385.871
386.062
386.25
386.426
386.584
386.717
386.82
386.888
386.917
386.907
386.857
386.754
415.681
413.423
411.261
409.198
407.234
405.369
403.601
401.927
400.351
398.87
397.485
396.194
394.993
393.88
392.852
391.906
391.042
390.248
389.525
388.871
388.289
387.776
387.33
386.946
386.625
386.363
386.158
386.008
385.91
385.863
385.861
385.897
385.972
386.079
386.214
386.368
386.535
386.707
386.876
387.035
387.176
387.293
387.38
387.433
387.446
387.421
387.353
387.24
387.074
410.965
409.013
407.154
405.389
403.712
402.128
400.634
399.231
397.917
396.69
395.547
394.486
393.504
392.598
391.767
391.001
390.3
389.666
389.098
388.595
388.154
387.772
387.448
387.18
386.966
386.804
386.692
386.627
386.608
386.625
386.678
386.763
386.875
387.007
387.152
387.302
387.451
387.59
387.712
387.811
387.88
387.916
387.912
387.871
387.784
387.653
387.476
387.244
408.932
407.171
405.495
403.905
402.4
400.982
399.649
398.399
397.229
396.138
395.121
394.179
393.307
392.502
391.759
391.077
390.458
389.902
389.404
388.965
388.581
388.252
387.975
387.75
387.574
387.445
387.361
387.32
387.318
387.347
387.408
387.495
387.603
387.723
387.85
387.976
388.093
388.195
388.274
388.325
388.34
388.321
388.26
388.155
388.004
387.808
387.568
387.279
405.679
404.168
402.737
401.387
400.116
398.923
397.804
396.757
395.779
394.87
394.028
393.244
392.52
391.852
391.245
390.695
390.201
389.76
389.372
389.035
388.747
388.508
388.315
388.168
388.063
387.999
387.974
387.981
388.015
388.076
388.157
388.251
388.353
388.454
388.548
388.627
388.685
388.715
388.712
388.674
388.593
388.469
388.299
388.088
387.833
387.531
387.178
404.494
403.13
401.841
400.626
399.482
398.407
397.399
396.455
395.574
394.755
393.99
393.28
392.625
392.025
391.478
390.983
390.538
390.143
389.795
389.495
389.24
389.029
388.861
388.735
388.646
388.594
388.577
388.586
388.618
388.671
388.738
388.813
388.888
388.957
389.012
389.048
389.056
389.034
388.975
388.875
388.731
388.547
388.319
388.045
387.727
387.36
386.941
402.337
401.171
400.071
399.034
398.059
397.144
396.286
395.486
394.736
394.037
393.389
392.793
392.247
391.749
391.298
390.893
390.533
390.217
389.945
389.715
389.525
389.375
389.262
389.183
389.137
389.12
389.124
389.148
389.186
389.232
389.28
389.323
389.354
389.364
389.351
389.308
389.228
389.109
388.951
388.75
388.504
388.212
387.873
387.488
387.057
386.575
401.745
400.682
399.679
398.732
397.84
397.002
396.217
395.479
394.787
394.145
393.55
393.001
392.497
392.037
391.62
391.247
390.914
390.623
390.372
390.16
389.985
389.846
389.74
389.665
389.618
389.594
389.589
389.597
389.614
389.634
389.649
389.653
389.641
389.604
389.538
389.438
389.303
389.127
388.909
388.646
388.335
387.977
387.573
387.124
386.631
386.089
401.311
400.336
399.413
398.541
397.719
396.945
396.215
395.528
394.888
394.291
393.737
393.226
392.755
392.326
391.936
391.586
391.275
391.002
390.766
390.566
390.4
390.266
390.162
390.084
390.03
389.995
389.973
389.96
389.951
389.938
389.916
389.878
389.818
389.729
389.611
389.458
389.265
389.029
388.747
388.418
388.042
387.621
387.154
386.644
386.091
385.492
401.002
400.099
399.243
398.433
397.667
396.943
396.259
395.617
395.017
394.456
393.935
393.452
393.008
392.601
392.232
391.9
391.604
391.344
391.117
390.924
390.761
390.627
390.519
390.434
390.368
390.316
390.273
390.234
390.193
390.144
390.079
389.994
389.886
389.749
389.577
389.366
389.111
388.812
388.466
388.073
387.635
387.151
386.625
386.057
385.448
384.796
400.785
399.941
399.14
398.38
397.659
396.975
396.331
395.724
395.155
394.622
394.126
393.666
393.242
392.853
392.499
392.179
391.893
391.64
391.419
391.227
391.063
390.925
390.808
390.711
390.628
390.554
390.485
390.416
390.338
390.247
390.141
390.012
389.854
389.662
389.432
389.159
388.842
388.48
388.072
387.618
387.119
386.577
385.995
385.373
384.712
384.011
400.633
399.839
399.081
398.361
397.676
397.026
396.412
395.833
395.288
394.777
394.3
393.857
393.447
393.071
392.727
392.415
392.135
391.885
391.664
391.47
391.301
391.153
391.024
390.909
390.805
390.706
390.606
390.501
390.388
390.258
390.106
389.928
389.715
389.466
389.176
388.843
388.465
388.042
387.574
387.062
386.506
385.909
385.274
384.601
383.892
383.144
400.525
399.769
399.047
398.359
397.703
397.08
396.489
395.931
395.404
394.91
394.447
394.016
393.617
393.248
392.911
392.603
392.325
392.074
391.85
391.649
391.47
391.309
391.164
391.028
390.899
390.772
390.642
390.503
390.349
390.175
389.973
389.741
389.473
389.166
388.817
388.425
387.988
387.507
386.981
386.413
385.803
385.155
384.47
383.75
382.996
382.205
399.716
399.022
398.358
397.725
397.122
396.55
396.007
395.494
395.012
394.559
394.136
393.743
393.38
393.045
392.738
392.458
392.203
391.972
391.762
391.57
391.393
391.228
391.071
390.916
390.759
390.595
390.416
390.218
389.994
389.742
389.455
389.131
388.767
388.361
387.911
387.417
386.88
386.3
385.679
385.019
384.322
383.59
382.826
382.031
381.202
399.664
398.992
398.348
397.731
397.143
396.583
396.052
395.55
395.075
394.629
394.212
393.822
393.46
393.125
392.816
392.531
392.27
392.03
391.809
391.603
391.409
391.223
391.04
390.856
390.664
390.46
390.238
389.993
389.72
389.416
389.075
388.696
388.276
387.814
387.309
386.76
386.169
385.538
384.867
384.159
383.417
382.643
381.839
381.006
380.142
399.603
398.947
398.317
397.714
397.136
396.586
396.063
395.566
395.097
394.655
394.24
393.851
393.488
393.151
392.839
392.549
392.28
392.029
391.793
391.57
391.355
391.144
390.931
390.713
390.483
390.238
389.971
389.679
389.356
389
388.606
388.173
387.699
387.182
386.623
386.023
385.381
384.701
383.984
383.232
382.449
381.636
380.796
379.929
379.034
398.878
398.259
397.665
397.096
396.553
396.035
395.542
395.076
394.636
394.221
393.832
393.468
393.127
392.809
392.51
392.23
391.965
391.711
391.466
391.226
390.986
390.742
390.488
390.219
389.931
389.619
389.279
388.907
388.499
388.053
387.567
387.04
386.471
385.862
385.211
384.523
383.797
383.037
382.245
381.424
380.576
379.703
378.806
377.883
398.778
398.167
397.58
397.017
396.478
395.963
395.474
395.009
394.569
394.154
393.763
393.395
393.047
392.72
392.41
392.115
391.832
391.559
391.291
391.023
390.753
390.475
390.183
389.875
389.544
389.186
388.798
388.376
387.918
387.421
386.884
386.306
385.688
385.03
384.333
383.6
382.833
382.033
381.205
380.35
379.47
378.568
377.644
376.697
398.642
398.037
397.454
396.895
396.358
395.846
395.359
394.895
394.454
394.036
393.64
393.265
392.909
392.57
392.246
391.935
391.633
391.338
391.044
390.749
390.446
390.133
389.803
389.453
389.078
388.675
388.239
387.769
387.261
386.714
386.128
385.502
384.837
384.133
383.394
382.62
381.814
380.979
380.117
379.231
378.324
377.396
376.449
375.482
398.466
397.865
397.285
396.729
396.195
395.684
395.196
394.731
394.287
393.864
393.461
393.077
392.711
392.359
392.02
391.691
391.369
391.05
390.729
390.403
390.068
389.718
389.349
388.957
388.539
388.09
387.607
387.089
386.534
385.939
385.306
384.634
383.925
383.179
382.399
381.588
380.747
379.879
378.988
378.075
377.143
376.193
375.226
374.241
397.651
397.075
396.52
395.986
395.475
394.984
394.515
394.066
393.637
393.227
392.833
392.455
392.089
391.734
391.385
391.041
390.696
390.347
389.99
389.62
389.233
388.825
388.391
387.929
387.435
386.907
386.343
385.741
385.101
384.423
383.708
382.957
382.172
381.356
380.51
379.637
378.741
377.823
376.886
375.932
374.963