/*--------------------------------*- C++ -*----------------------------------*\
| =========                 |                                                 |
| \\      /  F ield         | OpenFOAM: The Open Source CFD Toolbox           |
|  \\    /   O peration     | Version:  v1706                                 |
|   \\  /    A nd           | Web:      www.OpenFOAM.com                      |
|    \\/     M anipulation  |                                                 |
\*---------------------------------------------------------------------------*/
FoamFile
{
    version     2.0;
    format      ascii;
    class       volScalarField;
    location    "1.6e-05";
    object      Tv;
}
// * * * * * * * * * * * * * * * * * * * * * * * * * * * * * * * * * * * * * //

dimensions      [0 0 0 1 0 0 0];


internalField   nonuniform List<scalar> 
30038
(
144.4
144.4
144.4
144.4
144.4
144.4
144.4
144.4
144.4
144.4
144.4
144.4
144.4
144.4
144.4
144.4
144.4
144.4
144.4
144.4
144.4
144.4
144.4
144.4
144.4
144.4
144.4
144.4
144.4
144.4
144.4
144.4
144.4
144.4
144.4
144.4
144.4
144.4
144.4
144.4
144.4
144.4
144.4
144.4
144.4
144.4
144.4
144.4
144.4
144.4
144.4
144.4
144.4
144.4
144.4
144.4
144.4
144.4
144.4
144.4
144.4
144.4
144.4
144.4
144.4
144.4
144.4
144.4
144.4
144.4
144.4
144.4
144.4
144.4
144.4
144.4
144.4
144.4
144.4
144.4
144.4
144.4
144.4
144.4
144.4
144.4
144.4
144.4
144.4
144.4
144.4
144.4
144.4
144.4
144.4
144.4
144.4
144.4
144.4
144.4
144.4
144.4
144.4
144.4
144.4
144.4
144.4
144.4
144.4
144.4
144.4
144.4
144.4
144.4
144.4
144.4
144.4
144.4
144.4
144.4
144.4
144.4
144.4
144.4
144.4
144.4
144.4
144.4
144.4
144.4
144.4
144.4
144.4
144.4
144.4
144.4
144.4
144.4
144.4
144.4
144.4
144.4
144.4
144.4
144.4
144.4
144.4
144.4
144.4
144.4
144.4
144.4
144.4
144.4
144.4
144.4
144.4
144.4
144.4
144.4
144.4
144.4
144.4
144.4
144.4
144.4
144.4
144.4
144.4
144.4
144.4
144.4
144.4
144.4
144.4
144.4
144.4
144.4
144.4
144.4
144.4
144.4
144.4
144.4
144.4
144.4
144.4
144.4
144.4
144.4
144.4
144.4
144.4
144.4
144.4
144.4
144.4
144.4
144.4
144.4
144.4
144.4
144.4
144.4
144.4
144.4
144.4
144.4
144.4
144.4
144.4
144.4
144.4
144.4
144.4
144.4
144.4
144.4
144.4
144.4
144.4
144.4
144.4
144.4
144.4
144.4
144.4
144.4
144.4
144.4
144.4
144.4
144.4
144.4
144.4
144.4
144.4
144.4
144.4
144.4
144.4
144.4
144.4
144.4
144.4
144.4
144.4
144.4
144.4
144.4
144.4
144.4
144.4
144.4
144.4
144.4
144.4
144.4
144.4
144.4
144.4
144.4
144.4
144.4
144.4
144.4
144.4
144.4
144.4
144.4
144.4
144.4
144.4
144.4
144.4
144.4
144.4
144.4
144.4
144.4
144.4
144.4
144.4
144.4
144.4
144.4
144.4
144.4
144.4
144.4
144.4
144.4
144.4
144.4
144.4
144.4
144.4
144.4
144.4
144.4
144.4
144.4
144.4
144.4
144.4
144.4
144.4
144.4
144.4
144.4
144.4
144.4
144.4
144.4
144.4
144.4
144.4
144.4
144.4
144.4
144.4
144.4
144.4
144.4
144.4
144.4
144.4
144.4
144.4
144.4
144.4
144.4
144.4
144.4
144.4
144.4
144.4
144.4
144.4
144.4
144.4
144.4
144.4
144.4
144.4
144.4
144.4
144.4
144.4
144.4
144.4
144.4
144.4
144.4
144.4
144.4
144.4
144.4
144.4
144.4
144.4
144.4
144.4
144.4
144.4
144.4
144.4
144.4
144.4
144.4
144.4
144.4
144.4
144.4
144.4
144.4
144.4
144.4
144.4
144.4
144.4
144.4
144.4
144.4
144.4
144.4
144.4
144.4
144.4
144.4
144.4
144.4
144.4
144.4
144.4
144.4
144.4
144.4
144.4
144.4
144.4
144.4
144.4
144.4
144.4
144.4
144.4
144.4
144.4
144.4
144.4
144.4
144.4
144.4
144.4
144.4
144.4
144.4
144.4
144.4
144.4
144.4
144.4
144.4
144.4
144.4
144.4
144.4
144.4
144.4
144.4
144.4
144.4
144.4
144.4
144.4
144.4
144.4
144.4
144.4
144.4
144.4
144.4
144.4
144.4
144.4
144.4
144.4
144.4
144.4
144.4
144.4
144.4
144.4
144.4
144.4
144.4
144.4
144.4
144.4
144.4
144.4
144.4
144.4
144.4
144.4
144.4
144.4
144.4
144.4
144.4
144.4
144.4
144.4
144.4
144.4
144.4
144.4
144.4
144.4
144.4
144.4
144.4
144.4
144.4
144.4
144.4
144.4
144.4
144.4
144.4
144.4
144.4
144.4
144.4
144.4
144.4
144.4
144.4
144.4
144.4
144.4
144.4
144.4
144.4
144.4
144.4
144.4
144.4
144.4
144.4
144.4
144.4
144.4
144.4
144.4
144.4
144.4
144.4
144.4
144.4
144.4
144.4
144.4
144.4
144.4
144.4
144.4
144.4
144.4
144.4
144.4
144.4
144.4
144.4
144.4
144.4
144.4
144.4
144.4
144.4
144.4
144.4
144.4
144.4
144.4
144.4
144.4
144.4
144.4
144.4
144.4
144.4
144.4
144.4
144.4
144.4
144.4
144.4
144.4
144.4
144.4
144.4
144.4
144.4
144.4
144.4
144.4
144.4
144.4
144.4
144.4
144.4
144.4
144.4
144.4
144.4
144.4
144.4
144.4
144.4
144.4
144.4
144.4
144.4
144.4
144.4
144.4
144.4
144.4
144.4
144.4
144.4
144.4
144.4
144.4
144.4
144.4
144.4
144.4
144.4
144.4
144.4
144.4
144.4
144.4
144.4
144.4
144.4
144.4
144.4
144.4
144.4
144.4
144.4
144.4
144.4
144.4
144.4
144.4
144.4
144.4
144.4
144.4
144.4
144.4
144.4
144.4
144.4
144.4
144.4
144.4
144.4
144.4
144.4
144.4
144.4
144.4
144.4
144.4
144.4
144.4
144.4
144.4
144.4
144.4
144.4
144.4
144.4
144.4
144.4
144.4
144.4
144.4
144.4
144.4
144.4
144.4
144.4
144.4
144.4
144.4
144.4
144.4
144.4
144.4
144.4
144.4
144.4
144.4
144.4
144.4
144.4
144.4
144.4
144.4
144.4
144.4
144.4
144.4
144.4
144.4
144.4
144.4
144.4
144.4
144.4
144.4
144.4
144.4
144.4
144.4
144.4
144.4
144.4
144.4
144.4
144.4
144.4
144.4
144.4
144.4
144.4
144.4
144.4
144.4
144.4
144.4
144.4
144.4
144.4
144.4
144.4
144.4
144.4
144.4
144.4
144.4
144.4
144.4
144.4
144.4
144.4
144.4
144.4
144.4
144.4
144.4
144.4
144.4
144.4
144.4
144.4
144.4
144.4
144.4
144.4
144.4
144.4
144.4
144.4
144.4
144.4
144.4
144.4
144.4
144.4
144.4
144.4
144.4
144.4
144.4
144.4
144.4
144.4
144.4
144.4
144.4
144.4
144.4
144.4
144.4
144.4
144.4
144.4
144.4
144.4
144.4
144.4
144.4
144.4
144.4
144.4
144.4
144.4
144.4
144.4
144.4
144.4
144.4
144.4
144.4
144.4
144.4
144.4
144.4
144.4
144.4
144.4
144.4
144.4
144.4
144.4
144.4
144.4
144.4
144.4
144.4
144.4
144.4
144.4
144.4
144.4
144.4
144.4
144.4
144.4
144.4
144.4
144.4
144.4
144.4
144.4
144.4
144.4
144.4
144.4
144.4
144.4
144.4
144.4
144.4
144.4
144.4
144.4
144.4
144.4
144.4
144.4
144.4
144.4
144.4
144.4
144.4
144.4
144.4
144.4
144.4
144.4
144.4
144.4
144.4
144.4
144.4
144.4
144.4
144.4
144.4
144.4
144.4
144.4
144.4
144.4
144.4
144.4
144.4
144.4
144.4
144.4
144.4
144.4
144.4
144.4
144.4
144.4
144.4
144.4
144.4
144.4
144.4
144.4
144.4
144.4
144.4
144.4
144.4
144.4
144.4
144.4
144.4
144.4
144.4
144.4
144.4
144.4
144.4
144.4
144.4
144.4
144.4
144.4
144.4
144.4
144.4
144.4
144.4
144.4
144.4
144.4
144.4
144.4
144.4
144.4
144.4
144.4
144.4
144.4
144.4
144.4
144.4
144.4
144.4
144.4
144.4
144.4
144.4
144.4
144.4
144.4
144.4
144.4
144.4
144.4
144.4
144.4
144.4
144.4
144.4
144.4
144.4
144.4
144.4
144.4
144.4
144.4
144.4
144.4
144.4
144.4
144.4
144.4
144.4
144.4
144.4
144.4
144.4
144.4
144.4
144.4
144.4
144.4
144.4
144.4
144.4
144.4
144.4
144.4
144.4
144.4
144.4
144.4
144.4
144.4
144.4
144.4
144.4
144.4
144.4
144.4
144.4
144.4
144.4
144.4
144.4
144.4
144.4
144.4
144.4
144.4
144.4
144.4
144.4
144.4
144.4
144.4
144.4
144.4
144.4
144.4
144.4
144.4
144.4
144.4
144.4
144.4
144.4
144.4
144.4
144.4
144.4
144.4
144.4
144.4
144.4
144.4
144.4
144.4
144.4
144.4
144.4
144.4
144.4
144.4
144.4
144.4
144.4
144.4
144.4
144.4
144.4
144.4
144.4
144.4
144.4
144.4
144.4
144.4
144.4
144.4
144.4
144.4
144.4
144.4
144.4
144.4
144.4
144.4
144.4
144.4
144.4
144.4
144.4
144.4
144.4
144.4
144.4
144.4
144.4
144.4
144.4
144.4
144.4
144.4
144.4
144.4
144.4
144.4
144.4
144.4
144.4
144.4
144.4
144.4
144.4
144.4
144.4
144.4
144.4
144.4
144.4
144.4
144.4
144.4
144.4
144.4
144.4
144.4
144.4
144.4
144.4
144.4
144.4
144.4
144.4
144.4
144.4
144.4
144.4
144.4
144.4
144.4
144.4
144.4
144.4
144.4
144.4
144.4
144.4
144.4
144.4
144.4
144.4
144.4
144.4
144.4
144.4
144.4
144.4
144.4
144.4
144.4
144.4
144.4
144.4
144.4
144.4
144.4
144.4
144.4
144.4
144.4
144.4
144.4
144.4
144.4
144.4
144.4
144.4
144.4
144.4
144.4
144.4
144.4
144.4
144.4
144.4
144.4
144.4
144.4
144.4
144.4
144.4
144.4
144.4
144.4
144.4
144.4
144.4
144.4
144.4
144.4
144.4
144.4
144.4
144.4
144.4
144.4
144.4
144.4
144.4
144.4
144.4
144.4
144.4
144.4
144.4
144.4
144.4
144.4
144.4
144.4
144.4
144.4
144.4
144.4
144.4
144.4
144.4
144.4
144.4
144.4
144.4
144.4
144.4
144.4
144.4
144.4
144.4
144.4
144.4
144.4
144.4
144.4
144.4
144.4
144.4
144.4
144.4
144.4
144.4
144.4
144.4
144.4
144.4
144.4
144.4
144.4
144.4
144.4
144.4
144.4
144.4
144.4
144.4
144.4
144.4
144.4
144.4
144.4
144.4
144.4
144.4
144.4
144.4
144.4
144.4
144.4
144.4
144.4
144.4
144.4
144.4
144.4
144.4
144.4
144.4
144.4
144.4
144.4
144.4
144.4
144.4
144.4
144.4
144.4
144.4
144.4
144.4
144.4
144.4
144.4
144.4
144.4
144.4
144.4
144.4
144.4
144.4
144.4
144.4
144.4
144.4
144.4
144.4
144.4
144.4
144.4
144.4
144.4
144.4
144.4
144.4
144.4
144.4
144.4
144.4
144.4
144.4
144.4
144.4
144.4
144.401
144.401
144.401
144.401
144.401
144.401
144.401
144.401
144.401
144.401
144.401
144.4
144.4
144.4
144.4
144.4
144.4
144.4
144.4
144.4
144.4
144.4
144.4
144.4
144.4
144.4
144.4
144.4
144.4
144.4
144.4
144.4
144.4
144.4
144.4
144.4
144.4
144.4
144.4
144.4
144.401
144.401
144.401
144.401
144.401
144.401
144.401
144.401
144.401
144.401
144.401
144.401
144.401
144.402
144.402
144.402
144.402
144.402
144.402
144.402
144.402
144.4
144.4
144.4
144.4
144.4
144.4
144.4
144.4
144.4
144.4
144.4
144.4
144.4
144.4
144.4
144.4
144.4
144.4
144.4
144.4
144.4
144.401
144.401
144.401
144.401
144.401
144.401
144.401
144.401
144.401
144.402
144.402
144.402
144.402
144.402
144.402
144.403
144.403
144.403
144.403
144.403
144.403
144.403
144.403
144.404
144.404
144.404
144.404
144.404
144.404
144.4
144.4
144.4
144.4
144.4
144.4
144.4
144.4
144.4
144.4
144.4
144.4
144.4
144.4
144.401
144.401
144.401
144.401
144.401
144.401
144.401
144.402
144.402
144.402
144.402
144.402
144.403
144.403
144.403
144.404
144.404
144.404
144.404
144.405
144.405
144.405
144.405
144.406
144.406
144.406
144.406
144.407
144.407
144.407
144.407
144.408
144.408
144.408
144.409
144.409
144.4
144.4
144.4
144.4
144.4
144.4
144.4
144.401
144.401
144.401
144.401
144.401
144.401
144.401
144.402
144.402
144.402
144.403
144.403
144.403
144.404
144.404
144.404
144.405
144.405
144.406
144.406
144.407
144.407
144.408
144.408
144.409
144.409
144.41
144.41
144.411
144.411
144.412
144.412
144.412
144.413
144.413
144.414
144.415
144.415
144.416
144.417
144.418
144.419
144.42
144.401
144.401
144.401
144.401
144.401
144.401
144.401
144.402
144.402
144.402
144.403
144.403
144.404
144.404
144.404
144.405
144.406
144.406
144.407
144.408
144.408
144.409
144.41
144.41
144.411
144.412
144.413
144.414
144.414
144.415
144.416
144.417
144.418
144.419
144.42
144.421
144.421
144.422
144.423
144.424
144.425
144.427
144.428
144.429
144.431
144.433
144.435
144.437
144.44
144.444
144.402
144.402
144.402
144.403
144.403
144.404
144.404
144.405
144.405
144.406
144.407
144.408
144.408
144.409
144.41
144.411
144.412
144.413
144.414
144.416
144.417
144.418
144.419
144.421
144.422
144.423
144.425
144.426
144.428
144.429
144.431
144.432
144.434
144.435
144.437
144.439
144.441
144.443
144.445
144.447
144.449
144.452
144.455
144.458
144.462
144.466
144.471
144.477
144.483
144.492
144.405
144.405
144.406
144.407
144.408
144.409
144.41
144.411
144.412
144.414
144.415
144.416
144.418
144.419
144.421
144.423
144.425
144.426
144.428
144.43
144.432
144.434
144.437
144.439
144.441
144.444
144.446
144.449
144.451
144.454
144.457
144.459
144.462
144.466
144.469
144.472
144.476
144.48
144.484
144.489
144.495
144.5
144.507
144.514
144.522
144.532
144.543
144.555
144.569
144.587
144.412
144.413
144.415
144.416
144.418
144.419
144.421
144.423
144.425
144.428
144.43
144.432
144.435
144.438
144.44
144.443
144.446
144.449
144.453
144.456
144.459
144.463
144.467
144.471
144.475
144.479
144.483
144.488
144.492
144.497
144.502
144.508
144.513
144.52
144.526
144.533
144.541
144.549
144.558
144.568
144.578
144.591
144.604
144.62
144.637
144.656
144.678
144.703
144.732
144.767
144.425
144.427
144.43
144.433
144.435
144.438
144.442
144.445
144.448
144.452
144.456
144.46
144.464
144.469
144.473
144.478
144.483
144.489
144.494
144.5
144.506
144.512
144.518
144.525
144.532
144.539
144.547
144.555
144.564
144.573
144.582
144.592
144.603
144.615
144.627
144.641
144.655
144.672
144.689
144.709
144.731
144.755
144.782
144.812
144.845
144.883
144.926
144.973
145.027
145.092
144.449
144.453
144.457
144.461
144.466
144.471
144.477
144.482
144.488
144.494
144.5
144.507
144.514
144.522
144.529
144.537
144.546
144.555
144.564
144.574
144.584
144.594
144.605
144.617
144.629
144.642
144.656
144.67
144.686
144.702
144.719
144.738
144.758
144.779
144.802
144.828
144.855
144.886
144.919
144.956
144.997
145.042
145.092
145.148
145.21
145.279
145.356
145.441
145.535
145.647
144.489
144.496
144.503
144.51
144.518
144.526
144.535
144.544
144.553
144.563
144.574
144.585
144.597
144.609
144.622
144.635
144.649
144.664
144.679
144.696
144.713
144.731
144.75
144.77
144.791
144.813
144.837
144.862
144.889
144.918
144.948
144.981
145.017
145.055
145.097
145.142
145.192
145.246
145.306
145.372
145.444
145.524
145.611
145.708
145.814
145.93
146.057
146.196
146.348
146.526
144.556
144.567
144.578
144.59
144.603
144.616
144.63
144.645
144.66
144.677
144.694
144.712
144.731
144.751
144.772
144.794
144.817
144.841
144.867
144.894
144.922
144.952
144.984
145.018
145.053
145.091
145.13
145.173
145.218
145.267
145.319
145.375
145.436
145.502
145.573
145.65
145.734
145.826
145.926
146.036
146.155
146.285
146.426
146.58
146.747
146.926
147.12
147.328
147.551
147.806
144.648
144.664
144.681
144.699
144.719
144.739
144.76
144.782
144.806
144.831
144.857
144.885
144.914
144.944
144.976
145.01
145.045
145.082
145.122
145.163
145.206
145.252
145.301
145.352
145.406
145.463
145.524
145.589
145.658
145.732
145.811
145.896
145.987
146.085
146.191
146.305
146.429
146.563
146.707
146.863
147.031
147.213
147.408
147.617
147.841
148.079
148.332
148.601
148.884
149.183
149.518
144.809
144.835
144.862
144.891
144.921
144.952
144.986
145.021
145.058
145.097
145.138
145.181
145.226
145.274
145.324
145.376
145.431
145.489
145.55
145.615
145.682
145.754
145.829
145.908
145.992
146.081
146.176
146.276
146.383
146.497
146.619
146.749
146.888
147.037
147.197
147.368
147.551
147.748
147.957
148.181
148.418
148.671
148.939
149.222
149.519
149.832
150.158
150.499
150.853
151.221
151.624
145.021
145.059
145.099
145.14
145.184
145.231
145.279
145.33
145.384
145.44
145.5
145.562
145.627
145.695
145.767
145.842
145.921
146.003
146.09
146.181
146.277
146.378
146.484
146.595
146.713
146.837
146.969
147.108
147.255
147.411
147.576
147.752
147.939
148.138
148.348
148.572
148.809
149.06
149.325
149.605
149.9
150.209
150.533
150.871
151.223
151.588
151.966
152.356
152.757
153.168
153.59
154.047
145.378
145.435
145.494
145.556
145.622
145.691
145.762
145.838
145.917
145.999
146.086
146.176
146.271
146.37
146.473
146.581
146.695
146.813
146.937
147.067
147.203
147.345
147.495
147.652
147.818
147.991
148.174
148.367
148.569
148.783
149.008
149.246
149.496
149.759
150.035
150.326
150.63
150.949
151.282
151.628
151.988
152.361
152.747
153.145
153.554
153.974
154.404
154.841
155.287
155.739
156.199
156.69
145.898
145.98
146.066
146.155
146.249
146.347
146.449
146.555
146.666
146.782
146.903
147.029
147.16
147.297
147.439
147.588
147.743
147.904
148.072
148.248
148.431
148.623
148.823
149.032
149.251
149.48
149.72
149.97
150.233
150.507
150.794
151.094
151.407
151.733
152.072
152.425
152.791
153.169
153.56
153.963
154.376
154.801
155.235
155.678
156.13
156.589
157.054
157.524
157.999
158.477
158.96
159.471
146.626
146.74
146.858
146.981
147.109
147.242
147.38
147.524
147.673
147.828
147.989
148.156
148.329
148.509
148.695
148.889
149.09
149.299
149.516
149.742
149.976
150.22
150.473
150.737
151.011
151.296
151.592
151.901
152.221
152.553
152.898
153.255
153.624
154.006
154.399
154.804
155.22
155.646
156.083
156.528
156.982
157.444
157.912
158.387
158.867
159.35
159.838
160.328
160.819
161.311
161.804
162.324
147.599
147.749
147.904
148.065
148.232
148.405
148.583
148.768
148.959
149.156
149.36
149.571
149.789
150.014
150.247
150.488
150.737
150.994
151.26
151.536
151.821
152.116
152.421
152.737
153.064
153.401
153.75
154.11
154.482
154.865
155.259
155.665
156.081
156.507
156.943
157.388
157.842
158.304
158.773
159.248
159.73
160.216
160.706
161.2
161.697
162.195
162.694
163.193
163.691
164.187
164.684
165.203
148.838
149.027
149.222
149.423
149.63
149.844
150.064
150.29
150.523
150.764
151.011
151.265
151.528
151.797
152.075
152.362
152.657
152.96
153.273
153.596
153.928
154.27
154.622
154.985
155.358
155.741
156.135
156.539
156.954
157.378
157.812
158.256
158.707
159.167
159.635
160.109
160.589
161.075
161.566
162.061
162.559
163.06
163.562
164.066
164.57
165.074
165.577
166.078
166.577
167.071
167.563
168.076
150.343
150.571
150.805
151.045
151.292
151.545
151.805
152.071
152.345
152.626
152.914
153.209
153.513
153.824
154.144
154.472
154.808
155.154
155.509
155.873
156.247
156.63
157.022
157.425
157.837
158.258
158.689
159.128
159.576
160.033
160.497
160.968
161.445
161.929
162.418
162.911
163.409
163.91
164.413
164.919
165.426
165.933
166.441
166.948
167.453
167.957
168.458
168.956
169.449
169.936
170.421
170.922
152.357
152.627
152.904
153.187
153.477
153.773
154.076
154.387
154.704
155.029
155.362
155.702
156.05
156.407
156.772
157.145
157.527
157.918
158.318
158.726
159.144
159.57
160.005
160.448
160.899
161.358
161.824
162.297
162.777
163.262
163.753
164.248
164.747
165.249
165.754
166.261
166.77
167.279
167.789
168.299
168.807
169.314
169.819
170.321
170.82
171.315
171.805
172.29
172.768
173.24
173.728
154.351
154.654
154.963
155.278
155.6
155.929
156.265
156.607
156.957
157.314
157.679
158.052
158.432
158.82
159.217
159.621
160.034
160.455
160.884
161.321
161.767
162.219
162.679
163.146
163.62
164.1
164.586
165.077
165.572
166.071
166.574
167.08
167.587
168.097
168.607
169.118
169.629
170.139
170.648
171.156
171.661
172.164
172.663
173.158
173.649
174.135
174.615
175.088
175.553
176.013
176.484
156.513
156.844
157.182
157.525
157.876
158.232
158.596
158.967
159.345
159.73
160.122
160.522
160.93
161.345
161.768
162.199
162.637
163.082
163.535
163.995
164.461
164.934
165.413
165.898
166.388
166.882
167.381
167.883
168.388
168.895
169.405
169.915
170.427
170.938
171.449
171.959
172.468
172.975
173.48
173.982
174.481
174.976
175.467
175.953
176.434
176.908
177.376
177.836
178.287
178.731
179.184
159.163
159.524
159.892
160.267
160.648
161.036
161.431
161.833
162.242
162.658
163.081
163.511
163.949
164.393
164.844
165.303
165.767
166.238
166.715
167.198
167.686
168.178
168.675
169.175
169.679
170.185
170.693
171.203
171.714
172.225
172.737
173.247
173.757
174.265
174.771
175.275
175.776
176.273
176.768
177.258
177.743
178.224
178.699
179.168
179.629
180.083
180.528
180.964
181.391
181.826
161.578
161.961
162.349
162.745
163.147
163.555
163.971
164.393
164.821
165.257
165.699
166.148
166.604
167.065
167.533
168.007
168.486
168.971
169.46
169.954
170.451
170.952
171.456
171.963
172.471
172.98
173.491
174.001
174.512
175.021
175.53
176.036
176.541
177.043
177.543
178.039
178.532
179.021
179.505
179.985
180.46
180.928
181.391
181.846
182.294
182.733
183.162
183.582
183.991
184.407
164.064
164.465
164.872
165.285
165.705
166.131
166.563
167.002
167.447
167.899
168.357
168.82
169.29
169.765
170.245
170.73
171.22
171.713
172.211
172.711
173.214
173.72
174.227
174.735
175.244
175.754
176.262
176.77
177.277
177.782
178.285
178.786
179.283
179.778
180.269
180.756
181.239
181.717
182.191
182.659
183.121
183.577
184.026
184.467
184.9
185.324
185.737
186.139
186.531
186.927
166.602
167.018
167.44
167.868
168.303
168.743
169.19
169.642
170.101
170.565
171.035
171.51
171.989
172.474
172.963
173.455
173.951
174.45
174.952
175.456
175.961
176.467
176.975
177.482
177.989
178.495
178.999
179.502
180.003
180.501
180.996
181.489
181.978
182.463
182.944
183.42
183.892
184.359
184.821
185.276
185.726
186.168
186.603
187.03
187.447
187.855
188.251
188.636
189.011
189.387
169.174
169.603
170.038
170.479
170.925
171.378
171.836
172.299
172.768
173.241
173.719
174.202
174.689
175.18
175.674
176.17
176.669
177.171
177.673
178.177
178.681
179.186
179.69
180.193
180.695
181.196
181.694
182.19
182.683
183.172
183.659
184.141
184.62
185.095
185.565
186.03
186.49
186.945
187.394
187.836
188.272
188.701
189.121
189.533
189.935
190.327
190.706
191.074
191.43
191.788
171.769
172.208
172.653
173.104
173.56
174.022
174.488
174.959
175.435
175.915
176.399
176.887
177.378
177.871
178.367
178.865
179.364
179.865
180.366
180.867
181.368
181.868
182.367
182.864
183.359
183.852
184.342
184.829
185.313
185.793
186.269
186.741
187.209
187.672
188.13
188.583
189.031
189.473
189.909
190.339
190.761
191.175
191.581
191.978
192.364
192.739
193.102
193.453
193.792
194.13
174.374
174.822
175.275
175.733
176.197
176.665
177.137
177.613
178.093
178.577
179.064
179.554
180.045
180.539
181.034
181.531
182.028
182.525
183.022
183.518
184.014
184.507
184.999
185.488
185.975
186.459
186.94
187.417
187.89
188.36
188.825
189.286
189.742
190.193
190.639
191.08
191.515
191.945
192.367
192.783
193.192
193.592
193.983
194.364
194.735
195.095
195.441
195.775
196.097
196.417
177.435
177.894
178.358
178.825
179.297
179.773
180.252
180.734
181.219
181.706
182.195
182.685
183.177
183.669
184.162
184.655
185.147
185.637
186.127
186.615
187.1
187.583
188.064
188.541
189.015
189.485
189.951
190.414
190.872
191.325
191.774
192.219
192.658
193.092
193.52
193.943
194.359
194.768
195.171
195.565
195.951
196.328
196.695
197.05
197.394
197.725
198.042
198.348
198.65
180.039
180.502
180.968
181.439
181.912
182.389
182.868
183.35
183.833
184.318
184.804
185.291
185.779
186.266
186.753
187.239
187.724
188.207
188.689
189.168
189.644
190.117
190.587
191.054
191.517
191.976
192.431
192.882
193.328
193.77
194.207
194.639
195.066
195.488
195.904
196.314
196.717
197.113
197.502
197.883
198.255
198.618
198.97
199.31
199.639
199.954
200.256
200.546
200.832
182.628
183.092
183.559
184.03
184.503
184.978
185.455
185.934
186.414
186.895
187.377
187.859
188.34
188.821
189.3
189.778
190.255
190.729
191.201
191.67
192.136
192.599
193.058
193.513
193.965
194.413
194.856
195.295
195.73
196.16
196.584
197.004
197.419
197.828
198.232
198.629
199.02
199.403
199.779
200.147
200.505
200.853
201.191
201.517
201.831
202.132
202.419
202.693
202.963
185.658
186.124
186.592
187.063
187.535
188.008
188.483
188.958
189.433
189.908
190.383
190.857
191.329
191.8
192.269
192.736
193.2
193.662
194.12
194.575
195.027
195.475
195.919
196.359
196.795
197.226
197.653
198.076
198.494
198.907
199.315
199.717
200.115
200.506
200.891
201.269
201.64
202.003
202.357
202.702
203.037
203.361
203.673
203.973
204.259
204.532
204.792
205.047
188.194
188.657
189.122
189.588
190.055
190.523
190.992
191.46
191.928
192.395
192.862
193.327
193.79
194.251
194.71
195.166
195.62
196.07
196.517
196.961
197.401
197.837
198.27
198.698
199.122
199.542
199.957
200.368
200.774
201.175
201.571
201.962
202.347
202.727
203.099
203.466
203.824
204.175
204.516
204.849
205.17
205.481
205.78
206.066
206.339
206.599
206.845
207.086
191.155
191.615
192.075
192.536
192.997
193.457
193.918
194.377
194.836
195.292
195.748
196.201
196.651
197.099
197.545
197.987
198.426
198.861
199.293
199.722
200.146
200.567
200.983
201.395
201.803
202.207
202.606
203.001
203.39
203.775
204.154
204.528
204.896
205.257
205.611
205.958
206.296
206.626
206.946
207.255
207.554
207.84
208.113
208.373
208.62
208.853
209.081
193.614
194.067
194.52
194.973
195.426
195.878
196.329
196.779
197.227
197.674
198.118
198.56
199
199.437
199.87
200.301
200.728
201.152
201.572
201.989
202.401
202.81
203.215
203.616
204.012
204.404
204.792
205.175
205.554
205.927
206.296
206.658
207.015
207.365
207.708
208.043
208.37
208.688
208.996
209.293
209.58
209.854
210.115
210.363
210.597
210.819
211.034
196.476
196.921
197.365
197.808
198.25
198.692
199.131
199.569
200.004
200.438
200.869
201.297
201.722
202.144
202.563
202.978
203.39
203.799
204.203
204.604
205.002
205.395
205.784
206.17
206.551
206.928
207.3
207.668
208.03
208.388
208.74
209.085
209.425
209.757
210.081
210.397
210.703
211
211.286
211.561
211.824
212.074
212.311
212.534
212.744
212.947
198.84
199.275
199.709
200.143
200.575
201.005
201.433
201.86
202.284
202.706
203.125
203.541
203.955
204.365
204.772
205.176
205.576
205.973
206.366
206.756
207.142
207.524
207.902
208.277
208.647
209.013
209.375
209.732
210.085
210.432
210.773
211.109
211.438
211.759
212.073
212.378
212.674
212.96
213.236
213.5
213.752
213.991
214.217
214.43
214.629
214.822
201.157
201.582
202.006
202.428
202.849
203.268
203.685
204.1
204.513
204.923
205.33
205.735
206.136
206.535
206.93
207.322
207.711
208.096
208.478
208.857
209.232
209.603
209.971
210.335
210.695
211.051
211.403
211.75
212.093
212.43
212.761
213.087
213.406
213.717
214.021
214.316
214.602
214.878
215.144
215.398
215.639
215.869
216.085
216.287
216.477
216.659
203.426
203.84
204.253
204.664
205.074
205.481
205.887
206.29
206.691
207.089
207.484
207.877
208.267
208.654
209.037
209.418
209.796
210.17
210.541
210.909
211.273
211.634
211.992
212.346
212.696
213.042
213.384
213.722
214.055
214.383
214.705
215.021
215.33
215.633
215.927
216.212
216.489
216.755
217.011
217.255
217.488
217.708
217.914
218.108
218.289
218.461
205.647
206.05
206.451
206.851
207.249
207.644
208.038
208.429
208.818
209.205
209.588
209.969
210.348
210.723
211.095
211.465
211.831
212.195
212.555
212.913
213.267
213.618
213.966
214.31
214.651
214.988
215.321
215.649
215.973
216.292
216.605
216.913
217.213
217.506
217.791
218.068
218.335
218.593
218.839
219.075
219.298
219.509
219.707
219.892
220.065
220.228
207.819
208.21
208.6
208.988
209.374
209.758
210.139
210.519
210.896
211.271
211.643
212.012
212.379
212.743
213.105
213.464
213.82
214.173
214.523
214.871
215.215
215.557
215.895
216.23
216.562
216.89
217.214
217.534
217.849
218.16
218.464
218.763
219.055
219.339
219.616
219.884
220.143
220.392
220.63
220.857
221.072
221.275
221.465
221.642
221.806
221.962
209.942
210.321
210.699
211.075
211.449
211.822
212.192
212.56
212.925
213.288
213.649
214.007
214.363
214.717
215.067
215.416
215.761
216.105
216.445
216.783
217.118
217.451
217.78
218.107
218.43
218.75
219.065
219.377
219.684
219.986
220.283
220.573
220.857
221.133
221.402
221.662
221.913
222.154
222.384
222.603
222.81
223.005
223.188
223.357
223.515
223.663
212.384
212.75
213.114
213.477
213.837
214.196
214.552
214.906
215.258
215.608
215.955
216.3
216.643
216.984
217.322
217.658
217.992
218.323
218.652
218.978
219.302
219.623
219.941
220.256
220.568
220.876
221.18
221.479
221.773
222.062
222.345
222.621
222.89
223.151
223.403
223.646
223.879
224.102
224.314
224.514
224.702
224.877
225.04
225.191
225.333
214.399
214.753
215.106
215.457
215.805
216.152
216.498
216.841
217.182
217.521
217.857
218.192
218.525
218.856
219.185
219.511
219.836
220.158
220.478
220.796
221.112
221.425
221.735
222.043
222.347
222.647
222.943
223.235
223.522
223.804
224.079
224.348
224.609
224.863
225.108
225.344
225.57
225.786
225.991
226.184
226.366
226.534
226.691
226.836
226.971
216.366
216.709
217.05
217.389
217.727
218.063
218.397
218.729
219.06
219.388
219.715
220.04
220.363
220.685
221.004
221.322
221.638
221.952
222.264
222.574
222.881
223.187
223.49
223.79
224.086
224.379
224.669
224.954
225.234
225.508
225.777
226.039
226.293
226.54
226.778
227.008
227.227
227.436
227.635
227.822
227.997
228.16
228.31
228.449
228.578
218.619
218.948
219.277
219.603
219.928
220.252
220.574
220.894
221.212
221.529
221.845
222.159
222.471
222.782
223.091
223.399
223.705
224.009
224.311
224.612
224.91
225.206
225.499
225.788
226.075
226.357
226.636
226.909
227.177
227.439
227.694
227.942
228.183
228.415
228.637
228.851
229.054
229.246
229.427
229.596
229.754
229.899
230.033
230.156
220.483
220.802
221.119
221.435
221.75
222.063
222.375
222.685
222.994
223.302
223.608
223.913
224.217
224.519
224.821
225.12
225.419
225.716
226.011
226.304
226.595
226.884
227.171
227.454
227.734
228.01
228.282
228.549
228.811
229.066
229.315
229.557
229.792
230.018
230.234
230.442
230.639
230.826
231.001
231.165
231.317
231.457
231.586
231.704
222.303
222.611
222.918
223.224
223.528
223.831
224.134
224.435
224.734
225.033
225.331
225.628
225.923
226.218
226.511
226.804
227.095
227.385
227.673
227.959
228.244
228.527
228.807
229.084
229.358
229.628
229.894
230.155
230.41
230.66
230.903
231.139
231.368
231.588
231.799
232.001
232.193
232.374
232.544
232.703
232.85
232.985
233.11
233.224
224.08
224.378
224.675
224.97
225.265
225.559
225.852
226.144
226.435
226.725
227.014
227.303
227.591
227.878
228.164
228.449
228.734
229.017
229.299
229.579
229.858
230.134
230.408
230.679
230.947
231.212
231.472
231.727
231.977
232.221
232.459
232.689
232.912
233.127
233.333
233.529
233.716
233.892
234.057
234.211
234.354
234.485
234.605
234.714
226.103
226.39
226.676
226.961
227.246
227.53
227.813
228.096
228.378
228.66
228.941
229.221
229.501
229.78
230.059
230.337
230.614
230.889
231.164
231.436
231.707
231.975
232.241
232.503
232.762
233.017
233.266
233.511
233.75
233.982
234.207
234.425
234.634
234.835
235.027
235.208
235.38
235.54
235.69
235.828
235.955
236.071
236.177
227.788
228.065
228.342
228.618
228.894
229.169
229.445
229.719
229.994
230.268
230.542
230.815
231.088
231.361
231.633
231.905
232.176
232.446
232.714
232.981
233.246
233.509
233.769
234.026
234.28
234.529
234.774
235.013
235.247
235.474
235.694
235.907
236.111
236.307
236.494
236.671
236.838
236.994
237.14
237.274
237.397
237.509
237.611
229.433
229.701
229.969
230.237
230.504
230.772
231.039
231.306
231.573
231.84
232.107
232.374
232.641
232.907
233.173
233.439
233.704
233.968
234.232
234.493
234.753
235.011
235.266
235.518
235.766
236.01
236.25
236.484
236.713
236.935
237.151
237.358
237.558
237.75
237.932
238.105
238.267
238.42
238.561
238.691
238.811
238.92
239.018
231.299
231.558
231.818
232.078
232.337
232.597
232.857
233.117
233.377
233.638
233.898
234.159
234.419
234.68
234.94
235.2
235.459
235.717
235.973
236.228
236.481
236.731
236.978
237.221
237.461
237.695
237.925
238.149
238.366
238.577
238.78
238.976
239.163
239.341
239.509
239.668
239.816
239.954
240.081
240.197
240.303
240.397
232.86
233.111
233.363
233.615
233.867
234.12
234.373
234.626
234.88
235.135
235.389