/*--------------------------------*- C++ -*----------------------------------*\
| =========                 |                                                 |
| \\      /  F ield         | OpenFOAM: The Open Source CFD Toolbox           |
|  \\    /   O peration     | Version:  v1706                                 |
|   \\  /    A nd           | Web:      www.OpenFOAM.com                      |
|    \\/     M anipulation  |                                                 |
\*---------------------------------------------------------------------------*/
FoamFile
{
    version     2.0;
    format      ascii;
    class       volScalarField;
    location    "3.1e-05";
    object      mu;
}
// * * * * * * * * * * * * * * * * * * * * * * * * * * * * * * * * * * * * * //

dimensions      [1 -1 -1 0 0 0 0];


internalField   nonuniform List<scalar> 
29871
(
1.08039e-05
1.08459e-05
1.08901e-05
1.09377e-05
1.09893e-05
1.10451e-05
1.11044e-05
1.11667e-05
1.12311e-05
1.1297e-05
1.13641e-05
1.14318e-05
1.14996e-05
1.15672e-05
1.16339e-05
1.16994e-05
1.17632e-05
1.18248e-05
1.18843e-05
1.19421e-05
1.20039e-05
1.20775e-05
1.21601e-05
1.22479e-05
1.23376e-05
1.24268e-05
1.25138e-05
1.25974e-05
1.26766e-05
1.27507e-05
1.28195e-05
1.28825e-05
1.29397e-05
1.29911e-05
1.30364e-05
1.30759e-05
1.311e-05
1.31385e-05
1.31618e-05
1.31799e-05
1.31925e-05
1.31998e-05
1.32011e-05
1.31981e-05
1.31907e-05
1.31782e-05
1.31618e-05
1.31416e-05
1.31171e-05
1.30886e-05
1.30559e-05
1.30185e-05
1.29763e-05
1.29293e-05
1.28776e-05
1.28212e-05
1.27597e-05
1.26934e-05
1.26221e-05
1.25458e-05
1.24645e-05
1.23783e-05
1.22874e-05
1.21919e-05
1.20927e-05
1.1991e-05
1.18893e-05
1.17927e-05
1.17113e-05
1.16481e-05
1.15898e-05
1.15311e-05
1.14708e-05
1.14091e-05
1.13461e-05
1.1282e-05
1.12169e-05
1.11512e-05
1.10851e-05
1.10191e-05
1.0954e-05
1.0892e-05
1.08348e-05
1.07833e-05
1.07382e-05
1.0699e-05
1.06633e-05
1.06292e-05
1.05964e-05
1.0565e-05
1.05354e-05
1.0508e-05
1.04838e-05
1.04633e-05
1.04464e-05
1.04323e-05
1.04201e-05
1.04093e-05
1.03997e-05
1.03915e-05
1.03846e-05
1.03789e-05
1.03741e-05
1.03701e-05
1.03666e-05
1.26657e-05
1.28307e-05
1.29979e-05
1.31755e-05
1.33705e-05
1.35804e-05
1.38012e-05
1.40281e-05
1.42565e-05
1.44824e-05
1.47023e-05
1.49134e-05
1.51137e-05
1.53018e-05
1.54769e-05
1.56386e-05
1.57866e-05
1.59213e-05
1.60432e-05
1.6153e-05
1.6251e-05
1.63366e-05
1.64108e-05
1.64745e-05
1.65286e-05
1.65742e-05
1.66121e-05
1.66432e-05
1.66681e-05
1.66873e-05
1.67017e-05
1.67119e-05
1.67184e-05
1.67222e-05
1.67217e-05
1.67192e-05
1.67153e-05
1.67097e-05
1.67024e-05
1.66934e-05
1.66827e-05
1.66703e-05
1.66563e-05
1.66416e-05
1.66275e-05
1.66117e-05
1.65927e-05
1.65733e-05
1.65536e-05
1.65337e-05
1.65128e-05
1.64907e-05
1.64672e-05
1.64424e-05
1.64163e-05
1.63887e-05
1.63593e-05
1.63284e-05
1.62958e-05
1.62614e-05
1.62244e-05
1.61843e-05
1.61405e-05
1.60918e-05
1.60371e-05
1.59751e-05
1.59036e-05
1.58205e-05
1.57238e-05
1.56144e-05
1.54943e-05
1.53638e-05
1.52217e-05
1.50672e-05
1.48994e-05
1.47178e-05
1.45219e-05
1.43112e-05
1.40856e-05
1.38457e-05
1.35929e-05
1.33297e-05
1.30623e-05
1.28018e-05
1.25659e-05
1.23706e-05
1.21969e-05
1.20305e-05
1.18658e-05
1.17025e-05
1.15433e-05
1.13927e-05
1.12551e-05
1.11335e-05
1.10286e-05
1.09375e-05
1.08561e-05
1.07821e-05
1.07147e-05
1.06546e-05
1.06025e-05
1.05589e-05
1.0523e-05
1.04932e-05
1.04679e-05
1.56071e-05
1.58675e-05
1.61097e-05
1.63324e-05
1.65332e-05
1.67115e-05
1.68687e-05
1.70066e-05
1.71272e-05
1.72329e-05
1.73254e-05
1.74067e-05
1.74779e-05
1.754e-05
1.75936e-05
1.76392e-05
1.76769e-05
1.77071e-05
1.77305e-05
1.77484e-05
1.77618e-05
1.77716e-05
1.77787e-05
1.77834e-05
1.77863e-05
1.77866e-05
1.77853e-05
1.77826e-05
1.77781e-05
1.77718e-05
1.77638e-05
1.77544e-05
1.77437e-05
1.77316e-05
1.77184e-05
1.7704e-05
1.76885e-05
1.76722e-05
1.76553e-05
1.7638e-05
1.76202e-05
1.76017e-05
1.75829e-05
1.75641e-05
1.75452e-05
1.75274e-05
1.7511e-05
1.74913e-05
1.74726e-05
1.74566e-05
1.74381e-05
1.74179e-05
1.73993e-05
1.7382e-05
1.73643e-05
1.73459e-05
1.73273e-05
1.73087e-05
1.72899e-05
1.72706e-05
1.72511e-05
1.7231e-05
1.72094e-05
1.71861e-05
1.71615e-05
1.71349e-05
1.71055e-05
1.70733e-05
1.70388e-05
1.70014e-05
1.69613e-05
1.69187e-05
1.68735e-05
1.68254e-05
1.6774e-05
1.67189e-05
1.66599e-05
1.65967e-05
1.65282e-05
1.64522e-05
1.6366e-05
1.62663e-05
1.61491e-05
1.60115e-05
1.58505e-05
1.56622e-05
1.54445e-05
1.52012e-05
1.4934e-05
1.46432e-05
1.43288e-05
1.3993e-05
1.3641e-05
1.32833e-05
1.29388e-05
1.26378e-05
1.23811e-05
1.21476e-05
1.19258e-05
1.1714e-05
1.15162e-05
1.1338e-05
1.11836e-05
1.1053e-05
1.09411e-05
1.08435e-05
1.78189e-05
1.78992e-05
1.79668e-05
1.80231e-05
1.80689e-05
1.81053e-05
1.81329e-05
1.81532e-05
1.8168e-05
1.8179e-05
1.81876e-05
1.8195e-05
1.82016e-05
1.82078e-05
1.82136e-05
1.82184e-05
1.82217e-05
1.82229e-05
1.82219e-05
1.82192e-05
1.82148e-05
1.82091e-05
1.82023e-05
1.81947e-05
1.81864e-05
1.81774e-05
1.81679e-05
1.8158e-05
1.81479e-05
1.81378e-05
1.81274e-05
1.81167e-05
1.81056e-05
1.8094e-05
1.8082e-05
1.80693e-05
1.8056e-05
1.8042e-05
1.80272e-05
1.80116e-05
1.79953e-05
1.79783e-05
1.79603e-05
1.79414e-05
1.79224e-05
1.79042e-05
1.78867e-05
1.78665e-05
1.7847e-05
1.78288e-05
1.78089e-05
1.77861e-05
1.77633e-05
1.77423e-05
1.77208e-05
1.76978e-05
1.76746e-05
1.76512e-05
1.76268e-05
1.76021e-05
1.75776e-05
1.75522e-05
1.75253e-05
1.74997e-05
1.74743e-05
1.74473e-05
1.74204e-05
1.73955e-05
1.737e-05
1.73435e-05
1.73181e-05
1.72935e-05
1.72686e-05
1.72434e-05
1.72184e-05
1.71929e-05
1.71664e-05
1.71388e-05
1.71097e-05
1.70783e-05
1.70428e-05
1.70018e-05
1.69559e-05
1.69053e-05
1.68502e-05
1.67914e-05
1.67298e-05
1.66647e-05
1.6594e-05
1.65145e-05
1.64214e-05
1.63084e-05
1.6168e-05
1.59942e-05
1.57817e-05
1.5525e-05
1.5226e-05
1.48907e-05
1.45234e-05
1.41283e-05
1.37131e-05
1.32932e-05
1.28971e-05
1.25605e-05
1.22696e-05
1.20045e-05
1.84422e-05
1.84548e-05
1.84655e-05
1.84748e-05
1.84828e-05
1.84893e-05
1.84939e-05
1.84955e-05
1.84943e-05
1.84912e-05
1.84861e-05
1.84798e-05
1.84727e-05
1.84654e-05
1.84584e-05
1.84522e-05
1.84471e-05
1.84438e-05
1.84421e-05
1.84411e-05
1.844e-05
1.84381e-05
1.84347e-05
1.84297e-05
1.84231e-05
1.84151e-05
1.8406e-05
1.83959e-05
1.83851e-05
1.83738e-05
1.83621e-05
1.83499e-05
1.83373e-05
1.83242e-05
1.83107e-05
1.82968e-05
1.82824e-05
1.82676e-05
1.82524e-05
1.82366e-05
1.82202e-05
1.82033e-05
1.8186e-05
1.81679e-05
1.81487e-05
1.81294e-05
1.81106e-05
1.80919e-05
1.80713e-05
1.80512e-05
1.80318e-05
1.80128e-05
1.7989e-05
1.79636e-05
1.79406e-05
1.79175e-05
1.78923e-05
1.78677e-05
1.78429e-05
1.78166e-05
1.77913e-05
1.77675e-05
1.77419e-05
1.77149e-05
1.76905e-05
1.76666e-05
1.76402e-05
1.76146e-05
1.75915e-05
1.75672e-05
1.75416e-05
1.75173e-05
1.74936e-05
1.74692e-05
1.74445e-05
1.74197e-05
1.73947e-05
1.73683e-05
1.73401e-05
1.73107e-05
1.72791e-05
1.72449e-05
1.72103e-05
1.71798e-05
1.71503e-05
1.71212e-05
1.7096e-05
1.70724e-05
1.70479e-05
1.70216e-05
1.6993e-05
1.69606e-05
1.69228e-05
1.68777e-05
1.68248e-05
1.6765e-05
1.66994e-05
1.66272e-05
1.65441e-05
1.64432e-05
1.63154e-05
1.61518e-05
1.59449e-05
1.56876e-05
1.53743e-05
1.50106e-05
1.46047e-05
1.8683e-05
1.86792e-05
1.86749e-05
1.86706e-05
1.86664e-05
1.86628e-05
1.86602e-05
1.86587e-05
1.86576e-05
1.86561e-05
1.86533e-05
1.86488e-05
1.86427e-05
1.86351e-05
1.86266e-05
1.86177e-05
1.86089e-05
1.8601e-05
1.85943e-05
1.85887e-05
1.85838e-05
1.85794e-05
1.85748e-05
1.85697e-05
1.85637e-05
1.85565e-05
1.85483e-05
1.85389e-05
1.85285e-05
1.85171e-05
1.85049e-05
1.84922e-05
1.84791e-05
1.84655e-05
1.84515e-05
1.84372e-05
1.84223e-05
1.84068e-05
1.83911e-05
1.8375e-05
1.83579e-05
1.83405e-05
1.83229e-05
1.83045e-05
1.82849e-05
1.82654e-05
1.82462e-05
1.82268e-05
1.82054e-05
1.81849e-05
1.81653e-05
1.81458e-05
1.81222e-05
1.80949e-05
1.80704e-05
1.80471e-05
1.80211e-05
1.79955e-05
1.79694e-05
1.79425e-05
1.79176e-05
1.78942e-05
1.78681e-05
1.78414e-05
1.78169e-05
1.77932e-05
1.77666e-05
1.77418e-05
1.77192e-05
1.76945e-05
1.76692e-05
1.76454e-05
1.76222e-05
1.75968e-05
1.75713e-05
1.75461e-05
1.75194e-05
1.74913e-05
1.74626e-05
1.74344e-05
1.74045e-05
1.73728e-05
1.73435e-05
1.73183e-05
1.72941e-05
1.72693e-05
1.72469e-05
1.72253e-05
1.72016e-05
1.71761e-05
1.71498e-05
1.71231e-05
1.70966e-05
1.7074e-05
1.70541e-05
1.70287e-05
1.70031e-05
1.69778e-05
1.69503e-05
1.69186e-05
1.68807e-05
1.68355e-05
1.67845e-05
1.67271e-05
1.66605e-05
1.65792e-05
1.64739e-05
1.88262e-05
1.88253e-05
1.88243e-05
1.88223e-05
1.8819e-05
1.88141e-05
1.88081e-05
1.88015e-05
1.87949e-05
1.87886e-05
1.87836e-05
1.87798e-05
1.87765e-05
1.87733e-05
1.87694e-05
1.87647e-05
1.87589e-05
1.87518e-05
1.87437e-05
1.87347e-05
1.87253e-05
1.87161e-05
1.87076e-05
1.87001e-05
1.86934e-05
1.86872e-05
1.86814e-05
1.86756e-05
1.86694e-05
1.86627e-05
1.86551e-05
1.86467e-05
1.86374e-05
1.8627e-05
1.86157e-05
1.86037e-05
1.85909e-05
1.85774e-05
1.85633e-05
1.85487e-05
1.85332e-05
1.85172e-05
1.8501e-05
1.84836e-05
1.84655e-05
1.84475e-05
1.84291e-05
1.84088e-05
1.83887e-05
1.83691e-05
1.83494e-05
1.8327e-05
1.83059e-05
1.8286e-05
1.82658e-05
1.82435e-05
1.8215e-05
1.81897e-05
1.81661e-05
1.81408e-05
1.81142e-05
1.80865e-05
1.80596e-05
1.80345e-05
1.80109e-05
1.7984e-05
1.79561e-05
1.79304e-05
1.79053e-05
1.78777e-05
1.78514e-05
1.78272e-05
1.78002e-05
1.77731e-05
1.77473e-05
1.7722e-05
1.76936e-05
1.76656e-05
1.76383e-05
1.76091e-05
1.75789e-05
1.75499e-05
1.75213e-05
1.7492e-05
1.74632e-05
1.74369e-05
1.74131e-05
1.73912e-05
1.73694e-05
1.73476e-05
1.73257e-05
1.73028e-05
1.72792e-05
1.72556e-05
1.72319e-05
1.72098e-05
1.71919e-05
1.71756e-05
1.71553e-05
1.71331e-05
1.71108e-05
1.70879e-05
1.70653e-05
1.70463e-05
1.70309e-05
1.70168e-05
1.69962e-05
1.69744e-05
1.69513e-05
1.69237e-05
1.89404e-05
1.89364e-05
1.89334e-05
1.89307e-05
1.89276e-05
1.89238e-05
1.89191e-05
1.89133e-05
1.8907e-05
1.89002e-05
1.88936e-05
1.88877e-05
1.88828e-05
1.88788e-05
1.88754e-05
1.8872e-05
1.88682e-05
1.88637e-05
1.88584e-05
1.88521e-05
1.88449e-05
1.88369e-05
1.88285e-05
1.88201e-05
1.88119e-05
1.88041e-05
1.87966e-05
1.87893e-05
1.87821e-05
1.87748e-05
1.87672e-05
1.8759e-05
1.87503e-05
1.8741e-05
1.87306e-05
1.87194e-05
1.87076e-05
1.86946e-05
1.86808e-05
1.86667e-05
1.86514e-05
1.86351e-05
1.86188e-05
1.86018e-05
1.85831e-05
1.85645e-05
1.85462e-05
1.85255e-05
1.85048e-05
1.84847e-05
1.84651e-05
1.84418e-05
1.842e-05
1.83998e-05
1.83791e-05
1.83571e-05
1.83281e-05
1.83028e-05
1.82791e-05
1.82554e-05
1.82268e-05
1.81974e-05
1.81705e-05
1.81452e-05
1.81211e-05
1.80938e-05
1.80645e-05
1.80374e-05
1.80114e-05
1.79831e-05
1.79555e-05
1.79297e-05
1.79013e-05
1.78726e-05
1.78449e-05
1.78178e-05
1.77873e-05
1.77571e-05
1.77277e-05
1.76972e-05
1.76661e-05
1.76361e-05
1.76068e-05
1.75781e-05
1.75502e-05
1.75241e-05
1.74996e-05
1.74765e-05
1.74542e-05
1.74315e-05
1.74082e-05
1.73844e-05
1.73609e-05
1.73383e-05
1.73165e-05
1.72965e-05
1.72791e-05
1.7263e-05
1.72458e-05
1.72271e-05
1.72075e-05
1.71876e-05
1.71689e-05
1.71535e-05
1.71415e-05
1.71287e-05
1.71134e-05
1.70963e-05
1.70803e-05
1.7067e-05
1.90446e-05
1.90388e-05
1.90343e-05
1.90311e-05
1.90285e-05
1.90262e-05
1.90239e-05
1.9021e-05
1.90175e-05
1.90132e-05
1.90084e-05
1.90033e-05
1.89985e-05
1.89941e-05
1.89903e-05
1.89869e-05
1.89836e-05
1.89802e-05
1.89763e-05
1.89719e-05
1.89665e-05
1.89604e-05
1.89532e-05
1.89453e-05
1.8937e-05
1.89283e-05
1.89193e-05
1.89104e-05
1.89013e-05
1.88921e-05
1.88829e-05
1.88734e-05
1.88635e-05
1.88534e-05
1.88427e-05
1.8831e-05
1.88192e-05
1.88065e-05
1.87925e-05
1.87783e-05
1.87635e-05
1.8747e-05
1.87304e-05
1.87138e-05
1.8695e-05
1.86758e-05
1.86575e-05
1.8637e-05
1.86156e-05
1.8595e-05
1.85755e-05
1.85517e-05
1.85293e-05
1.85087e-05
1.84879e-05
1.84649e-05
1.84356e-05
1.84108e-05
1.83873e-05
1.83639e-05
1.8334e-05
1.83031e-05
1.82758e-05
1.825e-05
1.82249e-05
1.81972e-05
1.81666e-05
1.81381e-05
1.81111e-05
1.80825e-05
1.80536e-05
1.80257e-05
1.79969e-05
1.79671e-05
1.79377e-05
1.79085e-05
1.78778e-05
1.78466e-05
1.78159e-05
1.77852e-05
1.77547e-05
1.77248e-05
1.7696e-05
1.76682e-05
1.76412e-05
1.76154e-05
1.75908e-05
1.75669e-05
1.75433e-05
1.75195e-05
1.74952e-05
1.74706e-05
1.74464e-05
1.74231e-05
1.74011e-05
1.73809e-05
1.73624e-05
1.73449e-05
1.73275e-05
1.73095e-05
1.72909e-05
1.72723e-05
1.72548e-05
1.72395e-05
1.72267e-05
1.7215e-05
1.72029e-05
1.71894e-05
1.71762e-05
1.71653e-05
1.91543e-05
1.91502e-05
1.91464e-05
1.91433e-05
1.91411e-05
1.91395e-05
1.91382e-05
1.91371e-05
1.91356e-05
1.91336e-05
1.9131e-05
1.91277e-05
1.9124e-05
1.912e-05
1.9116e-05
1.91121e-05
1.91084e-05
1.91046e-05
1.91008e-05
1.90967e-05
1.9092e-05
1.90869e-05
1.90808e-05
1.90738e-05
1.90661e-05
1.90576e-05
1.90483e-05
1.90386e-05
1.90285e-05
1.90176e-05
1.90068e-05
1.89957e-05
1.89838e-05
1.89719e-05
1.89599e-05
1.89466e-05
1.89334e-05
1.89201e-05
1.89051e-05
1.88898e-05
1.88748e-05
1.8858e-05
1.88403e-05
1.88234e-05
1.88048e-05
1.87849e-05
1.87657e-05
1.87459e-05
1.87237e-05
1.87024e-05
1.86824e-05
1.86587e-05
1.86355e-05
1.86142e-05
1.85933e-05
1.85687e-05
1.85395e-05
1.85151e-05
1.84915e-05
1.84679e-05
1.84369e-05
1.8405e-05
1.83773e-05
1.83508e-05
1.83247e-05
1.82954e-05
1.82644e-05
1.82351e-05
1.82068e-05
1.81781e-05
1.81485e-05
1.8119e-05
1.80894e-05
1.80594e-05
1.80291e-05
1.79988e-05
1.79682e-05
1.79374e-05
1.79068e-05
1.78767e-05
1.78471e-05
1.78183e-05
1.77902e-05
1.77631e-05
1.7737e-05
1.77115e-05
1.76865e-05
1.76618e-05
1.76371e-05
1.76123e-05
1.75874e-05
1.75625e-05
1.75381e-05
1.75146e-05
1.74926e-05
1.7472e-05
1.74527e-05
1.7434e-05
1.74156e-05
1.73968e-05
1.73777e-05
1.73587e-05
1.73406e-05
1.73243e-05
1.73099e-05
1.72969e-05
1.72844e-05
1.72717e-05
1.72591e-05
1.72481e-05
1.9273e-05
1.92713e-05
1.92693e-05
1.92673e-05
1.92655e-05
1.92642e-05
1.92633e-05
1.92627e-05
1.92621e-05
1.92613e-05
1.92602e-05
1.92585e-05
1.92563e-05
1.92534e-05
1.92501e-05
1.92464e-05
1.92425e-05
1.92384e-05
1.9234e-05
1.92295e-05
1.92246e-05
1.92194e-05
1.92135e-05
1.92068e-05
1.91996e-05
1.91915e-05
1.91823e-05
1.91726e-05
1.91621e-05
1.91505e-05
1.91386e-05
1.91264e-05
1.9113e-05
1.90994e-05
1.90858e-05
1.9071e-05
1.90557e-05
1.90409e-05
1.90247e-05
1.90076e-05
1.89911e-05
1.89738e-05
1.89547e-05
1.89362e-05
1.89176e-05
1.88966e-05
1.88759e-05
1.88559e-05
1.88334e-05
1.88108e-05
1.87896e-05
1.87662e-05
1.87418e-05
1.87192e-05
1.86977e-05
1.86722e-05
1.86431e-05
1.86184e-05
1.85941e-05
1.857e-05
1.85381e-05
1.8506e-05
1.84782e-05
1.8451e-05
1.84243e-05
1.83924e-05
1.83609e-05
1.83314e-05
1.83026e-05
1.82735e-05
1.82438e-05
1.82137e-05
1.81837e-05
1.81535e-05
1.81233e-05
1.80931e-05
1.8063e-05
1.8033e-05
1.80033e-05
1.79742e-05
1.79455e-05
1.79174e-05
1.78902e-05
1.78636e-05
1.78376e-05
1.78119e-05
1.77864e-05
1.77609e-05
1.77354e-05
1.77099e-05
1.76845e-05
1.76595e-05
1.76351e-05
1.76118e-05
1.75897e-05
1.75687e-05
1.75487e-05
1.75292e-05
1.75097e-05
1.74901e-05
1.74704e-05
1.74509e-05
1.74323e-05
1.74148e-05
1.73986e-05
1.73836e-05
1.73691e-05
1.73551e-05
1.73417e-05
1.73296e-05
1.93989e-05
1.93995e-05
1.93999e-05
1.93998e-05
1.93996e-05
1.93991e-05
1.93987e-05
1.93983e-05
1.9398e-05
1.93978e-05
1.93975e-05
1.93971e-05
1.93964e-05
1.93952e-05
1.93934e-05
1.9391e-05
1.93879e-05
1.93843e-05
1.93802e-05
1.93757e-05
1.93707e-05
1.93653e-05
1.93595e-05
1.93532e-05
1.93462e-05
1.93387e-05
1.93305e-05
1.93212e-05
1.93114e-05
1.93008e-05
1.92889e-05
1.92765e-05
1.92636e-05
1.92495e-05
1.92346e-05
1.92198e-05
1.92039e-05
1.91868e-05
1.91704e-05
1.91531e-05
1.91342e-05
1.91157e-05
1.90974e-05
1.9077e-05
1.90564e-05
1.90367e-05
1.90151e-05
1.89925e-05
1.8971e-05
1.89485e-05
1.89242e-05
1.8901e-05
1.88778e-05
1.88523e-05
1.88278e-05
1.88047e-05
1.87791e-05
1.875e-05
1.87241e-05
1.86989e-05
1.86741e-05
1.86416e-05
1.86094e-05
1.85816e-05
1.85539e-05
1.85267e-05
1.84926e-05
1.84604e-05
1.84309e-05
1.8402e-05
1.83728e-05
1.83431e-05
1.83131e-05
1.82831e-05
1.82531e-05
1.82233e-05
1.81936e-05
1.81641e-05
1.81349e-05
1.8106e-05
1.80774e-05
1.80495e-05
1.8022e-05
1.79949e-05
1.79682e-05
1.79417e-05
1.79155e-05
1.78893e-05
1.78632e-05
1.78371e-05
1.78112e-05
1.77856e-05
1.77606e-05
1.77364e-05
1.77132e-05
1.76909e-05
1.76696e-05
1.76489e-05
1.76285e-05
1.76081e-05
1.75876e-05
1.7567e-05
1.75468e-05
1.75272e-05
1.75085e-05
1.74907e-05
1.74739e-05
1.74577e-05
1.74422e-05
1.74276e-05
1.74138e-05
1.95322e-05
1.9534e-05
1.95359e-05
1.95376e-05
1.9539e-05
1.954e-05
1.95408e-05
1.95414e-05
1.95417e-05
1.9542e-05
1.9542e-05
1.95419e-05
1.95416e-05
1.95409e-05
1.95397e-05
1.95379e-05
1.95354e-05
1.95323e-05
1.95285e-05
1.9524e-05
1.95188e-05
1.95131e-05
1.95067e-05
1.94998e-05
1.94922e-05
1.9484e-05
1.94752e-05
1.94654e-05
1.94551e-05
1.9444e-05
1.94318e-05
1.94189e-05
1.94055e-05
1.93908e-05
1.93751e-05
1.93594e-05
1.93427e-05
1.93245e-05
1.93065e-05
1.92882e-05
1.92683e-05
1.92478e-05
1.92281e-05
1.92069e-05
1.91844e-05
1.91628e-05
1.91407e-05
1.91165e-05
1.90928e-05
1.90697e-05
1.90445e-05
1.9019e-05
1.89946e-05
1.89687e-05
1.89422e-05
1.89167e-05
1.88912e-05
1.88619e-05
1.88344e-05
1.88078e-05
1.87822e-05
1.87497e-05
1.87174e-05
1.8689e-05
1.86605e-05
1.86328e-05
1.85981e-05
1.85657e-05
1.85358e-05
1.85066e-05
1.84772e-05
1.84476e-05
1.84178e-05
1.8388e-05
1.83582e-05
1.83287e-05
1.82993e-05
1.82701e-05
1.82412e-05
1.82126e-05
1.81844e-05
1.81565e-05
1.81288e-05
1.81014e-05
1.80743e-05
1.80472e-05
1.80204e-05
1.79936e-05
1.79669e-05
1.79405e-05
1.79144e-05
1.78888e-05
1.78638e-05
1.78397e-05
1.78164e-05
1.77939e-05
1.7772e-05
1.77505e-05
1.77291e-05
1.77076e-05
1.7686e-05
1.76644e-05
1.76432e-05
1.76224e-05
1.76024e-05
1.75832e-05
1.75647e-05
1.7547e-05
1.75299e-05
1.75135e-05
1.74978e-05
1.74829e-05
1.74688e-05
1.96734e-05
1.96764e-05
1.96794e-05
1.96822e-05
1.96849e-05
1.96873e-05
1.96893e-05
1.96909e-05
1.96922e-05
1.9693e-05
1.96935e-05
1.96936e-05
1.96934e-05
1.96929e-05
1.96918e-05
1.96903e-05
1.9688e-05
1.96851e-05
1.96815e-05
1.9677e-05
1.96718e-05
1.96658e-05
1.9659e-05
1.96515e-05
1.96433e-05
1.96344e-05
1.96247e-05
1.96142e-05
1.96031e-05
1.95912e-05
1.95783e-05
1.95646e-05
1.95504e-05
1.95351e-05
1.95186e-05
1.95019e-05
1.94845e-05
1.94656e-05
1.94461e-05
1.94269e-05
1.94062e-05
1.93841e-05
1.93629e-05
1.93409e-05
1.93171e-05
1.92934e-05
1.92705e-05
1.92455e-05
1.92196e-05
1.91949e-05
1.91694e-05
1.9142e-05
1.91153e-05
1.90892e-05
1.90612e-05
1.90334e-05
1.90064e-05
1.89778e-05
1.89485e-05
1.89201e-05
1.88926e-05
1.88615e-05
1.88294e-05
1.87993e-05
1.87696e-05
1.87402e-05
1.87079e-05
1.86756e-05
1.86447e-05
1.86147e-05
1.85848e-05
1.8555e-05
1.85251e-05
1.84953e-05
1.84655e-05
1.84359e-05
1.84063e-05
1.83771e-05
1.83481e-05
1.83194e-05
1.82909e-05
1.82626e-05
1.82345e-05
1.82066e-05
1.81788e-05
1.81512e-05
1.81238e-05
1.80965e-05
1.80695e-05
1.80428e-05
1.80166e-05
1.7991e-05
1.79661e-05
1.79418e-05
1.79182e-05
1.78951e-05
1.78724e-05
1.78497e-05
1.7827e-05
1.78043e-05
1.77814e-05
1.77586e-05
1.77361e-05
1.77142e-05
1.76928e-05
1.76721e-05
1.76521e-05
1.76327e-05
1.76138e-05
1.75953e-05
1.75773e-05
1.75598e-05
1.7543e-05
1.98133e-05
1.98174e-05
1.98214e-05
1.98254e-05
1.98293e-05
1.98331e-05
1.98367e-05
1.984e-05
1.9843e-05
1.98455e-05
1.98475e-05
1.9849e-05
1.985e-05
1.98504e-05
1.98502e-05
1.98497e-05
1.98486e-05
1.98469e-05
1.98445e-05
1.98415e-05
1.98377e-05
1.98331e-05
1.98276e-05
1.98213e-05
1.98141e-05
1.98061e-05
1.97972e-05
1.97875e-05
1.9777e-05
1.97656e-05
1.97534e-05
1.97405e-05
1.97266e-05
1.97119e-05
1.96966e-05
1.96803e-05
1.96629e-05
1.9645e-05
1.96266e-05
1.96069e-05
1.9586e-05
1.95655e-05
1.9544e-05
1.95208e-05
1.94978e-05
1.9475e-05
1.94503e-05
1.94247e-05
1.94001e-05
1.93746e-05
1.93472e-05
1.93203e-05
1.92941e-05
1.92658e-05
1.92369e-05
1.92091e-05
1.91807e-05
1.9151e-05
1.91219e-05
1.90929e-05
1.90629e-05
1.90326e-05
1.90028e-05
1.89724e-05
1.89408e-05
1.89094e-05
1.88784e-05
1.88475e-05
1.88161e-05
1.87841e-05
1.87526e-05
1.87216e-05
1.8691e-05
1.86606e-05
1.86303e-05
1.86001e-05
1.85699e-05
1.85398e-05
1.851e-05
1.84804e-05
1.8451e-05
1.84218e-05
1.83928e-05
1.83639e-05
1.83353e-05
1.83067e-05
1.82784e-05
1.82503e-05
1.82224e-05
1.81947e-05
1.81675e-05
1.81406e-05
1.81143e-05
1.80885e-05
1.80632e-05
1.80385e-05
1.80141e-05
1.799e-05
1.79661e-05
1.79421e-05
1.79179e-05
1.78937e-05
1.78695e-05
1.78453e-05
1.78215e-05
1.77982e-05
1.77754e-05
1.77531e-05
1.77313e-05
1.771e-05
1.76889e-05
1.76679e-05
1.76473e-05
1.76269e-05
1.76071e-05
1.9964e-05
1.99693e-05
1.99745e-05
1.99795e-05
1.99842e-05
1.99888e-05
1.99931e-05
1.9997e-05
2.00006e-05
2.00036e-05
2.00062e-05
2.00081e-05
2.00094e-05
2.001e-05
2.00099e-05
2.00092e-05
2.00079e-05
2.00059e-05
2.00031e-05
1.99996e-05
1.99953e-05
1.99902e-05
1.99842e-05
1.99773e-05
1.99695e-05
1.99608e-05
1.99511e-05
1.99405e-05
1.9929e-05
1.99166e-05
1.99033e-05
1.98892e-05
1.98741e-05
1.98581e-05
1.98415e-05
1.98239e-05
1.98053e-05
1.97859e-05
1.97662e-05
1.97453e-05
1.9723e-05
1.97009e-05
1.96783e-05
1.96541e-05
1.9629e-05
1.96049e-05
1.95793e-05
1.95521e-05
1.95254e-05
1.94992e-05
1.94708e-05
1.94416e-05
1.94136e-05
1.93849e-05
1.93543e-05
1.93243e-05
1.92948e-05
1.92642e-05
1.92333e-05
1.92027e-05
1.91719e-05
1.91405e-05
1.91091e-05
1.90776e-05
1.90458e-05
1.90137e-05
1.89816e-05
1.89497e-05
1.89177e-05
1.88856e-05
1.88535e-05
1.88218e-05
1.87904e-05
1.87592e-05
1.87282e-05
1.86973e-05
1.86664e-05
1.86357e-05
1.86054e-05
1.85752e-05
1.85452e-05
1.85154e-05
1.84858e-05
1.84563e-05
1.84271e-05
1.8398e-05
1.83692e-05
1.83406e-05
1.83123e-05
1.82844e-05
1.82568e-05
1.82296e-05
1.82028e-05
1.81765e-05
1.81505e-05
1.81248e-05
1.80994e-05
1.80739e-05
1.80485e-05
1.80229e-05
1.79972e-05
1.79714e-05
1.79456e-05
1.792e-05
1.78947e-05
1.78698e-05
1.78453e-05
1.78212e-05
1.77974e-05
1.77737e-05
1.77499e-05
1.77262e-05
1.77025e-05
1.76789e-05
1.76557e-05
1.76329e-05
2.00714e-05
2.0078e-05
2.00848e-05
2.00916e-05
2.00985e-05
2.01053e-05
2.01121e-05
2.01186e-05
2.0125e-05
2.01311e-05
2.01369e-05
2.01424e-05
2.01475e-05
2.01522e-05
2.01565e-05
2.01604e-05
2.01637e-05
2.01664e-05
2.01684e-05
2.01698e-05
2.01702e-05
2.017e-05
2.0169e-05
2.01673e-05
2.01648e-05
2.01614e-05
2.01572e-05
2.01521e-05
2.01461e-05
2.01392e-05
2.01314e-05
2.01226e-05
2.01129e-05
2.01022e-05
2.00905e-05
2.00778e-05
2.00641e-05
2.00495e-05
2.0034e-05
2.00175e-05
2.00001e-05
1.99818e-05
1.99627e-05
1.99425e-05
1.99215e-05
1.99e-05
1.98776e-05
1.98538e-05
1.98296e-05
1.98056e-05
1.978e-05
1.9753e-05
1.97268e-05
1.97002e-05
1.96716e-05
1.96425e-05
1.96146e-05
1.95853e-05
1.95543e-05
1.95239e-05
1.94941e-05
1.94625e-05
1.94304e-05
1.9399e-05
1.93674e-05
1.93351e-05
1.93028e-05
1.92706e-05
1.92382e-05
1.92055e-05
1.91727e-05
1.91399e-05
1.9107e-05
1.9074e-05
1.90411e-05
1.90082e-05
1.89754e-05
1.89427e-05
1.89102e-05
1.8878e-05
1.88459e-05
1.8814e-05
1.87822e-05
1.87507e-05
1.87194e-05
1.86884e-05
1.86576e-05
1.86269e-05
1.85964e-05
1.85662e-05
1.85361e-05
1.85063e-05
1.84768e-05
1.84474e-05
1.84184e-05
1.83896e-05
1.83612e-05
1.83331e-05
1.83053e-05
1.82778e-05
1.82505e-05
1.82234e-05
1.81964e-05
1.81695e-05
1.81424e-05
1.81153e-05
1.8088e-05
1.80606e-05
1.80332e-05
1.80058e-05
1.79786e-05
1.79515e-05
1.79247e-05
1.78982e-05
1.78718e-05
1.78454e-05
1.7819e-05
1.77923e-05
1.77654e-05
1.77383e-05
1.77112e-05
1.76843e-05
1.76575e-05
2.02211e-05
2.02291e-05
2.0237e-05
2.0245e-05
2.02529e-05
2.02607e-05
2.02683e-05
2.02757e-05
2.02828e-05
2.02895e-05
2.02959e-05
2.03018e-05
2.03072e-05
2.03122e-05
2.03166e-05
2.03204e-05
2.03236e-05
2.03261e-05
2.03278e-05
2.03288e-05
2.03288e-05
2.03282e-05
2.03267e-05
2.03243e-05
2.0321e-05
2.03167e-05
2.03115e-05
2.03053e-05
2.02981e-05
2.029e-05
2.02809e-05
2.02708e-05
2.02597e-05
2.02476e-05
2.02344e-05
2.02202e-05
2.0205e-05
2.01888e-05
2.01716e-05
2.01534e-05
2.01342e-05
2.01141e-05
2.00932e-05
2.00712e-05
2.00482e-05
2.00247e-05
2.00004e-05
1.99748e-05
1.99483e-05
1.99223e-05
1.98951e-05
1.98662e-05
1.98374e-05
1.98091e-05
1.97791e-05
1.97477e-05
1.97173e-05
1.96869e-05
1.96543e-05
1.96214e-05
1.95896e-05
1.95569e-05
1.95232e-05
1.94897e-05
1.94564e-05
1.94228e-05
1.9389e-05
1.93552e-05
1.93213e-05
1.92874e-05
1.92534e-05
1.92194e-05
1.91854e-05
1.91514e-05
1.91175e-05
1.90837e-05
1.905e-05
1.90165e-05
1.89831e-05
1.895e-05
1.8917e-05
1.88841e-05
1.88516e-05
1.88194e-05
1.87874e-05
1.87557e-05
1.87242e-05
1.86928e-05
1.86617e-05
1.86308e-05
1.86002e-05
1.85698e-05
1.85396e-05
1.85097e-05
1.84801e-05
1.84507e-05
1.84215e-05
1.83926e-05
1.83638e-05
1.83352e-05
1.83066e-05
1.82781e-05
1.82495e-05
1.82208e-05
1.8192e-05
1.81631e-05
1.8134e-05
1.81048e-05
1.80757e-05
1.80466e-05
1.80175e-05
1.79885e-05
1.79595e-05
1.79304e-05
1.79013e-05
1.78719e-05
1.78424e-05
1.78127e-05
1.77828e-05
1.77527e-05
1.77225e-05
1.76923e-05
1.7662e-05
2.03734e-05
2.03824e-05
2.03914e-05
2.04002e-05
2.04089e-05
2.04173e-05
2.04255e-05
2.04334e-05
2.04408e-05
2.04479e-05
2.04544e-05
2.04605e-05
2.04659e-05
2.04707e-05
2.04749e-05
2.04783e-05
2.04811e-05
2.0483e-05
2.04841e-05
2.04842e-05
2.04836e-05
2.04821e-05
2.04796e-05
2.04762e-05
2.04717e-05
2.04662e-05
2.04596e-05
2.04521e-05
2.04434e-05
2.04337e-05
2.0423e-05
2.04112e-05
2.03983e-05
2.03843e-05
2.03693e-05
2.03533e-05
2.03361e-05
2.03179e-05
2.02987e-05
2.02785e-05
2.02572e-05
2.0235e-05
2.02118e-05
2.01877e-05
2.01625e-05
2.01366e-05
2.01102e-05
2.00825e-05
2.00536e-05
2.00251e-05
1.99959e-05
1.9965e-05
1.99335e-05
1.9903e-05
1.98711e-05
1.98376e-05
1.98045e-05
1.97721e-05
1.9738e-05
1.97029e-05
1.96686e-05
1.96343e-05
1.95991e-05
1.95636e-05
1.95284e-05
1.94931e-05
1.94578e-05
1.94223e-05
1.9387e-05
1.93517e-05
1.93164e-05
1.92811e-05
1.9246e-05
1.92109e-05
1.9176e-05
1.91412e-05
1.91066e-05
1.90721e-05
1.90379e-05
1.90037e-05
1.89698e-05
1.89362e-05
1.8903e-05
1.88701e-05
1.88374e-05
1.88049e-05
1.87727e-05
1.87407e-05
1.87089e-05
1.86774e-05
1.8646e-05
1.8615e-05
1.85841e-05
1.85534e-05
1.8523e-05
1.84927e-05
1.84625e-05
1.84325e-05
1.84026e-05
1.83726e-05
1.83425e-05
1.83123e-05
1.8282e-05
1.82515e-05
1.82209e-05
1.81901e-05
1.81591e-05
1.81281e-05
1.80971e-05
1.80661e-05
1.80351e-05
1.80042e-05
1.79731e-05
1.79417e-05
1.791e-05
1.7878e-05
1.78456e-05
1.78129e-05
1.77803e-05
1.77476e-05
1.77148e-05
1.7682e-05
1.76491e-05
2.05266e-05
2.05364e-05
2.05461e-05
2.05555e-05
2.05646e-05
2.05734e-05
2.05818e-05
2.05898e-05
2.05972e-05
2.06042e-05
2.06106e-05
2.06163e-05
2.06214e-05
2.06257e-05
2.06292e-05
2.06319e-05
2.06338e-05
2.06348e-05
2.06347e-05
2.06339e-05
2.06321e-05
2.06293e-05
2.06254e-05
2.06204e-05
2.06144e-05
2.06073e-05
2.0599e-05
2.05896e-05
2.05791e-05
2.05675e-05
2.05548e-05
2.05409e-05
2.05258e-05
2.05097e-05
2.04924e-05
2.04741e-05
2.04546e-05
2.0434e-05
2.04124e-05
2.03898e-05
2.0366e-05
2.03413e-05
2.03157e-05
2.02891e-05
2.02614e-05
2.02329e-05
2.0204e-05
2.01738e-05
2.01424e-05
2.01111e-05
2.00796e-05
2.00464e-05
2.00121e-05
1.99789e-05
1.9945e-05
1.99093e-05
1.98733e-05
1.98385e-05
1.98026e-05
1.97656e-05
1.97289e-05
1.96924e-05
1.96555e-05
1.96183e-05
1.95811e-05
1.9544e-05
1.95069e-05
1.94699e-05
1.9433e-05
1.93963e-05
1.93596e-05
1.93231e-05
1.92868e-05
1.92507e-05
1.92148e-05
1.91791e-05
1.91436e-05
1.91082e-05
1.9073e-05
1.9038e-05
1.90034e-05
1.89692e-05
1.89353e-05
1.89016e-05
1.88682e-05
1.8835e-05
1.88021e-05
1.87694e-05
1.87369e-05
1.87047e-05
1.86726e-05
1.86407e-05
1.8609e-05
1.85774e-05
1.8546e-05
1.85146e-05
1.84833e-05
1.8452e-05
1.84207e-05
1.83893e-05
1.83579e-05
1.83263e-05
1.82945e-05
1.82624e-05
1.82302e-05
1.81979e-05
1.81653e-05
1.81326e-05
1.80999e-05
1.8067e-05
1.80342e-05
1.80013e-05
1.79681e-05
1.79346e-05
1.79007e-05
1.78664e-05
1.78317e-05
1.77966e-05
1.77611e-05
1.77255e-05
1.76897e-05
1.76538e-05
1.76179e-05
1.75818e-05
1.75454e-05
2.06792e-05
2.06894e-05
2.06994e-05
2.07089e-05
2.07181e-05
2.07269e-05
2.07351e-05
2.07428e-05
2.07499e-05
2.07564e-05
2.07622e-05
2.07672e-05
2.07714e-05
2.07748e-05
2.07772e-05
2.07788e-05
2.07793e-05
2.0779e-05
2.07776e-05
2.07752e-05
2.07717e-05
2.07672e-05
2.07615e-05
2.07546e-05
2.07466e-05
2.07374e-05
2.0727e-05
2.07155e-05
2.07027e-05
2.06887e-05
2.06736e-05
2.06572e-05
2.06397e-05
2.0621e-05
2.06011e-05
2.058e-05
2.05579e-05
2.05346e-05
2.05102e-05
2.04848e-05
2.04582e-05
2.04307e-05
2.04022e-05
2.03728e-05
2.03424e-05
2.0311e-05
2.02792e-05
2.02464e-05
2.02122e-05
2.0178e-05
2.01438e-05
2.0108e-05
2.00711e-05
2.00351e-05
1.99986e-05
1.99604e-05
1.9922e-05
1.98844e-05
1.98464e-05
1.98075e-05
1.97686e-05
1.97299e-05
1.96911e-05
1.96522e-05
1.96132e-05
1.95744e-05
1.95357e-05
1.94971e-05
1.94587e-05
1.94206e-05
1.93826e-05
1.9345e-05
1.93075e-05
1.92704e-05
1.92335e-05
1.91969e-05
1.91606e-05
1.91245e-05
1.90885e-05
1.9053e-05
1.90179e-05
1.89832e-05
1.89487e-05
1.89145e-05
1.88805e-05
1.88468e-05
1.88133e-05
1.878e-05
1.8747e-05
1.87141e-05
1.86814e-05
1.86488e-05
1.86163e-05
1.85839e-05
1.85515e-05
1.85191e-05
1.84867e-05
1.84542e-05
1.84216e-05
1.8389e-05
1.83563e-05
1.83234e-05
1.82903e-05
1.8257e-05
1.82235e-05
1.81897e-05
1.81558e-05
1.81217e-05
1.80873e-05
1.80527e-05
1.80178e-05
1.79826e-05
1.7947e-05
1.7911e-05
1.78745e-05
1.78376e-05
1.78004e-05
1.77629e-05
1.77251e-05
1.7687e-05
1.76487e-05
1.76102e-05
1.75714e-05
1.75323e-05
1.7493e-05
2.08294e-05
2.08396e-05
2.08494e-05
2.08587e-05
2.08676e-05
2.08759e-05
2.08835e-05
2.08905e-05
2.08968e-05
2.09023e-05
2.0907e-05
2.09109e-05
2.09138e-05
2.09158e-05
2.09168e-05
2.09167e-05
2.09157e-05
2.09136e-05
2.09103e-05
2.09059e-05
2.09003e-05
2.08936e-05
2.08856e-05
2.08764e-05
2.0866e-05
2.08543e-05
2.08414e-05
2.08272e-05
2.08118e-05
2.07951e-05
2.07771e-05
2.0758e-05
2.07375e-05
2.07159e-05
2.0693e-05
2.06689e-05
2.06437e-05
2.06174e-05
2.05899e-05
2.05614e-05
2.05317e-05
2.0501e-05
2.04695e-05
2.0437e-05
2.04035e-05
2.0369e-05
2.03342e-05
2.02983e-05
2.02611e-05
2.0224e-05
2.01869e-05
2.01483e-05
2.01087e-05
2.00701e-05
2.00308e-05
1.99902e-05
1.99495e-05
1.99093e-05
1.98688e-05
1.98279e-05
1.97871e-05
1.97465e-05
1.97061e-05
1.96657e-05
1.96254e-05
1.95852e-05
1.95452e-05
1.95055e-05
1.94659e-05
1.94267e-05
1.93878e-05
1.93492e-05
1.93109e-05
1.9273e-05
1.92355e-05
1.91982e-05
1.91612e-05