/*--------------------------------*- C++ -*----------------------------------*\
| =========                 |                                                 |
| \\      /  F ield         | OpenFOAM: The Open Source CFD Toolbox           |
|  \\    /   O peration     | Version:  v1706                                 |
|   \\  /    A nd           | Web:      www.OpenFOAM.com                      |
|    \\/     M anipulation  |                                                 |
\*---------------------------------------------------------------------------*/
FoamFile
{
    version     2.0;
    format      ascii;
    class       volScalarField;
    location    "3.1e-05";
    object      p;
}
// * * * * * * * * * * * * * * * * * * * * * * * * * * * * * * * * * * * * * //

dimensions      [1 -1 -2 0 0 0 0];


internalField   nonuniform List<scalar> 
29871
(
23.9502
24.1682
24.4007
24.6502
24.9166
25.196
25.4834
25.7746
26.0674
26.3625
26.6623
26.9694
27.2855
27.6107
27.9436
28.2823
28.6242
28.9668
29.308
29.6479
30.0171
30.4872
31.0561
31.7057
32.4148
33.1633
33.9341
34.7133
35.4893
36.2514
36.9907
37.6991
38.3703
38.9988
39.5793
40.1085
40.5843
41.0039
41.3663
41.6704
41.9091
42.0829
42.1938
42.2491
42.2248
42.1414
42.0101
41.8291
41.5927
41.3047
40.9657
40.5716
40.1217
39.6195
39.0683
38.4694
37.8247
37.1373
36.4098
35.6453
34.8488
34.0257
33.1816
32.3241
31.4648
30.6192
29.8138
29.1025
28.5698
28.1985
27.8662
27.5347
27.2008
26.8671
26.5352
26.206
25.8808
25.5613
25.2477
24.9391
24.6433
24.3818
24.1616
23.9659
23.7811
23.6047
23.4335
23.2659
23.1035
22.9473
22.796
22.65
22.5174
22.4093
22.3277
22.2646
22.2118
22.1652
22.125
22.0921
22.0652
22.0422
22.022
22.0041
21.9881
33.404
34.4451
35.5512
36.8041
38.3118
40.104
42.1819
44.5306
47.124
49.9293
52.9108
56.0336
59.2645
62.5734
65.9322
69.315
72.6971
76.056
79.3716
82.6273
85.7871
88.7485
91.4971
94.0408
96.3926
98.5654
100.57
102.413
104.099
105.633
107.02
108.269
109.387
110.384
111.251
112.009
112.666
113.219
113.678
114.042
114.303
114.457
114.499
114.456
114.403
114.212
113.89
113.491
113.032
112.516
111.92
111.234
110.453
109.582
108.623
107.569
106.415
105.169
103.836
102.406
100.87
99.231
97.4788
95.6016
93.5991
91.4619
89.1665
86.6717
83.8985
80.8542
77.669
74.404
71.0748
67.69
64.2653
60.821
57.3781
53.9587
50.5899
47.3098
44.1647
41.1978
38.4512
36.0105
34.0571
32.6524
31.5119
30.4718
29.4811
28.5347
27.6506
26.8633
26.191
25.6158
25.114
24.6682
24.2679
23.9073
23.5821
23.291
23.0389
22.8318
22.6668
22.5335
22.4224
62.0739
66.6626
71.456
76.4155
81.4238
86.3326
91.0828
95.6459
100.01
104.17
108.126
111.876
115.415
118.738
121.839
124.709
127.338
129.716
131.852
133.77
135.499
137.073
138.507
139.814
141.006
142.084
143.062
143.948
144.739
145.427
146.02
146.528
146.953
147.3
147.571
147.768
147.897
147.963
147.975
147.937
147.864
147.755
147.572
147.345
147.087
146.858
146.675
146.323
145.968
145.759
145.43
144.925
144.417
143.955
143.459
142.896
142.285
141.64
140.94
140.171
139.344
138.456
137.466
136.358
135.169
133.887
132.463
130.908
129.239
127.437
125.508
123.48
121.366
119.163
116.86
114.447
111.928
109.314
106.577
103.67
100.545
97.1447
93.3994
89.2815
84.7784
79.8182
74.4107
68.8604
63.3786
58.0632
52.9839
48.2222
43.8573
39.9646
36.6975
34.2786
32.5013
31.0298
29.715
28.5259
27.4835
26.6001
25.8537
25.2161
24.665
24.186
118.134
122.216
125.972
129.408
132.521
135.298
137.726
139.813
141.6
143.144
144.504
145.732
146.863
147.92
148.914
149.846
150.682
151.395
151.98
152.443
152.8
153.076
153.289
153.452
153.574
153.662
153.721
153.762
153.793
153.825
153.854
153.877
153.893
153.899
153.892
153.867
153.822
153.753
153.65
153.512
153.345
153.15
152.921
152.63
152.296
152.004
151.74
151.326
150.912
150.595
150.229
149.696
149.103
148.59
148.06
147.443
146.808
146.173
145.465
144.736
144.063
143.361
142.559
141.858
141.214
140.475
139.738
139.128
138.488
137.785
137.13
136.51
135.859
135.18
134.482
133.738
132.918
131.994
130.945
129.735
128.287
126.545
124.547
122.331
119.891
117.235
114.404
111.433
108.309
104.978
101.35
97.3032
92.7197
87.5552
81.7959
75.3897
68.6342
61.9639
55.6362
49.7886
44.5143
39.9289
36.2697
33.683
31.7465
30.136
147.693
149.082
150.294
151.368
152.333
153.195
153.952
154.567
155.02
155.328
155.509
155.591
155.602
155.571
155.518
155.467
155.446
155.492
155.615
155.801
156.021
156.238
156.42
156.551
156.624
156.642
156.612
156.54
156.433
156.304
156.178
156.051
155.916
155.773
155.622
155.462
155.288
155.102
154.909
154.697
154.459
154.208
153.953
153.671
153.331
152.971
152.649
152.338
151.916
151.477
151.118
150.851
150.379
149.752
149.234
148.727
148.096
147.511
146.932
146.242
145.594
145.062
144.452
143.73
143.158
142.638
141.973
141.315
140.793
140.217
139.553
138.936
138.353
137.733
137.079
136.435
135.798
135.113
134.366
133.628
132.872
131.999
131.145
130.578
130.045
129.447
128.917
128.361
127.663
126.789
125.716
124.403
122.798
120.853
118.571
115.969
113.062
109.865
106.318
102.301
97.6494
92.2523
86.1052
79.2127
71.6562
63.9969
56.725
158.365
158.436
158.42
158.362
158.284
158.2
158.131
158.126
158.164
158.221
158.262
158.248
158.165
158.029
157.84
157.614
157.363
157.143
156.985
156.886
156.844
156.831
156.834
156.836
156.818
156.769
156.682
156.56
156.404
156.208
155.974
155.718
155.454
155.179
154.898
154.616
154.323
154.015
153.714
153.41
153.072
152.728
152.409
152.067
151.663
151.263
150.917
150.574
150.108
149.638
149.266
149.045
148.671
148.026
147.493
147.041
146.464
145.935
145.388
144.754
144.222
143.828
143.302
142.694
142.223
141.811
141.223
140.697
140.306
139.815
139.25
138.766
138.328
137.782
137.22
136.706
136.141
135.477
134.78
134.181
133.556
132.807
132.155
131.727
131.311
130.8
130.342
129.92
129.449
128.94
128.466
128.066
127.759
127.613
127.499
127.07
126.439
125.656
124.648
123.329
121.635
119.58
117.251
114.571
111.413
107.679
103.22
160.783
160.782
160.796
160.788
160.735
160.619
160.445
160.221
159.967
159.684
159.442
159.267
159.139
159.028
158.913
158.774
158.598
158.38
158.121
157.823
157.486
157.134
156.802
156.513
156.265
156.058
155.886
155.737
155.597
155.458
155.308
155.143
154.959
154.747
154.503
154.243
153.964
153.66
153.351
153.038
152.69
152.339
152.007
151.633
151.227
150.864
150.504
150.053
149.606
149.242
148.895
148.384
147.885
147.498
147.264
146.976
146.327
145.751
145.328
144.863
144.351
143.772
143.18
142.687
142.346
141.858
141.258
140.798
140.38
139.811
139.307
138.937
138.425
137.87
137.416
137.008
136.438
135.883
135.398
134.835
134.19
133.621
133.14
132.65
132.145
131.718
131.401
131.147
130.862
130.545
130.222
129.867
129.514
129.207
128.946
128.749
128.711
128.654
128.387
128.034
127.708
127.423
127.205
127.17
127.296
127.214
126.736
125.942
124.877
123.474
162.139
161.902
161.721
161.568
161.414
161.237
161.033
160.778
160.485
160.164
159.811
159.463
159.147
158.87
158.634
158.419
158.205
157.982
157.742
157.477
157.178
156.849
156.493
156.135
155.79
155.461
155.154
154.871
154.607
154.36
154.126
153.89
153.657
153.423
153.164
152.894
152.624
152.315
151.988
151.679
151.331
150.945
150.599
150.236
149.794
149.389
149.042
148.576
148.086
147.705
147.376
146.838
146.311
145.913
145.67
145.406
144.743
144.137
143.722
143.402
142.868
142.229
141.658
141.181
140.855
140.399
139.784
139.294
138.874
138.328
137.821
137.437
136.921
136.356
135.89
135.478
134.906
134.334
133.839
133.309
132.758
132.258
131.821
131.428
131.062
130.733
130.46
130.235
130.029
129.796
129.54
129.287
129.067
128.913
128.807
128.762
128.795
128.81
128.708
128.537
128.362
128.215
128.145
128.239
128.435
128.458
128.333
128.161
128.057
128.127
162.552
162.183
161.836
161.532
161.27
161.029
160.804
160.568
160.31
160.027
159.714
159.378
159.034
158.703
158.393
158.103
157.83
157.571
157.313
157.048
156.764
156.465
156.134
155.779
155.418
155.042
154.66
154.295
153.932
153.572
153.237
152.904
152.569
152.26
151.942
151.603
151.294
150.97
150.597
150.259
149.924
149.508
149.121
148.782
148.333
147.882
147.533
147.09
146.569
146.159
145.843
145.303
144.749
144.346
144.113
143.815
143.118
142.516
142.12
141.862
141.335
140.642
140.073
139.604
139.264
138.825
138.202
137.67
137.242
136.744
136.225
135.78
135.3
134.764
134.272
133.82
133.316
132.796
132.312
131.852
131.407
130.995
130.631
130.314
130.031
129.777
129.556
129.358
129.171
128.975
128.771
128.576
128.416
128.31
128.256
128.255
128.289
128.323
128.332
128.322
128.308
128.32
128.398
128.561
128.742
128.867
128.916
128.918
128.968
129.154
162.452
162.121
161.779
161.447
161.137
160.853
160.59
160.34
160.088
159.827
159.548
159.247
158.924
158.589
158.25
157.913
157.585
157.266
156.955
156.65
156.336
156.026
155.698
155.347
154.991
154.612
154.205
153.809
153.404
152.969
152.566
152.166
151.732
151.336
150.958
150.528
150.13
149.773
149.341
148.921
148.57
148.136
147.676
147.312
146.885
146.383
145.983
145.579
145.041
144.58
144.251
143.73
143.153
142.736
142.51
142.14
141.421
140.84
140.463
140.229
139.692
138.967
138.404
137.955
137.602
137.134
136.538
136
135.543
135.088
134.593
134.111
133.649
133.173
132.699
132.248
131.807
131.369
130.951
130.562
130.203
129.876
129.583
129.32
129.094
128.894
128.709
128.533
128.363
128.195
128.034
127.891
127.782
127.718
127.703
127.73
127.782
127.846
127.911
127.972
128.034
128.117
128.24
128.399
128.576
128.764
128.95
129.132
129.338
129.593
162.31
162.023
161.718
161.402
161.084
160.772
160.471
160.183
159.904
159.628
159.348
159.058
158.752
158.429
158.092
157.743
157.387
157.03
156.674
156.32
155.964
155.613
155.257
154.885
154.516
154.131
153.712
153.303
152.883
152.42
151.974
151.539
151.052
150.581
150.154
149.668
149.176
148.761
148.294
147.781
147.362
146.923
146.393
145.945
145.534
144.999
144.51
144.112
143.584
143.058
142.676
142.19
141.598
141.14
140.877
140.454
139.744
139.175
138.805
138.572
138.015
137.277
136.721
136.311
135.999
135.465
134.868
134.356
133.899
133.462
133.012
132.555
132.114
131.685
131.265
130.861
130.478
130.112
129.768
129.452
129.16
128.891
128.652
128.44
128.25
128.077
127.915
127.76
127.611
127.472
127.35
127.253
127.192
127.172
127.193
127.251
127.333
127.429
127.531
127.635
127.742
127.864
128.008
128.175
128.365
128.582
128.822
129.078
129.349
129.63
162.426
162.163
161.894
161.614
161.32
161.016
160.703
160.389
160.077
159.769
159.465
159.162
158.858
158.547
158.224
157.888
157.538
157.175
156.801
156.419
156.031
155.638
155.246
154.849
154.443
154.041
153.632
153.194
152.765
152.331
151.854
151.38
150.925
150.421
149.899
149.434
148.927
148.369
147.892
147.405
146.835
146.328
145.873
145.314
144.766
144.326
143.799
143.223
142.766
142.277
141.697
141.219
140.77
140.184
139.66
139.322
138.888
138.203
137.625
137.247
137.004
136.431
135.696
135.152
134.789
134.523
133.941
133.323
132.831
132.4
131.989
131.581
131.171
130.771
130.387
130.019
129.67
129.342
129.034
128.746
128.477
128.233
128.011
127.809
127.626
127.459
127.305
127.162
127.029
126.908
126.804
126.724
126.674
126.661
126.685
126.744
126.833
126.942
127.062
127.188
127.316
127.449
127.595
127.759
127.946
128.161
128.406
128.677
128.968
129.267
129.567
162.307
162.036
161.765
161.49
161.207
160.914
160.609
160.296
159.975
159.651
159.325
158.998
158.67
158.338
158.001
157.654
157.297
156.926
156.543
156.148
155.741
155.325
154.902
154.472
154.033
153.595
153.15
152.687
152.227
151.769
151.276
150.774
150.298
149.787
149.234
148.734
148.219
147.632
147.095
146.593
146.011
145.423
144.934
144.385
143.765
143.253
142.752
142.138
141.58
141.111
140.534
139.955
139.487
138.947
138.366
137.916
137.497
136.868
136.272
135.852
135.588
135.02
134.314
133.777
133.427
133.17
132.585
131.987
131.512
131.102
130.718
130.342
129.974
129.616
129.273
128.947
128.642
128.355
128.083
127.831
127.599
127.387
127.193
127.016
126.853
126.705
126.57
126.449
126.344
126.257
126.194
126.159
126.156
126.187
126.25
126.342
126.456
126.584
126.72
126.861
127.005
127.157
127.324
127.51
127.722
127.964
128.233
128.525
128.833
129.149
129.469
129.804
130.163
162.205
161.924
161.645
161.364
161.078
160.786
160.485
160.174
159.852
159.522
159.184
158.84
158.491
158.138
157.779
157.413
157.039
156.655
156.259
155.852
155.431
154.999
154.557
154.103
153.639
153.171
152.694
152.203
151.711
151.222
150.707
150.178
149.674
149.149
148.575
148.038
147.514
146.922
146.329
145.808
145.235
144.596
144.056
143.521
142.885
142.287
141.786
141.196
140.555
140.037
139.513
138.885
138.329
137.837
137.255
136.699
136.238
135.709
135.125
134.63
134.274
133.772
133.157
132.624
132.21
131.863
131.395
130.877
130.414
130.005
129.629
129.273
128.931
128.603
128.291
127.997
127.719
127.456
127.212
126.987
126.78
126.589
126.416
126.258
126.115
125.988
125.878
125.786
125.715
125.667
125.646
125.654
125.692
125.759
125.853
125.968
126.098
126.239
126.384
126.535
126.693
126.863
127.05
127.262
127.5
127.766
128.056
128.365
128.686
129.013
129.35
129.701
130.072
162.659
162.381
162.099
161.815
161.528
161.238
160.945
160.647
160.342
160.028
159.704
159.37
159.026
158.671
158.308
157.938
157.559
157.173
156.779
156.376
155.963
155.54
155.104
154.657
154.198
153.727
153.244
152.753
152.252
151.737
151.218
150.698
150.16
149.606
149.069
148.524
147.935
147.359
146.816
146.225
145.59
145.036
144.47
143.819
143.212
142.679
142.067
141.402
140.859
140.309
139.649
139.044
138.541
137.942
137.308
136.779
136.248
135.657
135.117
134.625
134.096
133.562
133.09
132.63
132.124
131.614
131.149
130.73
130.312
129.869
129.437
129.036
128.666
128.319
127.992
127.684
127.393
127.116
126.855
126.614
126.391
126.187
125.999
125.829
125.675
125.539
125.421
125.32
125.24
125.181
125.146
125.136
125.153
125.196
125.266
125.36
125.473
125.602
125.743
125.89
126.044
126.206
126.379
126.568
126.778
127.014
127.276
127.562
127.869
128.191
128.521
128.859
129.206
129.566
129.943
162.539
162.264
161.984
161.698
161.406
161.11
160.809
160.502
160.189
159.868
159.538
159.198
158.847
158.485
158.112
157.729
157.336
156.932
156.52
156.098
155.666
155.224
154.771
154.306
153.831
153.343
152.844
152.334
151.813
151.279
150.738
150.192
149.632
149.057
148.49
147.922
147.319
146.71
146.14
145.544
144.887
144.285
143.717
143.077
142.408
141.852
141.266
140.583
139.967
139.436
138.808
138.136
137.587
137.04
136.393
135.794
135.268
134.705
134.133
133.608
133.105
132.584
132.072
131.593
131.124
130.651
130.186
129.745
129.327
128.916
128.515
128.132
127.772
127.435
127.121
126.826
126.545
126.281
126.038
125.816
125.612
125.427
125.26
125.111
124.98
124.869
124.778
124.707
124.658
124.633
124.63
124.653
124.699
124.769
124.86
124.97
125.095
125.232
125.379
125.534
125.699
125.875
126.066
126.277
126.511
126.768
127.05
127.351
127.669
127.999
128.337
128.682
129.037
129.404
129.784
130.18
164.238
163.982
163.725
163.467
163.207
162.946
162.681
162.412
162.138
161.857
161.57
161.276
160.975
160.667
160.352
160.03
159.7
159.361
159.013
158.654
158.283
157.901
157.508
157.102
156.686
156.258
155.819
155.369
154.909
154.438
153.955
153.462
152.957
152.44
151.913
151.374
150.824
150.264
149.697
149.118
148.526
147.933
147.342
146.726
146.093
145.491
144.885
144.222
143.568
142.986
142.358
141.657
141.049
140.479
139.814
139.13
138.574
137.987
137.3
136.676
136.14
135.527
134.893
134.327
133.784
133.221
132.672
132.155
131.646
131.138
130.648
130.178
129.719
129.27
128.834
128.418
128.019
127.635
127.269
126.924
126.6
126.298
126.011
125.741
125.493
125.268
125.063
124.878
124.713
124.567
124.441
124.335
124.25
124.186
124.145
124.125
124.128
124.153
124.2
124.268
124.355
124.459
124.579
124.711
124.854
125.008
125.173
125.351
125.546
125.76
125.993
126.249
126.525
126.821
127.132
127.455
127.788
128.13
128.483
128.847
129.226
129.617
130.017
164.101
163.849
163.595
163.339
163.079
162.817
162.551
162.28
162.004
161.722
161.432
161.135
160.83
160.517
160.195
159.865
159.526
159.177
158.819
158.451
158.07
157.679
157.275
156.859
156.43
155.99
155.537
155.072
154.595
154.107
153.608
153.097
152.575
152.041
151.496
150.941
150.373
149.796
149.211
148.615
148.006
147.393
146.781
146.153
145.502
144.869
144.249
143.586
142.892
142.282
141.661
140.957
140.287
139.713
139.074
138.357
137.742
137.178
136.513
135.835
135.257
134.679
134.054
133.455
132.897
132.345
131.795
131.263
130.751
130.25
129.761
129.289
128.835
128.395
127.971
127.563
127.173
126.801
126.449
126.118
125.808
125.515
125.239
124.986
124.757
124.549
124.362
124.195
124.049
123.924
123.821
123.738
123.677
123.638
123.62
123.624
123.65
123.696
123.761
123.844
123.943
124.057
124.184
124.324
124.475
124.639
124.816
125.01
125.224
125.46
125.716
125.992
126.285
126.593
126.913
127.242
127.577
127.918
128.269
128.634
129.016
129.414
129.821
163.964
163.715
163.463
163.208
162.949
162.686
162.418
162.145
161.866
161.58
161.287
160.986
160.677
160.358
160.03
159.693
159.345
158.988
158.621
158.241
157.851
157.449
157.035
156.608
156.169
155.716
155.251
154.773
154.282
153.779
153.264
152.737
152.199
151.648
151.087
150.515
149.931
149.338
148.735
148.124
147.5
146.868
146.237
145.597
144.932
144.272
143.638
142.972
142.254
141.609
140.99
140.293
139.574
138.976
138.355
137.638
136.961
136.386
135.749
135.059
134.432
133.851
133.249
132.643
132.065
131.508
130.961
130.426
129.909
129.408
128.922
128.453
128.001
127.568
127.152
126.755
126.375
126.016
125.677
125.359
125.057
124.775
124.517
124.283
124.07
123.879
123.709
123.561
123.434
123.329
123.245
123.183
123.142
123.122
123.123
123.144
123.186
123.247
123.325
123.421
123.531
123.656
123.794
123.945
124.11
124.29
124.486
124.698
124.928
125.179
125.449
125.736
126.036
126.347
126.667
126.997
127.334
127.678
128.031
128.398
128.779
129.175
129.587
163.828
163.58
163.33
163.075
162.815
162.551
162.281
162.006
161.723
161.434
161.137
160.832
160.517
160.193
159.859
159.515
159.16
158.795
158.417
158.029
157.628
157.216
156.791
156.354
155.903
155.439
154.962
154.472
153.969
153.453
152.924
152.383
151.83
151.264
150.687
150.1
149.501
148.891
148.273
147.646
147.008
146.36
145.711
145.059
144.382
143.699
143.049
142.379
141.647
140.969
140.345
139.652
138.905
138.275
137.66
136.952
136.239
135.628
135.005
134.329
133.676
133.07
132.474
131.874
131.287
130.721
130.173
129.638
129.118
128.617
128.133
127.667
127.219
126.791
126.382
125.994
125.625
125.278
124.952
124.642
124.351
124.086
123.845
123.627
123.431
123.257
123.104
122.974
122.865
122.778
122.712
122.668
122.644
122.64
122.656
122.691
122.744
122.814
122.902
123.005
123.125
123.259
123.407
123.57
123.75
123.945
124.158
124.387
124.631
124.891
125.169
125.462
125.766
126.078
126.398
126.726
127.064
127.415
127.777
128.15
128.532
128.929
129.343
129.769
130.205
163.692
163.445
163.195
162.94
162.68
162.414
162.142
161.864
161.578
161.285
160.983
160.673
160.353
160.024
159.684
159.333
158.97
158.596
158.211
157.814
157.404
156.981
156.546
156.098
155.637
155.162
154.674
154.173
153.658
153.13
152.588
152.034
151.467
150.888
150.298
149.695
149.082
148.459
147.825
147.184
146.532
145.869
145.204
144.54
143.851
143.149
142.485
141.808
141.064
140.364
139.729
139.03
138.272
137.618
136.992
136.285
135.566
134.921
134.289
133.628
132.973
132.346
131.74
131.144
130.557
129.987
129.435
128.901
128.383
127.883
127.402
126.94
126.497
126.074
125.671
125.29
124.93
124.593
124.273
123.97
123.693
123.442
123.215
123.011
122.829
122.668
122.53
122.414
122.32
122.247
122.196
122.166
122.155
122.164
122.192
122.238
122.301
122.381
122.477
122.589
122.718
122.863
123.024
123.201
123.394
123.603
123.83
124.073
124.331
124.602
124.885
125.179
125.486
125.801
126.122
126.45
126.788
127.142
127.51
127.89
128.284
128.689
129.105
129.533
129.973
163.557
163.311
163.06
162.804
162.542
162.275
162.001
161.719
161.43
161.133
160.827
160.512
160.187
159.851
159.505
159.147
158.778
158.397
158.004
157.598
157.179
156.747
156.302
155.844
155.373
154.887
154.389
153.876
153.35
152.81
152.258
151.692
151.113
150.522
149.918
149.303
148.677
148.04
147.393
146.738
146.073
145.396
144.718
144.041
143.34
142.624
141.948
141.259
140.505
139.794
139.143
138.428
137.668
137.006
136.355
135.64
134.937
134.276
133.623
132.967
132.316
131.678
131.059
130.456
129.868
129.294
128.738
128.201
127.683
127.184
126.705
126.246
125.807
125.389
124.993
124.619
124.268
123.937
123.622
123.329
123.066
122.828
122.613
122.42
122.25
122.102
121.976
121.872
121.791
121.73
121.691
121.672
121.673
121.693
121.732
121.789
121.863
121.955
122.063
122.188
122.329
122.487
122.661
122.853
123.06
123.282
123.518
123.768
124.033
124.308
124.592
124.886
125.191
125.507
125.833
126.169
126.516
126.876
127.249
127.636
128.035
128.445
128.864
129.294
129.736
163.665
163.423
163.176
162.924
162.667
162.404
162.135
161.858
161.574
161.281
160.98
160.669
160.349
160.019
159.677
159.325
158.961
158.586
158.197
157.796
157.382
156.955
156.515
156.061
155.593
155.112
154.617
154.108
153.585
153.048
152.498
151.934
151.357
150.767
150.164
149.549
148.922
148.284
147.634
146.976
146.309
145.632
144.944
144.253
143.564
142.851
142.126
141.439
140.737
139.975
139.262
138.596
137.862
137.102
136.436
135.754
135.023
134.333
133.667
132.99
132.326
131.677
131.037
130.408
129.799
129.207
128.631
128.072
127.533
127.014
126.515
126.038
125.582
125.146
124.733
124.344
123.98
123.639
123.313
123.005
122.726
122.474
122.248
122.044
121.863
121.704
121.567
121.453
121.361
121.291
121.242
121.214
121.206
121.218
121.249
121.299
121.367
121.452
121.555
121.674
121.809
121.961
122.13
122.315
122.516
122.732
122.961
123.202
123.456
123.723
124.002
124.291
124.59
124.898
125.217
125.547
125.89
126.245
126.61
126.988
127.378
127.779
128.19
128.611
129.043
129.487
163.532
163.289
163.042
162.789
162.531
162.266
161.994
161.714
161.427
161.131
160.826
160.512
160.185
159.85
159.504
159.146
158.776
158.394
157.998
157.59
157.169
156.734
156.286
155.823
155.347
154.856
154.351
153.833
153.3
152.754
152.193
151.619
151.032
150.431
149.818
149.193
148.555
147.905
147.245
146.575
145.898
145.213
144.515
143.816
143.117
142.394
141.662
140.959
140.24
139.471
138.752
138.066
137.313
136.555
135.883
135.18
134.432
133.746
133.079
132.386
131.709
131.06
130.421
129.79
129.177
128.583
128.006
127.447
126.908
126.39
125.893
125.418
124.965
124.534
124.125
123.743
123.387
123.052
122.73
122.43
122.162
121.921
121.704
121.51
121.338
121.189
121.063
120.959
120.877
120.817
120.778
120.76
120.762
120.784
120.825
120.884
120.962
121.057
121.169
121.298
121.443
121.604
121.781
121.973
122.18
122.4
122.635
122.882
123.142
123.412
123.694
123.986
124.288
124.6
124.923
125.259
125.606
125.965
126.335
126.716
127.108
127.511
127.923
128.347
128.781
129.227
129.687
130.161
163.4
163.157
162.909
162.655
162.395
162.128
161.854
161.572
161.281
160.982
160.672
160.353
160.024
159.684
159.332
158.968
158.592
158.204
157.802
157.387
156.959
156.517
156.061
155.59
155.105
154.606
154.093
153.566
153.024
152.468
151.898
151.314
150.718
150.108
149.486
148.852
148.206
147.548
146.879
146.2
145.514
144.816
144.108
143.397
142.683
141.95
141.212
140.495
139.761
138.988
138.26
137.555
136.789
136.032
135.354
134.639
133.882
133.195
132.527
131.828
131.143
130.49
129.849
129.215
128.598
128.001
127.421
126.86
126.32
125.803
125.308
124.836
124.386
123.958
123.553
123.175
122.827
122.498
122.181
121.889
121.629
121.397
121.189
121.004
120.841
120.701
120.583
120.488
120.415
120.364
120.334
120.325
120.336
120.366
120.416
120.484
120.571
120.675
120.795
120.932
121.086
121.254
121.438
121.636
121.847
122.072
122.311
122.562
122.824
123.098
123.382
123.677
123.982
124.299
124.627
124.967
125.319
125.682
126.057
126.441
126.835
127.239
127.653
128.079
128.516
128.965
129.426
129.901
163.27
163.026
162.777
162.521
162.26
161.991
161.715
161.43
161.136
160.833
160.521
160.198
159.864
159.519
159.162
158.793
158.412
158.017
157.61
157.188
156.753
156.304
155.841
155.363
154.871
154.364
153.843
153.308
152.759
152.195
151.617
151.025
150.421
149.806
149.177
148.534
147.877
147.208
146.526
145.835
145.138
144.43
143.712
142.991
142.265
141.524
140.781
140.054
139.311
138.542
137.808
137.087
136.314
135.556
134.867
134.141
133.38
132.686
132.013
131.31
130.619
129.962
129.317
128.678
128.056
127.454
126.871
126.307
125.766
125.25
124.757
124.285
123.838
123.413
123.012
122.638
122.295
121.973
121.662
121.377
121.124
120.9
120.699
120.522
120.367
120.235
120.125
120.038
119.973
119.93
119.908
119.907
119.926
119.964
120.021
120.097
120.192
120.303
120.431
120.575
120.735
120.91
121.099
121.302
121.518
121.746
121.987
122.24
122.504
122.779
123.066
123.363
123.671
123.991
124.322
124.664
125.018
125.382
125.757
126.143
126.54
126.949
127.368
127.8
128.244
128.7
129.168
129.648
163.142
162.897
162.647
162.39
162.127
161.855
161.577
161.29
160.993
160.687
160.371
160.044
159.707
159.357
158.996
158.622
158.235
157.835
157.422
156.995
156.553
156.098
155.629
155.145
154.646
154.132
153.604
153.065
152.512
151.943
151.358
150.755
150.138
149.513
148.874
148.223
147.559
146.881
146.191
145.491
144.779
144.06
143.335
142.606
141.871
141.124
140.375
139.636
138.882
138.113
137.372
136.636
135.859
135.102
134.398
133.663
132.902
132.201
131.518
130.813
130.12
129.459
128.81
128.169
127.544
126.942
126.358
125.793
125.251
124.731
124.236
123.765
123.319
122.898
122.5
122.13
121.79
121.474
121.173
120.893
120.645
120.427
120.234
120.063
119.915
119.79
119.688
119.608
119.55
119.514
119.499
119.504
119.53
119.575
119.639
119.721
119.82
119.936
120.069
120.217
120.381
120.559
120.75
120.954
121.171
121.4
121.642
121.897
122.164
122.443
122.733
123.035
123.348
123.672
124.007
124.353
124.71
125.077
125.455
125.845
126.247
126.661
127.086
127.524
127.975
128.438
128.914
129.404
129.906
162.77
162.519
162.26
161.995
161.723
161.442
161.152
160.853
160.544
160.224
159.894
159.552
159.199
158.833
158.455
158.063
157.659
157.241
156.809
156.362
155.9
155.428
154.942
154.44
153.92
153.383
152.834
152.272
151.696
151.105
150.497
149.871
149.228
148.576
147.914
147.243
146.56
145.866
145.16
144.44
143.711
142.975
142.237
141.492
140.737
139.982
139.232
138.468
137.697
136.948
136.198
135.422
134.668
133.946
133.202
132.448
131.739
131.044
130.336
129.644
128.977
128.325
127.684
127.059
126.458
125.874
125.308
124.765
124.244
123.748
123.276
122.83
122.41
122.017
121.649
121.31
121
120.709
120.435
120.191
119.977
119.79
119.625
119.484
119.364
119.268
119.194
119.141
119.11
119.099
119.109
119.138
119.187
119.254
119.339
119.442
119.563
119.7
119.853
120.02
120.202
120.396
120.604
120.824
121.057
121.302
121.56
121.831
122.114
122.408
122.714
123.032
123.36
123.7
124.05
124.412
124.784
125.167
125.561
125.965
126.38
126.808
127.247
127.699
128.163
128.64
129.129
129.632
162.645
162.393
162.134
161.867
161.593
161.31
161.017
160.716
160.404
160.082
159.748
159.402
159.046
158.677
158.295
157.898
157.49
157.071
156.638
156.188
155.72
155.24
154.747
154.239
153.716
153.173
152.609
152.032
151.444
150.844
150.232
149.604
148.956
148.295
147.624
146.942
146.249
145.545
144.831
144.109
143.376
142.636
141.89
141.137
140.376
139.616
138.855
138.085
137.312
136.554
135.793
135.018
134.262
133.525
132.774
132.025
131.309
130.602
129.892
129.2
128.529
127.871
127.228
126.603
126
125.413
124.844
124.302
123.786
123.288
122.816
122.37
121.95
121.559
121.194
120.856
120.547
120.265
120.001
119.759
119.548
119.364
119.204
119.066
118.951
118.857
118.785
118.736
118.708
118.702
118.717
118.751
118.805
118.877
118.966
119.074
119.199
119.34
119.496
119.668
119.853
120.051
120.263
120.488
120.725
120.974
121.235
121.507
121.791
122.087
122.394
122.713
123.042
123.383
123.734
124.096
124.468
124.852
125.248
125.654
126.073
126.503
126.946
127.401
127.868
128.348
128.841
129.347
162.271
162.01
161.742
161.466
161.181
160.886
160.582
160.268
159.944
159.607
159.259
158.9
158.531
158.149
157.75
157.337
156.913
156.474
156.021
155.55
155.056
154.547
154.028
153.497
152.952
152.385
151.802
151.206
150.597
149.975
149.34
148.693
148.03
147.353
146.665
145.965
145.255
144.536
143.807
143.068
142.321
141.567
140.807
140.041
139.273
138.504
137.727
136.952
136.184
135.413
134.639
133.879
133.129
132.373
131.627
130.903
130.186
129.475
128.781
128.106
127.444
126.798
126.172
125.566
124.974
124.406
123.87
123.352
122.853
122.38
121.934
121.515
121.124
120.761
120.425
120.116
119.836
119.581
119.346
119.133
118.949
118.791
118.657
118.545
118.456
118.389
118.344
118.321
118.319
118.338
118.378
118.436
118.513
118.607
118.717
118.843
118.985
119.143
119.315
119.501
119.701
119.913
120.139
120.378
120.629
120.892
121.166
121.452
121.749
122.058
122.378
122.709
123.05
123.403
123.767
124.142
124.528
124.925
125.334
125.756
126.189
126.634
127.092
127.562
128.045
128.541
129.05
161.889
161.619
161.342
161.056
160.76
160.454
160.139
159.816
159.48
159.129
158.768
158.396
158.01
157.61
157.188
156.749
156.299
155.837
155.362
154.866
154.353
153.827
153.288
152.735
152.169
151.587
150.988
150.375
149.747
149.107
148.454
147.786
147.104
146.409
145.703
144.987
144.26
143.524
142.778
142.025
141.264
140.497
139.725
138.95
138.172
137.391
136.611
135.834
135.056
134.279
133.514
132.754
131.995
131.248
130.517
129.794
129.081
128.384
127.704
127.039
126.39
125.761
125.151
124.56
123.998
123.462
122.94
122.439
121.966
121.521
121.102
120.71
120.347
120.012
119.704
119.422
119.169
118.941
118.733
118.549
118.394
118.264
118.157
118.072
118.01
117.968
117.948
117.947
117.967
118.007
118.066
118.144
118.239
118.351
118.479
118.622
118.781
118.954
119.141
119.342
119.556
119.784
120.024
120.276
120.54
120.816
121.103
121.402
121.712
122.033
122.365
122.709
123.063
123.428
123.805
124.193
124.593
125.005
125.429
125.865
126.313
126.773
127.246
127.732
128.232
128.744
129.27
129.811
161.774
161.502
161.225
160.94
160.646
160.339
160.024
159.698
159.361
159.009
158.637
158.252
157.855
157.449
157.025
156.584
156.128
155.66
155.178
154.685
154.175
153.647
153.104
152.548
151.978
151.391
150.788
150.17
149.537
148.891
148.231
147.556
146.869
146.168
145.456
144.733
144
143.257
142.505
141.745
140.977
140.204
139.426
138.644
137.86
137.073