/*--------------------------------*- C++ -*----------------------------------*\
| =========                 |                                                 |
| \\      /  F ield         | OpenFOAM: The Open Source CFD Toolbox           |
|  \\    /   O peration     | Version:  v1706                                 |
|   \\  /    A nd           | Web:      www.OpenFOAM.com                      |
|    \\/     M anipulation  |                                                 |
\*---------------------------------------------------------------------------*/
FoamFile
{
    version     2.0;
    format      ascii;
    class       volScalarField;
    location    "3.1e-05";
    object      rho;
}
// * * * * * * * * * * * * * * * * * * * * * * * * * * * * * * * * * * * * * //

dimensions      [1 -3 0 0 0 0 0];


internalField   nonuniform List<scalar> 
29871
(
0.000527405
0.000529424
0.000531586
0.000533873
0.000536217
0.000538533
0.000540743
0.000542806
0.000544724
0.000546547
0.000548357
0.00055024
0.000552253
0.000554426
0.000556764
0.000559254
0.000561872
0.000564591
0.000567384
0.000570207
0.000573294
0.000577475
0.000582851
0.000589284
0.000596549
0.000604406
0.000612646
0.000621099
0.000629623
0.000638091
0.000646387
0.000654412
0.000662083
0.000669334
0.000676103
0.000682342
0.000688014
0.000693082
0.000697534
0.000701355
0.000704463
0.000706846
0.000708617
0.000709761
0.000709884
0.000709386
0.00070836
0.000706772
0.000704549
0.000701726
0.000698318
0.00069428
0.000689597
0.000684305
0.000678438
0.000672011
0.000665044
0.000657567
0.000649604
0.00064119
0.000632385
0.000623259
0.000613879
0.000604346
0.000594809
0.000585467
0.000576672
0.000569169
0.00056405
0.000560824
0.000557987
0.000555146
0.000552309
0.000549524
0.000546811
0.000544178
0.000541641
0.000539218
0.000536897
0.000534635
0.000532541
0.000530955
0.000529923
0.000529037
0.000527951
0.000526639
0.00052519
0.000523695
0.00052222
0.000520776
0.000519311
0.000517804
0.000516387
0.000515276
0.000514524
0.000514008
0.000513602
0.00051325
0.000512957
0.000512743
0.000512579
0.00051243
0.000512281
0.000512135
0.000511993
0.000593393
0.000601277
0.000609821
0.000619839
0.00063255
0.000648341
0.000667233
0.000689031
0.000713412
0.000739989
0.000768367
0.000798183
0.000829116
0.00086089
0.000893256
0.00092599
0.000958882
0.000991731
0.00102435
0.00105658
0.00108806
0.00111766
0.00114524
0.00117092
0.0011949
0.0012173
0.00123822
0.00125774
0.00127587
0.00129264
0.0013081
0.00132228
0.00133523
0.00134699
0.00135762
0.00136715
0.00137559
0.00138298
0.00138941
0.00139488
0.00139928
0.00140257
0.00140467
0.00140582
0.00140677
0.00140623
0.00140443
0.00140174
0.0013983
0.00139419
0.00138918
0.00138316
0.0013761
0.00136802
0.00135896
0.00134884
0.0013376
0.00132532
0.00131206
0.00129768
0.00128215
0.00126552
0.00124773
0.00122869
0.00120847
0.00118706
0.00116427
0.00113971
0.00111238
0.00108215
0.00105039
0.00101778
0.000984497
0.000950606
0.000916244
0.000881596
0.00084686
0.000812246
0.000778032
0.000744644
0.000712649
0.000682554
0.000654728
0.000630112
0.000611152
0.000598524
0.00058878
0.000580021
0.000571714
0.000563819
0.000556563
0.000550415
0.00054554
0.000541476
0.000537722
0.000534146
0.00053082
0.000527801
0.000525058
0.000522547
0.000520336
0.000518547
0.000517183
0.000516125
0.000515263
0.000831581
0.000873301
0.000917116
0.00096274
0.00100902
0.00105445
0.00109848
0.00114089
0.00118159
0.00122056
0.00125777
0.00129318
0.00132675
0.00135843
0.00138815
0.0014159
0.00144157
0.00146511
0.00148658
0.00150616
0.00152407
0.00154061
0.0015559
0.00157002
0.00158306
0.00159512
0.00160626
0.00161654
0.00162598
0.00163449
0.00164216
0.00164905
0.0016552
0.00166063
0.00166536
0.00166942
0.00167285
0.00167569
0.00167799
0.00167979
0.00168126
0.0016824
0.00168274
0.00168259
0.0016821
0.00168178
0.00168181
0.00168032
0.00167868
0.00167835
0.00167696
0.00167375
0.0016703
0.0016672
0.00166374
0.00165959
0.00165489
0.00164977
0.00164404
0.00163753
0.00163035
0.00162251
0.00161363
0.00160355
0.00159264
0.00158082
0.00156765
0.00155317
0.00153756
0.00152063
0.00150239
0.00148313
0.00146301
0.00144199
0.00141998
0.00139684
0.00137263
0.00134746
0.00132108
0.00129304
0.00126297
0.00123034
0.00119447
0.00115504
0.0011118
0.00106373
0.00101054
0.000955403
0.00090062
0.000847261
0.000796108
0.000748119
0.000704206
0.000665152
0.000632883
0.000610339
0.000595006
0.000582891
0.000572275
0.000562851
0.000554928
0.000548551
0.000543162
0.000538274
0.000533817
0.000529846
0.00132302
0.00136044
0.00139512
0.00142713
0.00145645
0.00148294
0.00150643
0.00152695
0.00154477
0.00156033
0.00157415
0.00158666
0.00159818
0.00160894
0.00161907
0.00162861
0.0016373
0.0016449
0.00165137
0.00165674
0.00166116
0.00166486
0.00166802
0.00167074
0.00167311
0.00167518
0.00167702
0.0016787
0.00168029
0.00168191
0.00168353
0.00168513
0.00168669
0.00168821
0.00168966
0.00169099
0.00169218
0.00169319
0.00169394
0.0016944
0.00169464
0.00169463
0.00169438
0.00169358
0.00169229
0.00169137
0.00169066
0.00168862
0.0016865
0.00168529
0.00168371
0.00168065
0.00167689
0.0016738
0.00167057
0.00166651
0.00166227
0.00165805
0.00165311
0.00164794
0.00164338
0.00163855
0.00163277
0.00162796
0.00162374
0.00161863
0.0016135
0.00160955
0.00160534
0.0016005
0.00159603
0.00159187
0.00158738
0.00158256
0.00157748
0.0015719
0.00156551
0.001558
0.00154917
0.00153866
0.00152576
0.00150993
0.00149151
0.00147088
0.00144791
0.00142253
0.00139509
0.00136601
0.00133536
0.0013027
0.00126728
0.00122803
0.00118386
0.00113429
0.00107892
0.00101661
0.000950078
0.000883882
0.000820801
0.000762371
0.000709612
0.000663831
0.0006282
0.000604689
0.000588297
0.000575203
0.00157895
0.00159232
0.00160402
0.00161438
0.00162372
0.00163213
0.00163965
0.001646
0.00165097
0.00165463
0.00165717
0.00165881
0.0016598
0.00166034
0.00166063
0.00166085
0.00166124
0.00166213
0.00166366
0.00166576
0.00166825
0.0016708
0.00167317
0.00167518
0.00167677
0.00167795
0.00167875
0.00167922
0.00167941
0.00167942
0.00167951
0.00167965
0.00167976
0.00167984
0.00167988
0.00167987
0.00167978
0.00167961
0.0016794
0.00167906
0.00167852
0.00167789
0.00167727
0.00167645
0.00167514
0.00167361
0.00167243
0.00167135
0.00166929
0.00166697
0.00166545
0.00166488
0.00166262
0.00165885
0.00165599
0.00165323
0.00164935
0.00164589
0.00164251
0.00163806
0.00163393
0.00163091
0.00162722
0.00162243
0.00161898
0.00161605
0.00161177
0.00160746
0.00160437
0.00160079
0.00159634
0.00159227
0.00158849
0.00158435
0.00157986
0.00157545
0.00157115
0.00156642
0.00156117
0.00155617
0.00155117
0.00154511
0.00153928
0.00153631
0.0015336
0.00153006
0.00152684
0.0015231
0.00151776
0.0015105
0.00150112
0.00148926
0.00147448
0.00145634
0.00143489
0.00141016
0.00138211
0.00135088
0.00131612
0.00127685
0.00123164
0.00117944
0.0011201
0.00105323
0.000978981
0.000902999
0.000830524
0.00166361
0.00166482
0.00166518
0.00166508
0.00166477
0.00166432
0.0016639
0.00166403
0.00166456
0.00166535
0.00166611
0.00166651
0.00166637
0.00166585
0.00166489
0.00166358
0.001662
0.00166063
0.00165976
0.00165939
0.00165954
0.00165994
0.00166052
0.00166115
0.0016617
0.00166204
0.00166211
0.00166195
0.00166156
0.00166086
0.00165984
0.00165867
0.00165743
0.00165615
0.00165484
0.00165357
0.00165223
0.00165081
0.00164948
0.00164817
0.0016466
0.00164502
0.00164371
0.00164224
0.00164025
0.00163829
0.00163686
0.00163549
0.00163302
0.00163039
0.0016287
0.00162866
0.00162742
0.00162367
0.00162079
0.00161865
0.00161543
0.00161269
0.00160981
0.00160603
0.00160314
0.00160158
0.00159888
0.00159532
0.00159302
0.00159125
0.00158787
0.00158494
0.00158327
0.00158069
0.00157735
0.00157474
0.00157256
0.0015694
0.00156608
0.00156323
0.00155997
0.00155572
0.00155115
0.00154764
0.001544
0.00153913
0.00153508
0.00153312
0.00153117
0.00152819
0.0015255
0.00152314
0.00152043
0.0015175
0.00151505
0.00151351
0.00151305
0.00151403
0.00151506
0.001513
0.00150855
0.00150223
0.00149344
0.00148136
0.00146543
0.00144587
0.00142352
0.00139743
0.00136623
0.00132915
0.00128506
0.00167168
0.00167178
0.00167205
0.0016722
0.00167204
0.00167143
0.00167034
0.00166879
0.00166694
0.00166475
0.00166283
0.00166145
0.0016605
0.00165975
0.001659
0.00165811
0.00165697
0.00165553
0.00165379
0.00165174
0.00164934
0.00164674
0.00164427
0.00164213
0.00164033
0.00163888
0.00163776
0.00163688
0.00163615
0.00163548
0.0016348
0.00163405
0.00163322
0.00163221
0.00163098
0.00162966
0.00162822
0.0016266
0.001625
0.0016234
0.00162154
0.0016197
0.00161809
0.00161614
0.00161396
0.0016122
0.00161054
0.00160809
0.00160567
0.00160408
0.00160267
0.00159981
0.00159692
0.00159507
0.00159493
0.00159443
0.00159074
0.00158748
0.00158564
0.00158354
0.00158108
0.001578
0.00157467
0.00157221
0.00157122
0.00156899
0.00156564
0.00156357
0.00156188
0.0015588
0.00155627
0.00155499
0.00155243
0.00154939
0.00154733
0.0015457
0.00154261
0.00153962
0.00153733
0.00153436
0.00153058
0.0015275
0.00152535
0.00152317
0.00152076
0.00151895
0.0015181
0.00151774
0.00151701
0.00151591
0.00151473
0.00151331
0.00151198
0.00151119
0.00151093
0.00151124
0.00151294
0.0015142
0.00151346
0.00151194
0.00151074
0.0015101
0.00151023
0.0015121
0.00151545
0.00151615
0.00151292
0.00150605
0.00149605
0.00148249
0.00167206
0.00167009
0.00166858
0.00166732
0.0016661
0.00166473
0.00166319
0.00166123
0.00165896
0.00165643
0.00165358
0.00165067
0.00164798
0.00164558
0.00164354
0.00164171
0.00163994
0.00163816
0.00163629
0.00163427
0.00163202
0.00162953
0.00162682
0.00162408
0.00162143
0.00161891
0.00161658
0.00161449
0.00161257
0.00161084
0.00160927
0.00160775
0.00160632
0.00160496
0.00160345
0.00160192
0.00160045
0.00159871
0.00159688
0.00159526
0.00159335
0.00159116
0.00158939
0.00158753
0.001585
0.00158287
0.00158129
0.00157871
0.00157591
0.00157416
0.0015729
0.00156984
0.00156671
0.00156476
0.00156454
0.00156422
0.00156042
0.0015568
0.00155504
0.0015543
0.00155178
0.00154821
0.00154509
0.0015428
0.00154199
0.00154013
0.00153675
0.00153448
0.00153284
0.00153005
0.00152761
0.00152632
0.00152385
0.00152085
0.00151883
0.00151734
0.00151443
0.00151147
0.00150927
0.00150681
0.00150414
0.00150193
0.00150034
0.00149917
0.0014982
0.00149746
0.00149716
0.00149725
0.00149747
0.00149741
0.00149716
0.001497
0.00149719
0.00149804
0.00149935
0.00150118
0.00150362
0.00150568
0.00150651
0.00150671
0.00150698
0.00150761
0.00150901
0.00151195
0.0015157
0.0015175
0.00151784
0.00151786
0.00151854
0.00152098
0.00166394
0.00166085
0.00165781
0.00165509
0.0016527
0.0016505
0.00164847
0.00164639
0.00164415
0.00164175
0.0016391
0.00163624
0.00163327
0.00163037
0.00162763
0.00162505
0.00162263
0.00162035
0.00161814
0.00161592
0.00161362
0.00161125
0.00160866
0.00160591
0.00160314
0.00160025
0.00159733
0.00159458
0.00159186
0.00158918
0.00158676
0.00158438
0.00158203
0.00157997
0.00157788
0.00157568
0.00157381
0.00157186
0.00156956
0.00156764
0.0015658
0.00156332
0.00156114
0.00155945
0.00155687
0.00155429
0.00155268
0.00155031
0.00154722
0.0015452
0.00154405
0.00154099
0.00153764
0.00153566
0.00153552
0.00153491
0.00153075
0.00152709
0.00152548
0.00152533
0.001523
0.001519
0.00151591
0.00151372
0.00151285
0.00151118
0.00150782
0.00150521
0.00150356
0.00150129
0.00149883
0.00149706
0.00149499
0.00149241
0.00149025
0.00148851
0.00148635
0.00148404
0.00148208
0.00148037
0.00147881
0.00147753
0.00147667
0.00147623
0.00147606
0.0014761
0.00147637
0.00147683
0.00147737
0.00147784
0.00147828
0.00147884
0.00147978
0.00148122
0.00148314
0.00148546
0.00148801
0.00149042
0.00149256
0.00149453
0.00149653
0.00149885
0.00150183
0.00150553
0.00150918
0.00151202
0.00151404
0.00151566
0.00151783
0.00152134
0.00165005
0.00164717
0.00164414
0.00164112
0.00163824
0.00163553
0.001633
0.00163059
0.0016282
0.00162577
0.00162323
0.00162054
0.00161769
0.00161474
0.00161173
0.00160874
0.00160583
0.001603
0.00160026
0.00159761
0.00159494
0.00159236
0.00158969
0.00158689
0.00158412
0.0015812
0.00157808
0.0015751
0.00157208
0.00156884
0.0015659
0.00156304
0.0015599
0.00155713
0.00155458
0.00155161
0.00154898
0.00154676
0.00154395
0.00154129
0.00153931
0.00153666
0.00153383
0.00153191
0.0015295
0.00152646
0.0015244
0.00152235
0.00151915
0.00151666
0.00151539
0.0015125
0.00150898
0.0015069
0.0015068
0.00150557
0.00150116
0.00149766
0.00149623
0.0014963
0.00149395
0.00148969
0.00148667
0.00148474
0.0014838
0.00148194
0.00147888
0.00147627
0.0014744
0.00147258
0.00147041
0.00146838
0.00146654
0.00146461
0.00146271
0.00146106
0.00145954
0.00145807
0.00145678
0.00145577
0.00145502
0.00145454
0.00145435
0.0014544
0.00145475
0.00145532
0.00145601
0.00145677
0.00145759
0.00145845
0.00145941
0.00146058
0.00146208
0.00146399
0.00146631
0.00146896
0.00147177
0.00147462
0.0014775
0.00148036
0.00148327
0.00148642
0.00148994
0.00149369
0.00149744
0.00150116
0.00150479
0.00150842
0.00151232
0.00151661
0.00163491
0.00163222
0.00162938
0.00162642
0.00162341
0.00162042
0.0016175
0.00161467
0.00161192
0.00160922
0.00160652
0.00160378
0.00160095
0.00159802
0.00159498
0.00159187
0.00158873
0.00158558
0.00158246
0.00157939
0.00157634
0.00157337
0.00157041
0.00156738
0.00156444
0.00156144
0.00155821
0.00155512
0.00155201
0.00154856
0.00154533
0.00154224
0.00153874
0.00153542
0.00153253
0.00152917
0.0015258
0.00152316
0.00152011
0.0015167
0.00151417
0.00151152
0.00150812
0.00150549
0.00150324
0.00149996
0.00149713
0.00149513
0.00149207
0.00148902
0.0014873
0.00148473
0.00148115
0.00147876
0.00147832
0.00147658
0.00147221
0.00146886
0.00146754
0.00146764
0.00146513
0.00146073
0.00145777
0.0014563
0.00145581
0.00145347
0.00145044
0.00144806
0.00144622
0.0014446
0.00144289
0.00144115
0.00143956
0.00143811
0.00143675
0.00143557
0.00143459
0.00143378
0.00143318
0.00143282
0.00143268
0.00143272
0.00143301
0.00143352
0.00143423
0.0014351
0.00143606
0.0014371
0.00143821
0.00143944
0.00144085
0.00144251
0.00144451
0.00144687
0.00144958
0.00145257
0.00145575
0.00145905
0.00146241
0.00146581
0.00146928
0.0014729
0.0014767
0.00148062
0.00148469
0.00148895
0.00149339
0.001498
0.00150271
0.0015074
0.00162175
0.00161906
0.00161634
0.00161354
0.00161064
0.00160765
0.00160458
0.00160149
0.0015984
0.00159535
0.00159234
0.00158937
0.00158641
0.00158343
0.00158041
0.00157731
0.00157415
0.00157091
0.00156762
0.00156429
0.00156096
0.00155762
0.00155432
0.00155103
0.00154772
0.0015445
0.00154128
0.00153788
0.00153462
0.00153141
0.00152788
0.00152443
0.00152122
0.00151764
0.00151397
0.00151082
0.00150739
0.00150354
0.00150045
0.00149733
0.00149353
0.00149031
0.0014876
0.00148405
0.00148061
0.00147817
0.00147503
0.00147149
0.00146904
0.00146636
0.00146291
0.0014604
0.00145817
0.00145476
0.00145187
0.00145076
0.00144889
0.00144478
0.00144143
0.00144008
0.00144012
0.00143747
0.00143307
0.0014302
0.00142925
0.00142925
0.00142662
0.00142338
0.0014212
0.0014196
0.00141824
0.00141693
0.00141565
0.00141447
0.00141344
0.00141258
0.00141189
0.0014114
0.00141112
0.00141102
0.00141107
0.00141134
0.0014118
0.00141245
0.00141326
0.00141422
0.0014153
0.00141651
0.00141782
0.00141927
0.0014209
0.00142276
0.00142492
0.00142739
0.00143019
0.0014333
0.00143664
0.00144016
0.00144378
0.00144747
0.00145121
0.00145502
0.00145896
0.00146304
0.0014673
0.00147178
0.00147652
0.00148149
0.00148662
0.00149176
0.00149682
0.00160565
0.00160276
0.00159987
0.00159697
0.00159401
0.00159099
0.0015879
0.00158474
0.00158153
0.0015783
0.00157507
0.00157185
0.00156864
0.00156544
0.00156223
0.001559
0.00155572
0.0015524
0.00154901
0.00154558
0.00154211
0.0015386
0.00153508
0.00153156
0.00152801
0.00152452
0.00152104
0.00151746
0.00151397
0.00151058
0.00150695
0.00150331
0.00149996
0.00149637
0.00149249
0.00148912
0.00148569
0.00148169
0.00147816
0.00147501
0.0014712
0.00146738
0.00146447
0.0014611
0.00145714
0.00145416
0.00145132
0.00144755
0.0014443
0.00144186
0.00143854
0.00143521
0.00143288
0.00142998
0.0014267
0.00142464
0.0014229
0.00141936
0.00141597
0.00141431
0.00141416
0.00141153
0.00140742
0.00140468
0.0014039
0.001404
0.00140136
0.00139834
0.00139634
0.00139497
0.00139386
0.00139287
0.00139197
0.00139118
0.00139054
0.00139006
0.00138977
0.00138967
0.00138971
0.00138991
0.0013903
0.00139088
0.00139162
0.00139252
0.00139357
0.00139475
0.00139607
0.00139755
0.00139918
0.00140101
0.00140307
0.0014054
0.00140801
0.00141093
0.00141413
0.00141758
0.00142122
0.001425
0.00142887
0.00143279
0.00143679
0.00144088
0.00144512
0.00144954
0.00145418
0.00145908
0.00146423
0.00146958
0.00147504
0.00148052
0.001486
0.00149156
0.00149732
0.00158908
0.00158602
0.00158295
0.00157989
0.0015768
0.00157369
0.00157052
0.0015673
0.00156402
0.0015607
0.00155734
0.00155396
0.00155057
0.00154717
0.00154376
0.00154035
0.00153693
0.00153347
0.00152999
0.00152646
0.00152289
0.00151928
0.00151564
0.00151197
0.00150827
0.0015046
0.00150091
0.00149716
0.00149347
0.00148987
0.00148612
0.00148231
0.00147878
0.00147515
0.00147116
0.00146754
0.0014641
0.00146014
0.00145622
0.00145297
0.00144935
0.00144519
0.00144192
0.00143877
0.00143478
0.00143115
0.00142841
0.00142495
0.00142107
0.0014183
0.00141552
0.00141188
0.00140888
0.00140647
0.00140331
0.00140039
0.00139834
0.00139574
0.00139264
0.00139036
0.00138941
0.00138729
0.0013841
0.00138155
0.00138017
0.00137947
0.00137778
0.00137556
0.00137376
0.00137245
0.00137145
0.00137065
0.00137
0.0013695
0.00136915
0.00136899
0.00136898
0.00136909
0.00136939
0.00136986
0.00137051
0.00137132
0.00137229
0.00137341
0.0013747
0.00137614
0.00137775
0.00137955
0.00138155
0.00138378
0.00138627
0.00138902
0.00139205
0.00139535
0.00139888
0.0014026
0.00140647
0.00141044
0.0014145
0.00141863
0.00142287
0.00142725
0.00143181
0.00143659
0.00144163
0.00144692
0.00145244
0.00145811
0.00146387
0.00146968
0.00147556
0.00148156
0.00148773
0.00157836
0.00157522
0.00157206
0.00156887
0.00156567
0.00156246
0.00155923
0.00155599
0.00155273
0.00154942
0.00154607
0.00154267
0.00153924
0.00153577
0.00153227
0.00152874
0.00152519
0.00152163
0.00151805
0.00151446
0.00151086
0.00150723
0.00150357
0.00149988
0.00149615
0.0014924
0.00148861
0.00148482
0.00148101
0.00147716
0.00147333
0.00146956
0.0014657
0.00146177
0.00145805
0.00145434
0.00145031
0.00144645
0.00144293
0.00143908
0.00143489
0.00143145
0.00142799
0.00142383
0.00142009
0.00141704
0.00141338
0.00140927
0.00140626
0.00140326
0.00139933
0.00139591
0.0013934
0.00139013
0.00138656
0.00138392
0.0013813
0.00137818
0.00137553
0.00137333
0.00137084
0.00136831
0.00136637
0.0013646
0.00136245
0.00136025
0.00135845
0.00135711
0.00135582
0.00135432
0.00135289
0.00135172
0.00135081
0.00135014
0.00134966
0.00134937
0.00134926
0.00134928
0.00134944
0.00134979
0.00135031
0.00135102
0.00135189
0.00135292
0.00135413
0.00135551
0.00135707
0.00135881
0.00136075
0.0013629
0.00136528
0.0013679
0.00137078
0.0013739
0.00137727
0.00138085
0.00138463
0.00138856
0.00139262
0.00139677
0.00140103
0.00140539
0.0014099
0.00141459
0.0014195
0.00142466
0.00143007
0.00143572
0.00144156
0.00144755
0.00145362
0.00145977
0.00146602
0.0014724
0.00147894
0.00156113
0.00155793
0.00155469
0.00155142
0.00154812
0.00154481
0.00154147
0.00153812
0.00153475
0.00153136
0.00152794
0.00152448
0.00152098
0.00151746
0.00151389
0.00151029
0.00150666
0.001503
0.00149933
0.00149564
0.00149193
0.00148821
0.00148446
0.0014807
0.00147691
0.0014731
0.00146926
0.00146541
0.00146153
0.00145762
0.00145372
0.00144985
0.00144592
0.00144193
0.00143808
0.00143428
0.00143026
0.00142623
0.0014226
0.00141882
0.00141458
0.00141083
0.00140746
0.00140352
0.00139937
0.00139623
0.0013929
0.00138878
0.00138525
0.00138251
0.001379
0.0013751
0.00137231
0.00136958
0.00136603
0.00136289
0.00136041
0.00135766
0.00135483
0.00135244
0.00135026
0.00134795
0.00134574
0.00134385
0.00134208
0.00134029
0.00133857
0.00133708
0.00133581
0.00133463
0.00133354
0.0013326
0.00133186
0.00133133
0.00133101
0.0013309
0.00133092
0.0013311
0.00133146
0.00133203
0.00133278
0.00133371
0.00133482
0.00133611
0.00133758
0.00133924
0.0013411
0.00134317
0.00134545
0.00134795
0.00135068
0.00135364
0.00135684
0.00136026
0.00136388
0.0013677
0.00137167
0.00137578
0.00138002
0.00138438
0.00138887
0.00139352
0.00139834
0.00140339
0.00140867
0.0014142
0.00141997
0.00142594
0.00143209
0.00143838
0.00144478
0.0014513
0.00145793
0.00146471
0.00147162
0.0014787
0.00156605
0.00156291
0.00155975
0.00155658
0.00155339
0.00155019
0.00154697
0.00154373
0.00154046
0.00153716
0.00153384
0.00153048
0.0015271
0.0015237
0.00152027
0.00151683
0.00151337
0.00150988
0.00150637
0.00150283
0.00149927
0.00149568
0.00149204
0.00148837
0.00148468
0.00148096
0.00147721
0.00147345
0.00146968
0.00146588
0.00146207
0.00145824
0.00145439
0.00145052
0.00144664
0.00144274
0.00143881
0.00143488
0.00143097
0.00142702
0.00142302
0.0014191
0.00141525
0.00141126
0.00140718
0.00140342
0.0013997
0.00139555
0.00139152
0.00138815
0.00138447
0.00138019
0.00137674
0.00137368
0.00136986
0.00136588
0.00136304
0.00136002
0.00135614
0.00135282
0.0013503
0.00134717
0.00134386
0.00134115
0.00133867
0.00133604
0.00133355
0.00133135
0.00132925
0.00132717
0.00132526
0.00132355
0.00132196
0.00132046
0.00131909
0.00131789
0.00131687
0.00131599
0.00131526
0.00131472
0.00131438
0.00131425
0.00131427
0.00131443
0.0013148
0.00131539
0.00131617
0.00131715
0.00131831
0.00131967
0.00132122
0.00132298
0.00132493
0.0013271
0.00132948
0.00133208
0.0013349
0.00133794
0.00134119
0.00134466
0.00134832
0.00135216
0.00135617
0.00136033
0.00136463
0.00136908
0.00137368
0.00137846
0.00138344
0.00138864
0.00139407
0.00139974
0.00140564
0.00141175
0.00141804
0.00142448
0.00143107
0.00143781
0.00144472
0.00145181
0.00145908
0.0014665
0.00147405
0.00154911
0.00154591
0.00154269
0.00153945
0.0015362
0.00153293
0.00152965
0.00152635
0.00152303
0.0015197
0.00151633
0.00151294
0.00150953
0.00150609
0.00150264
0.00149916
0.00149566
0.00149215
0.00148861
0.00148506
0.00148149
0.00147788
0.00147424
0.00147058
0.00146689
0.00146317
0.00145942
0.00145566
0.00145187
0.00144807
0.00144425
0.00144042
0.00143657
0.0014327
0.00142882
0.00142493
0.00142102
0.0014171
0.00141319
0.00140926
0.0014053
0.00140136
0.00139751
0.00139359
0.00138953
0.00138568
0.00138202
0.00137803
0.00137384
0.00137039
0.00136693
0.0013628
0.00135899
0.00135604
0.00135261
0.00134852
0.00134532
0.00134262
0.0013391
0.00133547
0.00133271
0.00133
0.00132692
0.00132406
0.00132157
0.00131916
0.00131678
0.00131457
0.00131254
0.00131062
0.00130882
0.00130717
0.0013057
0.00130437
0.00130317
0.00130213
0.00130125
0.00130054
0.00130001
0.00129967
0.00129954
0.00129955
0.00129972
0.0013001
0.00130069
0.00130149
0.0013025
0.0013037
0.0013051
0.00130671
0.00130852
0.00131055
0.00131278
0.00131523
0.0013179
0.00132078
0.00132387
0.00132718
0.00133069
0.00133439
0.00133828
0.00134234
0.00134656
0.00135094
0.00135548
0.00136018
0.00136507
0.00137017
0.00137551
0.0013811
0.00138694
0.00139302
0.0013993
0.00140579
0.00141244
0.00141924
0.00142616
0.0014332
0.0014404
0.00144781
0.00145545
0.00146331
0.00147131
0.00153221
0.00152896
0.0015257
0.00152243
0.00151914
0.00151584
0.00151252
0.0015092
0.00150585
0.0015025
0.00149912
0.00149573
0.00149231
0.00148888
0.00148543
0.00148196
0.00147847
0.00147496
0.00147144
0.00146791
0.00146435
0.00146076
0.00145716
0.00145353
0.00144987
0.0014462
0.0014425
0.00143878
0.00143503
0.00143127
0.00142749
0.00142369
0.00141988
0.00141606
0.00141222
0.00140837
0.00140451
0.00140064
0.00139677
0.0013929
0.00138901
0.00138511
0.00138129
0.00137746
0.00137349
0.00136961
0.00136601
0.00136221
0.001358
0.00135445
0.00135119
0.00134732
0.00134328
0.0013403
0.0013372
0.0013333
0.00132975
0.0013271
0.00132398
0.00132042
0.0013174
0.0013148
0.00131205
0.00130929
0.00130676
0.00130444
0.0013022
0.00130008
0.00129811
0.0012963
0.00129463
0.0012931
0.00129174
0.00129054
0.0012895
0.00128862
0.00128792
0.00128738
0.00128704
0.0012869
0.00128692
0.00128709
0.00128748
0.00128808
0.0012889
0.00128991
0.00129114
0.00129257
0.00129421
0.00129606
0.00129811
0.00130039
0.00130287
0.00130557
0.00130848
0.00131161
0.00131495
0.00131849
0.00132224
0.00132618
0.0013303
0.00133461
0.00133909
0.00134376
0.00134861
0.00135366
0.00135891
0.00136437
0.00137006
0.00137599
0.00138216
0.00138854
0.00139511
0.00140185
0.00140877
0.00141585
0.0014231
0.00143048
0.00143799
0.0014457
0.00145361
0.00146175
0.00147011
0.00151551
0.00151224
0.00150897
0.00150568
0.00150239
0.00149908
0.00149577
0.00149244
0.00148911
0.00148577
0.00148241
0.00147905
0.00147566
0.00147227
0.00146886
0.00146543
0.00146199
0.00145854
0.00145507
0.00145158
0.00144808
0.00144456
0.00144102
0.00143746
0.00143388
0.00143029
0.00142667
0.00142303
0.00141937
0.00141569
0.001412
0.00140828
0.00140456
0.00140081
0.00139706
0.00139329
0.00138952
0.00138574
0.00138195
0.00137817
0.00137438
0.00137057
0.00136682
0.00136311
0.00135925
0.0013554
0.00135188
0.00134826
0.00134416
0.00134054
0.00133743
0.00133381
0.00132975
0.00132669
0.00132382
0.00132021
0.00131654
0.00131375
0.00131091
0.00130765
0.00130458
0.00130191
0.00129936
0.0012968
0.00129434
0.00129207
0.00128995
0.00128795
0.00128608
0.00128437
0.00128281
0.00128141
0.00128016
0.00127909
0.00127819
0.00127747
0.00127693
0.00127658
0.00127643
0.00127643
0.00127659
0.00127697
0.00127758
0.0012784
0.00127943
0.00128066
0.00128211
0.00128376
0.00128563
0.00128771
0.00129001
0.00129252
0.00129525
0.00129818
0.00130133
0.00130468
0.00130824
0.00131199
0.00131594
0.00132008
0.00132442
0.00132895
0.00133368
0.00133861
0.00134375
0.00134911
0.0013547
0.0013605
0.00136651
0.00137273
0.00137916
0.00138581
0.00139263
0.00139961
0.00140676
0.00141407
0.00142157
0.0014293
0.00143723
0.00144534
0.00145361
0.0014621
0.00147083
0.00147978
0.00148891
0.00149917
0.00149591
0.00149265
0.00148939
0.00148612
0.00148285
0.00147957
0.00147628
0.001473
0.0014697
0.0014664
0.0014631
0.00145978
0.00145646
0.00145313
0.00144979
0.00144644
0.00144307
0.00143969
0.0014363
0.00143289
0.00142947
0.00142604
0.00142259
0.00141912
0.00141564
0.00141214
0.00140862
0.00140508
0.00140153
0.00139796
0.00139437
0.00139077
0.00138715
0.00138352
0.00137988
0.00137623
0.00137257
0.00136891
0.00136525
0.00136159
0.0013579
0.00135426
0.00135069
0.00134697
0.0013432
0.0013398
0.00133635
0.00133239
0.00132881
0.00132583
0.00132236
0.00131843
0.00131538
0.00131262
0.00130922
0.00130571
0.00130282
0.00130007
0.00129711
0.00129418
0.00129149
0.00128901
0.00128661
0.00128429
0.00128211
0.00128009
0.00127821
0.00127647
0.00127488
0.00127345
0.00127217
0.00127105
0.0012701
0.00126933
0.00126873
0.00126833
0.00126813
0.0012681
0.0012682
0.00126852
0.00126908
0.00126986
0.00127086
0.00127206
0.00127347
0.0012751
0.00127694
0.001279
0.00128128
0.00128377
0.00128648
0.0012894
0.00129254
0.00129588
0.00129943
0.00130319
0.00130714
0.00131129
0.00131564
0.0013202
0.00132497
0.00132995
0.00133514
0.00134056
0.00134619
0.00135207
0.00135818
0.00136449
0.00137101
0.00137772
0.00138463
0.00139174
0.00139902
0.00140646
0.00141406
0.00142185
0.00142988
0.00143816
0.00144664
0.00145534
0.00146426
0.00147339
0.00148272
0.00149227
0.00148337
0.00148015
0.00147693
0.00147372
0.00147051
0.0014673
0.0014641
0.00146089
0.00145769
0.00145448
0.00145127
0.00144807
0.00144486
0.00144165
0.00143843
0.00143521
0.00143198
0.00142874
0.00142549
0.00142223
0.00141896
0.00141568
0.00141239
0.00140908
0.00140576
0.00140243
0.00139908
0.00139572
0.00139234
0.00138895
0.00138554
0.00138211
0.00137867
0.00137521
0.00137174
0.00136826
0.00136477
0.00136127
0.00135776
0.00135427
0.00135076
0.00134722
0.00134373
0.00134031
0.00133675
0.00133312
0.00132986
0.00132657
0.00132276
0.00131934
0.00131645
0.00131307
0.00130934
0.00130645
0.00130368
0.00130041
0.00129723
0.0012944
0.00129165
0.00128889
0.00128616
0.00128352
0.00128102
0.00127867
0.00127644
0.00127432
0.00127236
0.00127054
0.00126888
0.00126737
0.00126602
0.00126484
0.00126381
0.00126296
0.0012623
0.00126182
0.00126155
0.00126146
0.0012615
0.00126173
0.0012622
0.00126291
0.00126384
0.00126498
0.00126633
0.0012679
0.00126968
0.00127168
0.0012739
0.00127635
0.00127901
0.00128188
0.00128498
0.00128829
0.00129182
0.00129556
0.00129951
0.00130368
0.00130806
0.00131266
0.00131748
0.00132252
0.00132779
0.00133329
0.00133902
0.00134496
0.0013511
0.00135746
0.00136404
0.00137081
0.00137775
0.00138487
0.0013922
0.00139974
0.00140746
0.00141539
0.00142355
0.00143192
0.00144052
0.00144935
0.00145839
0.00146763
0.00147707
0.0014867
0.00149655
0.00147139
0.00146824
0.0014651
0.00146196
0.00145884
0.00145573
0.00145262
0.00144952
0.00144643
0.00144334
0.00144026
0.00143719
0.00143412
0.00143105
0.00142798
0.00142492
0.00142184
0.00141877
0.00141569
0.00141261
0.00140952
0.00140643
0.00140332
0.00140021
0.00139708
0.00139395
0.0013908
0.00138764
0.00138446
0.00138127
0.00137807
0.00137485
0.00137162
0.00136837
0.00136511
0.00136183
0.00135854
0.00135523
0.00135192
0.0013486
0.00134529
0.00134197
0.00133862
0.00133531
0.00133206
0.00132867
0.00132522
0.00132214
0.00131899
0.00131536
0.00131217
0.0013094
0.00130607
0.00130253
0.00129977
0.00129691
0.00129365
0.00129072
0.001288
0.0012852
0.00128248
0.00127989
0.00127735
0.00127488
0.00127256
0.00127038
0.00126832
0.0012664
0.00126462
0.00126301
0.00126155
0.00126026
0.00125914
0.00125818
0.00125741
0.00125684
0.00125648
0.00125633
0.00125632
0.00125645
0.00125682
0.00125744
0.00125829
0.00125935
0.00126063
0.00126212
0.00126383
0.00126576
0.00126791
0.00127029
0.00127289
0.00127572
0.00127877
0.00128204
0.00128553
0.00128925
0.00129318
0.00129734
0.00130172
0.00130631
0.00131113
0.00131618
0.00132145
0.00132696
0.0013327
0.00133865
0.00134481
0.00135116
0.00135772
0.0013645
0.00137148
0.00137866
0.00138603
0.0013936
0.00140138
0.00140937
0.00141759
0.00142602
0.00143465
0.0014435
0.00145256
0.00146181
0.00147125
0.00148086
0.00149067
0.00150067
0.00145699
0.00145394
0.00145091
0.00144789
0.00144489
0.0014419
0.00143893
0.00143598
0.00143303
0.0014301
0.00142718
0.00142428
0.00142138
0.00141848
0.00141559
0.00141271
0.00140983
0.00140695
0.00140407
0.00140119
0.0013983
0.00139541
0.00139252
0.00138961
0.0013867
0.00138378
0.00138084
0.0013779
0.00137494
0.00137197
0.00136898
0.00136599
0.00136297
0.00135994
0.0013569
0.00135384