/*--------------------------------*- C++ -*----------------------------------*\
| =========                 |                                                 |
| \\      /  F ield         | OpenFOAM: The Open Source CFD Toolbox           |
|  \\    /   O peration     | Version:  v1706                                 |
|   \\  /    A nd           | Web:      www.OpenFOAM.com                      |
|    \\/     M anipulation  |                                                 |
\*---------------------------------------------------------------------------*/
FoamFile
{
    version     2.0;
    format      ascii;
    class       volScalarField;
    location    "3.1e-05";
    object      Tov;
}
// * * * * * * * * * * * * * * * * * * * * * * * * * * * * * * * * * * * * * //

dimensions      [0 0 0 1 0 0 0];


internalField   nonuniform List<scalar> 
29871
(
153.002
153.805
154.654
155.566
156.559
157.634
158.78
159.984
161.233
162.514
163.819
165.139
166.466
167.789
169.1
170.387
171.643
172.861
174.037
175.183
176.409
177.875
179.523
181.277
183.075
184.867
186.62
188.307
189.91
191.414
192.811
194.094
195.26
196.309
197.236
198.046
198.743
199.329
199.808
200.18
200.439
200.591
200.617
200.556
200.406
200.151
199.816
199.403
198.901
198.318
197.651
196.888
196.027
195.07
194.019
192.872
191.627
190.284
188.843
187.304
185.668
183.938
182.115
180.207
178.229
176.207
174.189
172.274
170.655
169.407
168.261
167.111
165.932
164.727
163.499
162.252
160.989
159.716
158.439
157.164
155.911
154.718
153.618
152.63
151.764
151.014
150.332
149.683
149.058
148.461
147.898
147.379
146.918
146.528
146.208
145.941
145.709
145.504
145.323
145.167
145.037
144.928
144.837
144.761
144.695
189.665
193.012
196.419
200.054
204.065
208.408
213
217.747
222.553
227.332
232.01
236.525
240.83
244.891
248.687
252.204
255.437
258.387
261.064
263.483
265.645
267.537
269.181
270.594
271.797
272.81
273.654
274.345
274.898
275.328
275.649
275.876
276.021
276.105
276.094
276.038
275.951
275.825
275.662
275.462
275.224
274.947
274.636
274.309
273.995
273.644
273.221
272.79
272.352
271.908
271.445
270.954
270.433
269.884
269.306
268.693
268.045
267.361
266.642
265.882
265.067
264.185
263.221
262.153
260.955
259.596
258.035
256.222
254.116
251.736
249.131
246.305
243.238
239.914
236.318
232.442
228.279
223.823
219.078
214.059
208.8
203.361
197.87
192.55
187.754
183.808
180.324
177.005
173.739
170.516
167.387
164.438
161.754
159.39
157.358
155.6
154.034
152.613
151.323
150.174
149.179
148.348
147.665
147.097
146.617
251.498
257.187
262.51
267.426
271.883
275.854
279.367
282.459
285.172
287.551
289.642
291.479
293.092
294.501
295.719
296.755
297.612
298.299
298.834
299.241
299.545
299.77
299.931
300.038
300.104
300.112
300.082
300.021
299.918
299.773
299.591
299.377
299.131
298.856
298.555
298.226
297.874
297.503
297.118
296.724
296.319
295.9
295.472
295.046
294.615
294.211
293.839
293.394
292.969
292.606
292.187
291.732
291.309
290.918
290.518
290.102
289.681
289.263
288.838
288.404
287.965
287.513
287.027
286.503
285.951
285.355
284.694
283.973
283.199
282.361
281.462
280.509
279.499
278.425
277.278
276.05
274.736
273.331
271.81
270.128
268.224
266.026
263.45
260.433
256.915
252.814
248.092
242.837
237.1
230.895
224.235
217.174
209.833
202.435
195.364
189.227
184.039
179.359
174.946
170.757
166.866
163.379
160.371
157.836
155.676
153.796
300.843
302.676
304.223
305.512
306.564
307.398
308.033
308.499
308.839
309.091
309.29
309.459
309.612
309.754
309.886
309.998
310.074
310.102
310.079
310.017
309.915
309.784
309.628
309.453
309.262
309.055
308.835
308.608
308.377
308.145
307.907
307.661
307.406
307.142
306.865
306.575
306.27
305.948
305.608
305.251
304.877
304.49
304.079
303.645
303.21
302.794
302.394
301.934
301.487
301.071
300.619
300.099
299.58
299.1
298.611
298.09
297.562
297.03
296.476
295.914
295.357
294.781
294.171
293.59
293.015
292.404
291.795
291.232
290.654
290.055
289.481
288.926
288.363
287.796
287.231
286.656
286.061
285.44
284.788
284.084
283.288
282.371
281.344
280.214
278.982
277.669
276.295
274.846
273.275
271.512
269.454
266.963
263.878
260.069
255.431
249.856
243.395
236.198
228.376
220.037
211.354
202.657
194.526
187.676
181.815
176.52
315.155
315.445
315.692
315.907
316.093
316.243
316.349
316.386
316.36
316.286
316.17
316.022
315.858
315.691
315.529
315.384
315.267
315.191
315.151
315.129
315.104
315.059
314.981
314.865
314.713
314.529
314.318
314.086
313.836
313.575
313.305
313.025
312.734
312.433
312.123
311.803
311.471
311.129
310.78
310.418
310.04
309.652
309.254
308.838
308.397
307.955
307.522
307.093
306.622
306.161
305.716
305.279
304.737
304.156
303.628
303.102
302.526
301.963
301.397
300.798
300.221
299.677
299.095
298.48
297.924
297.38
296.781
296.197
295.671
295.12
294.54
293.988
293.45
292.899
292.338
291.779
291.212
290.616
289.982
289.317
288.606
287.835
287.055
286.366
285.702
285.046
284.478
283.947
283.396
282.808
282.167
281.443
280.598
279.594
278.414
277.08
275.618
274.015
272.173
269.942
267.127
263.531
259.002
253.397
246.61
238.783
230.12
320.728
320.641
320.54
320.44
320.343
320.259
320.199
320.163
320.139
320.104
320.039
319.934
319.793
319.618
319.421
319.213
319.009
318.827
318.672
318.542
318.43
318.326
318.221
318.103
317.963
317.797
317.607
317.39
317.149
316.885
316.603
316.309
316.007
315.694
315.371
315.039
314.696
314.339
313.976
313.604
313.211
312.809
312.405
311.982
311.53
311.08
310.639
310.194
309.702
309.23
308.78
308.332
307.792
307.165
306.603
306.068
305.474
304.887
304.29
303.673
303.104
302.569
301.972
301.363
300.802
300.264
299.656
299.09
298.574
298.015
297.438
296.897
296.37
295.794
295.214
294.644
294.038
293.402
292.753
292.114
291.439
290.721
290.058
289.487
288.94
288.379
287.874
287.387
286.855
286.28
285.688
285.089
284.491
283.983
283.536
282.968
282.391
281.824
281.21
280.502
279.656
278.649
277.513
276.234
274.754
272.954
270.627
324.055
324.034
324.009
323.964
323.888
323.773
323.634
323.481
323.326
323.18
323.064
322.975
322.899
322.823
322.734
322.625
322.489
322.325
322.137
321.928
321.709
321.495
321.299
321.124
320.968
320.826
320.692
320.557
320.413
320.257
320.082
319.888
319.671
319.431
319.169
318.89
318.595
318.281
317.955
317.618
317.259
316.889
316.514
316.114
315.696
315.28
314.854
314.387
313.922
313.47
313.018
312.501
312.013
311.556
311.09
310.579
309.924
309.34
308.798
308.219
307.608
306.973
306.355
305.778
305.238
304.624
303.985
303.395
302.823
302.192
301.592
301.04
300.424
299.806
299.217
298.642
297.996
297.36
296.74
296.077
295.39
294.732
294.083
293.42
292.766
292.169
291.628
291.132
290.64
290.148
289.653
289.136
288.604
288.071
287.537
287.038
286.632
286.266
285.812
285.313
284.811
284.296
283.787
283.358
283.013
282.698
282.237
281.749
281.233
280.617
326.714
326.62
326.55
326.487
326.416
326.326
326.217
326.083
325.935
325.778
325.622
325.484
325.371
325.277
325.198
325.119
325.03
324.926
324.803
324.657
324.488
324.303
324.107
323.911
323.722
323.541
323.366
323.197
323.03
322.859
322.683
322.495
322.293
322.075
321.835
321.575
321.3
320.999
320.679
320.352
319.998
319.62
319.243
318.848
318.416
317.985
317.562
317.085
316.603
316.14
315.688
315.149
314.644
314.179
313.701
313.195
312.527
311.943
311.396
310.852
310.195
309.52
308.901
308.319
307.765
307.142
306.468
305.846
305.251
304.603
303.972
303.382
302.733
302.077
301.445
300.827
300.134
299.445
298.776
298.081
297.375
296.691
296.025
295.372
294.739
294.146
293.59
293.066
292.559
292.046
291.519
290.982
290.449
289.938
289.445
288.992
288.599
288.235
287.85
287.429
286.987
286.539
286.116
285.768
285.496
285.209
284.867
284.484
284.123
283.824
329.144
329.009
328.904
328.828
328.769
328.715
328.66
328.593
328.51
328.412
328.299
328.18
328.067
327.966
327.877
327.797
327.72
327.64
327.551
327.447
327.323
327.179
327.012
326.828
326.634
326.431
326.222
326.015
325.804
325.589
325.376
325.155
324.924
324.69
324.44
324.169
323.893
323.598
323.273
322.943
322.601
322.218
321.83
321.446
321.01
320.565
320.139
319.667
319.169
318.693
318.24
317.691
317.171
316.695
316.213
315.685
315.007
314.434
313.892
313.353
312.666
311.953
311.323
310.729
310.152
309.517
308.813
308.158
307.537
306.884
306.221
305.581
304.922
304.241
303.568
302.9
302.199
301.488
300.787
300.087
299.39
298.711
298.054
297.42
296.806
296.219
295.659
295.116
294.581
294.04
293.49
292.933
292.384
291.857
291.359
290.9
290.481
290.085
289.692
289.287
288.868
288.448
288.051
287.707
287.417
287.153
286.88
286.577
286.28
286.033
331.709
331.613
331.524
331.452
331.399
331.361
331.332
331.305
331.27
331.224
331.163
331.086
330.998
330.906
330.812
330.722
330.634
330.547
330.458
330.362
330.253
330.132
329.991
329.827
329.648
329.449
329.231
329.006
328.77
328.516
328.264
328.005
327.727
327.451
327.171
326.862
326.552
326.243
325.894
325.538
325.19
324.798
324.388
323.993
323.563
323.098
322.651
322.192
321.679
321.182
320.719
320.171
319.631
319.138
318.654
318.087
317.409
316.843
316.298
315.754
315.04
314.303
313.664
313.052
312.449
311.778
311.064
310.388
309.738
309.079
308.399
307.721
307.044
306.355
305.661
304.967
304.267
303.562
302.863
302.174
301.498
300.839
300.199
299.58
298.985
298.404
297.834
297.272
296.713
296.149
295.582
295.017
294.463
293.931
293.43
292.963
292.525
292.103
291.685
291.26
290.828
290.398
289.991
289.622
289.295
289.001
288.719
288.432
288.149
287.9
334.49
334.449
334.402
334.355
334.314
334.283
334.261
334.246
334.232
334.214
334.188
334.149
334.096
334.03
333.952
333.866
333.774
333.677
333.576
333.47
333.356
333.233
333.096
332.94
332.77
332.58
332.364
332.137
331.892
331.621
331.344
331.058
330.745
330.427
330.111
329.765
329.406
329.061
328.685
328.285
327.901
327.497
327.051
326.619
326.187
325.699
325.216
324.751
324.228
323.701
323.208
322.667
322.099
321.575
321.073
320.485
319.811
319.236
318.675
318.118
317.382
316.636
315.993
315.365
314.748
314.014
313.287
312.607
311.942
311.273
310.59
309.898
309.207
308.515
307.821
307.128
306.437
305.75
305.07
304.402
303.746
303.104
302.482
301.874
301.279
300.692
300.11
299.53
298.95
298.369
297.791
297.221
296.667
296.136
295.633
295.157
294.703
294.26
293.819
293.375
292.927
292.486
292.063
291.668
291.302
290.96
290.634
290.317
290.014
289.739
337.445
337.458
337.467
337.466
337.46
337.45
337.438
337.429
337.422
337.417
337.412
337.402
337.385
337.357
337.315
337.259
337.188
337.103
337.007
336.9
336.783
336.657
336.52
336.372
336.209
336.033
335.839
335.622
335.392
335.143
334.865
334.574
334.272
333.941
333.591
333.246
332.874
332.474
332.088
331.685
331.243
330.811
330.383
329.907
329.425
328.966
328.462
327.934
327.433
326.908
326.343
325.802
325.262
324.668
324.099
323.559
322.968
322.29
321.689
321.104
320.529
319.778
319.03
318.386
317.744
317.116
316.328
315.583
314.902
314.234
313.56
312.877
312.186
311.494
310.804
310.118
309.435
308.758
308.087
307.422
306.767
306.126
305.495
304.875
304.263
303.659
303.059
302.461
301.865
301.269
300.678
300.094
299.524
298.972
298.442
297.936
297.45
296.979
296.515
296.052
295.586
295.12
294.66
294.216
293.791
293.388
293.005
292.639
292.289
291.956
291.645
340.58
340.624
340.668
340.708
340.74
340.766
340.784
340.797
340.806
340.812
340.813
340.811
340.803
340.786
340.758
340.716
340.658
340.585
340.495
340.389
340.268
340.132
339.983
339.819
339.641
339.449
339.241
339.013
338.77
338.51
338.223
337.918
337.603
337.26
336.889
336.521
336.129
335.703
335.279
334.851
334.384
333.903
333.443
332.946
332.418
331.913
331.396
330.831
330.276
329.738
329.148
328.553
327.984
327.38
326.762
326.167
325.574
324.893
324.252
323.634
323.039
322.285
321.535
320.875
320.213
319.574
318.769
318.017
317.325
316.649
315.971
315.287
314.599
313.91
313.225
312.543
311.867
311.195
310.528
309.871
309.222
308.58
307.946
307.317
306.694
306.075
305.459
304.846
304.236
303.631
303.034
302.448
301.879
301.328
300.796
300.283
299.783
299.292
298.804
298.315
297.823
297.333
296.85
296.378
295.923
295.486
295.067
294.664
294.277
293.905
293.548
293.209
292.89
343.912
343.982
344.052
344.121
344.184
344.24
344.288
344.326
344.355
344.376
344.388
344.39
344.386
344.373
344.349
344.311
344.259
344.19
344.104
343.999
343.876
343.735
343.576
343.399
343.205
342.995
342.767
342.519
342.256
341.977
341.673
341.349
341.015
340.655
340.266
339.873
339.464
339.019
338.56
338.108
337.622
337.104
336.605
336.09
335.531
334.975
334.436
333.851
333.244
332.665
332.069
331.427
330.804
330.193
329.539
328.889
328.259
327.592
326.91
326.247
325.606
324.885
324.136
323.435
322.746
322.063
321.314
320.564
319.848
319.151
318.46
317.769
317.078
316.388
315.7
315.016
314.334
313.659
312.991
312.329
311.673
311.022
310.376
309.733
309.095
308.461
307.83
307.205
306.585
305.974
305.374
304.787
304.216
303.661
303.121
302.593
302.073
301.556
301.038
300.519
299.998
299.479
298.967
298.466
297.979
297.509
297.054
296.612
296.182
295.762
295.352
294.955
294.573
347.22
347.316
347.411
347.506
347.599
347.689
347.775
347.854
347.924
347.983
348.031
348.067
348.091
348.1
348.097
348.084
348.058
348.018
347.963
347.891
347.8
347.691
347.562
347.413
347.244
347.054
346.844
346.614
346.365
346.096
345.809
345.503
345.176
344.827
344.466
344.082
343.67
343.247
342.814
342.348
341.855
341.374
340.867
340.321
339.777
339.241
338.662
338.058
337.48
336.883
336.238
335.605
334.991
334.328
333.65
332.998
332.334
331.64
330.958
330.28
329.58
328.873
328.177
327.467
326.731
325.998
325.276
324.558
323.827
323.084
322.35
321.631
320.921
320.216
319.514
318.814
318.115
317.418
316.728
316.044
315.365
314.691
314.021
313.356
312.695
312.038
311.385
310.738
310.096
309.461
308.834
308.218
307.613
307.02
306.441
305.873
305.316
304.764
304.216
303.667
303.116
302.562
302.008
301.457
300.913
300.38
299.86
299.353
298.857
298.37
297.89
297.414
296.943
296.481
296.03
350.793
350.92
351.042
351.16
351.274
351.382
351.484
351.578
351.662
351.736
351.796
351.843
351.874
351.887
351.884
351.87
351.839
351.791
351.726
351.643
351.541
351.419
351.277
351.114
350.929
350.722
350.493
350.242
349.969
349.675
349.36
349.025
348.668
348.289
347.895
347.48
347.038
346.579
346.113
345.619
345.093
344.569
344.036
343.465
342.872
342.302
341.701
341.06
340.43
339.811
339.144
338.457
337.798
337.124
336.405
335.7
335.009
334.292
333.567
332.85
332.129
331.395
330.659
329.924
329.181
328.43
327.682
326.938
326.193
325.444
324.698
323.959
323.229
322.505
321.785
321.067
320.35
319.64
318.936
318.238
317.544
316.854
316.169
315.489
314.813
314.143
313.478
312.819
312.167
311.523
310.888
310.262
309.647
309.041
308.445
307.855
307.271
306.688
306.104
305.518
304.93
304.34
303.75
303.165
302.586
302.017
301.458
300.907
300.363
299.823
299.282
298.741
298.201
297.665
297.136
296.617
353.345
353.503
353.664
353.827
353.99
354.153
354.313
354.47
354.621
354.766
354.905
355.035
355.158
355.271
355.373
355.465
355.544
355.608
355.657
355.69
355.7
355.695
355.673
355.633
355.573
355.492
355.392
355.271
355.129
354.965
354.779
354.571
354.339
354.084
353.806
353.505
353.18
352.833
352.464
352.072
351.658
351.225
350.771
350.293
349.793
349.284
348.753
348.19
347.616
347.047
346.442
345.804
345.183
344.554
343.88
343.193
342.533
341.843
341.111
340.395
339.694
338.95
338.195
337.457
336.715
335.957
335.198
334.442
333.682
332.916
332.149
331.381
330.611
329.84
329.071
328.304
327.539
326.776
326.018
325.267
324.522
323.779
323.039
322.307
321.581
320.862
320.146
319.436
318.73
318.03
317.334
316.645
315.961
315.284
314.613
313.95
313.294
312.646
312.005
311.371
310.744
310.121
309.501
308.881
308.261
307.637
307.011
306.384
305.755
305.128
304.505
303.886
303.273
302.666
302.062
301.46
300.857
300.25
299.635
299.018
298.402
297.789
297.181
356.911
357.101
357.291
357.481
357.67
357.855
358.037
358.213
358.383
358.544
358.696
358.838
358.968
359.086
359.192
359.283
359.359
359.419
359.462
359.485
359.486
359.471
359.436
359.379
359.299
359.197
359.073
358.926
358.756
358.562
358.345
358.104
357.839
357.55
357.236
356.898
356.535
356.149
355.74
355.306
354.849
354.371
353.873
353.35
352.803
352.244
351.668
351.061
350.432
349.814
349.168
348.485
347.801
347.133
346.422
345.68
344.961
344.241
343.472
342.696
341.944
341.175
340.38
339.591
338.808
338.018
337.222
336.428
335.633
334.837
334.039
333.242
332.446
331.65
330.857
330.067
329.28
328.497
327.719
326.946
326.176
325.411
324.654
323.905
323.162
322.425
321.692
320.965
320.244
319.528
318.818
318.114
317.416
316.724
316.039
315.36
314.686
314.018
313.355
312.695
312.037
311.38
310.723
310.063
309.401
308.736
308.068
307.399
306.73
306.064
305.398
304.733
304.068
303.404
302.738
302.068
301.394
300.715
300.033
299.348
298.661
297.973
297.284
360.547
360.763
360.978
361.189
361.397
361.599
361.795
361.983
362.163
362.332
362.489
362.633
362.764
362.88
362.979
363.062
363.128
363.175
363.202
363.204
363.191
363.155
363.096
363.013
362.906
362.775
362.618
362.437
362.23
361.999
361.742
361.459
361.152
360.818
360.46
360.076
359.666
359.232
358.773
358.29
357.782
357.252
356.701
356.126
355.526
354.91
354.28
353.622
352.935
352.257
351.563
350.83
350.081
349.357
348.603
347.809
347.023
346.257
345.451
344.622
343.81
343
342.17
341.334
340.504
339.673
338.84
338.007
337.176
336.346
335.517
334.69
333.866
333.044
332.226
331.412
330.603
329.798
328.997
328.201
327.408
326.626
325.852
325.086
324.325
323.57
322.82
322.077
321.339
320.607
319.881
319.16
318.445
317.735
317.031
316.33
315.634
314.941
314.25
313.559
312.865
312.17
311.472
310.771
310.066
309.357
308.646
307.934
307.222
306.511
305.802
305.093
304.381
303.664
302.939
302.207
301.467
300.722
299.979
299.234
298.488
297.74
296.992
364.217
364.453
364.684
364.909
365.128
365.339
365.541
365.732
365.913
366.08
366.233
366.371
366.493
366.596
366.682
366.747
366.792
366.816
366.815
366.796
366.753
366.685
366.592
366.474
366.33
366.159
365.961
365.736
365.485
365.206
364.9
364.567
364.207
363.821
363.407
362.968
362.502
362.01
361.493
360.951
360.384
359.794
359.181
358.546
357.886
357.206
356.515
355.798
355.049
354.303
353.554
352.765
351.95
351.161
350.357
349.508
348.656
347.83
346.982
346.106
345.236
344.374
343.503
342.624
341.747
340.872
339.999
339.128
338.26
337.395
336.534
335.677
334.825
333.978
333.136
332.3
331.469
330.643
329.82
329.001
328.193
327.395
326.605
325.82
325.042
324.271
323.505
322.745
321.991
321.242
320.498
319.759
319.024
318.293
317.565
316.839
316.115
315.392
314.669
313.946
313.221
312.492
311.76
311.023
310.282
309.537
308.79
308.04
307.287
306.534
305.782
305.029
304.27
303.503
302.727
301.943
301.151
300.352
299.544
298.731
297.916
297.101
296.285
295.465
294.639
367.881
368.127
368.365
368.596
368.817
369.028
369.226
369.412
369.583
369.739
369.878
369.999
370.101
370.182
370.243
370.281
370.294
370.285
370.253
370.196
370.112
370.002
369.865
369.701
369.509
369.288
369.039
368.761
368.454
368.119
367.755
367.362
366.941
366.491
366.014
365.51
364.978
364.42
363.836
363.226
362.591
361.932
361.251
360.549
359.821
359.071
358.312
357.529
356.713
355.897
355.084
354.232
353.353
352.497
351.631
350.724
349.812
348.92
348.019
347.099
346.178
345.262
344.345
343.425
342.506
341.589
340.677
339.769
338.865
337.968
337.076
336.191
335.312
334.44
333.576
332.719
331.869
331.024
330.183
329.352
328.533
327.722
326.918
326.121
325.33
324.545
323.766
322.993
322.225
321.461
320.702
319.946
319.193
318.443
317.693
316.944
316.195
315.444
314.692
313.939
313.185
312.427
311.665
310.898
310.127
309.352
308.572
307.788
307
306.207
305.408
304.601
303.787
302.964
302.131
301.288
300.439
299.584
298.723
297.857
296.987
296.11
295.229
294.342
293.451
371.495
371.741
371.978
372.204
372.417
372.617
372.802
372.971
373.123
373.257
373.371
373.464
373.535
373.584
373.608
373.606
373.582
373.531
373.452
373.347
373.213
373.05
372.858
372.637
372.386
372.105
371.794
371.453
371.081
370.68
370.248
369.786
369.294
368.774
368.224
367.646
367.04
366.408
365.749
365.064
364.354
363.619
362.862
362.085
361.283
360.459
359.627
358.77
357.883
356.995
356.112
355.194
354.25
353.33
352.397
351.431
350.467
349.512
348.551
347.583
346.616
345.655
344.699
343.745
342.794
341.846
340.903
339.966
339.036
338.113
337.198
336.291
335.393
334.503
333.622
332.75
331.884
331.023
330.171
329.331
328.503
327.683
326.869
326.062
325.261
324.466
323.677
322.893
322.113
321.337
320.565
319.795
319.027
318.26
317.492
316.724
315.954
315.181
314.405
313.623
312.837
312.046
311.25
310.45
309.644
308.833
308.016
307.194
306.366
305.53
304.685
303.832
302.972
302.103
301.224
300.335
299.437
298.533
297.623
296.71
295.792
294.869
293.942
293.012
292.078
374.765
375.013
375.25
375.474
375.685
375.88
376.059
376.219
376.361
376.483
376.583
376.661
376.715
376.746
376.747
376.727
376.678
376.602
376.496
376.362
376.197
376.002
375.776
375.52
375.232
374.912
374.561
374.179
373.764
373.318
372.841
372.332
371.793
371.223
370.623
369.992
369.333
368.646
367.933
367.193
366.426
365.633
364.816
363.978
363.121
362.242
361.34
360.432
359.501
358.54
357.582
356.625
355.637
354.638
353.665
352.676
351.661
350.656
349.655
348.644
347.635
346.632
345.633
344.641
343.656
342.676
341.702
340.735
339.777
338.827
337.887
336.956
336.034
335.123
334.222
333.332
332.45
331.574
330.702
329.843
328.997
328.162
327.334
326.512
325.697
324.889
324.085
323.287
322.494
321.704
320.917
320.132
319.348
318.564
317.78
316.995
316.207
315.416
314.621
313.821
313.015
312.204
311.387
310.565
309.737
308.903
308.062
307.215
306.361
305.5
304.629
303.749
302.859
301.959
301.05
300.133
299.208
298.276
297.339
296.398
295.455
294.51
293.562
292.614
291.665
290.718
378.162
378.393
378.609
378.81
378.994
379.16
379.306
379.431
379.535
379.615
379.671
379.702
379.703
379.683
379.633
379.554
379.446
379.307
379.137
378.935
378.702
378.436
378.138
377.806
377.442
377.045
376.615
376.151
375.655
375.127
374.565
373.971
373.346
372.691
372.005
371.287
370.54
369.765
368.964
368.139
367.286
366.408
365.506
364.585
363.645
362.685
361.714
360.74
359.746
358.727
357.711
356.693
355.646
354.596
353.571
352.529
351.469
350.428
349.389
348.339
347.296
346.263
345.231
344.205
343.188
342.181
341.184
340.196
339.219
338.253
337.299
336.356
335.425
334.506
333.599
332.704
331.818
330.937
330.062
329.204
328.359
327.523
326.695
325.873
325.057
324.247
323.442
322.642
321.845
321.05
320.258
319.467
318.675
317.883
317.089
316.292
315.492
314.687
313.878
313.063
312.242
311.415
310.582
309.742
308.896
308.042
307.181
306.311
305.433
304.545
303.649
302.743
301.828
300.905
299.974
299.037
298.094
297.147
296.196
295.243
294.292
293.342
292.395
291.452
290.514
289.584
288.663
287.753
381.386
381.589
381.774
381.941
382.087
382.212
382.315
382.394
382.448
382.476
382.475
382.45
382.395
382.31
382.195
382.048
381.869
381.658
381.414
381.136
380.824
380.478
380.098
379.684
379.235
378.752
378.234
377.683
377.097
376.479
375.826
375.14
374.423
373.675
372.898
372.089
371.25
370.383
369.492
368.578
367.647
366.696
365.723
364.731
363.722
362.693
361.655
360.615
359.559
358.485
357.416
356.343
355.247
354.146
353.067
351.973
350.867
349.786
348.711
347.625
346.549
345.489
344.434
343.386
342.35
341.327
340.316
339.318
338.333
337.363
336.406
335.462
334.531
333.614
332.711
331.821
330.941
330.066
329.2
328.351
327.515
326.689
325.869
325.055
324.247
323.445
322.646
321.852
321.06
320.269
319.48
318.691
317.901
317.108
316.313
315.514
314.711
313.903
313.089
312.27
311.443
310.61
309.77
308.922
308.066
307.202
306.33
305.45
304.561
303.663
302.757
301.843
300.921
299.994
299.061
298.125
297.185
296.243
295.299
294.356
293.418
292.485
291.56
290.644
289.738
288.847
287.971
287.113
384.399
384.562
384.705
384.827
384.925
384.998
385.048
385.068
385.061
385.029
384.965
384.871
384.746
384.588
384.398
384.174
383.916
383.624
383.296
382.934
382.536
382.102
381.632
381.127
380.587
380.011
379.398
378.751
378.07
377.357
376.608
375.825
375.012
374.169
373.3
372.408
371.49
370.546
369.578
368.587
367.58
366.555
365.512
364.453
363.378
362.286
361.179
360.068
358.946
357.812
356.686
355.558
354.413
353.271
352.151
351.018
349.879
348.769
347.667
346.558
345.463
344.387
343.32
342.264
341.222
340.196
339.185
338.19
337.212
336.249
335.302
334.369
333.451
332.548
331.66
330.787
329.925
329.069
328.221
327.391
326.575
325.767
324.966
324.171
323.381
322.595
321.813
321.034
320.257
319.48
318.704
317.927
317.148
316.366
315.58
314.789
313.994
313.193
312.386
311.572
310.751
309.923
309.087
308.242
307.389
306.527
305.658
304.782
303.898
303.006
302.107
301.203
300.294
299.382
298.467
297.551
296.636
295.721
294.808
293.896
292.985
292.081
291.187
290.305
289.44
288.592
287.763
286.957
387.162
387.276
387.367
387.432
387.473
387.482
387.468
387.424
387.349
387.243
387.105
386.934
386.729
386.49
386.216
385.907
385.562
385.181
384.763
384.308
383.817
383.288
382.722
382.119
381.481
380.807
380.095
379.349
378.568
377.757
376.921
376.055
375.16
374.235
373.283
372.309
371.311
370.29
369.247
368.181
367.095
365.992
364.875
363.745
362.603
361.448
360.284
359.116
357.94
356.759
355.586
354.414
353.233
352.062
350.911
349.753
348.597
347.469
346.352
345.236
344.137
343.058
341.993
340.941
339.907
338.892
337.894
336.914
335.952
335.009
334.084
333.175
332.283
331.407
330.547
329.703
328.87
328.045
327.228
326.427
325.64
324.863
324.091
323.325
322.563
321.805
321.051
320.297
319.546
318.795
318.043
317.29
316.534
315.774
315.008
314.238
313.463
312.681
311.893
311.098
310.296
309.485
308.667
307.841
307.007
306.165
305.312
304.451
303.582
302.707
301.827
300.943
300.057
299.17
298.283
297.398
296.516
295.638
294.766
293.899
293.034
292.175
291.329
290.497
289.684
288.891
288.121
287.375
286.656
389.699
389.727
389.725
389.699
389.641
389.552
389.432
389.279
389.092
388.872
388.616
388.324
387.996
387.631
387.23
386.791
386.314
385.798
385.244
384.655
384.026
383.359
382.654
381.914
381.145
380.346
379.515
378.649
377.752
376.828
375.877
374.898
373.894
372.862
371.804
370.723
369.621
368.499
367.358
366.2
365.029
363.847
362.656
361.456
360.249
359.037
357.824
356.608
355.393
354.187
352.986
351.783
350.595
349.425
348.257
347.098
345.966
344.85
343.741
342.652
341.586
340.537
339.506
338.494
337.503
336.532
335.58
334.649
333.738
332.847
331.974
331.12
330.283
329.463
328.659
327.867
327.086
326.312
325.55
324.804
324.067
323.336
322.61
321.889
321.171
320.455
319.74
319.025
318.311
317.596
316.879
316.158
315.434
314.703
313.964
313.217
312.462
311.7
310.931
310.154
309.37
308.578
307.779
306.973
306.161
305.339
304.509
303.672
302.83
301.984
301.136
300.287
299.438
298.592
297.749
296.911
296.08
295.257
294.444
293.644
292.855
292.081
291.323
290.585
289.87
289.178
288.513
287.876
391.803
391.761
391.688
391.584
391.447
391.277
391.073
390.834
390.56
390.249
389.901
389.516
389.093
388.63
388.13
387.592
387.014
386.396
385.74
385.047
384.326
383.571
382.779
381.951
381.092
380.203
379.285
378.338
377.359
376.346
375.305
374.239
373.148
372.034
370.899
369.742
368.568
367.377
366.171
364.951
363.72
362.482
361.238
359.991
358.741
357.492
356.246
355.002
353.765
352.539
351.322
350.113
348.922
347.75
346.587
345.442
344.322
343.222
342.137
341.075
340.037
339.02
338.024
337.051
336.101
335.172
334.265
333.38
332.516
331.67
330.845
330.041
329.255
328.486
327.733
326.994
326.268
325.55
324.839
324.143
323.458
322.78
322.105
321.436
320.769
320.104
319.44
318.773
318.101
317.426
316.747
316.066
315.38
314.69
313.991
313.283
312.566
311.842
311.109
310.37
309.622
308.867
308.106
307.339
306.566
305.79
305.01
304.225
303.438
302.648
301.857
301.067
300.28
299.496
298.718
297.946
297.184
296.432
295.693
294.97
294.262
293.571
292.899
292.247
291.618
291.014
290.437
289.888
393.451
393.296
393.108
392.885
392.627
392.333
392.002
391.633
391.226
390.78
390.297
389.773
389.208
388.605
387.965
387.294
386.588
385.843
385.06
384.246
383.401
382.525
381.614
380.666
379.684
378.673
377.634
376.567
375.472
374.35
373.203
372.034
370.844
369.635
368.41
367.171
365.918
364.655
363.383
362.105
360.823
359.541
358.259
356.981
355.708
354.443
353.187
351.942
350.713
349.497
348.297
347.118
345.961
344.821
343.704
342.613
341.546
340.5
339.48
338.486
337.516
336.571
335.651
334.757
333.884
333.035
332.21
331.403
330.617
329.853
329.109
328.385
327.679
326.988
326.313
325.651
324.998
324.354
323.718
323.095
322.48
321.866
321.25
320.635
320.021
319.408
318.793
318.172
317.546
316.916
316.281
315.641
314.997
314.349
313.695
313.033
312.364
311.688
311.003
310.312
309.614
308.91
308.201
307.488
306.773
306.056
305.338
304.619
303.9
303.182
302.467
301.755
301.049
300.351
299.661
298.982
298.315
297.662
297.025
296.406
295.804
295.222
294.66
294.121
293.606
293.117
292.654
394.54
394.261
393.947
393.594
393.203
392.775
392.307
391.799
391.25
390.665
390.048
389.395
388.703
387.971
387.208
386.413
385.583
384.716
383.809
382.867
381.895
380.892
379.856
378.788
377.691
376.565
375.414
374.239
373.041
371.821
370.582
369.326
368.055
366.772
365.478
364.176
362.869
361.557
360.245
358.934
357.627
356.326
355.034
353.753
352.485
351.232
349.996
348.779
347.582
346.407
345.256
344.131
343.029
341.955
340.91
339.891
338.899
337.935
337
336.092
335.211
334.357
333.53
332.726
331.946
331.189
330.451
329.737
329.044
328.373
327.72
327.086
326.468
325.865
325.276
324.699
324.127
323.556
322.989
322.434
321.882
321.327
320.771
320.214
319.657
319.1
318.543
317.981
317.415
316.844
316.267
315.686
315.1
314.509
313.912
313.308
312.698
312.082
311.46
310.832
310.199
309.563
308.924
308.283
307.643
307.003
306.364
305.727
305.093
304.464
303.84
303.223
302.614
302.015
301.428
300.854
300.295
299.752
299.226
298.717
298.228
297.758
297.31
296.883
296.479
296.099
295.744
295.412
395.41
395.036
394.625
394.173
393.681
393.152
392.59
391.993
391.356
390.68
389.971
389.23
388.452
387.635
386.777
385.884
384.958
383.997
383
381.969
380.906
379.813
378.691
377.541
376.363
375.161
373.935
372.689
371.424
370.142
368.844
367.533
366.212
364.883
363.548
362.21
360.872
359.535
358.203
356.877
355.561
354.256
352.966
351.692
350.437