/*--------------------------------*- C++ -*----------------------------------*\
| =========                 |                                                 |
| \\      /  F ield         | OpenFOAM: The Open Source CFD Toolbox           |
|  \\    /   O peration     | Version:  v1706                                 |
|   \\  /    A nd           | Web:      www.OpenFOAM.com                      |
|    \\/     M anipulation  |                                                 |
\*---------------------------------------------------------------------------*/
FoamFile
{
    version     2.0;
    format      ascii;
    class       volScalarField;
    location    "3.1e-05";
    object      wallHeatFlux;
}
// * * * * * * * * * * * * * * * * * * * * * * * * * * * * * * * * * * * * * //

dimensions      [1 0 -3 0 0 0 0];


internalField   uniform 0;

boundaryField
{
    cone
    {
        type            calculated;
        value           nonuniform List<scalar> 
181
(
1215.95
1207.93
1210.13
1222.16
1245.44
1280.86
1328.6
1388.22
1458.78
1538.87
1626.48
1718.91
1812.66
1903.37
1985.86
2054.23
2102.11
2123.01
2112.14
2066.08
1977.7
1845.33
1670.81
1458.43
1214.9
948.758
669.535
386.488
107.716
-160.25
-412.663
-646.509
-860.249
-1053.5
-1226.71
-1380.85
-1517.22
-1637.23
-1742.3
-1833.76
-1913.06
-1980.78
-2038.81
-2088.58
-2129.83
-2163.18
-2189.56
-2209.61
-2224.06
-2233.58
-2238.2
-2238.22
-2234.36
-2226.88
-2216.03
-2202.11
-2185.41
-2166.21
-2144.79
-2121.38
-2096.2
-2069.44
-2041.28
-2011.85
-1981.28
-1949.65
-1917.04
-1883.5
-1849.08
-1813.8
-1777.69
-1740.76
-1703.04
-1664.56
-1625.34
-1585.41
-1544.85
-1503.69
-1462.03
-1419.96
-1377.6
-1335.08
-1292.58
-1250.3
-1208.49
-1167.43
-1127.45
-1088.92
-1052.28
-1018
-986.575
-958.651
-934.678
-915.217
-900.91
-892.262
-889.449
-893.033
-903.442
-920.535
-944.235
-974.324
-1010.42
-1051.98
-1098.33
-1148.68
-1202.17
-1257.85
-1314.79
-1372.05
-1428.77
-1484.08
-1537.21
-1587.79
-1635.18
-1678.8
-1718.45
-1753.91
-1785.02
-1811.72
-1834
-1851.88
-1865.44
-1875.03
-1880.63
-1882.19
-1880.04
-1874.36
-1865.3
-1852.99
-1837.6
-1819.3
-1798.25
-1774.63
-1748.62
-1720.43
-1690.27
-1658.38
-1625.02
-1590.48
-1555.08
-1519.19
-1483.18
-1447.49
-1412.55
-1378.82
-1346.79
-1316.93
-1289.7
-1265.56
-1244.88
-1228.01
-1215.18
-1206.56
-1202.29
-1201.96
-1205.3
-1212.37
-1222.51
-1235.03
-1249.49
-1265.48
-1282.5
-1300.03
-1317.62
-1334.89
-1351.48
-1367.14
-1381.66
-1394.9
-1406.8
-1417.32
-1426.48
-1434.33
-1440.94
-1446.41
-1450.83
-1454.35
-1457.06
-1459.05
-1460.42
)
;
    }
    inlet
    {
        type            calculated;
        value           uniform 0;
    }
    rWedge
    {
        type            wedge;
    }
    lWedge
    {
        type            wedge;
    }
    outlet
    {
        type            calculated;
        value           nonuniform 0();
    }
    procBoundary1to0
    {
        type            processor;
        value           uniform 0;
    }
    procBoundary1to2
    {
        type            processor;
        value           uniform 0;
    }
}


// ************************************************************************* //
