/*--------------------------------*- C++ -*----------------------------------*\
| =========                 |                                                 |
| \\      /  F ield         | OpenFOAM: The Open Source CFD Toolbox           |
|  \\    /   O peration     | Version:  v1706                                 |
|   \\  /    A nd           | Web:      www.OpenFOAM.com                      |
|    \\/     M anipulation  |                                                 |
\*---------------------------------------------------------------------------*/
FoamFile
{
    version     2.0;
    format      ascii;
    class       volScalarField;
    location    "3.9e-05";
    object      Mach;
}
// * * * * * * * * * * * * * * * * * * * * * * * * * * * * * * * * * * * * * //

dimensions      [0 0 0 0 0 0 0];


internalField   nonuniform List<scalar> 
29871
(
7.18506
7.18506
7.18506
7.18506
7.18506
7.18506
7.18506
7.18506
7.18506
7.18506
7.18506
7.18506
7.18506
7.18506
7.18506
7.18506
7.18506
7.18506
7.18506
7.18506
7.18506
7.18506
7.18506
7.18506
7.18506
7.18506
7.18506
7.18506
7.18506
7.18506
7.18506
7.18506
7.18506
7.18506
7.18506
7.18506
7.18506
7.18506
7.18506
7.18506
7.18506
7.18506
7.18506
7.18506
7.18506
7.18506
7.18506
7.18506
7.18506
7.18506
7.18506
7.18506
7.18506
7.18506
7.18506
7.18506
7.18506
7.18506
7.18506
7.18506
7.18506
7.18506
7.18506
7.18506
7.18506
7.18506
7.18506
7.18506
7.18506
7.18506
7.18506
7.18506
7.18506
7.18506
7.18506
7.18506
7.18506
7.18506
7.18506
7.18506
7.18506
7.18506
7.18506
7.18506
7.18506
7.18506
7.18506
7.18506
7.18506
7.18506
7.18506
7.18506
7.18506
7.18506
7.18506
7.18506
7.18506
7.18506
7.18506
7.18506
7.18506
7.18506
7.18506
7.18506
7.18506
7.18506
7.18506
7.18506
7.18506
7.18506
7.18506
7.18506
7.18506
7.18506
7.18506
7.18506
7.18506
7.18506
7.18506
7.18506
7.18506
7.18506
7.18506
7.18506
7.18506
7.18506
7.18506
7.18506
7.18506
7.18506
7.18506
7.18506
7.18506
7.18506
7.18506
7.18506
7.18506
7.18506
7.18506
7.18506
7.18506
7.18506
7.18506
7.18506
7.18506
7.18506
7.18506
7.18506
7.18506
7.18506
7.18506
7.18506
7.18506
7.18506
7.18506
7.18506
7.18506
7.18506
7.18506
7.18506
7.18506
7.18506
7.18506
7.18506
7.18506
7.18506
7.18506
7.18506
7.18506
7.18506
7.18506
7.18506
7.18506
7.18506
7.18506
7.18506
7.18506
7.18506
7.18506
7.18506
7.18506
7.18506
7.18506
7.18506
7.18506
7.18506
7.18506
7.18506
7.18506
7.18506
7.18506
7.18506
7.18506
7.18506
7.18506
7.18506
7.18506
7.18506
7.18506
7.18506
7.18506
7.18506
7.18506
7.18506
7.18506
7.18506
7.18506
7.18506
7.18506
7.18506
7.18506
7.18506
7.18506
7.18506
7.18506
7.18506
7.18506
7.18506
7.18506
7.18506
7.18506
7.18506
7.18506
7.18506
7.18506
7.18506
7.18506
7.18506
7.18506
7.18506
7.18506
7.18506
7.18506
7.18506
7.18506
7.18506
7.18506
7.18506
7.18506
7.18506
7.18506
7.18506
7.18506
7.18506
7.18506
7.18506
7.18506
7.18506
7.18506
7.18506
7.18506
7.18506
7.18506
7.18506
7.18506
7.18506
7.18506
7.18506
7.18506
7.18506
7.18506
7.18506
7.18506
7.18506
7.18506
7.18506
7.18506
7.18506
7.18506
7.18506
7.18506
7.18506
7.18506
7.18506
7.18506
7.18506
7.18506
7.18506
7.18506
7.18506
7.18506
7.18506
7.18506
7.18506
7.18506
7.18506
7.18506
7.18506
7.18506
7.18506
7.18506
7.18506
7.18506
7.18506
7.18506
7.18506
7.18506
7.18506
7.18506
7.18506
7.18506
7.18506
7.18506
7.18506
7.18506
7.18506
7.18506
7.18506
7.18506
7.18506
7.18506
7.18506
7.18506
7.18506
7.18506
7.18506
7.18506
7.18506
7.18506
7.18506
7.18506
7.18506
7.18506
7.18506
7.18506
7.18506
7.18506
7.18506
7.18506
7.18506
7.18506
7.18506
7.18506
7.18506
7.18506
7.18506
7.18506
7.18506
7.18506
7.18506
7.18506
7.18506
7.18506
7.18506
7.18506
7.18506
7.18506
7.18506
7.18506
7.18506
7.18506
7.18506
7.18506
7.18506
7.18506
7.18506
7.18506
7.18506
7.18506
7.18506
7.18506
7.18506
7.18506
7.18506
7.18506
7.18506
7.18506
7.18506
7.18506
7.18506
7.18506
7.18506
7.18506
7.18506
7.18506
7.18506
7.18506
7.18506
7.18506
7.18506
7.18506
7.18506
7.18506
7.18506
7.18506
7.18506
7.18506
7.18506
7.18506
7.18506
7.18506
7.18506
7.18506
7.18506
7.18506
7.18506
7.18506
7.18506
7.18506
7.18506
7.18506
7.18506
7.18506
7.18506
7.18506
7.18506
7.18506
7.18506
7.18506
7.18506
7.18506
7.18506
7.18506
7.18506
7.18506
7.18506
7.18506
7.18506
7.18506
7.18506
7.18506
7.18506
7.18506
7.18506
7.18506
7.18506
7.18506
7.18506
7.18506
7.18506
7.18506
7.18506
7.18506
7.18506
7.18506
7.18506
7.18506
7.18506
7.18506
7.18506
7.18506
7.18506
7.18506
7.18506
7.18506
7.18506
7.18506
7.18506
7.18506
7.18506
7.18506
7.18506
7.18506
7.18506
7.18506
7.18506
7.18506
7.18506
7.18506
7.18506
7.18506
7.18506
7.18506
7.18506
7.18506
7.18506
7.18506
7.18506
7.18506
7.18506
7.18506
7.18506
7.18506
7.18506
7.18506
7.18506
7.18506
7.18506
7.18506
7.18506
7.18506
7.18506
7.18506
7.18506
7.18506
7.18506
7.18506
7.18506
7.18506
7.18506
7.18506
7.18506
7.18506
7.18506
7.18506
7.18506
7.18506
7.18506
7.18506
7.18506
7.18506
7.18506
7.18506
7.18506
7.18506
7.18506
7.18506
7.18506
7.18506
7.18506
7.18506
7.18506
7.18506
7.18506
7.18506
7.18506
7.18506
7.18506
7.18506
7.18506
7.18506
7.18506
7.18506
7.18506
7.18506
7.18506
7.18506
7.18506
7.18506
7.18506
7.18506
7.18506
7.18506
7.18506
7.18506
7.18506
7.18506
7.18506
7.18506
7.18506
7.18506
7.18506
7.18506
7.18506
7.18506
7.18506
7.18506
7.18506
7.18506
7.18506
7.18506
7.18506
7.18506
7.18506
7.18506
7.18506
7.18506
7.18506
7.18506
7.18506
7.18506
7.18506
7.18506
7.18506
7.18506
7.18506
7.18506
7.18506
7.18506
7.18506
7.18506
7.18506
7.18506
7.18506
7.18506
7.18506
7.18506
7.18506
7.18506
7.18506
7.18506
7.18506
7.18506
7.18506
7.18506
7.18506
7.18506
7.18506
7.18506
7.18506
7.18506
7.18506
7.18506
7.18506
7.18506
7.18506
7.18506
7.18506
7.18506
7.18506
7.18506
7.18506
7.18506
7.18506
7.18506
7.18506
7.18506
7.18506
7.18506
7.18506
7.18506
7.18506
7.18506
7.18506
7.18506
7.18506
7.18506
7.18506
7.18506
7.18506
7.18506
7.18506
7.18506
7.18506
7.18506
7.18506
7.18506
7.18506
7.18506
7.18506
7.18506
7.18506
7.18506
7.18506
7.18506
7.18506
7.18506
7.18506
7.18506
7.18506
7.18506
7.18506
7.18506
7.18506
7.18506
7.18506
7.18506
7.18506
7.18506
7.18506
7.18506
7.18506
7.18506
7.18506
7.18506
7.18506
7.18506
7.18506
7.18506
7.18506
7.18506
7.18506
7.18506
7.18506
7.18506
7.18506
7.18506
7.18506
7.18506
7.18506
7.18506
7.18506
7.18506
7.18506
7.18506
7.18506
7.18506
7.18506
7.18506
7.18506
7.18506
7.18506
7.18506
7.18506
7.18506
7.18506
7.18506
7.18506
7.18506
7.18506
7.18506
7.18506
7.18506
7.18506
7.18506
7.18506
7.18506
7.18506
7.18506
7.18506
7.18506
7.18506
7.18506
7.18506
7.18506
7.18506
7.18506
7.18506
7.18506
7.18506
7.18506
7.18506
7.18506
7.18506
7.18506
7.18506
7.18506
7.18506
7.18506
7.18506
7.18506
7.18506
7.18506
7.18506
7.18506
7.18506
7.18506
7.18506
7.18506
7.18506
7.18506
7.18506
7.18506
7.18506
7.18506
7.18506
7.18506
7.18506
7.18506
7.18506
7.18506
7.18506
7.18506
7.18506
7.18506
7.18506
7.18506
7.18506
7.18506
7.18506
7.18506
7.18506
7.18506
7.18506
7.18506
7.18506
7.18506
7.18506
7.18506
7.18506
7.18506
7.18506
7.18506
7.18506
7.18506
7.18506
7.18506
7.18506
7.18506
7.18506
7.18506
7.18506
7.18506
7.18506
7.18506
7.18506
7.18506
7.18506
7.18506
7.18506
7.18506
7.18506
7.18506
7.18506
7.18506
7.18506
7.18506
7.18506
7.18506
7.18506
7.18506
7.18506
7.18506
7.18506
7.18506
7.18506
7.18506
7.18506
7.18506
7.18506
7.18506
7.18506
7.18506
7.18506
7.18506
7.18506
7.18506
7.18506
7.18506
7.18506
7.18506
7.18506
7.18506
7.18506
7.18506
7.18506
7.18506
7.18506
7.18506
7.18506
7.18506
7.18506
7.18506
7.18506
7.18506
7.18506
7.18506
7.18506
7.18506
7.18506
7.18506
7.18506
7.18506
7.18506
7.18506
7.18506
7.18506
7.18506
7.18506
7.18506
7.18506
7.18506
7.18506
7.18506
7.18506
7.18506
7.18506
7.18506
7.18506
7.18506
7.18506
7.18506
7.18506
7.18506
7.18506
7.18506
7.18506
7.18506
7.18506
7.18506
7.18506
7.18506
7.18506
7.18506
7.18506
7.18506
7.18506
7.18506
7.18506
7.18506
7.18506
7.18506
7.18506
7.18506
7.18506
7.18506
7.18506
7.18506
7.18506
7.18506
7.18506
7.18506
7.18506
7.18506
7.18506
7.18506
7.18506
7.18506
7.18506
7.18506
7.18506
7.18506
7.18506
7.18506
7.18506
7.18506
7.18506
7.18506
7.18506
7.18506
7.18506
7.18506
7.18506
7.18506
7.18506
7.18506
7.18506
7.18506
7.18506
7.18506
7.18506
7.18506
7.18506
7.18506
7.18506
7.18506
7.18506
7.18506
7.18506
7.18506
7.18506
7.18506
7.18506
7.18506
7.18506
7.18506
7.18506
7.18506
7.18506
7.18506
7.18506
7.18506
7.18506
7.18506
7.18506
7.18506
7.18506
7.18506
7.18506
7.18506
7.18506
7.18506
7.18506
7.18506
7.18506
7.18506
7.18506
7.18506
7.18506
7.18506
7.18506
7.18506
7.18506
7.18506
7.18506
7.18506
7.18506
7.18506
7.18506
7.18506
7.18506
7.18506
7.18506
7.18506
7.18506
7.18506
7.18506
7.18506
7.18506
7.18506
7.18506
7.18506
7.18506
7.18506
7.18506
7.18506
7.18506
7.18506
7.18506
7.18506
7.18506
7.18506
7.18506
7.18506
7.18506
7.18506
7.18506
7.18506
7.18506
7.18506
7.18506
7.18506
7.18506
7.18506
7.18506
7.18506
7.18506
7.18506
7.18506
7.18506
7.18506
7.18506
7.18506
7.18506
7.18506
7.18506
7.18506
7.18506
7.18506
7.18506
7.18506
7.18506
7.18506
7.18506
7.18506
7.18506
7.18506
7.18506
7.18506
7.18506
7.18506
7.18506
7.18506
7.18506
7.18506
7.18506
7.18506
7.18506
7.18506
7.18506
7.18506
7.18506
7.18506
7.18506
7.18506
7.18506
7.18506
7.18506
7.18506
7.18506
7.18506
7.18506
7.18506
7.18506
7.18506
7.18506
7.18506
7.18506
7.18506
7.18506
7.18506
7.18506
7.18506
7.18506
7.18506
7.18506
7.18506
7.18506
7.18506
7.18506
7.18506
7.18506
7.18506
7.18506
7.18506
7.18506
7.18506
7.18506
7.18506
7.18506
7.18506
7.18506
7.18506
7.18506
7.18506
7.18506
7.18506
7.18506
7.18506
7.18506
7.18506
7.18506
7.18506
7.18506
7.18506
7.18506
7.18506
7.18506
7.18506
7.18506
7.18506
7.18506
7.18506
7.18506
7.18506
7.18506
7.18506
7.18506
7.18506
7.18506
7.18506
7.18506
7.18506
7.18506
7.18506
7.18506
7.18506
7.18506
7.18506
7.18506
7.18506
7.18506
7.18506
7.18506
7.18506
7.18506
7.18506
7.18506
7.18506
7.18506
7.18506
7.18506
7.18506
7.18506
7.18506
7.18506
7.18506
7.18506
7.18506
7.18506
7.18506
7.18506
7.18506
7.18506
7.18506
7.18506
7.18506
7.18506
7.18506
7.18506
7.18506
7.18506
7.18506
7.18506
7.18506
7.18506
7.18506
7.18506
7.18506
7.18506
7.18506
7.18506
7.18506
7.18506
7.18506
7.18506
7.18506
7.18506
7.18506
7.18506
7.18506
7.18506
7.18506
7.18506
7.18506
7.18506
7.18506
7.18506
7.18506
7.18506
7.18506
7.18506
7.18506
7.18506
7.18506
7.18506
7.18506
7.18506
7.18506
7.18506
7.18506
7.18506
7.18506
7.18506
7.18506
7.18506
7.18506
7.18506
7.18506
7.18506
7.18506
7.18506
7.18506
7.18506
7.18506
7.18506
7.18506
7.18506
7.18506
7.18506
7.18506
7.18506
7.18506
7.18506
7.18506
7.18506
7.18506
7.18506
7.18506
7.18506
7.18506
7.18506
7.18506
7.18506
7.18506
7.18506
7.18506
7.18506
7.18506
7.18506
7.18506
7.18506
7.18506
7.18506
7.18506
7.18506
7.18506
7.18506
7.18506
7.18506
7.18506
7.18506
7.18506
7.18506
7.18506
7.18506
7.18506
7.18506
7.18506
7.18506
7.18506
7.18506
7.18506
7.18506
7.18506
7.18506
7.18506
7.18506
7.18506
7.18506
7.18506
7.18506
7.18506
7.18506
7.18506
7.18506
7.18506
7.18506
7.18506
7.18506
7.18506
7.18506
7.18506
7.18506
7.18506
7.18506
7.18506
7.18506
7.18506
7.18506
7.18506
7.18506
7.18506
7.18506
7.18506
7.18506
7.18506
7.18506
7.18506
7.18506
7.18506
7.18506
7.18506
7.18506
7.18506
7.18506
7.18506
7.18506
7.18506
7.18506
7.18506
7.18506
7.18506
7.18506
7.18506
7.18506
7.18506
7.18506
7.18506
7.18506
7.18506
7.18506
7.18506
7.18506
7.18506
7.18506
7.18506
7.18506
7.18506
7.18506
7.18506
7.18506
7.18506
7.18506
7.18506
7.18506
7.18506
7.18506
7.18506
7.18506
7.18506
7.18506
7.18506
7.18506
7.18506
7.18506
7.18506
7.18506
7.18506
7.18506
7.18506
7.18506
7.18506
7.18506
7.18506
7.18506
7.18506
7.18506
7.18506
7.18506
7.18506
7.18506
7.18506
7.18506
7.18506
7.18506
7.18506
7.18506
7.18506
7.18506
7.18506
7.18506
7.18506
7.18506
7.18506
7.18506
7.18506
7.18506
7.18506
7.18506
7.18506
7.18506
7.18506
7.18506
7.18506
7.18506
7.18506
7.18506
7.18506
7.18506
7.18506
7.18506
7.18506
7.18506
7.18506
7.18506
7.18506
7.18506
7.18506
7.18506
7.18506
7.18506
7.18506
7.18506
7.18506
7.18506
7.18506
7.18506
7.18506
7.18506
7.18506
7.18506
7.18506
7.18506
7.18506
7.18506
7.18506
7.18506
7.18506
7.18506
7.18506
7.18506
7.18506
7.18506
7.18506
7.18506
7.18506
7.18506
7.18506
7.18506
7.18506
7.18506
7.18506
7.18506
7.18506
7.18506
7.18506
7.18506
7.18506
7.18506
7.18506
7.18506
7.18506
7.18506
7.18506
7.18506
7.18506
7.18506
7.18506
7.18506
7.18506
7.18506
7.18506
7.18506
7.18506
7.18506
7.18506
7.18506
7.18506
7.18506
7.18506
7.18506
7.18506
7.18506
7.18506
7.18506
7.18506
7.18506
7.18506
7.18506
7.18506
7.18506
7.18506
7.18506
7.18506
7.18506
7.18506
7.18506
7.18506
7.18506
7.18506
7.18506
7.18506
7.18506
7.18506
7.18506
7.18506
7.18506
7.18506
7.18506
7.18506
7.18506
7.18506
7.18506
7.18506
7.18506
7.18506
7.18506
7.18506
7.18506
7.18506
7.18506
7.18506
7.18506
7.18506
7.18506
7.18506
7.18506
7.18506
7.18506
7.18506
7.18506
7.18506
7.18506
7.18506
7.18506
7.18506
7.18506
7.18506
7.18506
7.18506
7.18506
7.18506
7.18506
7.18506
7.18506
7.18506
7.18506
7.18506
7.18506
7.18506
7.18506
7.18506
7.18505
7.18505
7.18505
7.18505
7.18505
7.18505
7.18505
7.18505
7.18505
7.18504
7.18506
7.18506
7.18506
7.18506
7.18506
7.18506
7.18506
7.18506
7.18506
7.18506
7.18506
7.18506
7.18506
7.18506
7.18506
7.18506
7.18506
7.18506
7.18506
7.18506
7.18506
7.18506
7.18506
7.18506
7.18506
7.18506
7.18506
7.18506
7.18506
7.18506
7.18506
7.18506
7.18506
7.18506
7.18506
7.18506
7.18506
7.18506
7.18506
7.18506
7.18506
7.18506
7.18506
7.18506
7.18506
7.18506
7.18506
7.18506
7.18506
7.18506
7.18506
7.18506
7.18506
7.18506
7.18506
7.18506
7.18506
7.18506
7.18506
7.18506
7.18506
7.18506
7.18506
7.18506
7.18506
7.18506
7.18505
7.18505
7.18505
7.18505
7.18505
7.18505
7.18505
7.18505
7.18505
7.18505
7.18505
7.18505
7.18505
7.18505
7.18505
7.18505
7.18505
7.18505
7.18505
7.18505
7.18505
7.18505
7.18505
7.18505
7.18505
7.18504
7.18504
7.18504
7.18504
7.18504
7.18504
7.18504
7.18503
7.18503
7.18503
7.18503
7.18502
7.18502
7.18502
7.18501
7.18501
7.18501
7.185
7.185
7.18499
7.18498
7.18497
7.18497
7.18496
7.18506
7.18506
7.18506
7.18506
7.18506
7.18506
7.18506
7.18506
7.18506
7.18506
7.18505
7.18505
7.18505
7.18505
7.18505
7.18505
7.18505
7.18505
7.18505
7.18505
7.18505
7.18505
7.18505
7.18505
7.18505
7.18505
7.18504
7.18504
7.18504
7.18504
7.18504
7.18504
7.18504
7.18504
7.18504
7.18504
7.18504
7.18504
7.18504
7.18504
7.18504
7.18504
7.18504
7.18503
7.18503
7.18503
7.18503
7.18503
7.18503
7.18503
7.18503
7.18503
7.18503
7.18503
7.18503
7.18503
7.18503
7.18503
7.18503
7.18503
7.18503
7.18503
7.18503
7.18502
7.18502
7.18502
7.18502
7.18502
7.18502
7.18502
7.18502
7.18502
7.18502
7.18502
7.18502
7.18501
7.18501
7.18501
7.18501
7.18501
7.18501
7.185
7.185
7.185
7.185
7.18499
7.18499
7.18499
7.18498
7.18498
7.18498
7.18497
7.18497
7.18496
7.18495
7.18495
7.18494
7.18493
7.18492
7.18491
7.1849
7.18489
7.18487
7.18486
7.18484
7.18482
7.1848
7.18478
7.18475
7.18473
7.18469
7.18466
7.18462
7.18457
7.18452
7.18446
7.18505
7.18505
7.18505
7.18505
7.18505
7.18505
7.18504
7.18504
7.18504
7.18504
7.18504
7.18504
7.18503
7.18503
7.18503
7.18503
7.18503
7.18502
7.18502
7.18502
7.18502
7.18501
7.18501
7.18501
7.18501
7.185
7.185
7.185
7.185
7.18499
7.18499
7.18499
7.18498
7.18498
7.18498
7.18498
7.18497
7.18497
7.18497
7.18497
7.18496
7.18496
7.18496
7.18496
7.18496
7.18495
7.18495
7.18495
7.18495
7.18494
7.18494
7.18494
7.18494
7.18493
7.18493
7.18493
7.18493
7.18492
7.18492
7.18492
7.18492
7.18492
7.18491
7.18491
7.18491
7.18491
7.1849
7.1849
7.1849
7.1849
7.18489
7.18489
7.18489
7.18488
7.18488
7.18488
7.18487
7.18487
7.18487
7.18486
7.18486
7.18485
7.18485
7.18484
7.18483
7.18483
7.18482
7.18481
7.1848
7.18479
7.18477
7.18476
7.18475
7.18473
7.18471
7.1847
7.18468
7.18466
7.18464
7.18461
7.18459
7.18456
7.18452
7.18448
7.18444
7.18439
7.18434
7.18428
7.18421
7.18414
7.18407
7.18399
7.1839
7.1838
7.18369
7.18356
7.18342
7.18326
7.18308
7.18287
7.18265
7.1824
7.18212
7.18501
7.185
7.185
7.18499
7.18499
7.18498
7.18498
7.18497
7.18496
7.18496
7.18495
7.18494
7.18494
7.18493
7.18492
7.18491
7.1849
7.18489
7.18488
7.18488
7.18487
7.18486
7.18485
7.18484
7.18482
7.18481
7.1848
7.18479
7.18478
7.18477
7.18476
7.18475
7.18474
7.18473
7.18472
7.18471
7.18469
7.18468
7.18467
7.18466
7.18465
7.18464
7.18464
7.18463
7.18462
7.18461
7.1846
7.18459
7.18458
7.18457
7.18456
7.18455
7.18454
7.18453
7.18452
7.18451
7.1845
7.18449
7.18448
7.18447
7.18446
7.18445
7.18444
7.18443
7.18442
7.18441
7.1844
7.18439
7.18438
7.18437
7.18435
7.18434
7.18433
7.18431
7.1843
7.18429
7.18427
7.18425
7.18424
7.18422
7.18419
7.18417
7.18414
7.18411
7.18407
7.18403
7.18399
7.18395
7.1839
7.18384
7.18378
7.18372
7.18365
7.18358
7.18351
7.18342
7.18333
7.18324
7.18314
7.18302
7.1829
7.18275
7.18259
7.1824
7.1822
7.18197
7.18171
7.18144
7.18113
7.1808
7.18044
7.18006
7.17964
7.17917
7.17864
7.17803
7.17733
7.17653
7.17561
7.17458
7.17345
7.1722
7.17085
7.18484
7.18482
7.1848
7.18478
7.18476
7.18473
7.18471
7.18468
7.18466
7.18463
7.1846
7.18457
7.18454
7.18451
7.18447
7.18444
7.18441
7.18437
7.18433
7.1843
7.18426
7.18422
7.18418
7.18414
7.1841
7.18406
7.18401
7.18397
7.18393
7.18389
7.18384
7.1838
7.18376
7.18372
7.18368
7.18363
7.18359
7.18355
7.18351
7.18348
7.18344
7.1834
7.18336
7.18332
7.18329
7.18325
7.18321
7.18317
7.18313
7.18309
7.18305
7.18301
7.18297
7.18293
7.18289
7.18284
7.1828
7.18276
7.18272
7.18268
7.18263
7.18259
7.18254
7.1825
7.18245
7.1824
7.18236
7.18231
7.18226
7.1822
7.18215
7.18209
7.18204
7.18197
7.18191
7.18184
7.18177
7.1817
7.18162
7.18152
7.18142
7.18131
7.18118
7.18103
7.18088
7.1807
7.18051
7.18031
7.18008
7.17984
7.17958
7.1793
7.17899
7.17867
7.17832
7.17795
7.17755
7.17712
7.17665
7.17612
7.17553
7.17485
7.17407
7.1732
7.17221
7.17111
7.1699
7.16858
7.16715
7.1656
7.16393
7.16213
7.16017
7.15798
7.15549
7.15262
7.14931
7.14553
7.14126
7.13651
7.13127
7.12555
7.11935
7.18415
7.18407
7.18399
7.18391
7.18382
7.18373
7.18363
7.18353
7.18343
7.18332
7.18321
7.1831
7.18298
7.18286
7.18273
7.1826
7.18247
7.18233
7.18219
7.18205
7.1819
7.18175
7.18159
7.18143
7.18127
7.18111
7.18094
7.18078
7.18061
7.18044
7.18028
7.18011
7.17995
7.17978
7.17962
7.17946
7.17931
7.17915
7.179
7.17885
7.1787
7.17856
7.17841
7.17826
7.17811
7.17796
7.17781
7.17766
7.1775
7.17734
7.17719
7.17703
7.17686
7.1767
7.17654
7.17637
7.1762
7.17603
7.17586
7.17569
7.17551
7.17533
7.17514
7.17496
7.17476
7.17457
7.17436
7.17415
7.17394
7.17371
7.17348
7.17324
7.17299
7.17272
7.17245
7.17216
7.17185
7.17151
7.17114
7.17073
7.17027
7.16974
7.16916
7.1685
7.16778
7.16699
7.16613
7.16519
7.16418
7.16309
7.16191
7.16065
7.1593
7.15785
7.1563
7.15465
7.15289
7.15098
7.14889
7.14654
7.14386
7.14081
7.13734
7.13343
7.12907
7.12425
7.11895
7.11317
7.10691
7.10016
7.0929
7.0851
7.07662
7.06712
7.05615
7.04334
7.0285
7.01163
6.9928
6.97211
6.94967
6.92558
6.89994
6.87284
6.84416
7.18146
7.18117
7.18087
7.18055
7.18021
7.17986
7.17949
7.17911
7.17871
7.17829
7.17787
7.17742
7.17697
7.1765
7.17602
7.17553
7.17502
7.1745
7.17397
7.17342
7.17286
7.17228
7.1717
7.17111
7.17051
7.16991
7.1693
7.16869
7.16807
7.16746
7.16684
7.16623
7.16562
7.16502
7.16443
7.16384
7.16327
7.1627
7.16214
7.16159
7.16103
7.16048
7.15991
7.15934
7.15876
7.15817
7.15757
7.15695
7.15633
7.1557
7.15506
7.15442
7.15377
7.15311
7.15244
7.15177
7.15109
7.1504
7.1497
7.14899
7.14827
7.14753
7.14678
7.14601
7.14522
7.1444
7.14356
7.14269
7.14179
7.14086
7.13989
7.13888
7.13782
7.13671
7.13555
7.13432
7.13302
7.1316
7.13002
7.12825
7.12626
7.12403
7.12155
7.11881
7.1158
7.11252
7.10894
7.10507
7.10088
7.09637
7.09151
7.0863
7.08072
7.07476
7.0684
7.06162
7.05437
7.04657
7.03797
7.02823
7.01704
7.00418
6.98959
6.97327
6.95526
6.93558
6.91429
6.89142
6.86703
6.84114
6.81381
6.78493
6.75391
6.71929
6.67951
6.6339
6.58263
6.5263
6.46559
6.4012
6.33381
6.26406
6.19259
6.11975
6.04559
7.17119
7.17011
7.16896
7.16776
7.16651
7.16519
7.16383
7.16241
7.16095
7.15944
7.15788
7.15629
7.15464
7.15295
7.1512
7.14941
7.14755
7.14565
7.14368
7.14167
7.13961
7.1375
7.13535
7.13318
7.13097
7.12875
7.12652
7.12427
7.12204
7.1198
7.11758
7.11538
7.11321
7.11106
7.10895
7.10687
7.10483
7.10282
7.10083
7.09885
7.09685
7.09484
7.09279
7.09071
7.08859
7.08644
7.08426
7.08204
7.0798
7.07752
7.07522
7.07289
7.07053
7.06815
7.06573
7.06327
7.06078
7.05825
7.05568
7.05305
7.05037
7.04763
7.04482
7.04193
7.03895
7.03587
7.0327
7.0294
7.02598
7.02242
7.01871
7.01484
7.01078
7.00654
7.00208
6.99737
6.99235
6.98687
6.98074
6.97381
6.96597
6.95718
6.94744
6.93675
6.92511
6.91251
6.89894
6.88436
6.86876
6.8521
6.83438
6.81555
6.79561
6.77454
6.75231
6.7289
6.70423
6.67793
6.64905
6.61643
6.57937
6.53778
6.49191
6.44213
6.38879
6.33227
6.27294
6.21118
6.14737
6.08191
6.01503
5.94674
5.87619
5.79862
5.71031
5.61244
5.50835
5.40107
5.29291
5.18566
5.08056
4.97851
4.88004
4.78557
4.69446
7.13729
7.13359
7.12969
7.12558
7.12127
7.11676
7.11206
7.10718
7.10213
7.09694
7.0916
7.08613
7.08052
7.07478
7.06888
7.06282
7.0566
7.05023
7.04369
7.03702
7.03021
7.0233
7.01628
7.00919
7.00203
6.99482
6.98759
6.98035
6.97311
6.96591
6.95876
6.95168
6.94469
6.9378
6.93103
6.92438
6.91785
6.91144
6.90513
6.89886
6.89256
6.88617
6.87965
6.87299
6.86617
6.85921
6.85212
6.84492
6.83763
6.83025
6.8228
6.81528
6.80769
6.80004
6.79231
6.78449
6.77659
6.76859
6.76047
6.75222
6.74383
6.73526
6.72651
6.71754
6.70835
6.69889
6.68915
6.67909
6.66869
6.65792
6.64675
6.63514
6.62307
6.6105
6.59738
6.58369
6.56931
6.55402
6.5373
6.5186
6.49758
6.47415
6.44842
6.42047
6.39039
6.35823
6.32402
6.28782
6.24964
6.20954
6.16758
6.12382
6.07835
6.03124
5.9826
5.93252
5.88109
5.82819
5.7734
5.71422
5.6476
5.57341
5.49326
5.40903
5.32225
5.23408
5.1455
5.05734
4.97023
4.88469
4.8011
4.71979
4.64055
4.56192
4.47603
4.37875
4.27635
4.17432
4.0758
3.98262
3.89576
3.81555
3.74209
3.67527
3.61463
3.55979
7.01554
7.0031
6.99011
6.97659
6.96257
6.94808
6.93317
6.91787
6.90223
6.88629
6.87008
6.85361
6.83684
6.81973
6.80225
6.78438
6.76612
6.74749
6.72854
6.7093
6.68985
6.67025
6.65057
6.63087
6.61122
6.59167
6.57228
6.55311
6.5342
6.5156
6.49736
6.47951
6.46208
6.44508
6.42852
6.4124
6.39671
6.3814
6.36636
6.35137
6.33622
6.32083
6.30518
6.28927
6.27316
6.25689
6.2405
6.22401
6.20745
6.19083
6.17415
6.15742
6.14064
6.12379
6.10687
6.08985
6.07272
6.05544
6.038
6.02035
6.00246
5.9843
5.96582
5.94699
5.92777
5.90811
5.88798
5.86734
5.84613
5.82433
5.80188
5.77876
5.75492
5.73032
5.70494
5.6787
5.65146
5.6229
5.59179
5.55678
5.51768
5.47499
5.42934
5.38121
5.33096
5.27886
5.22515
5.17004
5.11376
5.0565
4.99848
4.93989
4.88094
4.82182
4.7627
4.70373
4.64509
4.5868
4.528
4.4652
4.39361
4.31641
4.23703
4.15779
4.08015
4.005
3.93303
3.86471
3.80028
3.73997
3.68385
3.63179
3.58367
3.53959
3.50009
3.46511
3.43376
3.4054
3.37969
3.35647
3.33568
3.31718
3.30081
3.28641
3.27373
3.26274
3.25335
3.24549
6.64971
6.61586
6.58106
6.54545
6.50919
6.47242
6.43531
6.39802
6.36069
6.32346
6.28642
6.24949
6.21253
6.1754
6.13809
6.10065
6.06316
6.02574
5.9885
5.95156
5.91502
5.87898
5.84352
5.80872
5.77464
5.74135
5.70891
5.67737
5.64678
5.61718
5.58861
5.56107
5.53454
5.50901
5.48443
5.46075
5.4379
5.41578
5.39414
5.37237
5.35018
5.32757
5.30462
5.28149
5.25829
5.23512
5.21206
5.18914
5.16639
5.14383
5.12146
5.09926
5.07723
5.05534
5.03355
5.01185
4.99018
4.96852
4.94682
4.92503
4.90313
4.88106
4.85879
4.83628
4.81349
4.79037
4.76691
4.74305
4.71878
4.69407
4.66888
4.64321
4.61703
4.59033
4.56308
4.5353
4.50688
4.47737
4.44511
4.40801
4.36724
4.32409
4.27939
4.23366
4.18725
4.14045
4.0935
4.04662
4.00006
3.95401
3.90868
3.86428
3.82095
3.77888
3.73819
3.69897
3.66134
3.62529
3.5909
3.5587
3.52907
3.50144
3.47554
3.45126
3.42845
3.40713
3.38738
3.36912
3.35234
3.33707
3.32321
3.31063
3.29935
3.28935
3.2806
3.27301
3.26622
3.25985
3.2537
3.24779
3.24228
3.23712
3.23213
3.22738
3.22304
3.21896
3.21529
3.21229
5.83927
5.77894
5.71905
5.65985
5.60155
5.54434
5.48839
5.43383
5.38078
5.32934
5.27948
5.2308
5.18279
5.1353
5.08839
5.04223
4.99697
4.9528
4.90983
4.86816
4.82788
4.78906
4.75171
4.71586
4.68151
4.64868
4.61733
4.58745
4.55903
4.53207
4.5065
4.48225
4.45925
4.4374
4.4166
4.39674
4.37775
4.3595
4.34166
4.3229
4.30336
4.28348
4.26355
4.24374
4.22416
4.20486
4.18588
4.16723
4.14891
4.1309
4.11318
4.09575
4.07856
4.06159
4.04482
4.0282
4.01172
3.99532
3.97899
3.96269
3.94639
3.93007
3.91371
3.89727
3.88075
3.86412
3.84737
3.8305
3.81349
3.79634
3.77905
3.76163
3.74409
3.72642
3.70866
3.69081
3.67286
3.65487
3.6371
3.61978
3.60272
3.58584
3.5691
3.55254
3.53618
3.52007
3.50425
3.48877
3.47366
3.45899
3.44479
3.43108
3.41793
3.40535
3.39332
3.38193
3.37114
3.36089
3.35129
3.34243
3.3342
3.32644
3.31904
3.31183
3.30468
3.29774
3.29107
3.28457
3.2783
3.27235
3.2667
3.26138
3.25633
3.25154
3.2474
3.24385
3.24053
3.23753
3.23475
3.23175
3.22886
3.22626
3.22324
3.22028
3.21765
3.21467
3.21172
3.20927
4.74023
4.67751
4.61722
4.55949
4.5044
4.45196
4.40217
4.35499
4.31038
4.26834
4.22863
4.19017
4.15203
4.11457
4.07815
4.04299
4.00925
3.97703
3.94638
3.91731
3.88983
3.86396
3.83966
3.81686
3.79555
3.77571
3.75724
3.74009
3.72424
3.70964
3.6962
3.6838
3.67235
3.66173
3.65186
3.64263
3.63398
3.62586
3.61823
3.61128
3.60489
3.59895
3.59339
3.58816
3.58322
3.57854
3.57407
3.56979
3.56567
3.56169
3.55781
3.55401
3.55027
3.54656
3.54287
3.53918
3.53546
3.5317
3.52789
3.52401
3.52005
3.516
3.51186
3.5076
3.50324
3.49875
3.49414
3.48941
3.48454
3.47955
3.47444
3.46921
3.46385
3.45839
3.45283
3.44717
3.4414
3.43558
3.42975
3.4239
3.41798
3.41194
3.40576
3.39945
3.39304
3.38656
3.38003
3.37349
3.36693
3.36043
3.35399
3.34758
3.34136
3.33526
3.32921
3.32347
3.3179
3.31234
3.30716
3.3023
3.29755
3.29329
3.28942
3.28539
3.2814
3.27771
3.27383
3.26988
3.26622
3.26228
3.25828
3.25469
3.25119
3.24714
3.2437
3.24072
3.23784
3.23474
3.23244
3.23028
3.22767
3.22524
3.22264
3.22063
3.21827
3.21555
3.213
3.21041
3.20808
3.76194
3.72232
3.68549
3.65143
3.62006
3.59129
3.56499
3.54107
3.51948
3.50016
3.48303
3.46805
3.45494
3.44342
3.43325
3.42427
3.41643
3.40963
3.40373
3.39867
3.39444
3.39094
3.38807
3.38579
3.38413
3.38302
3.38235
3.38224
3.38255
3.38326
3.38422
3.38534
3.38659
3.3879
3.38926
3.39067
3.39212
3.39361
3.39515
3.39675
3.39837
3.39998
3.40156
3.40309
3.40455
3.40593
3.40724
3.40845
3.40956
3.41056
3.41144
3.41219
3.4128
3.41326
3.41357
3.41372
3.4137
3.41351
3.41314
3.4126
3.41189
3.41099
3.40991
3.40865
3.40722
3.4056
3.40381
3.40185
3.39972
3.39742
3.39497
3.39235
3.38959
3.3867
3.38366
3.38049
3.37721
3.37385
3.37044
3.36697
3.36342
3.35974
3.35594
3.35202
3.34798
3.34386
3.33965
3.33533
3.33105
3.3267
3.3222
3.31795
3.31364
3.30907
3.30501
3.30097
3.29644
3.29265
3.28902
3.2848
3.28149
3.27876
3.27515
3.27192
3.26964
3.26649
3.26319
3.26084
3.258
3.25448
3.25128
3.24904
3.24596
3.24243
3.23931
3.23697
3.23443
3.23192
3.22953
3.22734
3.22498
3.22259
3.22055
3.21827
3.2159
3.21349
3.21109
3.20869
3.27023
3.26098
3.25319
3.24674
3.2415
3.23739
3.2343
3.23214
3.23094
3.23093
3.23151
3.23262
3.23411
3.23591
3.23793
3.24013
3.24253
3.24516
3.24789
3.25076
3.25378
3.25689
3.26005
3.2633
3.26668
3.27011
3.27352
3.27728
3.28137
3.28564
3.28996
3.29424
3.29846
3.3026
3.30662
3.31053
3.31432
3.31799
3.32154
3.32497
3.32829
3.33149
3.33456
3.33748
3.34027
3.3429
3.34538
3.34771
3.34989
3.35191
3.35377
3.35547
3.35701
3.35838
3.35958
3.3606
3.36145
3.36211
3.36259
3.36288
3.36299
3.36292
3.36265
3.3622
3.36158
3.36078
3.35981
3.35867
3.35737
3.35592
3.35431
3.35257
3.35068
3.34867
3.34654
3.3443
3.34195
3.33951
3.33702
3.33447
3.33187
3.32922
3.32649
3.32369
3.32081
3.31789
3.31487
3.31179
3.30876
3.30553
3.30229
3.29926
3.2959
3.2925
3.28958
3.28631
3.28273
3.28
3.27706
3.27325
3.27069
3.26828
3.26475
3.26212
3.26018
3.25712
3.25451
3.25276
3.2504
3.24749
3.24472
3.24262
3.24035
3.23725
3.23451
3.23201
3.22981
3.22746
3.22512
3.22303
3.22087
3.21865
3.21663
3.21455
3.21235
3.21012
3.20788
3.20558
3.11177
3.11422
3.11686
3.11966
3.12272
3.12611
3.12967
3.13355
3.13821
3.14331
3.14841
3.15339
3.15834
3.16339
3.16838
3.17336
3.17843
3.18279
3.18773
3.19226
3.19695
3.20104
3.20563
3.21025
3.21436
3.21877
3.22327
3.22757
3.23184
3.23621
3.24064
3.24509
3.24955
3.25397
3.25831
3.26255
3.26669
3.2707
3.27459
3.27836
3.282
3.2855
3.28887
3.29209
3.29515
3.29806
3.30081
3.30339
3.30581
3.30807
3.31015
3.31207
3.31381
3.31537
3.31676
3.31797
3.31899
3.31984
3.3205
3.32097
3.32127
3.32139
3.32133
3.3211
3.32069
3.32013
3.31943
3.31857
3.31758
3.31646
3.31522
3.31387
3.31241
3.31086
3.30922
3.3075
3.30571
3.30387
3.302
3.30009
3.29816
3.2962
3.2942
3.29216
3.29009
3.28795
3.2858
3.28364
3.28132
3.27908
3.2769
3.27436
3.27203
3.26992
3.26728
3.26479
3.26279
3.26039
3.25742
3.25543
3.2533
3.25015
3.24798
3.2462
3.24343
3.24131
3.23991
3.23781
3.2354
3.23308
3.23122
3.22937
3.22669
3.22438
3.22198
3.21982
3.21774
3.2156
3.21357
3.21157
3.2095
3.20754
3.20558
3.20348
3.20135
3.19925
3.19707
3.05107
3.05619
3.06093
3.06573
3.07078
3.07621
3.08081
3.08566
3.09058
3.09571
3.10119
3.1065
3.11221
3.11788
3.12406
3.12987
3.13478
3.14093
3.14686
3.15206
3.15708
3.1632
3.16873
3.17342
3.17898
3.18378
3.1883
3.19249
3.19672
3.20105
3.20541
3.20982
3.21427
3.21871
3.22308
3.22735
3.23152
3.23555
3.23943
3.24316
3.24673
3.25012
3.25335
3.2564
3.25926
3.26195
3.26446
3.26679
3.26894
3.27092
3.27273
3.27437
3.27584
3.27714
3.27828
3.27925
3.28006
3.28071
3.2812
3.28154
3.28172
3.28175
3.28165
3.28139
3.281
3.2805
3.27988
3.27915
3.27832
3.27739
3.27637
3.27526
3.27409
3.27285
3.27154
3.27018
3.26877
3.26734
3.26589
3.26444
3.26298
3.26151
3.26003
3.25853
3.25699
3.25548
3.25393
3.25227
3.25074
3.24917
3.24727
3.24571
3.24418
3.24202
3.24034
3.23888
3.23681
3.23469
3.23323
3.23154
3.22907
3.22751
3.22607
3.22382
3.2222
3.22116
3.2193
3.21747
3.21567
3.2143
3.21277
3.21064
3.20866
3.20664
3.20471
3.20298
3.20114
3.19926
3.19751
3.19564
3.19377
3.19205
3.19018
3.18823
3.18633
3.18436
3.18227
3.18015
3.00524
3.01204
3.01809
3.02421
3.03076
3.03729
3.04317
3.04874
3.05408
3.05957
3.06598
3.07186
3.07698
3.08369
3.09055
3.09606
3.10155
3.10806
3.11422
3.11928
3.12453
3.13051
3.13571