/*--------------------------------*- C++ -*----------------------------------*\
| =========                 |                                                 |
| \\      /  F ield         | OpenFOAM: The Open Source CFD Toolbox           |
|  \\    /   O peration     | Version:  v1706                                 |
|   \\  /    A nd           | Web:      www.OpenFOAM.com                      |
|    \\/     M anipulation  |                                                 |
\*---------------------------------------------------------------------------*/
FoamFile
{
    version     2.0;
    format      ascii;
    class       volVectorField;
    location    "3.9e-05";
    object      U;
}
// * * * * * * * * * * * * * * * * * * * * * * * * * * * * * * * * * * * * * //

dimensions      [0 1 -1 0 0 0 0];


internalField   nonuniform List<vector> 
29871
(
(1760 -6.58808e-11 6.8199e-15)
(1760 -6.50559e-11 2.53245e-15)
(1760 -6.45169e-11 3.05683e-15)
(1760 -6.44888e-11 4.11097e-15)
(1760 -6.47292e-11 1.89045e-15)
(1760 -6.52535e-11 2.32229e-15)
(1760 -6.54893e-11 3.09731e-15)
(1760 -6.57435e-11 3.35177e-15)
(1760 -6.58753e-11 3.85309e-15)
(1760 -6.59135e-11 3.7641e-15)
(1760 -6.59954e-11 3.83302e-15)
(1760 -6.63498e-11 5.62291e-15)
(1760 -6.61006e-11 4.50139e-15)
(1760 -6.60305e-11 4.956e-15)
(1760 -6.63829e-11 3.85312e-15)
(1760 -6.67235e-11 2.48227e-15)
(1760 -6.68069e-11 2.95709e-15)
(1760 -6.6469e-11 3.52097e-15)
(1760 -6.53645e-11 3.65416e-15)
(1760 -6.39687e-11 3.93107e-15)
(1760 -6.26663e-11 3.72934e-15)
(1760 -6.15713e-11 4.28362e-15)
(1760 -6.00149e-11 1.54447e-15)
(1760 -6.03676e-11 3.28359e-15)
(1760 -6.09477e-11 5.06925e-15)
(1760 -6.04207e-11 4.54362e-15)
(1760 -5.89423e-11 5.98305e-15)
(1760 -5.72153e-11 3.2538e-15)
(1760 -5.68035e-11 2.20758e-15)
(1760 -5.72778e-11 3.2299e-15)
(1760 -5.75708e-11 3.29352e-15)
(1760 -5.86506e-11 2.34697e-15)
(1760 -5.95086e-11 3.57665e-15)
(1760 -5.90162e-11 5.72054e-15)
(1760 -5.81622e-11 3.26537e-15)
(1760 -5.75332e-11 5.74369e-16)
(1760 -5.78854e-11 1.08748e-15)
(1760 -5.78912e-11 3.7062e-15)
(1760 -5.7691e-11 4.34038e-15)
(1760 -5.73403e-11 4.59941e-15)
(1760 -5.67869e-11 5.32323e-15)
(1760 -5.59553e-11 5.87332e-15)
(1760 -5.51433e-11 6.77716e-15)
(1760 -5.3313e-11 2.81913e-15)
(1760 -5.2488e-11 2.67023e-15)
(1760 -5.22189e-11 3.06152e-15)
(1760 -5.2408e-11 2.21002e-15)
(1760 -5.34253e-11 -3.17438e-16)
(1760 -5.40786e-11 1.70069e-15)
(1760 -5.41974e-11 5.11292e-15)
(1760 -5.43443e-11 3.97125e-15)
(1760 -5.4117e-11 1.54111e-15)
(1760 -5.37225e-11 3.09513e-15)
(1760 -5.36526e-11 4.39979e-15)
(1760 -5.3312e-11 3.97606e-15)
(1760 -5.30238e-11 4.18186e-15)
(1760 -5.25774e-11 4.66845e-15)
(1760 -5.15311e-11 5.27297e-15)
(1760 -5.0059e-11 4.49319e-15)
(1760 -4.98306e-11 3.57102e-15)
(1760 -5.11625e-11 1.78932e-15)
(1760 -5.23942e-11 1.31715e-15)
(1760 -5.29728e-11 1.44171e-15)
(1760 -5.36064e-11 9.93526e-18)
(1760 -5.50987e-11 3.5603e-15)
(1760 -5.74345e-11 4.85472e-15)
(1760 -5.94109e-11 3.03616e-15)
(1760 -6.04928e-11 1.97737e-15)
(1760 -6.10397e-11 1.56255e-15)
(1760 -6.13069e-11 1.88351e-15)
(1760 -5.97638e-11 3.30386e-15)
(1760 -5.96044e-11 3.80681e-15)
(1760 -5.93724e-11 1.71096e-15)
(1760 -5.92776e-11 2.29791e-15)
(1760 -5.9509e-11 2.41511e-15)
(1760 -6.00151e-11 3.79262e-15)
(1760 -5.9712e-11 1.40603e-15)
(1760 -6.01034e-11 2.29296e-15)
(1760 -6.05678e-11 2.14269e-15)
(1760 -6.12003e-11 4.20807e-15)
(1760 -6.29235e-11 5.47708e-15)
(1760 -6.50415e-11 3.8395e-15)
(1760 -6.73233e-11 3.75467e-15)
(1760 -6.86544e-11 3.40415e-15)
(1760 -6.93312e-11 5.10028e-15)
(1760 -7.055e-11 3.98865e-15)
(1760 -7.2023e-11 3.44951e-15)
(1760 -7.28794e-11 4.4096e-15)
(1760 -7.32953e-11 4.69399e-15)
(1760 -7.26814e-11 3.98445e-15)
(1760 -7.15038e-11 3.5557e-15)
(1760 -7.17318e-11 2.73415e-15)
(1760 -7.22488e-11 3.31254e-15)
(1760 -7.27378e-11 2.82022e-15)
(1760 -7.37686e-11 1.85888e-15)
(1760 -7.65679e-11 2.27459e-15)
(1760 -7.8931e-11 2.53605e-15)
(1760 -8.10181e-11 2.73171e-15)
(1760 -8.23297e-11 2.98368e-15)
(1760 -8.25468e-11 3.32488e-15)
(1760 -8.31092e-11 4.17156e-15)
(1760 -8.36318e-11 3.56645e-15)
(1760 -8.58205e-11 1.25682e-15)
(1760 -8.79911e-11 1.93238e-15)
(1760 -8.82694e-11 9.90142e-16)
(1760 -1.96961e-10 9.90272e-15)
(1760 -1.97571e-10 9.43808e-15)
(1760 -1.97054e-10 1.1973e-14)
(1760 -1.95016e-10 1.19693e-14)
(1760 -1.93637e-10 1.1181e-14)
(1760 -1.92272e-10 1.35296e-14)
(1760 -1.91909e-10 1.26963e-14)
(1760 -1.91104e-10 1.16871e-14)
(1760 -1.91893e-10 1.1717e-14)
(1760 -1.91955e-10 1.14175e-14)
(1760 -1.91038e-10 1.13457e-14)
(1760 -1.8991e-10 1.11367e-14)
(1760 -1.90025e-10 1.34681e-14)
(1760 -1.89394e-10 9.06384e-15)
(1760 -1.89361e-10 5.02899e-15)
(1760 -1.87703e-10 8.60134e-15)
(1760 -1.88647e-10 1.01986e-14)
(1760 -1.90062e-10 1.05e-14)
(1760 -1.93591e-10 9.47371e-15)
(1760 -1.97113e-10 7.91135e-15)
(1760 -1.98118e-10 8.78142e-15)
(1760 -2.0041e-10 1.03328e-14)
(1760 -1.99673e-10 1.1926e-14)
(1760 -1.97183e-10 1.23888e-14)
(1760 -1.9702e-10 1.0488e-14)
(1760 -1.97997e-10 1.14495e-14)
(1760 -1.99335e-10 1.25367e-14)
(1760 -2.01964e-10 1.10092e-14)
(1760 -2.00699e-10 1.12823e-14)
(1760 -1.9922e-10 1.08741e-14)
(1760 -1.9986e-10 1.38444e-14)
(1760 -1.97765e-10 6.78821e-15)
(1760 -1.99268e-10 8.59381e-15)
(1760 -2.02993e-10 1.41227e-14)
(1760 -2.06062e-10 1.35688e-14)
(1760 -2.06763e-10 1.23867e-14)
(1760 -2.07299e-10 1.03964e-14)
(1760 -2.09738e-10 1.23688e-14)
(1760 -2.12001e-10 1.18681e-14)
(1760 -2.13381e-10 1.17638e-14)
(1760 -2.14671e-10 1.17739e-14)
(1760 -2.14793e-10 1.12588e-14)
(1760 -2.15003e-10 1.14318e-14)
(1760 -2.1544e-10 1.07778e-14)
(1760 -2.15252e-10 1.04935e-14)
(1760 -2.13956e-10 1.13846e-14)
(1760 -2.12642e-10 1.28408e-14)
(1760 -2.11665e-10 7.0503e-15)
(1760 -2.10643e-10 1.01222e-14)
(1760 -2.10166e-10 8.90085e-15)
(1760 -2.10234e-10 6.82699e-15)
(1760 -2.11498e-10 1.04447e-14)
(1760 -2.11975e-10 1.09204e-14)
(1760 -2.11088e-10 9.16867e-15)
(1760 -2.10447e-10 9.50057e-15)
(1760 -2.09046e-10 9.78701e-15)
(1760 -2.08186e-10 1.10451e-14)
(1760 -2.08292e-10 1.21648e-14)
(1760 -2.08161e-10 6.47305e-15)
(1760 -2.05662e-10 6.98663e-15)
(1760 -2.02576e-10 9.20677e-15)
(1760 -2.0041e-10 6.86846e-15)
(1760 -1.98009e-10 7.84929e-15)
(1760 -1.9463e-10 6.66934e-15)
(1760 -1.92706e-10 7.88048e-15)
(1760 -1.89225e-10 8.84271e-15)
(1760 -1.87638e-10 5.635e-15)
(1760 -1.8658e-10 1.02723e-14)
(1760 -1.84408e-10 1.0313e-14)
(1760 -1.84549e-10 8.80796e-15)
(1760 -1.85422e-10 9.93681e-15)
(1760 -1.84859e-10 7.59432e-15)
(1760 -1.84718e-10 5.91421e-15)
(1760 -1.82925e-10 8.79911e-15)
(1760 -1.81176e-10 7.49069e-15)
(1760 -1.80518e-10 7.61204e-15)
(1760 -1.80676e-10 6.67568e-15)
(1760 -1.78724e-10 7.89541e-15)
(1760 -1.78282e-10 8.53744e-15)
(1760 -1.76434e-10 1.0035e-14)
(1760 -1.73086e-10 9.00252e-15)
(1760 -1.68634e-10 7.73317e-15)
(1760 -1.64578e-10 7.95804e-15)
(1760 -1.62153e-10 9.43027e-15)
(1760 -1.58768e-10 1.05709e-14)
(1760 -1.54952e-10 1.05349e-14)
(1760 -1.52079e-10 1.06758e-14)
(1760 -1.49636e-10 9.88503e-15)
(1760 -1.48282e-10 1.05874e-14)
(1760 -1.48304e-10 1.03001e-14)
(1760 -1.47243e-10 8.77544e-15)
(1760 -1.43965e-10 8.66624e-15)
(1760 -1.41482e-10 1.10263e-14)
(1760 -1.41101e-10 1.02841e-14)
(1760 -1.37774e-10 8.38607e-15)
(1760 -1.33981e-10 8.10736e-15)
(1760 -1.31807e-10 8.37416e-15)
(1760 -1.28385e-10 1.0344e-14)
(1760 -1.24524e-10 7.36156e-15)
(1760 -1.24198e-10 2.92459e-15)
(1760 -1.21027e-10 7.81006e-15)
(1760 -1.19083e-10 9.96953e-15)
(1760 -1.13855e-10 7.20404e-15)
(1760 -1.1144e-10 7.69092e-15)
(1760 -1.11609e-10 5.67129e-15)
(1760 -3.25214e-10 2.28311e-14)
(1760 -3.28079e-10 2.37293e-14)
(1760 -3.30699e-10 1.7117e-14)
(1760 -3.32936e-10 1.94585e-14)
(1760 -3.34759e-10 2.49294e-14)
(1760 -3.35634e-10 1.93541e-14)
(1760 -3.34838e-10 2.0172e-14)
(1760 -3.34031e-10 1.91521e-14)
(1760 -3.33223e-10 2.24729e-14)
(1760 -3.31834e-10 2.19569e-14)
(1760 -3.33012e-10 1.8672e-14)
(1760 -3.33834e-10 1.49381e-14)
(1760 -3.33593e-10 1.41256e-14)
(1760 -3.32087e-10 1.72634e-14)
(1760 -3.29925e-10 1.86471e-14)
(1760 -3.26357e-10 1.86938e-14)
(1760 -3.22088e-10 1.7402e-14)
(1760 -3.17957e-10 1.74567e-14)
(1760 -3.12666e-10 1.60122e-14)
(1760 -3.09864e-10 1.59934e-14)
(1760 -3.07666e-10 1.6797e-14)
(1760 -3.05948e-10 1.21635e-14)
(1760 -3.05549e-10 1.50325e-14)
(1760 -3.0398e-10 1.79944e-14)
(1760 -3.01842e-10 1.42716e-14)
(1760 -2.98219e-10 1.71348e-14)
(1760 -2.93624e-10 1.90191e-14)
(1760 -2.90178e-10 1.72949e-14)
(1760 -2.89883e-10 1.70355e-14)
(1760 -2.87402e-10 1.69865e-14)
(1760 -2.86274e-10 1.64985e-14)
(1760 -2.84108e-10 1.80255e-14)
(1760 -2.80753e-10 1.64156e-14)
(1760 -2.77799e-10 1.69213e-14)
(1760 -2.76588e-10 1.77266e-14)
(1760 -2.77417e-10 1.89069e-14)
(1760 -2.77665e-10 1.80128e-14)
(1760 -2.75797e-10 1.76839e-14)
(1760 -2.73727e-10 1.7446e-14)
(1760 -2.73293e-10 1.87118e-14)
(1760 -2.73439e-10 1.909e-14)
(1760 -2.75999e-10 1.61681e-14)
(1760 -2.78404e-10 1.64359e-14)
(1760 -2.8067e-10 1.61809e-14)
(1760 -2.82363e-10 1.69718e-14)
(1760 -2.83229e-10 1.70543e-14)
(1760 -2.83282e-10 1.87243e-14)
(1760 -2.80598e-10 1.78362e-14)
(1760 -2.78808e-10 1.55949e-14)
(1760 -2.76669e-10 1.45234e-14)
(1760 -2.74513e-10 1.38554e-14)
(1760 -2.72751e-10 1.60227e-14)
(1760 -2.72369e-10 1.47566e-14)
(1760 -2.74716e-10 1.29339e-14)
(1760 -2.77529e-10 1.32591e-14)
(1760 -2.80575e-10 1.69208e-14)
(1760 -2.82808e-10 1.47035e-14)
(1760 -2.85899e-10 1.81788e-14)
(1760 -2.85687e-10 1.90422e-14)
(1760 -2.87162e-10 1.53775e-14)
(1760 -2.8786e-10 1.47218e-14)
(1760 -2.88961e-10 1.24663e-14)
(1760 -2.90029e-10 1.5697e-14)
(1760 -2.91942e-10 1.81681e-14)
(1760 -2.95269e-10 1.38394e-14)
(1760 -2.98213e-10 1.43418e-14)
(1760 -2.99638e-10 1.47295e-14)
(1760 -3.00051e-10 1.46468e-14)
(1760 -2.99783e-10 1.60934e-14)
(1760 -3.00661e-10 1.61589e-14)
(1760 -3.02683e-10 1.48525e-14)
(1760 -3.0482e-10 1.74742e-14)
(1760 -3.09464e-10 1.40087e-14)
(1760 -3.13491e-10 1.56789e-14)
(1760 -3.18495e-10 1.48238e-14)
(1760 -3.19879e-10 1.34512e-14)
(1760 -3.18695e-10 1.56667e-14)
(1760 -3.16767e-10 1.66335e-14)
(1760 -3.15237e-10 1.41927e-14)
(1760 -3.14521e-10 1.27902e-14)
(1760 -3.18726e-10 1.58628e-14)
(1760 -3.23286e-10 1.52734e-14)
(1760 -3.28199e-10 1.61167e-14)
(1760 -3.2808e-10 1.37098e-14)
(1760 -3.30924e-10 1.71239e-14)
(1760 -3.35546e-10 1.84233e-14)
(1760 -3.3784e-10 1.58892e-14)
(1760 -3.42019e-10 1.33341e-14)
(1760 -3.45918e-10 1.76405e-14)
(1760 -3.4813e-10 1.59022e-14)
(1760 -3.51192e-10 1.66417e-14)
(1760 -3.55127e-10 1.53992e-14)
(1760 -3.56672e-10 1.4094e-14)
(1760 -3.59222e-10 1.61773e-14)
(1760 -3.60989e-10 1.69068e-14)
(1760 -3.61212e-10 1.63353e-14)
(1760 -3.63589e-10 1.34263e-14)
(1760 -3.65541e-10 1.61945e-14)
(1760 -3.69526e-10 1.59705e-14)
(1760 -3.73313e-10 1.43237e-14)
(1760 -3.78119e-10 1.32802e-14)
(1760 -3.81422e-10 1.47176e-14)
(1760 -3.83548e-10 1.41357e-14)
(1760 -3.86691e-10 1.34254e-14)
(1760 -3.90054e-10 1.40153e-14)
(1760 -3.91697e-10 1.33998e-14)
(1760 -4.42745e-10 3.00358e-14)
(1760 -4.40822e-10 3.32365e-14)
(1760 -4.37321e-10 2.6998e-14)
(1760 -4.36179e-10 2.72737e-14)
(1760 -4.34631e-10 2.81514e-14)
(1760 -4.34466e-10 2.57521e-14)
(1760 -4.32732e-10 2.91194e-14)
(1760 -4.30087e-10 2.82727e-14)
(1760 -4.28634e-10 2.41193e-14)
(1760 -4.28773e-10 2.33719e-14)
(1760 -4.29886e-10 2.69223e-14)
(1760 -4.32931e-10 2.56233e-14)
(1760 -4.37641e-10 2.54579e-14)
(1760 -4.44275e-10 2.50949e-14)
(1760 -4.50398e-10 2.62773e-14)
(1760 -4.59239e-10 2.43563e-14)
(1760 -4.65246e-10 2.44755e-14)
(1760 -4.69168e-10 2.52081e-14)
(1760 -4.75354e-10 2.48845e-14)
(1760 -4.78966e-10 2.47645e-14)
(1760 -4.83352e-10 2.4057e-14)
(1760 -4.87097e-10 2.65262e-14)
(1760 -4.91557e-10 2.78438e-14)
(1760 -4.95104e-10 2.59658e-14)
(1760 -4.99828e-10 2.45158e-14)
(1760 -5.04134e-10 2.53061e-14)
(1760 -5.06857e-10 2.75366e-14)
(1760 -5.08847e-10 2.53524e-14)
(1760 -5.11609e-10 2.07156e-14)
(1760 -5.12617e-10 2.58525e-14)
(1760 -5.12458e-10 2.58326e-14)
(1760 -5.13053e-10 2.64904e-14)
(1760 -5.1153e-10 2.48219e-14)
(1760 -5.10506e-10 2.74115e-14)
(1760 -5.09136e-10 2.7174e-14)
(1760 -5.09142e-10 2.61776e-14)
(1760 -5.11111e-10 2.85076e-14)
(1760 -5.14558e-10 2.48929e-14)
(1760 -5.16242e-10 2.57325e-14)
(1760 -5.15019e-10 2.27841e-14)
(1760 -5.14266e-10 2.48045e-14)
(1760 -5.14875e-10 2.70472e-14)
(1760 -5.15198e-10 2.38107e-14)
(1760 -5.1725e-10 2.65196e-14)
(1760 -5.18622e-10 2.60658e-14)
(1760 -5.20396e-10 2.39442e-14)
(1760 -5.21872e-10 2.32535e-14)
(1760 -5.2291e-10 2.39564e-14)
(1760 -5.21356e-10 2.70662e-14)
(1760 -5.19981e-10 2.38737e-14)
(1760 -5.17753e-10 2.13203e-14)
(1760 -5.15332e-10 2.10666e-14)
(1760 -5.10629e-10 2.21279e-14)
(1760 -5.08185e-10 2.45209e-14)
(1760 -5.05996e-10 2.05972e-14)
(1760 -5.02713e-10 1.99726e-14)
(1760 -5.00823e-10 2.30414e-14)
(1760 -4.9967e-10 2.47391e-14)
(1760 -4.98909e-10 2.16692e-14)
(1760 -4.96965e-10 2.24748e-14)
(1760 -4.95019e-10 2.35239e-14)
(1760 -4.91787e-10 2.039e-14)
(1760 -4.90119e-10 2.02063e-14)
(1760 -4.85037e-10 2.00709e-14)
(1760 -4.75533e-10 2.00481e-14)
(1760 -4.60841e-10 2.0388e-14)
(1760 -4.44471e-10 2.02074e-14)
(1760 -4.39307e-10 2.00928e-14)
(1760 -4.40468e-10 2.01066e-14)
(1760 -4.45981e-10 2.02943e-14)
(1760 -4.47683e-10 2.16387e-14)
(1760 -4.44968e-10 2.15872e-14)
(1760 -4.39801e-10 2.15944e-14)
(1760 -4.28534e-10 2.23639e-14)
(1760 -4.16102e-10 1.89679e-14)
(1760 -4.12457e-10 1.97036e-14)
(1760 -4.15373e-10 2.1236e-14)
(1760 -4.22116e-10 2.14311e-14)
(1760 -4.28161e-10 2.17132e-14)
(1760 -4.26293e-10 2.3504e-14)
(1760 -4.21005e-10 2.26726e-14)
(1760 -4.02997e-10 1.99169e-14)
(1760 -3.83659e-10 1.77531e-14)
(1760 -3.67158e-10 1.82428e-14)
(1760 -3.58331e-10 2.01555e-14)
(1760 -3.50466e-10 1.56689e-14)
(1760 -3.42268e-10 1.77487e-14)
(1760 -3.31417e-10 2.24285e-14)
(1760 -3.21248e-10 2.13651e-14)
(1760 -3.13135e-10 1.84338e-14)
(1760 -3.06855e-10 1.90447e-14)
(1760 -3.01725e-10 1.90791e-14)
(1760 -2.97834e-10 1.9528e-14)
(1760 -2.95264e-10 2.2601e-14)
(1760 -2.9121e-10 1.87132e-14)
(1760 -2.85534e-10 1.78584e-14)
(1760 -2.79322e-10 2.24363e-14)
(1760 -2.69828e-10 2.43689e-14)
(1760 -2.5932e-10 1.90935e-14)
(1760 -2.49424e-10 2.12505e-14)
(1760 -2.36072e-10 2.12583e-14)
(1760 -2.25442e-10 1.98593e-14)
(1760 -2.191e-10 2.09485e-14)
(1760 -2.09649e-10 2.05387e-14)
(1760 -1.98699e-10 1.83764e-14)
(1760 -1.80973e-10 1.88039e-14)
(1760 -6.1395e-10 3.6788e-14)
(1760 -6.17152e-10 3.76578e-14)
(1760 -6.18883e-10 3.77533e-14)
(1760 -6.21836e-10 3.7086e-14)
(1760 -6.24891e-10 3.89475e-14)
(1760 -6.26197e-10 3.81101e-14)
(1760 -6.28877e-10 3.57781e-14)
(1760 -6.30117e-10 3.83137e-14)
(1760 -6.29602e-10 3.91995e-14)
(1760 -6.2617e-10 3.89805e-14)
(1760 -6.19772e-10 3.58837e-14)
(1760 -6.09378e-10 3.48599e-14)
(1760 -5.96129e-10 3.57614e-14)
(1760 -5.82928e-10 3.28228e-14)
(1760 -5.65063e-10 3.15081e-14)
(1760 -5.51682e-10 3.61494e-14)
(1760 -5.38137e-10 3.31725e-14)
(1760 -5.22279e-10 3.656e-14)
(1760 -5.09205e-10 3.57786e-14)
(1760 -4.99628e-10 3.25874e-14)
(1760 -4.88889e-10 3.21189e-14)
(1760 -4.79735e-10 3.16304e-14)
(1760 -4.73388e-10 3.27184e-14)
(1760 -4.66707e-10 3.61534e-14)
(1760 -4.57809e-10 3.4001e-14)
(1760 -4.48454e-10 3.23825e-14)
(1760 -4.39102e-10 3.33484e-14)
(1760 -4.32402e-10 2.88752e-14)
(1760 -4.23352e-10 2.78839e-14)
(1760 -4.15976e-10 3.00699e-14)
(1760 -4.12755e-10 3.06363e-14)
(1760 -4.06449e-10 3.0769e-14)
(1760 -3.98877e-10 3.07861e-14)
(1760 -3.93266e-10 3.0355e-14)
(1760 -3.83434e-10 3.08651e-14)
(1760 -3.77405e-10 3.06804e-14)
(1760 -3.70729e-10 3.21952e-14)
(1760 -3.66977e-10 3.41717e-14)
(1760 -3.63673e-10 2.84483e-14)
(1760 -3.63273e-10 2.77562e-14)
(1760 -3.62691e-10 3.23667e-14)
(1760 -3.59853e-10 3.28188e-14)
(1760 -3.60532e-10 3.09907e-14)
(1760 -3.64683e-10 2.97274e-14)
(1760 -3.72532e-10 3.27524e-14)
(1760 -3.79697e-10 3.28247e-14)
(1760 -3.85223e-10 3.21505e-14)
(1760 -3.92096e-10 3.23986e-14)
(1760 -3.97141e-10 2.97768e-14)
(1760 -4.00972e-10 3.00997e-14)
(1760 -4.02295e-10 2.822e-14)
(1760 -4.03696e-10 2.70533e-14)
(1760 -4.04371e-10 2.7098e-14)
(1760 -4.07803e-10 3.13372e-14)
(1760 -4.10058e-10 3.14551e-14)
(1760 -4.13659e-10 2.90841e-14)
(1760 -4.17934e-10 2.86427e-14)
(1760 -4.22837e-10 2.98845e-14)
(1760 -4.28176e-10 3.0108e-14)
(1760 -4.31476e-10 2.78734e-14)
(1760 -4.36561e-10 2.7568e-14)
(1760 -4.43939e-10 3.01723e-14)
(1760 -4.53701e-10 2.78333e-14)
(1760 -4.62822e-10 2.77489e-14)
(1760 -4.65541e-10 2.87024e-14)
(1760 -4.72177e-10 2.80773e-14)
(1760 -4.93724e-10 2.49491e-14)
(1760 -5.28222e-10 2.46703e-14)
(1760 -5.55055e-10 2.46376e-14)
(1760 -5.58694e-10 2.61478e-14)
(1760 -5.44349e-10 2.59656e-14)
(1760 -5.10345e-10 2.57308e-14)
(1760 -4.75876e-10 2.85423e-14)
(1760 -4.66117e-10 2.66747e-14)
(1760 -4.79051e-10 2.54136e-14)
(1760 -5.11142e-10 2.71319e-14)
(1760 -5.50954e-10 2.70032e-14)
(1760 -5.72796e-10 2.73911e-14)
(1760 -5.71026e-10 2.74338e-14)
(1760 -5.52016e-10 2.77146e-14)
(1760 -5.28306e-10 2.91124e-14)
(1760 -5.19211e-10 2.86449e-14)
(1760 -5.31656e-10 2.67175e-14)
(1760 -5.7732e-10 2.36207e-14)
(1760 -6.22575e-10 2.61318e-14)
(1760 -6.41185e-10 2.81735e-14)
(1760 -6.48893e-10 2.65379e-14)
(1760 -6.55728e-10 2.6642e-14)
(1760 -6.64054e-10 2.76554e-14)
(1760 -6.72845e-10 2.60904e-14)
(1760 -6.80639e-10 2.59716e-14)
(1760 -6.83636e-10 2.91773e-14)
(1760 -6.88441e-10 2.62782e-14)
(1760 -6.9444e-10 2.51555e-14)
(1760 -6.97122e-10 2.644e-14)
(1760 -7.03546e-10 2.39788e-14)
(1760 -7.16853e-10 2.52735e-14)
(1760 -7.25361e-10 2.59966e-14)
(1760 -7.35581e-10 2.36501e-14)
(1760 -7.44934e-10 2.50069e-14)
(1760 -7.55087e-10 2.62071e-14)
(1760 -7.59867e-10 2.27763e-14)
(1760 -7.65635e-10 2.50713e-14)
(1760 -7.73969e-10 2.73968e-14)
(1760 -7.86481e-10 2.59507e-14)
(1760 -8.05531e-10 2.56449e-14)
(1760 -8.20453e-10 2.76405e-14)
(1760 -6.10969e-10 4.47751e-14)
(1760 -5.97029e-10 4.30168e-14)
(1760 -5.86581e-10 4.38976e-14)
(1760 -5.76023e-10 4.19171e-14)
(1760 -5.67691e-10 4.31619e-14)
(1760 -5.63144e-10 4.38814e-14)
(1760 -5.63343e-10 4.73768e-14)
(1760 -5.6766e-10 4.54068e-14)
(1760 -5.77287e-10 4.48858e-14)
(1760 -5.95366e-10 4.55561e-14)
(1760 -6.25138e-10 4.24481e-14)
(1760 -6.57881e-10 4.46291e-14)
(1760 -6.9058e-10 4.67583e-14)
(1760 -7.20783e-10 4.24039e-14)
(1760 -7.34928e-10 4.63445e-14)
(1760 -7.57116e-10 4.44573e-14)
(1760 -7.70917e-10 4.10182e-14)
(1760 -7.85373e-10 4.20831e-14)
(1760 -7.92634e-10 4.16281e-14)
(1760 -7.98601e-10 4.16502e-14)
(1760 -8.08556e-10 4.14713e-14)
(1760 -8.1716e-10 4.19621e-14)
(1760 -8.24836e-10 4.38007e-14)
(1760 -8.33128e-10 4.32179e-14)
(1760 -8.4201e-10 3.69359e-14)
(1760 -8.51364e-10 3.7909e-14)
(1760 -8.61078e-10 3.78113e-14)
(1760 -8.66618e-10 3.62958e-14)
(1760 -8.6927e-10 3.98655e-14)
(1760 -8.72876e-10 3.91007e-14)
(1760 -8.76445e-10 3.93886e-14)
(1760 -8.79557e-10 3.97965e-14)
(1760 -8.81218e-10 4.04533e-14)
(1760 -8.88027e-10 3.95707e-14)
(1760 -8.93028e-10 4.16844e-14)
(1760 -8.98082e-10 4.11054e-14)
(1760 -8.99494e-10 4.04933e-14)
(1760 -9.02005e-10 3.79611e-14)
(1760 -9.01437e-10 3.70519e-14)
(1760 -9.01846e-10 3.93699e-14)
(1760 -9.01905e-10 3.88668e-14)
(1760 -8.99567e-10 3.84515e-14)
(1760 -8.92829e-10 3.85022e-14)
(1760 -8.85782e-10 3.72312e-14)
(1760 -8.86206e-10 4.02349e-14)
(1760 -8.87032e-10 3.94055e-14)
(1760 -8.86942e-10 3.81507e-14)
(1760 -8.83323e-10 3.78526e-14)
(1760 -8.80302e-10 3.65609e-14)
(1760 -8.66214e-10 3.89303e-14)
(1760 -8.59418e-10 3.7586e-14)
(1760 -8.5104e-10 3.43585e-14)
(1760 -8.40918e-10 3.5638e-14)
(1760 -8.29673e-10 3.93179e-14)
(1760 -8.16666e-10 4.19289e-14)
(1760 -8.13576e-10 4.08608e-14)
(1760 -8.10902e-10 3.91606e-14)
(1760 -8.05391e-10 3.46611e-14)
(1760 -8.00813e-10 3.44753e-14)
(1760 -7.96772e-10 3.57935e-14)
(1760 -7.95459e-10 3.58321e-14)
(1760 -7.90684e-10 3.47189e-14)
(1760 -7.79283e-10 3.57988e-14)
(1760 -7.71834e-10 3.70362e-14)
(1760 -7.87454e-10 3.31465e-14)
(1760 -8.0014e-10 3.42042e-14)
(1760 -7.82069e-10 3.99424e-14)
(1760 -7.38033e-10 3.61755e-14)
(1760 -5.8977e-10 3.23148e-14)
(1760 -3.3394e-10 3.69093e-14)
(1760 -2.79124e-10 3.61027e-14)
(1760 -3.48902e-10 3.36773e-14)
(1760 -5.36122e-10 3.37592e-14)
(1760 -7.08976e-10 3.516e-14)
(1760 -7.34436e-10 3.47412e-14)
(1760 -7.09948e-10 3.45782e-14)
(1760 -6.09821e-10 3.52333e-14)
(1760 -3.54681e-10 3.66386e-14)
(1760 -1.94767e-10 3.58249e-14)
(1760 -2.24745e-10 3.38471e-14)
(1760 -3.49594e-10 3.22339e-14)
(1760 -5.55537e-10 3.48301e-14)
(1760 -6.00981e-10 3.59554e-14)
(1760 -5.49018e-10 3.5156e-14)
(1760 -3.52262e-10 3.48875e-14)
(1760 -6.68543e-11 3.42299e-14)
(1760 2.81236e-11 3.47393e-14)
(1760 4.71995e-11 3.57982e-14)
(1760 7.03853e-11 3.61653e-14)
(1760 9.89164e-11 3.46227e-14)
(1760 1.25018e-10 3.54366e-14)
(1760 1.4825e-10 3.37313e-14)
(1760 1.76882e-10 3.38556e-14)
(1760 2.06381e-10 3.59709e-14)
(1760 2.38966e-10 3.59849e-14)
(1760 2.78978e-10 3.3225e-14)
(1760 3.18723e-10 3.29152e-14)
(1760 3.49329e-10 3.47145e-14)
(1760 3.94064e-10 3.2505e-14)
(1760 4.47606e-10 3.33237e-14)
(1760 4.96773e-10 3.5496e-14)
(1760 5.55721e-10 3.4352e-14)
(1760 6.29409e-10 3.57909e-14)
(1760 7.14606e-10 3.42993e-14)
(1760 7.96611e-10 3.281e-14)
(1760 8.78018e-10 3.21798e-14)
(1760 9.69771e-10 3.5538e-14)
(1760 -9.08759e-10 5.31653e-14)
(1760 -9.12558e-10 5.33999e-14)
(1760 -9.16728e-10 5.59243e-14)
(1760 -9.22159e-10 4.94501e-14)
(1760 -9.21675e-10 5.02817e-14)
(1760 -9.19368e-10 5.07037e-14)
(1760 -9.16106e-10 5.17837e-14)
(1760 -9.0583e-10 5.45551e-14)
(1760 -8.86751e-10 5.40316e-14)
(1760 -8.62158e-10 5.40428e-14)
(1760 -8.22017e-10 4.91672e-14)
(1760 -7.59658e-10 5.14372e-14)
(1760 -6.46677e-10 5.55231e-14)
(1760 -4.37049e-10 5.30427e-14)
(1760 -2.58178e-10 5.13997e-14)
(1760 -1.01426e-10 5.30107e-14)
(1760 -7.68808e-12 5.31636e-14)
(1760 6.65564e-11 5.40701e-14)
(1760 1.30947e-10 5.39918e-14)
(1760 1.95161e-10 5.37131e-14)
(1760 2.53995e-10 5.2736e-14)
(1760 3.09515e-10 5.2796e-14)
(1760 3.65642e-10 5.24441e-14)
(1760 4.24452e-10 5.1066e-14)
(1760 4.8424e-10 5.13138e-14)
(1760 5.38638e-10 5.40137e-14)
(1760 5.92456e-10 5.36188e-14)
(1760 6.45852e-10 5.28668e-14)
(1760 6.97237e-10 5.34335e-14)
(1760 7.48283e-10 5.2056e-14)
(1760 8.02773e-10 5.04169e-14)
(1760 8.55346e-10 4.98889e-14)
(1760 9.04429e-10 5.24074e-14)
(1760 9.53236e-10 5.3411e-14)
(1760 1.00564e-09 5.15197e-14)
(1760 1.0617e-09 4.94539e-14)
(1760 1.11222e-09 4.72721e-14)
(1760 1.16214e-09 4.86243e-14)
(1760 1.20908e-09 4.88755e-14)
(1760 1.25599e-09 4.93212e-14)
(1760 1.30072e-09 4.97262e-14)
(1760 1.34573e-09 4.98775e-14)
(1760 1.3913e-09 4.79101e-14)
(1760 1.41023e-09 4.78511e-14)
(1760 1.41826e-09 4.97558e-14)
(1760 1.41083e-09 4.96211e-14)
(1760 1.41893e-09 4.89848e-14)
(1760 1.43314e-09 4.9647e-14)
(1760 1.47838e-09 5.03394e-14)
(1760 1.51715e-09 4.95466e-14)
(1760 1.54097e-09 4.74449e-14)
(1760 1.56053e-09 4.69432e-14)
(1760 1.577e-09 4.77178e-14)
(1760 1.58102e-09 4.61513e-14)
(1760 1.58228e-09 5.0658e-14)
(1760 1.58178e-09 4.54166e-14)
(1760 1.58846e-09 4.31009e-14)
(1760 1.60211e-09 4.8617e-14)
(1760 1.62369e-09 4.75175e-14)
(1760 1.6383e-09 4.46825e-14)
(1760 1.65102e-09 4.53151e-14)
(1760 1.65321e-09 4.70894e-14)
(1760 1.66117e-09 4.34419e-14)
(1760 1.6832e-09 4.44119e-14)
(1760 1.69298e-09 4.42937e-14)
(1760 1.69055e-09 4.43342e-14)
(1760 1.7046e-09 4.78105e-14)
(1760 1.75737e-09 4.55458e-14)
(1760 1.86174e-09 4.5547e-14)
(1760 1.91621e-09 4.66046e-14)
(1760 1.8793e-09 4.40715e-14)
(1760 1.79062e-09 4.37052e-14)
(1760 1.52163e-09 4.17321e-14)
(1760 1.37698e-09 4.21271e-14)
(1760 1.45243e-09 4.29427e-14)
(1760 1.60084e-09 4.25721e-14)
(1760 1.8747e-09 4.37137e-14)
(1760 2.04984e-09 4.41597e-14)
(1760 2.091e-09 4.19776e-14)
(1760 2.03265e-09 4.24391e-14)
(1760 1.83316e-09 4.15524e-14)
(1760 1.59109e-09 4.11658e-14)
(1760 1.61945e-09 3.97049e-14)
(1760 1.75935e-09 3.95766e-14)
(1760 2.03179e-09 4.25497e-14)
(1760 2.28961e-09 4.21144e-14)
(1760 2.34438e-09 4.2555e-14)
(1760 2.28626e-09 4.1585e-14)
(1760 2.14187e-09 3.93263e-14)
(1760 2.12957e-09 3.89927e-14)
(1760 2.19053e-09 3.96094e-14)
(1760 2.25883e-09 4.09016e-14)
(1760 2.3383e-09 4.12094e-14)
(1760 2.42916e-09 3.81117e-14)
(1760 2.52435e-09 3.89403e-14)
(1760 2.6291e-09 4.20838e-14)
(1760 2.74696e-09 4.02734e-14)
(1760 2.8727e-09 4.19428e-14)
(1760 3.02016e-09 4.01347e-14)
(1760 3.184e-09 3.85255e-14)
(1760 3.35165e-09 3.86109e-14)
(1760 3.54883e-09 3.84427e-14)
(1760 3.76417e-09 4.07532e-14)
(1760 3.99109e-09 3.8984e-14)
(1760 4.24229e-09 4.09743e-14)
(1760 4.52353e-09 4.0343e-14)
(1760 4.8381e-09 3.967e-14)
(1760 5.16995e-09 3.88943e-14)
(1760 5.51583e-09 3.66611e-14)
(1760 5.89072e-09 3.91303e-14)
(1760 5.93579e-10 6.23536e-14)
(1760 7.25388e-10 6.40366e-14)
(1760 8.6839e-10 6.51249e-14)
(1760 1.01707e-09 6.16061e-14)
(1760 1.17051e-09 6.40054e-14)
(1760 1.33492e-09 6.50672e-14)
(1760 1.50554e-09 6.4752e-14)
(1760 1.68028e-09 6.2383e-14)
(1760 1.84315e-09 6.47884e-14)
(1760 1.95461e-09 6.4673e-14)
(1760 2.03852e-09 6.14818e-14)
(1760 2.10665e-09 6.41646e-14)
(1760 2.14786e-09 6.42245e-14)
(1760 2.05346e-09 6.12306e-14)
(1760 2.13974e-09 5.77762e-14)
(1760 2.26819e-09 5.96313e-14)
(1760 2.45941e-09 6.34568e-14)
(1760 2.66754e-09 6.24308e-14)
(1760 2.86804e-09 6.12645e-14)
(1760 3.05753e-09 5.85027e-14)
(1760 3.23757e-09 5.99631e-14)
(1760 3.40857e-09 5.94913e-14)
(1760 3.57827e-09 6.14833e-14)
(1760 3.75431e-09 6.27194e-14)
(1760 3.93706e-09 5.9625e-14)
(1760 4.12178e-09 5.93058e-14)
(1760 4.30635e-09 6.13935e-14)
(1760 4.49134e-09 6.19145e-14)
(1760 4.67882e-09 5.98507e-14)
(1760 4.87074e-09 5.56012e-14)
(1760 5.06146e-09 5.46316e-14)
(1760 5.24572e-09 5.91075e-14)
(1760 5.42473e-09 5.89826e-14)
(1760 5.59873e-09 5.50236e-14)
(1760 5.77033e-09 5.54017e-14)
(1760 5.94467e-09 5.73134e-14)
(1760 6.11271e-09 5.57778e-14)
(1760 6.27244e-09 5.5588e-14)
(1760 6.42464e-09 5.49025e-14)
(1760 6.57217e-09 5.71013e-14)
(1760 6.71426e-09 5.65638e-14)
(1760 6.85245e-09 5.54724e-14)
(1760 6.98331e-09 5.46828e-14)
(1760 7.11709e-09 5.56541e-14)
(1760 7.23759e-09 5.50823e-14)
(1760 7.348e-09 5.4903e-14)
(1760 7.44797e-09 5.6836e-14)
(1760 7.51001e-09 5.68702e-14)
(1760 7.57568e-09 5.37696e-14)
(1760 7.64712e-09 5.43045e-14)
(1760 7.71965e-09 5.37526e-14)
(1760 7.79441e-09 5.4375e-14)
(1760 7.8634e-09 5.24449e-14)
(1760 7.92999e-09 5.38123e-14)
(1760 7.98734e-09 5.51948e-14)
(1760 8.0365e-09 5.20488e-14)
(1760 8.08813e-09 5.32844e-14)
(1760 8.13802e-09 5.18651e-14)
(1760 8.18294e-09 5.37329e-14)
(1760 8.22841e-09 5.38771e-14)
(1760 8.27913e-09 5.21524e-14)
(1760 8.33623e-09 5.28804e-14)
(1760 8.39827e-09 5.16761e-14)
(1760 8.43857e-09 5.08451e-14)
(1760 8.47004e-09 4.8716e-14)
(1760 8.53864e-09 5.26569e-14)
(1760 8.6297e-09 5.27382e-14)
(1760 8.66001e-09 4.87527e-14)
(1760 8.63338e-09 5.22121e-14)
(1760 8.60833e-09 5.24142e-14)
(1760 8.5674e-09 5.00386e-14)
(1760 8.59923e-09 4.86509e-14)
(1760 8.81836e-09 4.92179e-14)
(1760 9.00618e-09 5.12088e-14)
(1760 9.21716e-09 4.81784e-14)
(1760 9.35686e-09 4.84438e-14)
(1760 9.40081e-09 4.98904e-14)
(1760 9.40519e-09 4.86275e-14)
(1760 9.38533e-09 4.77359e-14)
(1760 9.44241e-09 4.71276e-14)
(1760 9.7338e-09 4.57899e-14)
(1760 1.01157e-08 4.63589e-14)
(1760 1.04965e-08 4.78936e-14)
(1760 1.08485e-08 4.7253e-14)
(1760 1.10541e-08 4.8526e-14)
(1760 1.11456e-08 4.87149e-14)
(1760 1.13041e-08 4.7867e-14)
(1760 1.16243e-08 4.37999e-14)
(1760 1.2056e-08 4.47414e-14)
(1760 1.24643e-08 4.53868e-14)
(1760 1.28585e-08 4.65031e-14)
(1760 1.32837e-08 4.54875e-14)
(1760 1.37449e-08 4.75905e-14)
(1760 1.42628e-08 4.51489e-14)
(1760 1.48242e-08 4.56937e-14)
(1760 1.54333e-08 4.58326e-14)
(1760 1.60859e-08 4.6432e-14)
(1760 1.67855e-08 4.66763e-14)
(1760 1.75436e-08 4.38389e-14)
(1760 1.83548e-08 4.591e-14)
(1760 1.92154e-08 4.60779e-14)
(1760 2.01524e-08 4.49371e-14)
(1760 2.11792e-08 4.46013e-14)
(1760 2.23062e-08 4.32359e-14)
(1760 2.35559e-08 4.52398e-14)
(1760 2.49623e-08 4.38519e-14)
(1760 2.65355e-08 4.45667e-14)
(1760 2.82912e-08 4.44818e-14)
(1760 3.02424e-08 4.43466e-14)
(1760 3.24369e-08 4.27962e-14)
(1760 4.93239e-09 7.23581e-14)
(1760 5.39134e-09 7.14117e-14)
(1760 5.8602e-09 7.1279e-14)
(1760 6.33781e-09 7.17872e-14)
(1760 6.82742e-09 7.35975e-14)
(1760 7.34624e-09 7.12222e-14)
(1760 7.8928e-09 7.01059e-14)
(1760 8.45582e-09 7.18242e-14)
(1760 9.0558e-09 7.38841e-14)
(1760 9.71375e-09 7.28028e-14)
(1760 1.04033e-08 7.19276e-14)
(1760 1.11097e-08 7.02162e-14)
(1760 1.18481e-08 7.12829e-14)
(1760 1.25016e-08 6.95313e-14)
(1760 1.32085e-08 6.93212e-14)
(1760 1.38865e-08 7.04745e-14)
(1760 1.46038e-08 7.04916e-14)
(1760 1.53805e-08 7.00386e-14)
(1760 1.62017e-08 6.83913e-14)
(1760 1.70599e-08 6.84274e-14)
(1760 1.79355e-08 7.16492e-14)
(1760 1.88048e-08 6.83325e-14)
(1760 1.966e-08 6.89849e-14)
(1760 2.04933e-08 6.86285e-14)
(1760 2.12942e-08 6.83494e-14)
(1760 2.20658e-08 6.80099e-14)
(1760 2.28051e-08 6.58711e-14)
(1760 2.35187e-08 6.57081e-14)
(1760 2.42221e-08 6.92053e-14)
(1760 2.49164e-08 6.36641e-14)
(1760 2.56018e-08 6.41281e-14)
(1760 2.62812e-08 6.48325e-14)
(1760 2.69596e-08 6.53887e-14)
(1760 2.7642e-08 6.6447e-14)
(1760 2.83303e-08 6.47594e-14)
(1760 2.90213e-08 6.47694e-14)
(1760 2.97118e-08 6.41238e-14)
(1760 3.03938e-08 6.36872e-14)
(1760 3.107e-08 6.26566e-14)
(1760 3.17377e-08 6.3443e-14)
(1760 3.23992e-08 6.49376e-14)
(1760 3.30446e-08 6.35884e-14)
(1760 3.36799e-08 6.31733e-14)
(1760 3.43184e-08 6.13471e-14)
(1760 3.49545e-08 5.95606e-14)
(1760 3.55999e-08 6.1489e-14)
(1760 3.6248e-08 6.29903e-14)
(1760 3.68744e-08 5.99779e-14)
(1760 3.74974e-08 5.91895e-14)
(1760 3.81186e-08 6.20283e-14)
(1760 3.87347e-08 6.31358e-14)
(1760 3.93409e-08 6.26443e-14)
(1760 3.99352e-08 5.9634e-14)
(1760 4.05153e-08 6.0212e-14)
(1760 4.10674e-08 6.166e-14)
(1760 4.15809e-08 6.11176e-14)
(1760 4.20558e-08 5.92022e-14)
(1760 4.2503e-08 5.87866e-14)
(1760 4.2916e-08 5.89292e-14)
(1760 4.33101e-08 6.2145e-14)
(1760 4.37031e-08 5.92653e-14)
(1760 4.40811e-08 5.79248e-14)
(1760 4.44326e-08 5.92865e-14)
(1760 4.47649e-08 5.83865e-14)
(1760 4.51166e-08 5.6854e-14)
(1760 4.54835e-08 5.87727e-14)
(1760 4.57856e-08 5.78097e-14)
(1760 4.60165e-08 5.72907e-14)
(1760 4.62509e-08 5.76403e-14)
(1760 4.65618e-08 5.58817e-14)