/*--------------------------------*- C++ -*----------------------------------*\
| =========                 |                                                 |
| \\      /  F ield         | OpenFOAM: The Open Source CFD Toolbox           |
|  \\    /   O peration     | Version:  v1706                                 |
|   \\  /    A nd           | Web:      www.OpenFOAM.com                      |
|    \\/     M anipulation  |                                                 |
\*---------------------------------------------------------------------------*/
FoamFile
{
    version     2.0;
    format      ascii;
    class       volScalarField;
    location    "3.7e-05";
    object      Mach;
}
// * * * * * * * * * * * * * * * * * * * * * * * * * * * * * * * * * * * * * //

dimensions      [0 0 0 0 0 0 0];


internalField   nonuniform List<scalar> 
29871
(
7.18506
7.18506
7.18506
7.18506
7.18506
7.18506
7.18506
7.18506
7.18506
7.18506
7.18506
7.18506
7.18506
7.18506
7.18506
7.18506
7.18506
7.18506
7.18506
7.18506
7.18506
7.18506
7.18506
7.18506
7.18506
7.18506
7.18506
7.18506
7.18506
7.18506
7.18506
7.18506
7.18506
7.18506
7.18506
7.18506
7.18506
7.18506
7.18506
7.18506
7.18506
7.18506
7.18506
7.18506
7.18506
7.18506
7.18506
7.18506
7.18506
7.18506
7.18506
7.18506
7.18506
7.18506
7.18506
7.18506
7.18506
7.18506
7.18506
7.18506
7.18506
7.18506
7.18506
7.18506
7.18506
7.18506
7.18506
7.18506
7.18506
7.18506
7.18506
7.18506
7.18506
7.18506
7.18506
7.18506
7.18506
7.18506
7.18506
7.18506
7.18506
7.18506
7.18506
7.18506
7.18506
7.18506
7.18506
7.18506
7.18506
7.18506
7.18506
7.18506
7.18506
7.18506
7.18506
7.18506
7.18506
7.18506
7.18506
7.18506
7.18506
7.18506
7.18506
7.18506
7.18506
7.18506
7.18506
7.18506
7.18506
7.18506
7.18506
7.18506
7.18506
7.18506
7.18506
7.18506
7.18506
7.18506
7.18506
7.18506
7.18506
7.18506
7.18506
7.18506
7.18506
7.18506
7.18506
7.18506
7.18506
7.18506
7.18506
7.18506
7.18506
7.18506
7.18506
7.18506
7.18506
7.18506
7.18506
7.18506
7.18506
7.18506
7.18506
7.18506
7.18506
7.18506
7.18506
7.18506
7.18506
7.18506
7.18506
7.18506
7.18506
7.18506
7.18506
7.18506
7.18506
7.18506
7.18506
7.18506
7.18506
7.18506
7.18506
7.18506
7.18506
7.18506
7.18506
7.18506
7.18506
7.18506
7.18506
7.18506
7.18506
7.18506
7.18506
7.18506
7.18506
7.18506
7.18506
7.18506
7.18506
7.18506
7.18506
7.18506
7.18506
7.18506
7.18506
7.18506
7.18506
7.18506
7.18506
7.18506
7.18506
7.18506
7.18506
7.18506
7.18506
7.18506
7.18506
7.18506
7.18506
7.18506
7.18506
7.18506
7.18506
7.18506
7.18506
7.18506
7.18506
7.18506
7.18506
7.18506
7.18506
7.18506
7.18506
7.18506
7.18506
7.18506
7.18506
7.18506
7.18506
7.18506
7.18506
7.18506
7.18506
7.18506
7.18506
7.18506
7.18506
7.18506
7.18506
7.18506
7.18506
7.18506
7.18506
7.18506
7.18506
7.18506
7.18506
7.18506
7.18506
7.18506
7.18506
7.18506
7.18506
7.18506
7.18506
7.18506
7.18506
7.18506
7.18506
7.18506
7.18506
7.18506
7.18506
7.18506
7.18506
7.18506
7.18506
7.18506
7.18506
7.18506
7.18506
7.18506
7.18506
7.18506
7.18506
7.18506
7.18506
7.18506
7.18506
7.18506
7.18506
7.18506
7.18506
7.18506
7.18506
7.18506
7.18506
7.18506
7.18506
7.18506
7.18506
7.18506
7.18506
7.18506
7.18506
7.18506
7.18506
7.18506
7.18506
7.18506
7.18506
7.18506
7.18506
7.18506
7.18506
7.18506
7.18506
7.18506
7.18506
7.18506
7.18506
7.18506
7.18506
7.18506
7.18506
7.18506
7.18506
7.18506
7.18506
7.18506
7.18506
7.18506
7.18506
7.18506
7.18506
7.18506
7.18506
7.18506
7.18506
7.18506
7.18506
7.18506
7.18506
7.18506
7.18506
7.18506
7.18506
7.18506
7.18506
7.18506
7.18506
7.18506
7.18506
7.18506
7.18506
7.18506
7.18506
7.18506
7.18506
7.18506
7.18506
7.18506
7.18506
7.18506
7.18506
7.18506
7.18506
7.18506
7.18506
7.18506
7.18506
7.18506
7.18506
7.18506
7.18506
7.18506
7.18506
7.18506
7.18506
7.18506
7.18506
7.18506
7.18506
7.18506
7.18506
7.18506
7.18506
7.18506
7.18506
7.18506
7.18506
7.18506
7.18506
7.18506
7.18506
7.18506
7.18506
7.18506
7.18506
7.18506
7.18506
7.18506
7.18506
7.18506
7.18506
7.18506
7.18506
7.18506
7.18506
7.18506
7.18506
7.18506
7.18506
7.18506
7.18506
7.18506
7.18506
7.18506
7.18506
7.18506
7.18506
7.18506
7.18506
7.18506
7.18506
7.18506
7.18506
7.18506
7.18506
7.18506
7.18506
7.18506
7.18506
7.18506
7.18506
7.18506
7.18506
7.18506
7.18506
7.18506
7.18506
7.18506
7.18506
7.18506
7.18506
7.18506
7.18506
7.18506
7.18506
7.18506
7.18506
7.18506
7.18506
7.18506
7.18506
7.18506
7.18506
7.18506
7.18506
7.18506
7.18506
7.18506
7.18506
7.18506
7.18506
7.18506
7.18506
7.18506
7.18506
7.18506
7.18506
7.18506
7.18506
7.18506
7.18506
7.18506
7.18506
7.18506
7.18506
7.18506
7.18506
7.18506
7.18506
7.18506
7.18506
7.18506
7.18506
7.18506
7.18506
7.18506
7.18506
7.18506
7.18506
7.18506
7.18506
7.18506
7.18506
7.18506
7.18506
7.18506
7.18506
7.18506
7.18506
7.18506
7.18506
7.18506
7.18506
7.18506
7.18506
7.18506
7.18506
7.18506
7.18506
7.18506
7.18506
7.18506
7.18506
7.18506
7.18506
7.18506
7.18506
7.18506
7.18506
7.18506
7.18506
7.18506
7.18506
7.18506
7.18506
7.18506
7.18506
7.18506
7.18506
7.18506
7.18506
7.18506
7.18506
7.18506
7.18506
7.18506
7.18506
7.18506
7.18506
7.18506
7.18506
7.18506
7.18506
7.18506
7.18506
7.18506
7.18506
7.18506
7.18506
7.18506
7.18506
7.18506
7.18506
7.18506
7.18506
7.18506
7.18506
7.18506
7.18506
7.18506
7.18506
7.18506
7.18506
7.18506
7.18506
7.18506
7.18506
7.18506
7.18506
7.18506
7.18506
7.18506
7.18506
7.18506
7.18506
7.18506
7.18506
7.18506
7.18506
7.18506
7.18506
7.18506
7.18506
7.18506
7.18506
7.18506
7.18506
7.18506
7.18506
7.18506
7.18506
7.18506
7.18506
7.18506
7.18506
7.18506
7.18506
7.18506
7.18506
7.18506
7.18506
7.18506
7.18506
7.18506
7.18506
7.18506
7.18506
7.18506
7.18506
7.18506
7.18506
7.18506
7.18506
7.18506
7.18506
7.18506
7.18506
7.18506
7.18506
7.18506
7.18506
7.18506
7.18506
7.18506
7.18506
7.18506
7.18506
7.18506
7.18506
7.18506
7.18506
7.18506
7.18506
7.18506
7.18506
7.18506
7.18506
7.18506
7.18506
7.18506
7.18506
7.18506
7.18506
7.18506
7.18506
7.18506
7.18506
7.18506
7.18506
7.18506
7.18506
7.18506
7.18506
7.18506
7.18506
7.18506
7.18506
7.18506
7.18506
7.18506
7.18506
7.18506
7.18506
7.18506
7.18506
7.18506
7.18506
7.18506
7.18506
7.18506
7.18506
7.18506
7.18506
7.18506
7.18506
7.18506
7.18506
7.18506
7.18506
7.18506
7.18506
7.18506
7.18506
7.18506
7.18506
7.18506
7.18506
7.18506
7.18506
7.18506
7.18506
7.18506
7.18506
7.18506
7.18506
7.18506
7.18506
7.18506
7.18506
7.18506
7.18506
7.18506
7.18506
7.18506
7.18506
7.18506
7.18506
7.18506
7.18506
7.18506
7.18506
7.18506
7.18506
7.18506
7.18506
7.18506
7.18506
7.18506
7.18506
7.18506
7.18506
7.18506
7.18506
7.18506
7.18506
7.18506
7.18506
7.18506
7.18506
7.18506
7.18506
7.18506
7.18506
7.18506
7.18506
7.18506
7.18506
7.18506
7.18506
7.18506
7.18506
7.18506
7.18506
7.18506
7.18506
7.18506
7.18506
7.18506
7.18506
7.18506
7.18506
7.18506
7.18506
7.18506
7.18506
7.18506
7.18506
7.18506
7.18506
7.18506
7.18506
7.18506
7.18506
7.18506
7.18506
7.18506
7.18506
7.18506
7.18506
7.18506
7.18506
7.18506
7.18506
7.18506
7.18506
7.18506
7.18506
7.18506
7.18506
7.18506
7.18506
7.18506
7.18506
7.18506
7.18506
7.18506
7.18506
7.18506
7.18506
7.18506
7.18506
7.18506
7.18506
7.18506
7.18506
7.18506
7.18506
7.18506
7.18506
7.18506
7.18506
7.18506
7.18506
7.18506
7.18506
7.18506
7.18506
7.18506
7.18506
7.18506
7.18506
7.18506
7.18506
7.18506
7.18506
7.18506
7.18506
7.18506
7.18506
7.18506
7.18506
7.18506
7.18506
7.18506
7.18506
7.18506
7.18506
7.18506
7.18506
7.18506
7.18506
7.18506
7.18506
7.18506
7.18506
7.18506
7.18506
7.18506
7.18506
7.18506
7.18506
7.18506
7.18506
7.18506
7.18506
7.18506
7.18506
7.18506
7.18506
7.18506
7.18506
7.18506
7.18506
7.18506
7.18506
7.18506
7.18506
7.18506
7.18506
7.18506
7.18506
7.18506
7.18506
7.18506
7.18506
7.18506
7.18506
7.18506
7.18506
7.18506
7.18506
7.18506
7.18506
7.18506
7.18506
7.18506
7.18506
7.18506
7.18506
7.18506
7.18506
7.18506
7.18506
7.18506
7.18506
7.18506
7.18506
7.18506
7.18506
7.18506
7.18506
7.18506
7.18506
7.18506
7.18506
7.18506
7.18506
7.18506
7.18506
7.18506
7.18506
7.18506
7.18506
7.18506
7.18506
7.18506
7.18506
7.18506
7.18506
7.18506
7.18506
7.18506
7.18506
7.18506
7.18506
7.18506
7.18506
7.18506
7.18506
7.18506
7.18506
7.18506
7.18506
7.18506
7.18506
7.18506
7.18506
7.18506
7.18506
7.18506
7.18506
7.18506
7.18506
7.18506
7.18506
7.18506
7.18506
7.18506
7.18506
7.18506
7.18506
7.18506
7.18506
7.18506
7.18506
7.18506
7.18506
7.18506
7.18506
7.18506
7.18506
7.18506
7.18506
7.18506
7.18506
7.18506
7.18506
7.18506
7.18506
7.18506
7.18506
7.18506
7.18506
7.18506
7.18506
7.18506
7.18506
7.18506
7.18506
7.18506
7.18506
7.18506
7.18506
7.18506
7.18506
7.18506
7.18506
7.18506
7.18506
7.18506
7.18506
7.18506
7.18506
7.18506
7.18506
7.18506
7.18506
7.18506
7.18506
7.18506
7.18506
7.18506
7.18506
7.18506
7.18506
7.18506
7.18506
7.18506
7.18506
7.18506
7.18506
7.18506
7.18506
7.18506
7.18506
7.18506
7.18506
7.18506
7.18506
7.18506
7.18506
7.18506
7.18506
7.18506
7.18506
7.18506
7.18506
7.18506
7.18506
7.18506
7.18506
7.18506
7.18506
7.18506
7.18506
7.18506
7.18506
7.18506
7.18506
7.18506
7.18506
7.18506
7.18506
7.18506
7.18506
7.18506
7.18506
7.18506
7.18506
7.18506
7.18506
7.18506
7.18506
7.18506
7.18506
7.18506
7.18506
7.18506
7.18506
7.18506
7.18506
7.18506
7.18506
7.18506
7.18506
7.18506
7.18506
7.18506
7.18506
7.18506
7.18506
7.18506
7.18506
7.18506
7.18506
7.18506
7.18506
7.18506
7.18506
7.18506
7.18506
7.18506
7.18506
7.18506
7.18506
7.18506
7.18506
7.18506
7.18506
7.18506
7.18506
7.18506
7.18506
7.18506
7.18506
7.18506
7.18506
7.18506
7.18506
7.18506
7.18506
7.18506
7.18506
7.18506
7.18506
7.18506
7.18506
7.18506
7.18506
7.18506
7.18506
7.18506
7.18506
7.18506
7.18506
7.18506
7.18506
7.18506
7.18506
7.18506
7.18506
7.18506
7.18506
7.18506
7.18506
7.18506
7.18506
7.18506
7.18506
7.18506
7.18506
7.18506
7.18506
7.18506
7.18506
7.18506
7.18506
7.18506
7.18506
7.18506
7.18506
7.18506
7.18506
7.18506
7.18506
7.18506
7.18506
7.18506
7.18506
7.18506
7.18506
7.18506
7.18506
7.18506
7.18506
7.18506
7.18506
7.18506
7.18506
7.18506
7.18506
7.18506
7.18506
7.18506
7.18506
7.18506
7.18506
7.18506
7.18506
7.18506
7.18506
7.18506
7.18506
7.18506
7.18506
7.18506
7.18506
7.18506
7.18506
7.18506
7.18506
7.18506
7.18506
7.18506
7.18506
7.18506
7.18506
7.18506
7.18506
7.18506
7.18506
7.18506
7.18506
7.18506
7.18506
7.18506
7.18506
7.18506
7.18506
7.18506
7.18506
7.18506
7.18506
7.18506
7.18506
7.18506
7.18506
7.18506
7.18506
7.18506
7.18506
7.18506
7.18506
7.18506
7.18506
7.18506
7.18506
7.18506
7.18506
7.18506
7.18506
7.18506
7.18506
7.18506
7.18506
7.18506
7.18506
7.18506
7.18506
7.18506
7.18506
7.18506
7.18506
7.18506
7.18506
7.18506
7.18506
7.18506
7.18506
7.18506
7.18506
7.18506
7.18506
7.18506
7.18506
7.18506
7.18506
7.18506
7.18506
7.18506
7.18506
7.18506
7.18506
7.18506
7.18506
7.18506
7.18506
7.18506
7.18506
7.18506
7.18506
7.18506
7.18506
7.18506
7.18506
7.18506
7.18506
7.18506
7.18506
7.18506
7.18506
7.18506
7.18506
7.18506
7.18506
7.18506
7.18506
7.18506
7.18506
7.18506
7.18506
7.18506
7.18506
7.18506
7.18506
7.18506
7.18506
7.18506
7.18506
7.18506
7.18506
7.18506
7.18506
7.18506
7.18506
7.18506
7.18506
7.18506
7.18506
7.18506
7.18506
7.18506
7.18506
7.18506
7.18506
7.18506
7.18506
7.18506
7.18506
7.18506
7.18506
7.18506
7.18506
7.18506
7.18506
7.18506
7.18506
7.18506
7.18506
7.18506
7.18506
7.18506
7.18506
7.18506
7.18506
7.18506
7.18506
7.18506
7.18506
7.18506
7.18506
7.18506
7.18506
7.18506
7.18506
7.18506
7.18506
7.18506
7.18506
7.18506
7.18506
7.18506
7.18506
7.18506
7.18506
7.18506
7.18506
7.18506
7.18506
7.18506
7.18506
7.18506
7.18506
7.18506
7.18506
7.18506
7.18506
7.18506
7.18506
7.18506
7.18506
7.18506
7.18506
7.18506
7.18506
7.18506
7.18506
7.18506
7.18506
7.18506
7.18506
7.18506
7.18506
7.18506
7.18506
7.18506
7.18506
7.18506
7.18506
7.18506
7.18506
7.18506
7.18506
7.18506
7.18506
7.18506
7.18506
7.18506
7.18506
7.18506
7.18506
7.18506
7.18506
7.18506
7.18506
7.18506
7.18506
7.18506
7.18506
7.18506
7.18506
7.18506
7.18506
7.18506
7.18506
7.18506
7.18506
7.18506
7.18506
7.18506
7.18506
7.18506
7.18506
7.18506
7.18506
7.18506
7.18506
7.18506
7.18506
7.18506
7.18506
7.18506
7.18506
7.18506
7.18505
7.18505
7.18505
7.18505
7.18505
7.18505
7.18505
7.18504
7.18504
7.18504
7.18506
7.18506
7.18506
7.18506
7.18506
7.18506
7.18506
7.18506
7.18506
7.18506
7.18506
7.18506
7.18506
7.18506
7.18506
7.18506
7.18506
7.18506
7.18506
7.18506
7.18506
7.18506
7.18506
7.18506
7.18506
7.18506
7.18506
7.18506
7.18506
7.18506
7.18506
7.18506
7.18506
7.18506
7.18506
7.18506
7.18506
7.18506
7.18506
7.18506
7.18506
7.18506
7.18506
7.18506
7.18506
7.18506
7.18506
7.18506
7.18506
7.18506
7.18506
7.18506
7.18506
7.18506
7.18506
7.18506
7.18506
7.18506
7.18506
7.18506
7.18506
7.18506
7.18506
7.18506
7.18506
7.18506
7.18506
7.18506
7.18506
7.18506
7.18506
7.18506
7.18506
7.18506
7.18506
7.18506
7.18506
7.18506
7.18506
7.18506
7.18506
7.18506
7.18505
7.18505
7.18505
7.18505
7.18505
7.18505
7.18505
7.18505
7.18505
7.18505
7.18504
7.18504
7.18504
7.18504
7.18504
7.18503
7.18503
7.18503
7.18502
7.18502
7.18502
7.18501
7.18501
7.185
7.18499
7.18499
7.18498
7.18497
7.18496
7.18495
7.18493
7.18506
7.18506
7.18506
7.18506
7.18506
7.18506
7.18506
7.18506
7.18506
7.18506
7.18506
7.18506
7.18506
7.18506
7.18506
7.18506
7.18506
7.18506
7.18506
7.18506
7.18506
7.18506
7.18506
7.18506
7.18506
7.18506
7.18506
7.18506
7.18506
7.18506
7.18506
7.18506
7.18506
7.18506
7.18506
7.18506
7.18506
7.18506
7.18505
7.18505
7.18505
7.18505
7.18505
7.18505
7.18505
7.18505
7.18505
7.18505
7.18505
7.18505
7.18505
7.18505
7.18505
7.18505
7.18505
7.18505
7.18505
7.18505
7.18505
7.18505
7.18505
7.18505
7.18505
7.18505
7.18505
7.18504
7.18504
7.18504
7.18504
7.18504
7.18504
7.18504
7.18504
7.18504
7.18504
7.18504
7.18503
7.18503
7.18503
7.18503
7.18503
7.18502
7.18502
7.18502
7.18502
7.18501
7.18501
7.18501
7.185
7.185
7.18499
7.18499
7.18498
7.18497
7.18497
7.18496
7.18495
7.18494
7.18493
7.18491
7.1849
7.18488
7.18486
7.18485
7.18482
7.1848
7.18477
7.18474
7.1847
7.18466
7.18462
7.18457
7.18451
7.18445
7.18438
7.18506
7.18506
7.18506
7.18506
7.18506
7.18506
7.18505
7.18505
7.18505
7.18505
7.18505
7.18505
7.18505
7.18505
7.18505
7.18505
7.18505
7.18505
7.18504
7.18504
7.18504
7.18504
7.18504
7.18504
7.18504
7.18504
7.18504
7.18504
7.18503
7.18503
7.18503
7.18503
7.18503
7.18503
7.18503
7.18503
7.18503
7.18502
7.18502
7.18502
7.18502
7.18502
7.18502
7.18502
7.18502
7.18501
7.18501
7.18501
7.18501
7.18501
7.18501
7.18501
7.185
7.185
7.185
7.185
7.185
7.185
7.18499
7.18499
7.18499
7.18499
7.18499
7.18498
7.18498
7.18498
7.18497
7.18497
7.18497
7.18496
7.18496
7.18495
7.18495
7.18494
7.18494
7.18493
7.18492
7.18492
7.18491
7.1849
7.18489
7.18488
7.18487
7.18485
7.18484
7.18482
7.18481
7.18479
7.18477
7.18475
7.18472
7.1847
7.18467
7.18463
7.18459
7.18455
7.1845
7.18445
7.18439
7.18432
7.18425
7.18417
7.18408
7.18398
7.18388
7.18375
7.18361
7.18345
7.18327
7.18306
7.18283
7.18258
7.1823
7.182
7.18166
7.18129
7.18505
7.18505
7.18505
7.18504
7.18504
7.18504
7.18504
7.18504
7.18503
7.18503
7.18503
7.18503
7.18502
7.18502
7.18502
7.18502
7.18501
7.18501
7.18501
7.185
7.185
7.185
7.18499
7.18499
7.18499
7.18498
7.18498
7.18497
7.18497
7.18497
7.18496
7.18496
7.18495
7.18495
7.18494
7.18494
7.18494
7.18493
7.18493
7.18492
7.18492
7.18491
7.18491
7.1849
7.1849
7.18489
7.18489
7.18488
7.18487
7.18487
7.18486
7.18486
7.18485
7.18485
7.18484
7.18483
7.18483
7.18482
7.18482
7.18481
7.1848
7.1848
7.18479
7.18478
7.18477
7.18476
7.18476
7.18475
7.18473
7.18472
7.18471
7.1847
7.18468
7.18467
7.18465
7.18463
7.18461
7.18459
7.18457
7.18455
7.18453
7.1845
7.18447
7.18444
7.18441
7.18437
7.18433
7.18428
7.18423
7.18417
7.1841
7.18403
7.18396
7.18387
7.18378
7.18369
7.18358
7.18347
7.18334
7.1832
7.18303
7.18285
7.18264
7.1824
7.18214
7.18185
7.18153
7.18118
7.1808
7.18038
7.17992
7.17939
7.17878
7.17808
7.17726
7.17633
7.17528
7.17412
7.17284
7.17145
7.16993
7.16827
7.1664
7.18499
7.18499
7.18498
7.18498
7.18497
7.18496
7.18495
7.18494
7.18494
7.18493
7.18492
7.18491
7.1849
7.18489
7.18487
7.18486
7.18485
7.18484
7.18482
7.18481
7.1848
7.18478
7.18477
7.18475
7.18474
7.18472
7.1847
7.18469
7.18467
7.18466
7.18464
7.18462
7.1846
7.18459
7.18457
7.18455
7.18453
7.18451
7.18449
7.18448
7.18446
7.18444
7.18441
7.18439
7.18437
7.18435
7.18433
7.18431
7.18428
7.18426
7.18424
7.18422
7.18419
7.18417
7.18414
7.18412
7.18409
7.18407
7.18404
7.18402
7.18399
7.18396
7.18393
7.18389
7.18386
7.18382
7.18377
7.18372
7.18367
7.18362
7.18356
7.1835
7.18343
7.18336
7.18329
7.18321
7.18312
7.18303
7.18294
7.18284
7.18273
7.18261
7.18249
7.18235
7.18219
7.18201
7.18181
7.18159
7.18135
7.18108
7.18078
7.18046
7.18011
7.17972
7.17931
7.17887
7.17838
7.17785
7.17725
7.17657
7.17579
7.1749
7.17388
7.17273
7.17146
7.17006
7.16852
7.16685
7.16504
7.16306
7.16085
7.15833
7.1554
7.152
7.14811
7.1437
7.13877
7.13332
7.12735
7.12086
7.11382
7.10611
7.09741
7.18478
7.18475
7.18473
7.1847
7.18467
7.18464
7.18461
7.18457
7.18454
7.1845
7.18446
7.18442
7.18438
7.18434
7.18429
7.18424
7.18419
7.18414
7.18409
7.18404
7.18398
7.18392
7.18387
7.18381
7.18375
7.18368
7.18362
7.18356
7.18349
7.18343
7.18336
7.1833
7.18323
7.18316
7.18309
7.18302
7.18294
7.18287
7.18279
7.18271
7.18263
7.18254
7.18246
7.18237
7.18228
7.18219
7.1821
7.18201
7.18192
7.18182
7.18173
7.18163
7.18153
7.18143
7.18133
7.18123
7.18113
7.18102
7.18091
7.1808
7.18068
7.18055
7.18041
7.18026
7.1801
7.17993
7.17974
7.17954
7.17932
7.17909
7.17884
7.17858
7.17829
7.17799
7.17766
7.17732
7.17695
7.17656
7.17614
7.1757
7.17522
7.17471
7.17414
7.17351
7.17279
7.17198
7.17107
7.17005
7.16891
7.16767
7.1663
7.16481
7.1632
7.16147
7.1596
7.15759
7.1554
7.15299
7.15026
7.14713
7.14355
7.13947
7.13486
7.12971
7.12401
7.11775
7.11092
7.10352
7.0955
7.08676
7.07697
7.06564
7.05235
7.03686
7.01916
6.99932
6.97745
6.95367
6.92811
6.90086
6.87193
6.84078
6.80579
7.1839
7.18381
7.1837
7.18359
7.18348
7.18336
7.18323
7.1831
7.18296
7.18282
7.18267
7.18251
7.18235
7.18218
7.182
7.18182
7.18163
7.18143
7.18122
7.18101
7.18079
7.18056
7.18033
7.1801
7.17986
7.17962
7.17937
7.17913
7.17888
7.17862
7.17837
7.17811
7.17785
7.17757
7.1773
7.17701
7.17672
7.17643
7.17612
7.17581
7.17549
7.17517
7.17484
7.1745
7.17416
7.17381
7.17346
7.17309
7.17273
7.17236
7.17198
7.1716
7.17121
7.17081
7.17041
7.17
7.16958
7.16916
7.16871
7.16825
7.16775
7.16721
7.16663
7.16599
7.16529
7.16454
7.16372
7.16285
7.1619
7.16089
7.15981
7.15866
7.15743
7.15611
7.15472
7.15323
7.15165
7.14998
7.14819
7.1463
7.14426
7.14205
7.1396
7.13685
7.13374
7.13022
7.12629
7.12191
7.11707
7.11176
7.10597
7.09969
7.09289
7.08558
7.07774
7.06931
7.06017
7.05003
7.03846
7.02508
7.00968
6.99217
6.9726
6.95099
6.92744
6.90201
6.87478
6.84583
6.81513
6.78216
6.74549
6.70332
6.65471
6.59979
6.53924
6.47388
6.40453
6.33201
6.25709
6.18041
6.10209
6.02163
5.93381
5.83171
5.71601
7.18051
7.18013
7.17973
7.17931
7.17887
7.1784
7.17791
7.1774
7.17687
7.17631
7.17573
7.17513
7.1745
7.17385
7.17317
7.17247
7.17174
7.17098
7.17021
7.16941
7.16859
7.16775
7.1669
7.16603
7.16515
7.16425
7.16335
7.16243
7.16151
7.16057
7.15962
7.15864
7.15765
7.15662
7.15556
7.15448
7.15335
7.1522
7.15101
7.1498
7.14856
7.14729
7.146
7.14469
7.14335
7.14199
7.14061
7.13921
7.13779
7.13635
7.13488
7.13339
7.13188
7.13035
7.12879
7.12719
7.12556
7.12388
7.12213
7.12028
7.11828
7.11612
7.11376
7.1112
7.10842
7.10541
7.10217
7.09869
7.09496
7.09096
7.08668
7.08211
7.07724
7.07205
7.06653
7.06066
7.05443
7.04781
7.04079
7.03333
7.02534
7.01663
7.00692
6.99591
6.98337
6.96922
6.95343
6.93602
6.917
6.89641
6.87425
6.85056
6.82535
6.79865
6.77047
6.74072
6.70888
6.67374
6.63387
6.58855
6.53779
6.48199
6.42171
6.3575
6.28995
6.21963
6.14713
6.07293
5.99717
5.91929
5.83485
5.73877
5.63172
5.5176
5.40024
5.28247
5.16631
5.05321
4.94411
4.83957
4.73949
4.64197
4.53969
4.42015
4.29229
7.16752
7.1661
7.16461
7.16303
7.16139
7.15967
7.15788
7.15601
7.15407
7.15204
7.14993
7.14772
7.14542
7.14302
7.14052
7.13792
7.13522
7.13244
7.12957
7.12663
7.12362
7.12055
7.11743
7.11426
7.11106
7.10783
7.10458
7.1013
7.098
7.09465
7.09124
7.08775
7.08416
7.08047
7.07668
7.07279
7.06879
7.0647
7.06052
7.05624
7.05188
7.04742
7.04289
7.03827
7.03358
7.02881
7.02397
7.01905
7.01406
7.009
7.00385
6.99863
6.99332
6.98791
6.9824
6.97677
6.97101
6.96506
6.95882
6.95216
6.94491
6.93698
6.9283
6.91884
6.9086
6.89758
6.88578
6.87319
6.85979
6.84555
6.83045
6.81447
6.79758
6.77975
6.76096
6.74119
6.7204
6.69856
6.67566
6.65161
6.62611
6.59848
6.5677
6.53309
6.49446
6.45195
6.40584
6.3564
6.30391
6.24866
6.19092
6.13099
6.06916
6.00573
5.94089
5.87459
5.80619
5.73211
5.64894
5.55712
5.45916
5.35761
5.25448
5.15131
5.04936
4.94952
4.85244
4.75866
4.66816
4.57935
4.48564
4.37885
4.26583
4.15347
4.04591
3.94523
3.85232
3.7675
3.69073
3.62162
3.55945
3.50394
3.45536
3.41394
3.37802
7.12493
7.1201
7.11499
7.10962
7.10399
7.09812
7.092
7.08566
7.07907
7.07223
7.06512
7.05773
7.05005
7.04208
7.03383
7.02531
7.01653
7.00751
6.99827
6.98882
6.9792
6.96941
6.95948
6.94944
6.93933
6.92915
6.91895
6.90873
6.89848
6.88816
6.87767
6.86695
6.85593
6.84459
6.83292
6.82092
6.80861
6.79603
6.78319
6.77013
6.75686
6.74342
6.72981
6.71606
6.70216
6.68814
6.67399
6.65972
6.64532
6.6308
6.61616
6.60137
6.58643
6.57132
6.55603
6.54052
6.52476
6.5087
6.49218
6.47484
6.4562
6.43595
6.41394
6.39019
6.36477
6.33772
6.30908
6.27889
6.24716
6.21389
6.17911
6.14283
6.10508
6.06588
6.02526
5.98326
5.93992
5.89529
5.84942
5.80235
5.75397
5.70397
5.65072
5.59158
5.52598
5.45493
5.37986
5.30202
5.22239
5.14178
5.06086
4.98022
4.90033
4.82158
4.74425
4.66861
4.59455
4.52084
4.44188
4.35316
4.25927
4.16473
4.07239
3.98387
3.9002
3.82203
3.74955
3.68282
3.62187
3.56634
3.51611
3.47158
3.433
3.39914
3.36909
3.34231
3.31846
3.29729
3.27866
3.26245
3.24829
3.23598
3.2255
3.21689
3.20987
3.20379
6.97355
6.95774
6.94126
6.92416
6.90647
6.88825
6.86952
6.85026
6.83045
6.81001
6.78891
6.76712
6.74465
6.72151
6.69778
6.6735
6.64876
6.62365
6.59826
6.57266
6.54696
6.52122
6.49552
6.46995
6.44459
6.41949
6.3947
6.37024
6.346
6.3217
6.2971
6.27209
6.2466
6.22068
6.19439
6.16778
6.14092
6.11388
6.0867
6.05943
6.0321
6.00476
5.97743
5.95013
5.9229
5.89572
5.86862
5.8416
5.81464
5.78774
5.76088
5.73404
5.70719
5.6803
5.65334
5.62625
5.59901
5.57147
5.54341
5.51408
5.4823
5.44771
5.41053
5.37114
5.32992
5.28711
5.24291
5.19747
5.15093
5.10339
5.05498
5.00581
4.95598
4.9056
4.85477
4.8036
4.7522
4.70066
4.64908
4.59754
4.54611
4.49413
4.43969
4.37788
4.31079
4.24105
4.17061
4.10071
4.03222
3.96576
3.9018
3.84068
3.78263
3.72783
3.67634
3.62816
3.5832
3.54151
3.50363
3.46968
3.43887
3.41068
3.38482
3.36114
3.33961
3.3201
3.30249
3.28683
3.27293
3.26061
3.24984
3.24069
3.23305
3.2265
3.22058
3.21504
3.20977
3.20467
3.1998
3.19524
3.19101
3.18705
3.18339
3.18021
3.17767
3.17553
3.17363
3.17182
6.53501
6.49418
6.45253
6.41025
6.36753
6.32454
6.28138
6.23799
6.1942
6.14992
6.10514
6.05996
6.01451
5.96894
5.92342
5.87809
5.83311
5.78859
5.74466
5.70142
5.65898
5.61741
5.57681
5.53727
5.49885
5.46161
5.42553
5.39053
5.35633
5.32213
5.28755
5.25255
5.21726
5.18184
5.14648
5.11131
5.07646
5.042
5.00802
4.97455
4.94163
4.90928
4.87751
4.84632
4.81568
4.7856
4.75603
4.72696
4.69835
4.67016
4.64235
4.61489
4.58772
4.56079
4.53406
4.50747
4.48097
4.45451
4.4277
4.39958
4.36806
4.33384
4.29782
4.26062
4.22262
4.18405
4.1451
4.10591
4.06663
4.02736
3.98824
3.94939
3.91092
3.87295
3.83557
3.79889
3.76302
3.72802
3.69398
3.66097
3.629
3.59814
3.5687
3.54122
3.51536
3.49086
3.46759
3.44556
3.42476
3.40515
3.38679
3.36969
3.35377
3.33906
3.32556
3.31315
3.3018
3.29157
3.28247
3.27437
3.26697
3.26004
3.25343
3.24699
3.24079
3.23481
3.22913
3.2238
3.21858
3.21362
3.20915
3.20508
3.20146
3.19852
3.196
3.19366
3.19139
3.1891
3.18677
3.1844
3.18206
3.17972
3.17733
3.175
3.17289
3.17114
3.16956
3.16793
5.63725
5.57196
5.50773
5.44478
5.38329
5.32338
5.26502
5.20777
5.15112
5.09496
5.03941
4.9847
4.93105
4.87867
4.82773
4.77836
4.73067
4.68469
4.64049
4.5981
4.55753
4.51874
4.48173
4.44652
4.4131
4.38137
4.35122
4.32251
4.29471
4.26606
4.23671
4.20718
4.17783
4.14889
4.12051
4.09278
4.06578
4.03953
4.01407
3.9894
3.96552
3.94242
3.92007
3.89844
3.87752
3.85725
3.83761
3.81855
3.80004
3.78204
3.76451
3.7474
3.73068
3.7143
3.69823
3.68242
3.66687
3.65152
3.63635
3.62149
3.60717
3.5932
3.57945
3.56586
3.55239
3.53905
3.52584
3.51277
3.49986
3.48714
3.47461
3.4623
3.45024
3.43845
3.42695
3.41577
3.40492
3.39441
3.38427
3.37451
3.3651
3.35609
3.34754
3.33947
3.33177
3.32432
3.31701
3.30984
3.30276
3.2958
3.28904
3.28243
3.27598
3.26977
3.26385
3.25819
3.2527
3.24768
3.2432
3.23904
3.23542
3.23215
3.22892
3.22583
3.22281
3.21951
3.21635
3.21341
3.21023
3.20652
3.20349
3.20049
3.19729
3.19455
3.1923
3.19019
3.18818
3.18635
3.18455
3.18271
3.18078
3.17876
3.17674
3.17461
3.17252
3.17055
3.16875
3.16699
4.52994
4.46863
4.41027
4.35488
4.30242
4.25288
4.20592
4.16035
4.11529
4.07115
4.02832
3.98708
3.94761
3.90999
3.87428
3.84054
3.80877
3.77893
3.751
3.72496
3.70075
3.67827
3.65748
3.63834
3.62084
3.60479
3.59
3.57634
3.5637
3.55226
3.54182
3.53222
3.52334
3.51512
3.5075
3.50042
3.49385
3.48773
3.48204
3.47673
3.47176
3.46711
3.46274
3.4586
3.45468
3.45093
3.44734
3.44387
3.4405
3.4372
3.43395
3.43072
3.42749
3.42425
3.42096
3.41763
3.41423
3.41078
3.40728
3.40377
3.40025
3.39667
3.39297
3.38911
3.38508
3.38088
3.37651
3.37201
3.36737
3.36261
3.35776
3.35281
3.34779
3.34272
3.33761
3.33249
3.32737
3.32228
3.31724
3.31226
3.30734
3.30252
3.2978
3.29331
3.289
3.28478
3.2807
3.27664
3.27245
3.26832
3.26422
3.25997
3.25581
3.25162
3.2475
3.24373
3.23944
3.23569
3.23261
3.22892
3.22602
3.22378
3.22081
3.21825
3.21645
3.21396
3.2114
3.20885
3.20683
3.20413
3.20129
3.19896
3.19634
3.19363
3.19127
3.18898
3.1868
3.18473
3.18274
3.18079
3.17879
3.17674
3.17468
3.17257
3.17042
3.1683
3.16627
3.16433
3.16248
3.61691
3.58191
3.54986
3.52066
3.49419
3.47034
3.44919
3.43074
3.41458
3.40036
3.38786
3.37687
3.3672
3.35872
3.35138
3.34508
3.33969
3.33514
3.3314
3.32843
3.32612
3.32444
3.32343
3.32317
3.32328
3.32359
3.32405
3.32464
3.32535
3.32617
3.32709
3.32808
3.32911
3.33017
3.33124
3.33231
3.33337
3.33441
3.33543
3.3364
3.33732
3.33818
3.33896
3.33965
3.34025
3.34074
3.34112
3.34139
3.34153
3.34155
3.34144
3.34119
3.3408
3.34026
3.33957
3.33873
3.33777
3.33671
3.33555
3.33431
3.33298
3.33152
3.32991
3.32812
3.32614
3.32397
3.32161
3.31908
3.31639
3.31355
3.31057
3.30747
3.30426
3.30096
3.29758
3.29413
3.29065
3.28715
3.28361
3.28011
3.27662
3.27311
3.26977
3.26652
3.26318
3.26019
3.25725
3.25387
3.25106
3.2482
3.24466
3.24195
3.2389
3.2355
3.23301
3.22957
3.22631
3.2238
3.22028
3.21747
3.21525
3.21242
3.21005
3.20821
3.20609
3.2039
3.20164
3.19977
3.19761
3.19526
3.1931
3.19082
3.18852
3.18619
3.18389
3.18166
3.17952
3.17743
3.17539
3.17333
3.17124
3.16914
3.16698
3.16477
3.16254
3.16035
3.15824
3.1562
3.21336
3.20681
3.2015
3.19735
3.19431
3.19239
3.19154
3.19167
3.19229
3.19326
3.1945
3.196
3.19775
3.1997
3.20182
3.20411
3.20649
3.20905
3.21169
3.21442
3.21718
3.22017
3.22367
3.22754
3.23155
3.23552
3.2394
3.24317
3.24683
3.25037
3.2538
3.2571
3.26026
3.26328
3.26615
3.26886
3.27142
3.27383
3.27609
3.27821
3.28019
3.28204
3.28375
3.28533
3.28677
3.28809
3.28927
3.29032
3.29123
3.292
3.29263
3.29312
3.29346
3.29366
3.2937
3.29359
3.29333
3.29285
3.29225
3.29151
3.29065
3.28969
3.28862
3.28743
3.28611
3.28466
3.28308
3.28137
3.27953
3.27757
3.2755
3.27333
3.27107
3.26871
3.26627
3.26376
3.2612
3.2586
3.25594
3.2533
3.25063
3.24792
3.24535
3.24276
3.24013
3.23789
3.23556
3.23292
3.23098
3.22882
3.22603
3.22424
3.222
3.21931
3.21763
3.21505
3.21234
3.21015
3.20711
3.20456
3.20234
3.1998
3.1977
3.19568
3.19372
3.19188
3.18989
3.188
3.18613
3.18413
3.18207
3.17998
3.17782
3.17562
3.17345
3.17139
3.16938
3.16739
3.16542
3.16348
3.16149
3.15946
3.15737
3.15522
3.15302
3.1508
3.14863
3.14651
3.08518
3.08775
3.09046
3.09351
3.09703
3.1013
3.10596
3.11062
3.11523
3.11967
3.12433
3.12882
3.13333
3.13774
3.14212
3.14594
3.15036
3.15432
3.15838
3.16209
3.1662
3.1702
3.17401
3.1779
3.18194
3.18605
3.19019
3.19432
3.1984
3.20239
3.20629
3.21009
3.21376
3.21729
3.22068
3.22391
3.22698
3.22989
3.23263
3.23521
3.23762
3.23987
3.24195
3.24386
3.24562
3.24721
3.24864
3.24992
3.25103
3.25199
3.25281
3.25348
3.25401
3.2544
3.25463
3.25467
3.25446
3.25407
3.25349
3.25281
3.25204
3.25118
3.25024
3.24923
3.24812
3.24693
3.24565
3.24428
3.24283
3.2413
3.23969
3.23801
3.23626
3.23444
3.23255
3.23061
3.22861
3.22657
3.22453
3.22242
3.22028
3.21825
3.21611
3.21401
3.21223
3.21023
3.20814
3.20668
3.20487
3.2026
3.20126
3.19953
3.1972
3.19582
3.19395
3.19195
3.19011
3.1881
3.18619
3.18398
3.18206
3.18023
3.17848
3.17672
3.1752
3.17357
3.17181
3.17023
3.16854
3.16672
3.16489
3.16301
3.16104
3.15905
3.15716
3.15532
3.15345
3.1516
3.14977
3.14793
3.14601
3.14402
3.14196
3.13983
3.13764
3.13545
3.1333
3.03099
3.03544
3.0404
3.0446
3.04922
3.05389
3.05854
3.06355
3.06879
3.07443
3.07938
3.08488
3.09076
3.09592
3.10071
3.10621
3.11182
3.11679
3.12149
3.12696
3.13107
3.13502
3.13881
3.1428
3.14693
3.1511
3.15534
3.15962
3.16383
3.16794
3.17194
3.17579
3.17946
3.18294
3.18621
3.18928
3.19214
3.19479
3.19723
3.19946
3.2015
3.20334
3.20499
3.20646
3.20775
3.20888
3.20983
3.21063
3.21129
3.2118
3.21219
3.21246
3.21262
3.21268
3.21262
3.21246
3.21219
3.21176
3.21125
3.21063
3.20995
3.2092
3.20839
3.20753
3.20661
3.20565
3.20464
3.20358
3.20248
3.20134
3.20015
3.19893
3.19767
3.19637
3.19504
3.19366
3.19225
3.19084
3.18934
3.18787
3.18643
3.18483
3.18337
3.18207
3.18047
3.17907
3.17804
3.17657
3.17495
3.17404
3.17283
3.17092
3.1698
3.16873
3.16723
3.16552
3.16436
3.16303
3.16108
3.15948
3.15825
3.15666
3.15522
3.15382
3.1526
3.15117
3.14972
3.14834
3.1468
3.14516
3.14355
3.14183
3.14006
3.13828
3.13659
3.1349
3.13317
3.13145
3.12975
3.128
3.12614
3.12419
3.12217
3.12006
3.11791
3.11576
3.11366
3.1116
2.98944
2.9954
3.00155
3.00725
3.0124
3.01796
3.02283
3.02822
3.03468
3.04031
3.04531
3.05148
3.0579
3.06298
3.0681
3.07371
3.07923
3.08375
3.08812
3.09292
3.09733
3.10112
3.10499
3.10857
3.11227