/*--------------------------------*- C++ -*----------------------------------*\
| =========                 |                                                 |
| \\      /  F ield         | OpenFOAM: The Open Source CFD Toolbox           |
|  \\    /   O peration     | Version:  v1706                                 |
|   \\  /    A nd           | Web:      www.OpenFOAM.com                      |
|    \\/     M anipulation  |                                                 |
\*---------------------------------------------------------------------------*/
FoamFile
{
    version     2.0;
    format      ascii;
    class       volScalarField;
    location    "3.7e-05";
    object      p;
}
// * * * * * * * * * * * * * * * * * * * * * * * * * * * * * * * * * * * * * //

dimensions      [1 -1 -2 0 0 0 0];


internalField   nonuniform List<scalar> 
29871
(
21.9139
21.9139
21.9139
21.9139
21.9139
21.9139
21.9139
21.9139
21.9139
21.9139
21.9139
21.9139
21.9139
21.9139
21.9139
21.9139
21.9139
21.9139
21.9139
21.9139
21.9139
21.9139
21.9139
21.9139
21.9139
21.9139
21.9139
21.9139
21.9139
21.9139
21.9139
21.9139
21.9139
21.9139
21.9139
21.9139
21.9139
21.9139
21.9139
21.9139
21.9139
21.9139
21.9139
21.9139
21.9139
21.9139
21.9139
21.9139
21.9139
21.9139
21.9139
21.9139
21.9139
21.9139
21.9139
21.9139
21.9139
21.9139
21.9139
21.9139
21.9139
21.9139
21.9139
21.9139
21.9139
21.9139
21.9139
21.9139
21.9139
21.9139
21.9139
21.9139
21.9139
21.9139
21.9139
21.9139
21.9139
21.9139
21.9139
21.9139
21.9139
21.9139
21.9139
21.9139
21.9139
21.9139
21.9139
21.9139
21.9139
21.9139
21.9139
21.9139
21.9139
21.9139
21.9139
21.9139
21.9139
21.9139
21.9139
21.9139
21.9139
21.9139
21.9139
21.9139
21.9139
21.9139
21.9139
21.9139
21.9139
21.9139
21.9139
21.9139
21.9139
21.9139
21.9139
21.9139
21.9139
21.9139
21.9139
21.9139
21.9139
21.9139
21.9139
21.9139
21.9139
21.9139
21.9139
21.9139
21.9139
21.9139
21.9139
21.9139
21.9139
21.9139
21.9139
21.9139
21.9139
21.9139
21.9139
21.9139
21.9139
21.9139
21.9139
21.9139
21.9139
21.9139
21.9139
21.9139
21.9139
21.9139
21.9139
21.9139
21.9139
21.9139
21.9139
21.9139
21.9139
21.9139
21.9139
21.9139
21.9139
21.9139
21.9139
21.9139
21.9139
21.9139
21.9139
21.9139
21.9139
21.9139
21.9139
21.9139
21.9139
21.9139
21.9139
21.9139
21.9139
21.9139
21.9139
21.9139
21.9139
21.9139
21.9139
21.9139
21.9139
21.9139
21.9139
21.9139
21.9139
21.9139
21.9139
21.9139
21.9139
21.9139
21.9139
21.9139
21.9139
21.9139
21.9139
21.9139
21.9139
21.9139
21.9139
21.9139
21.9139
21.9139
21.9139
21.9139
21.9139
21.9139
21.9139
21.9139
21.9139
21.9139
21.9139
21.9139
21.9139
21.9139
21.9139
21.9139
21.9139
21.9139
21.9139
21.9139
21.9139
21.9139
21.9139
21.9139
21.9139
21.9139
21.9139
21.9139
21.9139
21.9139
21.9139
21.9139
21.9139
21.9139
21.9139
21.9139
21.9139
21.9139
21.9139
21.9139
21.9139
21.9139
21.9139
21.9139
21.9139
21.9139
21.9139
21.9139
21.9139
21.9139
21.9139
21.9139
21.9139
21.9139
21.9139
21.9139
21.9139
21.9139
21.9139
21.9139
21.9139
21.9139
21.9139
21.9139
21.9139
21.9139
21.9139
21.9139
21.9139
21.9139
21.9139
21.9139
21.9139
21.9139
21.9139
21.9139
21.9139
21.9139
21.9139
21.9139
21.9139
21.9139
21.9139
21.9139
21.9139
21.9139
21.9139
21.9139
21.9139
21.9139
21.9139
21.9139
21.9139
21.9139
21.9139
21.9139
21.9139
21.9139
21.9139
21.9139
21.9139
21.9139
21.9139
21.9139
21.9139
21.9139
21.9139
21.9139
21.9139
21.9139
21.9139
21.9139
21.9139
21.9139
21.9139
21.9139
21.9139
21.9139
21.9139
21.9139
21.9139
21.9139
21.9139
21.9139
21.9139
21.9139
21.9139
21.9139
21.9139
21.9139
21.9139
21.9139
21.9139
21.9139
21.9139
21.9139
21.9139
21.9139
21.9139
21.9139
21.9139
21.9139
21.9139
21.9139
21.9139
21.9139
21.9139
21.9139
21.9139
21.9139
21.9139
21.9139
21.9139
21.9139
21.9139
21.9139
21.9139
21.9139
21.9139
21.9139
21.9139
21.9139
21.9139
21.9139
21.9139
21.9139
21.9139
21.9139
21.9139
21.9139
21.9139
21.9139
21.9139
21.9139
21.9139
21.9139
21.9139
21.9139
21.9139
21.9139
21.9139
21.9139
21.9139
21.9139
21.9139
21.9139
21.9139
21.9139
21.9139
21.9139
21.9139
21.9139
21.9139
21.9139
21.9139
21.9139
21.9139
21.9139
21.9139
21.9139
21.9139
21.9139
21.9139
21.9139
21.9139
21.9139
21.9139
21.9139
21.9139
21.9139
21.9139
21.9139
21.9139
21.9139
21.9139
21.9139
21.9139
21.9139
21.9139
21.9139
21.9139
21.9139
21.9139
21.9139
21.9139
21.9139
21.9139
21.9139
21.9139
21.9139
21.9139
21.9139
21.9139
21.9139
21.9139
21.9139
21.9139
21.9139
21.9139
21.9139
21.9139
21.9139
21.9139
21.9139
21.9139
21.9139
21.9139
21.9139
21.9139
21.9139
21.9139
21.9139
21.9139
21.9139
21.9139
21.9139
21.9139
21.9139
21.9139
21.9139
21.9139
21.9139
21.9139
21.9139
21.9139
21.9139
21.9139
21.9139
21.9139
21.9139
21.9139
21.9139
21.9139
21.9139
21.9139
21.9139
21.9139
21.9139
21.9139
21.9139
21.9139
21.9139
21.9139
21.9139
21.9139
21.9139
21.9139
21.9139
21.9139
21.9139
21.9139
21.9139
21.9139
21.9139
21.9139
21.9139
21.9139
21.9139
21.9139
21.9139
21.9139
21.9139
21.9139
21.9139
21.9139
21.9139
21.9139
21.9139
21.9139
21.9139
21.9139
21.9139
21.9139
21.9139
21.9139
21.9139
21.9139
21.9139
21.9139
21.9139
21.9139
21.9139
21.9139
21.9139
21.9139
21.9139
21.9139
21.9139
21.9139
21.9139
21.9139
21.9139
21.9139
21.9139
21.9139
21.9139
21.9139
21.9139
21.9139
21.9139
21.9139
21.9139
21.9139
21.9139
21.9139
21.9139
21.9139
21.9139
21.9139
21.9139
21.9139
21.9139
21.9139
21.9139
21.9139
21.9139
21.9139
21.9139
21.9139
21.9139
21.9139
21.9139
21.9139
21.9139
21.9139
21.9139
21.9139
21.9139
21.9139
21.9139
21.9139
21.9139
21.9139
21.9139
21.9139
21.9139
21.9139
21.9139
21.9139
21.9139
21.9139
21.9139
21.9139
21.9139
21.9139
21.9139
21.9139
21.9139
21.9139
21.9139
21.9139
21.9139
21.9139
21.9139
21.9139
21.9139
21.9139
21.9139
21.9139
21.9139
21.9139
21.9139
21.9139
21.9139
21.9139
21.9139
21.9139
21.9139
21.9139
21.9139
21.9139
21.9139
21.9139
21.9139
21.9139
21.9139
21.9139
21.9139
21.9139
21.9139
21.9139
21.9139
21.9139
21.9139
21.9139
21.9139
21.9139
21.9139
21.9139
21.9139
21.9139
21.9139
21.9139
21.9139
21.9139
21.9139
21.9139
21.9139
21.9139
21.9139
21.9139
21.9139
21.9139
21.9139
21.9139
21.9139
21.9139
21.9139
21.9139
21.9139
21.9139
21.9139
21.9139
21.9139
21.9139
21.9139
21.9139
21.9139
21.9139
21.9139
21.9139
21.9139
21.9139
21.9139
21.9139
21.9139
21.9139
21.9139
21.9139
21.9139
21.9139
21.9139
21.9139
21.9139
21.9139
21.9139
21.9139
21.9139
21.9139
21.9139
21.9139
21.9139
21.9139
21.9139
21.9139
21.9139
21.9139
21.9139
21.9139
21.9139
21.9139
21.9139
21.9139
21.9139
21.9139
21.9139
21.9139
21.9139
21.9139
21.9139
21.9139
21.9139
21.9139
21.9139
21.9139
21.9139
21.9139
21.9139
21.9139
21.9139
21.9139
21.9139
21.9139
21.9139
21.9139
21.9139
21.9139
21.9139
21.9139
21.9139
21.9139
21.9139
21.9139
21.9139
21.9139
21.9139
21.9139
21.9139
21.9139
21.9139
21.9139
21.9139
21.9139
21.9139
21.9139
21.9139
21.9139
21.9139
21.9139
21.9139
21.9139
21.9139
21.9139
21.9139
21.9139
21.9139
21.9139
21.9139
21.9139
21.9139
21.9139
21.9139
21.9139
21.9139
21.9139
21.9139
21.9139
21.9139
21.9139
21.9139
21.9139
21.9139
21.9139
21.9139
21.9139
21.9139
21.9139
21.9139
21.9139
21.9139
21.9139
21.9139
21.9139
21.9139
21.9139
21.9139
21.9139
21.9139
21.9139
21.9139
21.9139
21.9139
21.9139
21.9139
21.9139
21.9139
21.9139
21.9139
21.9139
21.9139
21.9139
21.9139
21.9139
21.9139
21.9139
21.9139
21.9139
21.9139
21.9139
21.9139
21.9139
21.9139
21.9139
21.9139
21.9139
21.9139
21.9139
21.9139
21.9139
21.9139
21.9139
21.9139
21.9139
21.9139
21.9139
21.9139
21.9139
21.9139
21.9139
21.9139
21.9139
21.9139
21.9139
21.9139
21.9139
21.9139
21.9139
21.9139
21.9139
21.9139
21.9139
21.9139
21.9139
21.9139
21.9139
21.9139
21.9139
21.9139
21.9139
21.9139
21.9139
21.9139
21.9139
21.9139
21.9139
21.9139
21.9139
21.9139
21.9139
21.9139
21.9139
21.9139
21.9139
21.9139
21.9139
21.9139
21.9139
21.9139
21.9139
21.9139
21.9139
21.9139
21.9139
21.9139
21.9139
21.9139
21.9139
21.9139
21.9139
21.9139
21.9139
21.9139
21.9139
21.9139
21.9139
21.9139
21.9139
21.9139
21.9139
21.9139
21.9139
21.9139
21.9139
21.9139
21.9139
21.9139
21.9139
21.9139
21.9139
21.9139
21.9139
21.9139
21.9139
21.9139
21.9139
21.9139
21.9139
21.9139
21.9139
21.9139
21.9139
21.9139
21.9139
21.9139
21.9139
21.9139
21.9139
21.9139
21.9139
21.9139
21.9139
21.9139
21.9139
21.9139
21.9139
21.9139
21.9139
21.9139
21.9139
21.9139
21.9139
21.9139
21.9139
21.9139
21.9139
21.9139
21.9139
21.9139
21.9139
21.9139
21.9139
21.9139
21.9139
21.9139
21.9139
21.9139
21.9139
21.9139
21.9139
21.9139
21.9139
21.9139
21.9139
21.9139
21.9139
21.9139
21.9139
21.9139
21.9139
21.9139
21.9139
21.9139
21.9139
21.9139
21.9139
21.9139
21.9139
21.9139
21.9139
21.9139
21.9139
21.9139
21.9139
21.9139
21.9139
21.9139
21.9139
21.9139
21.9139
21.9139
21.9139
21.9139
21.9139
21.9139
21.9139
21.9139
21.9139
21.9139
21.9139
21.9139
21.9139
21.9139
21.9139
21.9139
21.9139
21.9139
21.9139
21.9139
21.9139
21.9139
21.9139
21.9139
21.9139
21.9139
21.9139
21.9139
21.9139
21.9139
21.9139
21.9139
21.9139
21.9139
21.9139
21.9139
21.9139
21.9139
21.9139
21.9139
21.9139
21.9139
21.9139
21.9139
21.9139
21.9139
21.9139
21.9139
21.9139
21.9139
21.9139
21.9139
21.9139
21.9139
21.9139
21.9139
21.9139
21.9139
21.9139
21.9139
21.9139
21.9139
21.9139
21.9139
21.9139
21.9139
21.9139
21.9139
21.9139
21.9139
21.9139
21.9139
21.9139
21.9139
21.9139
21.9139
21.9139
21.9139
21.9139
21.9139
21.9139
21.9139
21.9139
21.9139
21.9139
21.9139
21.9139
21.9139
21.9139
21.9139
21.9139
21.9139
21.9139
21.9139
21.9139
21.9139
21.9139
21.9139
21.9139
21.9139
21.9139
21.9139
21.9139
21.9139
21.9139
21.9139
21.9139
21.9139
21.9139
21.9139
21.9139
21.9139
21.9139
21.9139
21.9139
21.9139
21.9139
21.9139
21.9139
21.9139
21.9139
21.9139
21.9139
21.9139
21.9139
21.9139
21.9139
21.9139
21.9139
21.9139
21.9139
21.9139
21.9139
21.9139
21.9139
21.9139
21.9139
21.9139
21.9139
21.9139
21.9139
21.9139
21.9139
21.9139
21.9139
21.9139
21.9139
21.9139
21.9139
21.9139
21.9139
21.9139
21.9139
21.9139
21.9139
21.9139
21.9139
21.9139
21.9139
21.9139
21.9139
21.9139
21.9139
21.9139
21.9139
21.9139
21.9139
21.9139
21.9139
21.9139
21.9139
21.9139
21.9139
21.9139
21.9139
21.9139
21.9139
21.9139
21.9139
21.9139
21.9139
21.9139
21.9139
21.9139
21.9139
21.9139
21.9139
21.9139
21.9139
21.9139
21.9139
21.9139
21.9139
21.9139
21.9139
21.9139
21.9139
21.9139
21.9139
21.9139
21.9139
21.9139
21.9139
21.9139
21.9139
21.9139
21.9139
21.9139
21.9139
21.9139
21.9139
21.9139
21.9139
21.9139
21.9139
21.9139
21.9139
21.9139
21.9139
21.9139
21.9139
21.9139
21.9139
21.9139
21.9139
21.9139
21.9139
21.9139
21.9139
21.9139
21.9139
21.9139
21.9139
21.9139
21.9139
21.9139
21.9139
21.9139
21.9139
21.9139
21.9139
21.9139
21.9139
21.9139
21.9139
21.9139
21.9139
21.9139
21.9139
21.9139
21.9139
21.9139
21.9139
21.9139
21.9139
21.9139
21.9139
21.9139
21.9139
21.9139
21.9139
21.9139
21.9139
21.9139
21.9139
21.9139
21.9139
21.9139
21.9139
21.9139
21.9139
21.9139
21.9139
21.9139
21.9139
21.9139
21.9139
21.9139
21.9139
21.9139
21.9139
21.9139
21.9139
21.9139
21.9139
21.9139
21.9139
21.9139
21.9139
21.9139
21.9139
21.9139
21.9139
21.9139
21.9139
21.9139
21.9139
21.9139
21.9139
21.9139
21.9139
21.9139
21.9139
21.9139
21.9139
21.9139
21.9139
21.9139
21.9139
21.9139
21.9139
21.9139
21.9139
21.9139
21.9139
21.9139
21.9139
21.9139
21.9139
21.9139
21.9139
21.9139
21.9139
21.9139
21.9139
21.9139
21.9139
21.9139
21.9139
21.9139
21.9139
21.9139
21.9139
21.9139
21.9139
21.9139
21.9139
21.9139
21.9139
21.9139
21.9139
21.9139
21.9139
21.9139
21.9139
21.9139
21.9139
21.9139
21.9139
21.9139
21.9139
21.9139
21.9139
21.9139
21.9139
21.9139
21.9139
21.9139
21.9139
21.9139
21.9139
21.9139
21.9139
21.9139
21.9139
21.9139
21.9139
21.9139
21.9139
21.9139
21.9139
21.9139
21.9139
21.9139
21.9139
21.9139
21.9139
21.9139
21.9139
21.9139
21.9139
21.9139
21.9139
21.9139
21.9139
21.9139
21.9139
21.9139
21.9139
21.9139
21.9139
21.9139
21.9139
21.9139
21.9139
21.9139
21.9139
21.9139
21.9139
21.9139
21.9139
21.9139
21.9139
21.9139
21.9139
21.9139
21.9139
21.9139
21.9139
21.9139
21.9139
21.9139
21.9139
21.9139
21.9139
21.9139
21.9139
21.9139
21.9139
21.9139
21.9139
21.9139
21.9139
21.9139
21.9139
21.914
21.914
21.914
21.914
21.914
21.914
21.914
21.914
21.914
21.914
21.914
21.9141
21.9141
21.9139
21.9139
21.9139
21.9139
21.9139
21.9139
21.9139
21.9139
21.9139
21.9139
21.9139
21.9139
21.9139
21.9139
21.9139
21.9139
21.9139
21.9139
21.9139
21.9139
21.9139
21.9139
21.9139
21.9139
21.9139
21.9139
21.9139
21.9139
21.9139
21.9139
21.9139
21.9139
21.9139
21.9139
21.9139
21.9139
21.9139
21.9139
21.9139
21.9139
21.9139
21.9139
21.9139
21.9139
21.9139
21.9139
21.9139
21.9139
21.9139
21.9139
21.9139
21.9139
21.9139
21.9139
21.9139
21.9139
21.9139
21.9139
21.9139
21.9139
21.9139
21.9139
21.9139
21.9139
21.9139
21.9139
21.9139
21.9139
21.9139
21.9139
21.9139
21.9139
21.9139
21.9139
21.9139
21.9139
21.9139
21.914
21.914
21.914
21.914
21.914
21.914
21.914
21.914
21.914
21.914
21.914
21.914
21.914
21.914
21.914
21.914
21.914
21.9141
21.9141
21.9141
21.9141
21.9141
21.9141
21.9142
21.9142
21.9142
21.9142
21.9143
21.9143
21.9144
21.9144
21.9145
21.9145
21.9146
21.9147
21.9148
21.9139
21.9139
21.9139
21.9139
21.9139
21.9139
21.9139
21.9139
21.9139
21.9139
21.9139
21.9139
21.9139
21.9139
21.9139
21.9139
21.9139
21.9139
21.9139
21.9139
21.9139
21.9139
21.9139
21.9139
21.9139
21.9139
21.9139
21.9139
21.9139
21.9139
21.9139
21.914
21.914
21.914
21.914
21.914
21.914
21.914
21.914
21.914
21.914
21.914
21.914
21.914
21.914
21.914
21.914
21.914
21.914
21.914
21.914
21.914
21.914
21.914
21.914
21.914
21.914
21.914
21.914
21.914
21.914
21.914
21.914
21.914
21.914
21.914
21.914
21.914
21.914
21.9141
21.9141
21.9141
21.9141
21.9141
21.9141
21.9141
21.9141
21.9141
21.9141
21.9141
21.9142
21.9142
21.9142
21.9142
21.9142
21.9142
21.9143
21.9143
21.9143
21.9143
21.9144
21.9144
21.9145
21.9145
21.9146
21.9146
21.9147
21.9147
21.9148
21.9149
21.915
21.9151
21.9152
21.9154
21.9155
21.9157
21.9158
21.916
21.9163
21.9165
21.9168
21.9172
21.9175
21.9179
21.9184
21.9139
21.9139
21.914
21.914
21.914
21.914
21.914
21.914
21.914
21.914
21.914
21.914
21.914
21.914
21.914
21.914
21.914
21.914
21.914
21.914
21.914
21.914
21.9141
21.9141
21.9141
21.9141
21.9141
21.9141
21.9141
21.9141
21.9141
21.9141
21.9141
21.9141
21.9141
21.9142
21.9142
21.9142
21.9142
21.9142
21.9142
21.9142
21.9142
21.9142
21.9142
21.9142
21.9142
21.9143
21.9143
21.9143
21.9143
21.9143
21.9143
21.9143
21.9143
21.9143
21.9143
21.9144
21.9144
21.9144
21.9144
21.9144
21.9144
21.9144
21.9145
21.9145
21.9145
21.9145
21.9146
21.9146
21.9146
21.9146
21.9147
21.9147
21.9147
21.9148
21.9148
21.9149
21.9149
21.915
21.9151
21.9151
21.9152
21.9153
21.9154
21.9155
21.9156
21.9157
21.9159
21.916
21.9162
21.9164
21.9166
21.9168
21.917
21.9173
21.9176
21.918
21.9184
21.9188
21.9193
21.9198
21.9203
21.921
21.9217
21.9225
21.9234
21.9245
21.9257
21.9271
21.9286
21.9304
21.9322
21.9343
21.9365
21.939
21.914
21.914
21.914
21.914
21.914
21.9141
21.9141
21.9141
21.9141
21.9141
21.9141
21.9141
21.9142
21.9142
21.9142
21.9142
21.9142
21.9143
21.9143
21.9143
21.9143
21.9143
21.9144
21.9144
21.9144
21.9144
21.9145
21.9145
21.9145
21.9146
21.9146
21.9146
21.9146
21.9147
21.9147
21.9147
21.9148
21.9148
21.9148
21.9149
21.9149
21.9149
21.915
21.915
21.915
21.9151
21.9151
21.9151
21.9152
21.9152
21.9152
21.9153
21.9153
21.9154
21.9154
21.9154
21.9155
21.9155
21.9156
21.9156
21.9156
21.9157
21.9157
21.9158
21.9158
21.9159
21.916
21.916
21.9161
21.9162
21.9163
21.9164
21.9165
21.9166
21.9167
21.9168
21.9169
21.9171
21.9172
21.9174
21.9175
21.9177
21.9179
21.9181
21.9183
21.9185
21.9188
21.9191
21.9195
21.9198
21.9203
21.9207
21.9212
21.9217
21.9223
21.923
21.9237
21.9244
21.9253
21.9262
21.9273
21.9285
21.9299
21.9315
21.9333
21.9352
21.9374
21.9397
21.9423
21.9451
21.9482
21.9516
21.9556
21.9602
21.9654
21.9713
21.978
21.9855
21.9938
22.0029
22.0129
22.0238
22.0361
21.9143
21.9144
21.9144
21.9145
21.9145
21.9146
21.9146
21.9147
21.9147
21.9148
21.9149
21.9149
21.915
21.9151
21.9151
21.9152
21.9153
21.9154
21.9155
21.9156
21.9157
21.9158
21.9159
21.9159
21.9161
21.9162
21.9163
21.9164
21.9165
21.9166
21.9167
21.9168
21.9169
21.917
21.9172
21.9173
21.9174
21.9175
21.9177
21.9178
21.9179
21.9181
21.9182
21.9184
21.9185
21.9187
21.9188
21.919
21.9191
21.9193
21.9194
21.9196
21.9198
21.9199
21.9201
21.9203
21.9204
21.9206
21.9208
21.921
21.9212
21.9214
21.9216
21.9218
21.922
21.9223
21.9226
21.9229
21.9232
21.9235
21.9239
21.9243
21.9247
21.9252
21.9257
21.9262
21.9268
21.9274
21.928
21.9287
21.9294
21.9301
21.931
21.9319
21.933
21.9341
21.9354
21.9369
21.9386
21.9404
21.9424
21.9446
21.947
21.9496
21.9523
21.9553
21.9585
21.9621
21.966
21.9705
21.9756
21.9813
21.9878
21.9951
22.0033
22.0124
22.0224
22.0333
22.0453
22.0584
22.073
22.0897
22.1091
22.1319
22.1583
22.1883
22.2222
22.2596
22.3007
22.3454
22.3938
22.4468
22.5064
21.9158
21.9159
21.9161
21.9163
21.9165
21.9167
21.9169
21.9171
21.9173
21.9176
21.9178
21.9181
21.9183
21.9186
21.9189
21.9192
21.9196
21.9199
21.9203
21.9206
21.921
21.9214
21.9218
21.9222
21.9226
21.923
21.9235
21.9239
21.9243
21.9248
21.9252
21.9257
21.9261
21.9266
21.9271
21.9276
21.9281
21.9286
21.9291
21.9296
21.9301
21.9307
21.9312
21.9318
21.9324
21.933
21.9336
21.9342
21.9348
21.9354
21.9361
21.9367
21.9374
21.938
21.9387
21.9394
21.9401
21.9408
21.9415
21.9423
21.9431
21.944
21.9449
21.9459
21.947
21.9482
21.9494
21.9508
21.9523
21.9539
21.9556
21.9574
21.9594
21.9615
21.9637
21.966
21.9685
21.9711
21.9739
21.9769
21.9801
21.9835
21.9873
21.9915
21.9961
22.0014
22.0073
22.0138
22.0211
22.0291
22.0379
22.0476
22.0582
22.0696
22.082
22.0954
22.1099
22.1259
22.1441
22.1649
22.189
22.2168
22.2483
22.2837
22.3231
22.3664
22.4136
22.4648
22.5203
22.5808
22.6485
22.7262
22.8165
22.921
23.0411
23.1773
23.3301
23.4994
23.6849
23.8864
24.1045
24.3424
24.6132
21.9214
21.922
21.9227
21.9234
21.9241
21.9249
21.9258
21.9267
21.9276
21.9286
21.9296
21.9306
21.9317
21.9329
21.934
21.9353
21.9365
21.9378
21.9392
21.9406
21.942
21.9434
21.9449
21.9465
21.948
21.9496
21.9513
21.9529
21.9546
21.9563
21.958
21.9597
21.9615
21.9633
21.9652
21.9671
21.9691
21.9711
21.9733
21.9754
21.9776
21.9799
21.9822
21.9845
21.9869
21.9893
21.9918
21.9943
21.9968
21.9994
22.002
22.0046
22.0073
22.01
22.0128
22.0156
22.0185
22.0214
22.0244
22.0276
22.0309
22.0345
22.0384
22.0425
22.047
22.0519
22.0571
22.0628
22.0689
22.0755
22.0825
22.0901
22.0982
22.1069
22.1162
22.1261
22.1366
22.1478
22.1597
22.1725
22.1861
22.201
22.2174
22.2358
22.2569
22.2808
22.3078
22.3381
22.3717
22.4086
22.4489
22.4927
22.5401
22.5912
22.646
22.705
22.7691
22.8401
22.9206
23.0129
23.1187
23.2392
23.3754
23.5279
23.6972
23.8835
24.0867
24.3069
24.545
24.8042
25.0969
25.4416
25.8521
26.3336
26.8851
27.5032
28.1837
28.9225
29.716
30.5616
31.4598
32.4273
33.5166
34.7989
36.3035
21.9435
21.946
21.9486
21.9514
21.9542
21.9573
21.9604
21.9637
21.9672
21.9708
21.9745
21.9785
21.9826
21.9869
21.9915
21.9962
22.0011
22.0062
22.0115
22.0169
22.0226
22.0283
22.0342
22.0402
22.0463
22.0524
22.0587
22.0649
22.0713
22.0777
22.0842
22.0909
22.0977
22.1046
22.1117
22.1189
22.1264
22.134
22.1418
22.1498
22.158
22.1664
22.175
22.1838
22.1927
22.2019
22.2112
22.2207
22.2304
22.2402
22.2503
22.2604
22.2708
22.2813
22.2921
22.3031
22.3143
22.3259
22.3379
22.3507
22.3644
22.3793
22.3956
22.4135
22.433
22.4543
22.4772
22.5018
22.5283
22.5567
22.587
22.6194
22.6539
22.6907
22.73
22.7717
22.816
22.8632
22.9132
22.9665
23.0237
23.0859
23.1552
23.2331
23.3211
23.4202
23.5312
23.6548
23.7917
23.9423
24.1069
24.2859
24.4795
24.688
24.9118
25.1523
25.4129
25.7048
26.0435
26.4405
26.9011
27.4258
28.0133
28.6614
29.3681
30.1313
30.9492
31.8204
32.7462
33.7436
34.8587
36.1468
37.6303
39.3153
41.2029
43.2899
45.5687
48.0296
50.664
53.4639
56.4423
59.6085
63.3586
68.5619
75.2693
22.0273
22.0367
22.0466
22.0571
22.0682
22.0798
22.092
22.1047
22.1179
22.1317
22.1461
22.1611
22.1766
22.1927
22.2095
22.2268
22.2446
22.2631
22.2821
22.3017
22.3218
22.3424
22.3635
22.3849
22.4068
22.4289
22.4514
22.474
22.4969
22.5203
22.5441
22.5685
22.5938
22.6199
22.647
22.675
22.7039
22.7337
22.7643
22.7957
22.8278
22.8606
22.894
22.928
22.9627
22.9979
23.0338
23.0703
23.1073
23.145
23.1833
23.2222
23.2619
23.3023
23.3435
23.3856
23.4288
23.4733
23.52
23.5697
23.6232
23.6813
23.7443
23.8127
23.8867
23.9669
24.0535
24.1469
24.2474
24.3553
24.4709
24.5947
24.7269
24.868
25.0183
25.1785
25.3489
25.53
25.7225
25.9276
26.1472
26.3876
26.6596
26.9727
27.3324
27.7405
28.1967
28.7004
29.2508
29.8476
30.4906
31.1798
31.9151
32.6967
33.525
34.4031
35.3484
36.3989
37.5938
38.9499
40.4746
42.1743
44.0527
46.1092
48.3396
50.741
53.3114
56.0458
58.9566
62.0545
65.7351
70.6666
76.8743
84.2194
92.5729
101.851
112.002
122.981
134.728
147.201
160.341
174.088
188.081
201.429
214.1
22.3096
22.3419
22.376
22.4118
22.4494
22.4887
22.5297
22.5726
22.6173
22.664
22.7129
22.7641
22.8177
22.8739
22.9326
22.9939
23.0576
23.1237
23.192
23.2623
23.3344
23.4081
23.4832
23.5595
23.6368
23.7148
23.7935
23.8727
23.9525
24.0332
24.1154
24.1994
24.2854
24.3737
24.4643
24.5572
24.6526
24.7506
24.8512
24.9545
25.0604
25.1689
25.28
25.3935
25.5093
25.6274
25.7478
25.8703
25.9951
26.1222
26.2515
26.3834
26.5177
26.6549
26.795
26.9383
27.0852
27.2364
27.3928
27.5578
27.7364
27.9334
28.1516
28.3921
28.6547
28.9394
29.2461
29.5749
29.9265
30.3015
30.7009
31.1256
31.5766
32.0549
32.5617
33.0979
33.6648
34.2635
34.8951
35.5613
36.2642
37.0143
37.8325
38.7469
39.7702
40.9084
42.1675
43.5539
45.072
46.724
48.5106
50.4318
52.4881
54.6811
57.0144
59.4906
62.1242
64.926
68.2682
72.604
77.9406
84.1841
91.2522
99.1024
107.715
117.064
127.122
137.854
149.228
161.196
173.706
186.377
198.548
210.224
221.499
232.397
242.901
253.011
262.655
271.752
280.342
288.451
296.096
303.094
309.291
314.823
23.3444
23.4598
23.5817
23.7099
23.8441
23.9839
24.1293
24.2801
24.4367
24.5995
24.7686
24.9441
25.126
25.3142
25.5084
25.7087
25.9148
26.1268
26.3443
26.5673
26.7952
27.0277
27.264
27.5036
27.7458
27.9897
28.235
28.4813
28.7293
28.9812
29.2402
29.5086
29.7878
30.0786
30.3808
30.6936
31.0161
31.3473
31.6865
32.033
32.3861
32.7457
33.1113
33.4827
33.8598
34.2426
34.631
35.0249
35.4246
35.8302
36.242
36.6603
37.0857
37.5186
37.96
38.4104
38.8711
39.3434
39.8332
40.3507
40.9069
41.5061
42.15
42.8413
43.5842
44.383
45.241
46.161
47.1452
48.1957
49.3149
50.5054
51.7702
53.1125
54.536
56.0444
57.642
59.3329
61.1228
63.0159
65.0225
67.1493
69.5243
72.538
76.2275
80.5414
85.424
90.8436
96.7896
103.264
110.27
117.808
125.876
134.467
143.557
153.14
163.199
173.722
184.371
194.737
204.868
214.816
224.619
234.296
243.717
252.817
261.681
270.233
278.325
285.977
293.285
300.123
306.273
311.713
316.569
320.937
324.872
328.391
331.536
334.401
336.975
339.243
341.294
343.156
344.783
346.095
347.182
348.197
26.8476
27.2115
27.5903
27.9837
28.3914
28.8129
29.248
29.6977
30.1645
30.6509
31.1591
31.6901
32.2442
32.8209
33.4188
34.036
34.6704
35.3196
35.9813
36.6533
37.3335
38.0202
38.7115
39.4054
40.1001
40.794
41.486
42.176
42.8692
43.573
44.2893
45.0167
45.7545
46.5032
47.2648
48.0417
48.836
49.649
50.4809
51.3314
52.2
53.086
53.9889
54.9082
55.844
56.7964
57.7656
58.7525
59.7577
60.7823
61.8277
62.8953
63.9872
65.1055
66.2527
67.4322
68.6466
69.9017
71.2
72.6065
74.3004
76.2891
78.5417
81.0282
83.7315
86.6477
89.782
93.1444
96.7465
100.601
104.719
109.113
113.793
118.771
124.054
129.654
135.575
141.827
148.412
155.335
162.603
170.225
178.111
185.919
193.66
201.389
209.158
216.963
224.762
232.538
240.249
247.86
255.339
262.636
269.753
276.646
283.261
289.629
295.635
301.176
306.233
310.843
315.111
318.969
322.476
325.852
328.859
331.406
333.908
336.351
338.473
340.382
342.173
343.726
345.017
346.121
347.111
348.007
348.858
349.689
350.455
351.132
351.755
352.366
352.933
353.405
353.794
354.094
37.143
38.1901
39.2738
40.39
41.5344
42.7027
43.8949
45.1158
46.3677
47.6471
48.9487
50.269
51.6071
52.9644
54.3435
55.7468
57.1758
58.631
60.1113
61.6142
63.1372
64.6774
66.2313
67.7946
69.3631
70.9347
72.509
74.0876
75.6703
77.4059
79.3223
81.4023
83.6231
85.9638
88.407
90.9399
93.5537
96.2434
99.0061
101.841
104.746
107.721
110.766
113.879
117.062
120.313
123.634
127.025
130.488
134.024
137.636
141.326
145.098
148.956
152.904
156.947
161.09
165.339
169.706
174.152
178.523
182.847
187.175
191.549
195.986
200.494
205.074
209.723
214.44
219.221
224.064
228.961
233.906
238.888
243.898
248.922
253.946
258.961
263.943
268.886
273.782
278.607
283.34
287.901
292.198
296.292
300.211
303.882
307.416
310.831
314.026
317.087
320.039
322.873
325.544
328.052
330.547
332.877
334.999
337.045
338.858
340.512
342.011
343.316
344.602
345.809
346.754
347.728
348.804
349.504
350.161
350.97
351.735
352.272
352.702
353.064
353.362
353.607
353.836
354.081
354.336
354.577
354.809
355.06
355.326
355.573
355.786
355.963
62.5212
64.7505
67.0348
69.3746
71.7686
74.2163
76.7091
79.3278
82.184
85.2924
88.6421
92.2113
95.975
99.91
103.993
108.204
112.524
116.944
121.451
126.029
130.664
135.352
140.079
144.824
149.566
154.3
159.02
163.718
168.397
172.916
177.255
181.442
185.498
189.439
193.274
197.006
200.635
204.161
207.586
210.913
214.148
217.297
220.368
223.367
226.302
229.182
232.012
234.8
237.552
240.274
242.972
245.654
248.327
250.997
253.671
256.354
259.051
261.763
264.494
267.233
269.952
272.637
275.292
277.928
280.553
283.17
285.78
288.38
290.967
293.54
296.097
298.637
301.159
303.662
306.144
308.599
311.03
313.426
315.784
318.113
320.382
322.611
324.818
326.905
328.912
330.88
332.636
334.33
336.064
337.544
338.97
340.445
341.708
342.908
344.054
345.166
346.19
347.015
347.926
348.74
349.333
350.028
350.59
350.926
351.371
351.851
352.202
352.455
352.782
353.145
353.441
353.77
354.171
354.519
354.793
355.023
355.215
355.375
355.508
355.638
355.79
355.955
356.126
356.315
356.527
356.742
356.945
357.119
357.268
128.208
134.755
141.458
148.287
155.212
162.213
169.18
175.965
182.541
188.908
195.065
201.008
206.745
212.271
217.557
222.58
227.356
231.893
236.167
240.16
243.896
247.39
250.619
253.574
256.345
258.999
261.569
264.083
266.535
268.909
271.193
273.383
275.482
277.494
279.422
281.268
283.036
284.727
286.344
287.891
289.372
290.791
292.154
293.466
294.733
295.959
297.151
298.312
299.447
300.56
301.655
302.737
303.812
304.885
305.961
307.04
308.127
309.23
310.354
311.498
312.653
313.815
314.985
316.165
317.358
318.562
319.777
321.001
322.23
323.463
324.697
325.93
327.161
328.386
329.604
330.814
332.007
333.192
334.358
335.494
336.629
337.727
338.775
339.845
340.831
341.721
342.708
343.586
344.334
345.247
346.046
346.733
347.542
348.219
348.913
349.643
350.214
350.917
351.536
351.979
352.529
352.978
353.264
353.59
353.917
354.204
354.398
354.585
354.852
355.091
355.323
355.607
355.894
356.149
356.353
356.518
356.661
356.779
356.881
356.995
357.126
357.27
357.431
357.617
357.818
358.019
358.203
358.367
241.139
247.657
253.768
259.459
264.715
269.502
273.817
277.668
281.182
284.417
287.411
290.18
292.766
295.171
297.387
299.433
301.365
303.156
304.81
306.305
307.632
308.768
309.626
310.166
310.434
310.523
310.506
310.417
310.276
310.105
309.918
309.729
309.549
309.39
309.261
309.165
309.107
309.09
309.114
309.182
309.292
309.447
309.645
309.886
310.173
310.504
310.882
311.308
311.781
312.302
312.871
313.485
314.142
314.842
315.583
316.363
317.177
318.039
318.933
319.858
320.809
321.78
322.768
323.771
324.79
325.825
326.873
327.932
328.999
330.07
331.143
332.214
333.284
334.347
335.405
336.455
337.49
338.521
339.532
340.518
341.51
342.455
343.366
344.316
345.15
345.911
346.791
347.484
348.081
348.879
349.475
349.994
350.668
351.163
351.68
352.263
352.718
353.302
353.805
354.183
354.643
355.016
355.296
355.553
355.776
356.009
356.196
356.309
356.483
356.69
356.875
357.07
357.303
357.534
357.712
357.839
357.958
358.067
358.15
358.224
358.316
358.428
358.556
358.707
358.883
359.072
359.256
359.427
320.174
322.254
324.153
325.762
326.959
327.583
327.742
327.599
327.251
326.835
326.386
325.684
324.88
324.221
323.657
322.931
322.091
321.477
320.997
320.487
320.024
319.809
319.762
319.703
319.574
319.377
319.11
318.791
318.447
318.095
317.746
317.411
317.1
316.822
316.582
316.384
316.231
316.124
316.066
316.057
316.098
316.187
316.327
316.516
316.757
317.048
317.392
317.787
318.236
318.735
319.284
319.88
320.521
321.206
321.934
322.707
323.526
324.378
325.265
326.173
327.1
328.045
329.003
329.974
330.957
331.949
332.949
333.954
334.96
335.964
336.964
337.956
338.938
339.913
340.873
341.817
342.755
343.665
344.558
345.451
346.285
347.108
347.962
348.676
349.372
350.173
350.721
351.242
351.966
352.407
352.809
353.389
353.766
354.136
354.544
354.924
355.326
355.659
356.045
356.366
356.631
356.897
357.106
357.232
357.371
357.564
357.674
357.742
357.895
358.052
358.179
358.347
358.559
358.743
358.86
358.96
359.077
359.176
359.241
359.308
359.405
359.52
359.65
359.808
359.993
360.185
360.367
340.04
339.114
338.184
337.555
337.158
336.963
336.69
336.169
335.547
334.882
334.011
332.955
332.029
331.264
330.276
329.127
328.169
327.383
326.444
325.447
324.813
324.343
323.929
323.534
323.165
322.776
322.332
321.857
321.371
320.886
320.419
319.983
319.591
319.252
318.972
318.756
318.607
318.525
318.51
318.562
318.678
318.858
319.098
319.397
319.754
320.168
320.636
321.158
321.731
322.353
323.021
323.733
324.486
325.278
326.105
326.963
327.849
328.768
329.705
330.661
331.63
332.608
333.593
334.582
335.573
336.565
337.553
338.536
339.51
340.471
341.417
342.346
343.259
344.148
345.018
345.872
346.689
347.498
348.291
349.015
349.761
350.501
351.102
351.759
352.451
352.885
353.372
354.018
354.348
354.67
355.19
355.525
355.775
356.089
356.51
356.765
356.981
357.355
357.667
357.84
358.055
358.303
358.456
358.508
358.635
358.779
358.839
358.921
359.058
359.168
359.274
359.451
359.646
359.785
359.865
359.968
360.09
360.176
360.229
360.306
360.416
360.536
360.675
360.848
361.042
361.234
361.413
361.58
347.234
345.811
344.257
342.755
341.378
340.379
339.393
338.114
337.079
336.147
334.848
333.339
332.262
331.237
329.892
328.516
327.53
326.581
325.446
324.371
323.59
322.837
322.208
321.707
321.304
320.992
320.705
320.412
320.123
319.842
319.572