/*--------------------------------*- C++ -*----------------------------------*\
| =========                 |                                                 |
| \\      /  F ield         | OpenFOAM: The Open Source CFD Toolbox           |
|  \\    /   O peration     | Version:  v1706                                 |
|   \\  /    A nd           | Web:      www.OpenFOAM.com                      |
|    \\/     M anipulation  |                                                 |
\*---------------------------------------------------------------------------*/
FoamFile
{
    version     2.0;
    format      ascii;
    class       volScalarField;
    location    "3.7e-05";
    object      Tt;
}
// * * * * * * * * * * * * * * * * * * * * * * * * * * * * * * * * * * * * * //

dimensions      [0 0 0 1 0 0 0];


internalField   nonuniform List<scalar> 
29871
(
144.4
144.4
144.4
144.4
144.4
144.4
144.4
144.4
144.4
144.4
144.4
144.4
144.4
144.4
144.4
144.4
144.4
144.4
144.4
144.4
144.4
144.4
144.4
144.4
144.4
144.4
144.4
144.4
144.4
144.4
144.4
144.4
144.4
144.4
144.4
144.4
144.4
144.4
144.4
144.4
144.4
144.4
144.4
144.4
144.4
144.4
144.4
144.4
144.4
144.4
144.4
144.4
144.4
144.4
144.4
144.4
144.4
144.4
144.4
144.4
144.4
144.4
144.4
144.4
144.4
144.4
144.4
144.4
144.4
144.4
144.4
144.4
144.4
144.4
144.4
144.4
144.4
144.4
144.4
144.4
144.4
144.4
144.4
144.4
144.4
144.4
144.4
144.4
144.4
144.4
144.4
144.4
144.4
144.4
144.4
144.4
144.4
144.4
144.4
144.4
144.4
144.4
144.4
144.4
144.4
144.4
144.4
144.4
144.4
144.4
144.4
144.4
144.4
144.4
144.4
144.4
144.4
144.4
144.4
144.4
144.4
144.4
144.4
144.4
144.4
144.4
144.4
144.4
144.4
144.4
144.4
144.4
144.4
144.4
144.4
144.4
144.4
144.4
144.4
144.4
144.4
144.4
144.4
144.4
144.4
144.4
144.4
144.4
144.4
144.4
144.4
144.4
144.4
144.4
144.4
144.4
144.4
144.4
144.4
144.4
144.4
144.4
144.4
144.4
144.4
144.4
144.4
144.4
144.4
144.4
144.4
144.4
144.4
144.4
144.4
144.4
144.4
144.4
144.4
144.4
144.4
144.4
144.4
144.4
144.4
144.4
144.4
144.4
144.4
144.4
144.4
144.4
144.4
144.4
144.4
144.4
144.4
144.4
144.4
144.4
144.4
144.4
144.4
144.4
144.4
144.4
144.4
144.4
144.4
144.4
144.4
144.4
144.4
144.4
144.4
144.4
144.4
144.4
144.4
144.4
144.4
144.4
144.4
144.4
144.4
144.4
144.4
144.4
144.4
144.4
144.4
144.4
144.4
144.4
144.4
144.4
144.4
144.4
144.4
144.4
144.4
144.4
144.4
144.4
144.4
144.4
144.4
144.4
144.4
144.4
144.4
144.4
144.4
144.4
144.4
144.4
144.4
144.4
144.4
144.4
144.4
144.4
144.4
144.4
144.4
144.4
144.4
144.4
144.4
144.4
144.4
144.4
144.4
144.4
144.4
144.4
144.4
144.4
144.4
144.4
144.4
144.4
144.4
144.4
144.4
144.4
144.4
144.4
144.4
144.4
144.4
144.4
144.4
144.4
144.4
144.4
144.4
144.4
144.4
144.4
144.4
144.4
144.4
144.4
144.4
144.4
144.4
144.4
144.4
144.4
144.4
144.4
144.4
144.4
144.4
144.4
144.4
144.4
144.4
144.4
144.4
144.4
144.4
144.4
144.4
144.4
144.4
144.4
144.4
144.4
144.4
144.4
144.4
144.4
144.4
144.4
144.4
144.4
144.4
144.4
144.4
144.4
144.4
144.4
144.4
144.4
144.4
144.4
144.4
144.4
144.4
144.4
144.4
144.4
144.4
144.4
144.4
144.4
144.4
144.4
144.4
144.4
144.4
144.4
144.4
144.4
144.4
144.4
144.4
144.4
144.4
144.4
144.4
144.4
144.4
144.4
144.4
144.4
144.4
144.4
144.4
144.4
144.4
144.4
144.4
144.4
144.4
144.4
144.4
144.4
144.4
144.4
144.4
144.4
144.4
144.4
144.4
144.4
144.4
144.4
144.4
144.4
144.4
144.4
144.4
144.4
144.4
144.4
144.4
144.4
144.4
144.4
144.4
144.4
144.4
144.4
144.4
144.4
144.4
144.4
144.4
144.4
144.4
144.4
144.4
144.4
144.4
144.4
144.4
144.4
144.4
144.4
144.4
144.4
144.4
144.4
144.4
144.4
144.4
144.4
144.4
144.4
144.4
144.4
144.4
144.4
144.4
144.4
144.4
144.4
144.4
144.4
144.4
144.4
144.4
144.4
144.4
144.4
144.4
144.4
144.4
144.4
144.4
144.4
144.4
144.4
144.4
144.4
144.4
144.4
144.4
144.4
144.4
144.4
144.4
144.4
144.4
144.4
144.4
144.4
144.4
144.4
144.4
144.4
144.4
144.4
144.4
144.4
144.4
144.4
144.4
144.4
144.4
144.4
144.4
144.4
144.4
144.4
144.4
144.4
144.4
144.4
144.4
144.4
144.4
144.4
144.4
144.4
144.4
144.4
144.4
144.4
144.4
144.4
144.4
144.4
144.4
144.4
144.4
144.4
144.4
144.4
144.4
144.4
144.4
144.4
144.4
144.4
144.4
144.4
144.4
144.4
144.4
144.4
144.4
144.4
144.4
144.4
144.4
144.4
144.4
144.4
144.4
144.4
144.4
144.4
144.4
144.4
144.4
144.4
144.4
144.4
144.4
144.4
144.4
144.4
144.4
144.4
144.4
144.4
144.4
144.4
144.4
144.4
144.4
144.4
144.4
144.4
144.4
144.4
144.4
144.4
144.4
144.4
144.4
144.4
144.4
144.4
144.4
144.4
144.4
144.4
144.4
144.4
144.4
144.4
144.4
144.4
144.4
144.4
144.4
144.4
144.4
144.4
144.4
144.4
144.4
144.4
144.4
144.4
144.4
144.4
144.4
144.4
144.4
144.4
144.4
144.4
144.4
144.4
144.4
144.4
144.4
144.4
144.4
144.4
144.4
144.4
144.4
144.4
144.4
144.4
144.4
144.4
144.4
144.4
144.4
144.4
144.4
144.4
144.4
144.4
144.4
144.4
144.4
144.4
144.4
144.4
144.4
144.4
144.4
144.4
144.4
144.4
144.4
144.4
144.4
144.4
144.4
144.4
144.4
144.4
144.4
144.4
144.4
144.4
144.4
144.4
144.4
144.4
144.4
144.4
144.4
144.4
144.4
144.4
144.4
144.4
144.4
144.4
144.4
144.4
144.4
144.4
144.4
144.4
144.4
144.4
144.4
144.4
144.4
144.4
144.4
144.4
144.4
144.4
144.4
144.4
144.4
144.4
144.4
144.4
144.4
144.4
144.4
144.4
144.4
144.4
144.4
144.4
144.4
144.4
144.4
144.4
144.4
144.4
144.4
144.4
144.4
144.4
144.4
144.4
144.4
144.4
144.4
144.4
144.4
144.4
144.4
144.4
144.4
144.4
144.4
144.4
144.4
144.4
144.4
144.4
144.4
144.4
144.4
144.4
144.4
144.4
144.4
144.4
144.4
144.4
144.4
144.4
144.4
144.4
144.4
144.4
144.4
144.4
144.4
144.4
144.4
144.4
144.4
144.4
144.4
144.4
144.4
144.4
144.4
144.4
144.4
144.4
144.4
144.4
144.4
144.4
144.4
144.4
144.4
144.4
144.4
144.4
144.4
144.4
144.4
144.4
144.4
144.4
144.4
144.4
144.4
144.4
144.4
144.4
144.4
144.4
144.4
144.4
144.4
144.4
144.4
144.4
144.4
144.4
144.4
144.4
144.4
144.4
144.4
144.4
144.4
144.4
144.4
144.4
144.4
144.4
144.4
144.4
144.4
144.4
144.4
144.4
144.4
144.4
144.4
144.4
144.4
144.4
144.4
144.4
144.4
144.4
144.4
144.4
144.4
144.4
144.4
144.4
144.4
144.4
144.4
144.4
144.4
144.4
144.4
144.4
144.4
144.4
144.4
144.4
144.4
144.4
144.4
144.4
144.4
144.4
144.4
144.4
144.4
144.4
144.4
144.4
144.4
144.4
144.4
144.4
144.4
144.4
144.4
144.4
144.4
144.4
144.4
144.4
144.4
144.4
144.4
144.4
144.4
144.4
144.4
144.4
144.4
144.4
144.4
144.4
144.4
144.4
144.4
144.4
144.4
144.4
144.4
144.4
144.4
144.4
144.4
144.4
144.4
144.4
144.4
144.4
144.4
144.4
144.4
144.4
144.4
144.4
144.4
144.4
144.4
144.4
144.4
144.4
144.4
144.4
144.4
144.4
144.4
144.4
144.4
144.4
144.4
144.4
144.4
144.4
144.4
144.4
144.4
144.4
144.4
144.4
144.4
144.4
144.4
144.4
144.4
144.4
144.4
144.4
144.4
144.4
144.4
144.4
144.4
144.4
144.4
144.4
144.4
144.4
144.4
144.4
144.4
144.4
144.4
144.4
144.4
144.4
144.4
144.4
144.4
144.4
144.4
144.4
144.4
144.4
144.4
144.4
144.4
144.4
144.4
144.4
144.4
144.4
144.4
144.4
144.4
144.4
144.4
144.4
144.4
144.4
144.4
144.4
144.4
144.4
144.4
144.4
144.4
144.4
144.4
144.4
144.4
144.4
144.4
144.4
144.4
144.4
144.4
144.4
144.4
144.4
144.4
144.4
144.4
144.4
144.4
144.4
144.4
144.4
144.4
144.4
144.4
144.4
144.4
144.4
144.4
144.4
144.4
144.4
144.4
144.4
144.4
144.4
144.4
144.4
144.4
144.4
144.4
144.4
144.4
144.4
144.4
144.4
144.4
144.4
144.4
144.4
144.4
144.4
144.4
144.4
144.4
144.4
144.4
144.4
144.4
144.4
144.4
144.4
144.4
144.4
144.4
144.4
144.4
144.4
144.4
144.4
144.4
144.4
144.4
144.4
144.4
144.4
144.4
144.4
144.4
144.4
144.4
144.4
144.4
144.4
144.4
144.4
144.4
144.4
144.4
144.4
144.4
144.4
144.4
144.4
144.4
144.4
144.4
144.4
144.4
144.4
144.4
144.4
144.4
144.4
144.4
144.4
144.4
144.4
144.4
144.4
144.4
144.4
144.4
144.4
144.4
144.4
144.4
144.4
144.4
144.4
144.4
144.4
144.4
144.4
144.4
144.4
144.4
144.4
144.4
144.4
144.4
144.4
144.4
144.4
144.4
144.4
144.4
144.4
144.4
144.4
144.4
144.4
144.4
144.4
144.4
144.4
144.4
144.4
144.4
144.4
144.4
144.4
144.4
144.4
144.4
144.4
144.4
144.4
144.4
144.4
144.4
144.4
144.4
144.4
144.4
144.4
144.4
144.4
144.4
144.4
144.4
144.4
144.4
144.4
144.4
144.4
144.4
144.4
144.4
144.4
144.4
144.4
144.4
144.4
144.4
144.4
144.4
144.4
144.4
144.4
144.4
144.4
144.4
144.4
144.4
144.4
144.4
144.4
144.4
144.4
144.4
144.4
144.4
144.4
144.4
144.4
144.4
144.4
144.4
144.4
144.4
144.4
144.4
144.4
144.4
144.4
144.4
144.4
144.4
144.4
144.4
144.4
144.4
144.4
144.4
144.4
144.4
144.4
144.4
144.4
144.4
144.4
144.4
144.4
144.4
144.4
144.4
144.4
144.4
144.4
144.4
144.4
144.4
144.4
144.4
144.4
144.4
144.4
144.4
144.4
144.4
144.4
144.4
144.4
144.4
144.4
144.4
144.4
144.4
144.4
144.4
144.4
144.4
144.4
144.4
144.4
144.4
144.4
144.4
144.4
144.4
144.4
144.4
144.4
144.4
144.4
144.4
144.4
144.4
144.4
144.4
144.4
144.4
144.4
144.4
144.4
144.4
144.4
144.4
144.4
144.4
144.4
144.4
144.4
144.4
144.4
144.4
144.4
144.4
144.4
144.4
144.4
144.4
144.4
144.4
144.4
144.4
144.4
144.4
144.4
144.4
144.4
144.4
144.4
144.4
144.4
144.4
144.4
144.4
144.4
144.4
144.4
144.4
144.4
144.4
144.4
144.4
144.4
144.4
144.4
144.4
144.4
144.4
144.4
144.4
144.4
144.4
144.4
144.4
144.4
144.4
144.4
144.4
144.4
144.4
144.4
144.4
144.4
144.4
144.4
144.4
144.4
144.4
144.4
144.4
144.4
144.4
144.4
144.4
144.4
144.4
144.4
144.4
144.4
144.4
144.4
144.4
144.4
144.4
144.4
144.4
144.4
144.4
144.4
144.4
144.4
144.4
144.4
144.4
144.4
144.4
144.4
144.4
144.4
144.4
144.4
144.4
144.4
144.4
144.4
144.4
144.4
144.4
144.4
144.4
144.4
144.4
144.4
144.4
144.4
144.4
144.4
144.4
144.4
144.4
144.4
144.4
144.4
144.4
144.4
144.4
144.4
144.4
144.4
144.4
144.4
144.4
144.4
144.4
144.4
144.4
144.4
144.4
144.4
144.4
144.4
144.4
144.4
144.401
144.401
144.401
144.401
144.401
144.401
144.4
144.4
144.4
144.4
144.4
144.4
144.4
144.4
144.4
144.4
144.4
144.4
144.4
144.4
144.4
144.4
144.4
144.4
144.4
144.4
144.4
144.4
144.4
144.4
144.4
144.4
144.4
144.4
144.4
144.4
144.4
144.4
144.4
144.4
144.4
144.4
144.4
144.4
144.4
144.4
144.4
144.4
144.4
144.4
144.4
144.4
144.4
144.4
144.4
144.4
144.4
144.4
144.4
144.4
144.4
144.4
144.4
144.4
144.4
144.4
144.4
144.4
144.4
144.4
144.4
144.4
144.4
144.4
144.4
144.4
144.4
144.4
144.4
144.4
144.4
144.4
144.4
144.4
144.4
144.4
144.4
144.4
144.4
144.4
144.4
144.4
144.4
144.4
144.401
144.401
144.401
144.401
144.401
144.401
144.401
144.401
144.401
144.401
144.401
144.401
144.401
144.402
144.402
144.402
144.402
144.402
144.403
144.403
144.403
144.403
144.404
144.404
144.405
144.4
144.4
144.4
144.4
144.4
144.4
144.4
144.4
144.4
144.4
144.4
144.4
144.4
144.4
144.4
144.4
144.4
144.4
144.4
144.4
144.4
144.4
144.4
144.4
144.4
144.4
144.4
144.4
144.4
144.4
144.4
144.4
144.4
144.4
144.4
144.4
144.4
144.4
144.4
144.4
144.4
144.4
144.4
144.4
144.4
144.4
144.4
144.4
144.4
144.4
144.4
144.4
144.4
144.401
144.401
144.401
144.401
144.401
144.401
144.401
144.401
144.401
144.401
144.401
144.401
144.401
144.401
144.401
144.401
144.401
144.401
144.401
144.401
144.401
144.401
144.401
144.401
144.401
144.401
144.401
144.401
144.401
144.402
144.402
144.402
144.402
144.402
144.402
144.402
144.402
144.403
144.403
144.403
144.403
144.403
144.404
144.404
144.405
144.405
144.405
144.406
144.406
144.407
144.408
144.409
144.409
144.41
144.412
144.413
144.414
144.416
144.418
144.42
144.422
144.424
144.4
144.4
144.4
144.4
144.4
144.4
144.4
144.4
144.4
144.4
144.4
144.4
144.401
144.401
144.401
144.401
144.401
144.401
144.401
144.401
144.401
144.401
144.401
144.401
144.401
144.401
144.401
144.401
144.401
144.401
144.401
144.401
144.401
144.401
144.401
144.401
144.401
144.401
144.401
144.402
144.402
144.402
144.402
144.402
144.402
144.402
144.402
144.402
144.402
144.402
144.402
144.402
144.402
144.402
144.402
144.402
144.402
144.402
144.403
144.403
144.403
144.403
144.403
144.403
144.403
144.403
144.403
144.403
144.404
144.404
144.404
144.404
144.404
144.404
144.405
144.405
144.405
144.405
144.406
144.406
144.406
144.407
144.407
144.407
144.408
144.409
144.409
144.41
144.411
144.411
144.412
144.413
144.414
144.415
144.417
144.418
144.42
144.422
144.424
144.426
144.429
144.432
144.435
144.438
144.442
144.446
144.451
144.457
144.464
144.471
144.479
144.489
144.499
144.51
144.522
144.535
144.401
144.401
144.401
144.401
144.401
144.401
144.401
144.401
144.401
144.401
144.401
144.401
144.401
144.402
144.402
144.402
144.402
144.402
144.402
144.402
144.402
144.402
144.403
144.403
144.403
144.403
144.403
144.403
144.403
144.404
144.404
144.404
144.404
144.404
144.404
144.404
144.405
144.405
144.405
144.405
144.405
144.405
144.406
144.406
144.406
144.406
144.406
144.407
144.407
144.407
144.407
144.407
144.408
144.408
144.408
144.408
144.408
144.409
144.409
144.409
144.409
144.41
144.41
144.41
144.41
144.411
144.411
144.411
144.412
144.412
144.413
144.413
144.414
144.414
144.415
144.415
144.416
144.417
144.418
144.418
144.419
144.42
144.421
144.422
144.423
144.425
144.426
144.428
144.43
144.432
144.434
144.437
144.439
144.442
144.446
144.449
144.453
144.457
144.461
144.466
144.472
144.479
144.486
144.495
144.504
144.515
144.526
144.539
144.553
144.568
144.584
144.603
144.625
144.65
144.679
144.711
144.748
144.79
144.835
144.885
144.939
144.999
145.065
144.403
144.403
144.403
144.403
144.403
144.404
144.404
144.404
144.405
144.405
144.405
144.406
144.406
144.406
144.407
144.407
144.408
144.408
144.409
144.409
144.41
144.41
144.411
144.411
144.412
144.412
144.413
144.413
144.414
144.415
144.415
144.416
144.416
144.417
144.418
144.418
144.419
144.42
144.42
144.421
144.422
144.423
144.423
144.424
144.425
144.426
144.426
144.427
144.428
144.429
144.43
144.431
144.431
144.432
144.433
144.434
144.435
144.436
144.437
144.438
144.439
144.44
144.441
144.442
144.443
144.445
144.446
144.448
144.45
144.452
144.454
144.456
144.458
144.461
144.463
144.466
144.469
144.473
144.476
144.48
144.483
144.488
144.492
144.497
144.503
144.509
144.516
144.524
144.533
144.543
144.553
144.565
144.578
144.592
144.607
144.623
144.64
144.659
144.681
144.705
144.733
144.764
144.8
144.841
144.886
144.936
144.991
145.051
145.116
145.187
145.267
145.357
145.463
145.586
145.728
145.889
146.071
146.273
146.494
146.735
146.995
147.281
147.603
144.41
144.411
144.412
144.413
144.414
144.415
144.416
144.418
144.419
144.42
144.422
144.423
144.425
144.426
144.428
144.43
144.431
144.433
144.435
144.437
144.439
144.441
144.443
144.445
144.448
144.45
144.452
144.454
144.457
144.459
144.461
144.464
144.466
144.469
144.471
144.474
144.477
144.479
144.482
144.485
144.488
144.491
144.494
144.497
144.5
144.503
144.507
144.51
144.513
144.517
144.52
144.523
144.527
144.53
144.534
144.538
144.541
144.545
144.549
144.553
144.558
144.562
144.567
144.572
144.578
144.584
144.591
144.599
144.606
144.615
144.624
144.634
144.644
144.655
144.667
144.679
144.693
144.707
144.722
144.738
144.755
144.774
144.794
144.817
144.842
144.871
144.904
144.94
144.98
145.025
145.073
145.127
145.185
145.247
145.315
145.387
145.466
145.554
145.652
145.765
145.896
146.045
146.215
146.405
146.617
146.85
147.104
147.38
147.679
148.006
148.371
148.793
149.287
149.862
150.524
151.274
152.11
153.031
154.031
155.11
156.27
157.531
158.959
144.442
144.445
144.449
144.453
144.457
144.461
144.466
144.471
144.476
144.481
144.487
144.492
144.498
144.504
144.511
144.517
144.524
144.532
144.539
144.547
144.554
144.562
144.571
144.579
144.588
144.596
144.605
144.614
144.623
144.632
144.641
144.651
144.66
144.67
144.68
144.69
144.701
144.712
144.723
144.734
144.746
144.758
144.77
144.782
144.795
144.807
144.82
144.834
144.847
144.861
144.874
144.888
144.903
144.917
144.932
144.946
144.962
144.977
144.993
145.01
145.028
145.047
145.068
145.091
145.116
145.143
145.172
145.203
145.237
145.273
145.312
145.353
145.398
145.445
145.496
145.549
145.607
145.668
145.732
145.802
145.876
145.956
146.045
146.145
146.259
146.388
146.533
146.695
146.876
147.074
147.29
147.526
147.781
148.056
148.351
148.668
149.013
149.396
149.832
150.335
150.915
151.578
152.326
153.16
154.081
155.086
156.175
157.347
158.606
159.971
161.506
163.296
165.402
167.843
170.613
173.687
177.04
180.642
184.467
188.493
192.716
197.204
202.231
208.186
215.168
144.565
144.579
144.593
144.608
144.624
144.641
144.659
144.677
144.696
144.716
144.737
144.759
144.782
144.805
144.83
144.855
144.882
144.909
144.938
144.967
144.997
145.028
145.06
145.092
145.124
145.157
145.19
145.224
145.258
145.292
145.327
145.363
145.399
145.437
145.475
145.514
145.555
145.596
145.639
145.683
145.728
145.773
145.82
145.868
145.917
145.966
146.016
146.068
146.12
146.173
146.226
146.281
146.336
146.393
146.45
146.509
146.569
146.631
146.695
146.763
146.837
146.917
147.004
147.099
147.202
147.314
147.436
147.567
147.707
147.858
148.02
148.193
148.377
148.574
148.783
149.006
149.243
149.495
149.763
150.048
150.354
150.688
151.06
151.481
151.96
152.502
153.109
153.785
154.53
155.345
156.231
157.189
158.218
159.321
160.498
161.755
163.114
164.629
166.372
168.391
170.706
173.317
176.213
179.38
182.799
186.452
190.321
194.391
198.661
203.197
208.244
214.102
220.841
228.373
236.561
245.262
254.347
263.703
273.23
282.85
292.543
302.397
313.249
326.608
341.748
145.036
145.087
145.142
145.2
145.26
145.323
145.389
145.458
145.53
145.605
145.683
145.765
145.85
145.938
146.03
146.125
146.224
146.325
146.43
146.538
146.649
146.762
146.877
146.994
147.113
147.233
147.354
147.476
147.599
147.724
147.852
147.983
148.117
148.256
148.399
148.546
148.698
148.854
149.014
149.178
149.346
149.518
149.693
149.871
150.053
150.238
150.425
150.616
150.81
151.007
151.208
151.412
151.619
151.83
152.046
152.266
152.492
152.726
152.971
153.233
153.517
153.827
154.166
154.535
154.936
155.369
155.836
156.339
156.877
157.453
158.069
158.725
159.423
160.166
160.956
161.793
162.68
163.62
164.614
165.669
166.796
168.028
169.413
170.992
172.785
174.799
177.031
179.476
182.128
184.981
188.028
191.263
194.679
198.269
202.03
205.971
210.158
214.795
220.098
226.115
232.791
240.045
247.79
255.938
264.406
273.119
282.012
291.02
300.126
309.414
319.67
331.929
345.603
359.971
374.493
388.805
402.661
415.892
428.374
440.06
450.926
460.926
470.012
478.023
485.095
146.608
146.787
146.977
147.176
147.385
147.603
147.831
148.068
148.315
148.573
148.841
149.121
149.413
149.717
150.033
150.362
150.702
151.053
151.415
151.787
152.167
152.556
152.951
153.352
153.758
154.167
154.578
154.991
155.407
155.827
156.254
156.692
157.142
157.605
158.082
158.573
159.077
159.596
160.127
160.67
161.226
161.793
162.37
162.958
163.556
164.163
164.78
165.405
166.04
166.685
167.338
168.002
168.677
169.364
170.063
170.776
171.506
172.254
173.027
173.843
174.724
175.689
176.748
177.904
179.159
180.512
181.962
183.512
185.163
186.915
188.773
190.738
192.813
195
197.301
199.719
202.256
204.914
207.695
210.601
213.642
216.854
220.34
224.259
228.672
233.568
238.909
244.656
250.767
257.206
263.932
270.909
278.101
285.474
292.999
300.649
308.427
316.415
325.304
335.702
347.201
359.331
371.733
384.154
396.402
408.316
419.78
430.705
441.039
450.747
459.774
468.041
475.427
482.038
487.97
493.291
498.058
502.325
506.107
509.411
512.298
514.807
516.954
518.742
520.241
521.58
152.379
153.004
153.66
154.347
155.063
155.807
156.578
157.375
158.202
159.059
159.95
160.875
161.834
162.826
163.851
164.906
165.99
167.101
168.236
169.392
170.566
171.755
172.955
174.163
175.375
176.586
177.796
179.002
180.209
181.429
182.675
183.956
185.275
186.633
188.029
189.46
190.923
192.415
193.934
195.476
197.039
198.62
200.219
201.833
203.461
205.103
206.759
208.428
210.111
211.808
213.52
215.25
216.997
218.766
220.558
222.378
224.228
226.116
228.063
230.12
232.355
234.796
237.44
240.278
243.302
246.508
249.892
253.451
257.185
261.09
265.164
269.406
273.811
278.377
283.101
287.977
293.003
298.172
303.481
308.923
314.503
320.264
326.449
333.677
341.772
350.475
359.58
368.929
378.401
387.899
397.337
406.639
415.744
424.595
433.136
441.345
449.199
456.653
463.619
470.02
475.925
481.372
486.404
491.061
495.316
499.179
502.706
505.888
508.702
511.183
513.371
515.274
516.91
518.342
519.638
520.832
521.938
522.954
523.884
524.742
525.514
526.192
526.793
527.31
527.73
528.064
528.368
528.696
171.205
173.11
175.083
177.119
179.212
181.355
183.547
185.791
188.096
190.471
192.918
195.437
198.024
200.674
203.378
206.129
208.917
211.732
214.566
217.408
220.248
223.08
225.894
228.681
231.433
234.144
236.811
239.435
242.039
244.672
247.358
250.098
252.884
255.708
258.563
261.444
264.345
267.263
270.192
273.128
276.067
279.005
281.941
284.872
287.797
290.716
293.629
296.538
299.444
302.349
305.257
308.169
311.09
314.025
316.978
319.956
322.963
326.009
329.122
332.425
336.182
340.326
344.767
349.441
354.304
359.329
364.497
369.793
375.203
380.713
386.309
391.974
397.693
403.447
409.219
414.99
420.742
426.457
432.115
437.7
443.205
448.604
453.86
458.872
463.664
468.245
472.631
476.824
480.812
484.599
488.176
491.538
494.683
497.601
500.303
502.788
505.049
507.098
508.936
510.596
512.118
513.534
514.875
516.119
517.281
518.419
519.453
520.355
521.246
522.105
522.848
523.506
524.105
524.622
525.075
525.507
525.941
526.38
526.831
527.294
527.751
528.185
528.6
528.999
529.364
529.675
529.948
530.196
221.618
226.126
230.695
235.307
239.939
244.575
249.211
253.873
258.591
263.364
268.178
273.013
277.851
282.678
287.48
292.245
296.96
301.615
306.199
310.698
315.102
319.405
323.596
327.664
331.601
335.406
339.083
342.646
346.134
349.781
353.575
357.455
361.374
365.297
369.2
373.062
376.871
380.616
384.293
387.896
391.426
394.881
398.262
401.571
404.809
407.98
411.087
414.132
417.12
420.055
422.94
425.78
428.58
431.344
434.078
436.785
439.47
442.139
444.792
447.42
449.983
452.499
454.982
457.44
459.879
462.3
464.702
467.084
469.444
471.779
474.084
476.358
478.595
480.791
482.942
485.04
487.083
489.066
490.981
492.829
494.609
496.309
497.931
499.482
500.964
502.408
503.824
505.184
506.517
507.823
509.07
510.279
511.452
512.584
513.655
514.664
515.652
516.566
517.396
518.186
518.898
519.57
520.219
520.838
521.469
522.1
522.68
523.267
523.888
524.422
524.945
525.493
525.999
526.422
526.8
527.151
527.487
527.823
528.168
528.527
528.899
529.272
529.646
530.023
530.396
530.745
531.065
531.353
318.744
325.65
332.429
339.062
345.53
351.819
357.935
364.021
370.198
376.407
382.586
388.679
394.641
400.439
406.043
411.428
416.577
421.484
426.143
430.55
434.701
438.606
442.267
445.681
448.843
451.775
454.502
457.044
459.415
461.586
463.578
465.416
467.115
468.686
470.139
471.484
472.726
473.874
474.935
475.916
476.826
477.672
478.461
479.202
479.901
480.565
481.199
481.81
482.403
482.983
483.554
484.123
484.693
485.268
485.854
486.452
487.066
487.698
488.346
489.012
489.698
490.411
491.158
491.938
492.749
493.587
494.449
495.331
496.23
497.142
498.066
499
499.941
500.887
501.835
502.782
503.726
504.661
505.585
506.498
507.389
508.263
509.12
509.934
510.725
511.512
512.259
513.012
513.793
514.526
515.264
516.029
516.745
517.46
518.165
518.855
519.527
520.146
520.778
521.369
521.881
522.403
522.883
523.309
523.772
524.236
524.687
525.119
525.58
526.047
526.497
526.964
527.44
527.871
528.268
528.631
528.969
529.293
529.61
529.932
530.268
530.615
530.972
531.34
531.715
532.086
532.442
532.775
533.089
449.82
456.225
462.193
467.72
472.811
477.468
481.668
485.396
488.711
491.662
494.288
496.616
498.675
500.488
502.066
503.417
504.562
505.521
506.304
506.913
507.359
507.657
507.826
507.845
507.807
507.746
507.665
507.572
507.467
507.351
507.227
507.094
506.954
506.807
506.653
506.492
506.323
506.148
505.966
505.78
505.591
505.402
505.214
505.03
504.853
504.684
504.527
504.382
504.253
504.141
504.049
503.978
503.931
503.91
503.918
503.953
504.019
504.12
504.254
504.419
504.616
504.847
505.116
505.424
505.77
506.154
506.572
507.02
507.496
507.997
508.52
509.063
509.624
510.199
510.787
511.385
511.988
512.597
513.207
513.811
514.417
515.013
515.589
516.167
516.719
517.244
517.8
518.337
518.845
519.41
519.955
520.473
521.036
521.567
522.106
522.658
523.159
523.695
524.199
524.641
525.104
525.527
525.901
526.287
526.669
527.055
527.418
527.792
528.195
528.594
529.004
529.43
529.854
530.256
530.626
530.97
531.297
531.61
531.916
532.229
532.555
532.894
533.246
533.61
533.981
534.35
534.708
535.052
532.38
533.923
535.172
536.144
536.841
537.267
537.464
537.445
537.369
537.233
537.045
536.808
536.53
536.202
535.829
535.415
534.965
534.468
533.937
533.36
532.712
531.991
531.199
530.334
529.42
528.492
527.57
526.661
525.769
524.899
524.056
523.243
522.464
521.721
521.016
520.349
519.719
519.124
518.563
518.034
517.537
517.071
516.635
516.228
515.85
515.501
515.18
514.888
514.624
514.388
514.18
513.999
513.844
513.717
513.617
513.546
513.497
513.492
513.508
513.55
513.619
513.714
513.837
513.99
514.174
514.39
514.638
514.914
515.218
515.546
515.898
516.27
516.662
517.069
517.492
517.928
518.374
518.83
519.29
519.751
520.221
520.684
521.138
521.604
522.036
522.447
522.895
523.294
523.672
524.117
524.515
524.897
525.336
525.733
526.146
526.584
526.979
527.41
527.816
528.186
528.577
528.937
529.269
529.592
529.903
530.228
530.546
530.849
531.179
531.528
531.877
532.239
532.62
533.001
533.361
533.701
534.029
534.346
534.648
534.948
535.258
535.583
535.921
536.272
536.636
537.005
537.372
537.733
563.61
563.077
562.477
561.768
560.909
559.885
558.754
557.591
556.415
555.247
554.095
552.934
551.753
550.641
549.596
548.519
547.442
546.434
545.488
544.544
543.624
542.779
541.932
541.028
540.073
539.082
538.068
537.047
536.036
535.044
534.077
533.141
532.241
531.382
530.565
529.793
529.065
528.381
527.741
527.143
526.587
526.07
525.592
525.153
524.75
524.382
524.051
523.753
523.488
523.254
523.051
522.876
522.727
522.606
522.51
522.437
522.389
522.357
522.357
522.371
522.405
522.461
522.539
522.639
522.763
522.91
523.081
523.274
523.488
523.721
523.971
524.237
524.518
524.812
525.118
525.433
525.76
526.09
526.426
526.772
527.109
527.45
527.804
528.121
528.435
528.783
529.06
529.336
529.678
529.946
530.211
530.539
530.817
531.104
531.414
531.723
532.045
532.347
532.668
532.976
533.265
533.547
533.825
534.077
534.333
534.613
534.871
535.132
535.424
535.726
536.03
536.356
536.705
537.049
537.374
537.691
538.006
538.31
538.602
538.898
539.211
539.539
539.88
540.234
540.6
540.969
541.336
576.402
575.219
574.087
572.999
571.964
570.901
569.719
568.422
567.079
565.734
564.345
562.924
561.578
560.31
558.987
557.682
556.464
555.323
554.174
553.082
552.07
551.119
550.171
549.213
548.243
547.248
546.23
545.205
544.189
543.188
542.21
541.264
540.355
539.49
538.67
537.898
537.175
536.501
535.875
535.296
534.764
534.276
533.832
533.429
533.066
532.741
532.454
532.202
531.983
531.796
531.638
531.507
531.402
531.319
531.258
531.216
531.189
531.191
531.202
531.228
531.268
531.321
531.388
531.469
531.564
531.674
531.798
531.935
532.085
532.246
532.418
532.599
532.791
532.99
533.197
533.413
533.631
533.858
534.092
534.317
534.557
534.803
535.017
535.251
535.499
535.68
535.881
536.133
536.304
536.48
536.723
536.92
537.107
537.324
537.579
537.802
538.014
538.278
538.529
538.748
538.976
539.214
539.439
539.63
539.844
540.073
540.285
540.516
540.773
541.032
541.304
541.603
541.919
542.222
542.512
542.807
543.104
543.388
543.667
543.961
544.274
544.602
544.943
545.298
545.662
546.027
546.391
546.753
586.949
585.447
583.969
582.561
581.211
579.942
578.651
577.24
575.864
574.498
573.008
571.489
570.095
568.724
567.284
565.883
564.601
563.353
562.095
560.908
559.834
558.812
557.864
556.954
556.075
555.207
554.33
553.446
552.563
551.686
550.819
549.972
549.149
548.358
547.602
546.885
546.211
545.58
544.994
544.452
543.954
543.499
543.086
542.714
542.381
542.086
541.827
541.602
541.41
541.248
541.115
541.008
540.925
540.863
540.82
540.793
540.781
540.785
540.799
540.822
540.854
540.893
540.938
540.989
541.047
541.111
541.182
541.259
541.343
541.433
541.527
541.628
541.733
541.843
541.959
542.079
542.202
542.335
542.469
542.599
542.749
542.895
543.023
543.182
543.334
543.438
543.576
543.741
543.832
543.937
544.106
544.232
544.331
544.473
544.659
544.798
544.934
545.124
545.323
545.485
545.645
545.84
546.023
546.176
546.318
546.495
546.677
546.856
547.061
547.283
547.508
547.752
548.021
548.3
548.564
548.827
549.104
549.38
549.642
549.911
550.205
550.519
550.844
551.184
551.536
551.896
552.256
552.614
594.924
593.296
591.682
590.125
588.655
587.314
586.009
584.678
583.452
582.215
580.837
579.527
578.281
576.958
575.6
574.333
573.109
571.857
570.634
569.496
568.405
567.347
566.379
565.475
564.629
563.829
563.053
562.29
561.535
560.788
560.048
559.319
558.606
557.913
557.245
556.607
556.003
555.436
554.907
554.417
553.967
553.556
553.184
552.849
552.551
552.287
552.056
551.857
551.688
551.547
551.431
551.34
551.27
551.219
551.185
551.165
551.157
551.16
551.169
551.183
551.202
551.224
551.248
551.273
551.298
551.325
551.353
551.383
551.414
551.446
551.479
551.515
551.551
551.589
551.631
551.674
551.719
551.772
551.822
551.875
551.946
552.005
552.062
552.151
552.215
552.259
552.341
552.424
552.45
552.498
552.605
552.66
552.694
552.773
552.895
552.967
553.039
553.161
553.309
553.418
553.521
553.666
553.804
553.926
554.013
554.131
554.285
554.429
554.583
554.765
554.956
555.15
555.361
555.605
555.855
556.089
556.332
556.59
556.843
557.089
557.357
557.654
557.966
558.288
558.624
558.972
559.325
559.678
601.398
599.837
598.292
596.807
595.409
594.027
592.71
591.537
590.319
589.088
587.921
586.773
585.53
584.348
583.21
582.035
580.858
579.735
578.664
577.611
576.593
575.631
574.739
573.914
573.146
572.427
571.745
571.089
570.452
569.832
569.225
568.63
568.048
567.483
566.938
566.419
565.928
565.468
565.041
564.647
564.286
563.96
563.667
563.406
563.175
562.973
562.799
562.651
562.528
562.427
562.346
562.283
562.238
562.206
562.187
562.176
562.173
562.174
562.176
562.18
562.184
562.187
562.188
562.186
562.183
562.177
562.169
562.16
562.148
562.136
562.123
562.108
562.093
562.078
562.062
562.049
562.04
562.025
562.02
562.023
562.016
562.018
562.04
562.037
562.036
562.066
562.075
562.056
562.063
562.111
562.103
562.092
562.123
562.19
562.204
562.225
562.292
562.393
562.453
562.51
562.608
562.707
562.789
562.841
562.918
563.042
563.162
563.271
563.404
563.57
563.734
563.892
564.086
564.315
564.542
564.753
564.98
565.222
565.456
565.7
565.976
566.276
566.584
566.901
567.233
567.576
567.923
609.7
608.222
606.766
605.361
603.966
602.562
601.292
600.104
598.884
597.747
596.665
595.555
594.459
593.382
592.356
591.299
590.238
589.209
588.23
587.27
586.329
585.426
584.576
583.785
583.053
582.376
581.748
581.162
580.61
580.088
579.588
579.104