/*--------------------------------*- C++ -*----------------------------------*\
| =========                 |                                                 |
| \\      /  F ield         | OpenFOAM: The Open Source CFD Toolbox           |
|  \\    /   O peration     | Version:  v1706                                 |
|   \\  /    A nd           | Web:      www.OpenFOAM.com                      |
|    \\/     M anipulation  |                                                 |
\*---------------------------------------------------------------------------*/
FoamFile
{
    version     2.0;
    format      ascii;
    class       volScalarField;
    location    "3.7e-05";
    object      Tv;
}
// * * * * * * * * * * * * * * * * * * * * * * * * * * * * * * * * * * * * * //

dimensions      [0 0 0 1 0 0 0];


internalField   nonuniform List<scalar> 
29871
(
144.4
144.4
144.4
144.4
144.4
144.4
144.4
144.4
144.4
144.4
144.4
144.4
144.4
144.4
144.4
144.4
144.4
144.4
144.4
144.4
144.4
144.4
144.4
144.4
144.4
144.4
144.4
144.4
144.4
144.4
144.4
144.4
144.4
144.4
144.4
144.4
144.4
144.4
144.4
144.4
144.4
144.4
144.4
144.4
144.4
144.4
144.4
144.4
144.4
144.4
144.4
144.4
144.4
144.4
144.4
144.4
144.4
144.4
144.4
144.4
144.4
144.4
144.4
144.4
144.4
144.4
144.4
144.4
144.4
144.4
144.4
144.4
144.4
144.4
144.4
144.4
144.4
144.4
144.4
144.4
144.4
144.4
144.4
144.4
144.4
144.4
144.4
144.4
144.4
144.4
144.4
144.4
144.4
144.4
144.4
144.4
144.4
144.4
144.4
144.4
144.4
144.4
144.4
144.4
144.4
144.4
144.4
144.4
144.4
144.4
144.4
144.4
144.4
144.4
144.4
144.4
144.4
144.4
144.4
144.4
144.4
144.4
144.4
144.4
144.4
144.4
144.4
144.4
144.4
144.4
144.4
144.4
144.4
144.4
144.4
144.4
144.4
144.4
144.4
144.4
144.4
144.4
144.4
144.4
144.4
144.4
144.4
144.4
144.4
144.4
144.4
144.4
144.4
144.4
144.4
144.4
144.4
144.4
144.4
144.4
144.4
144.4
144.4
144.4
144.4
144.4
144.4
144.4
144.4
144.4
144.4
144.4
144.4
144.4
144.4
144.4
144.4
144.4
144.4
144.4
144.4
144.4
144.4
144.4
144.4
144.4
144.4
144.4
144.4
144.4
144.4
144.4
144.4
144.4
144.4
144.4
144.4
144.4
144.4
144.4
144.4
144.4
144.4
144.4
144.4
144.4
144.4
144.4
144.4
144.4
144.4
144.4
144.4
144.4
144.4
144.4
144.4
144.4
144.4
144.4
144.4
144.4
144.4
144.4
144.4
144.4
144.4
144.4
144.4
144.4
144.4
144.4
144.4
144.4
144.4
144.4
144.4
144.4
144.4
144.4
144.4
144.4
144.4
144.4
144.4
144.4
144.4
144.4
144.4
144.4
144.4
144.4
144.4
144.4
144.4
144.4
144.4
144.4
144.4
144.4
144.4
144.4
144.4
144.4
144.4
144.4
144.4
144.4
144.4
144.4
144.4
144.4
144.4
144.4
144.4
144.4
144.4
144.4
144.4
144.4
144.4
144.4
144.4
144.4
144.4
144.4
144.4
144.4
144.4
144.4
144.4
144.4
144.4
144.4
144.4
144.4
144.4
144.4
144.4
144.4
144.4
144.4
144.4
144.4
144.4
144.4
144.4
144.4
144.4
144.4
144.4
144.4
144.4
144.4
144.4
144.4
144.4
144.4
144.4
144.4
144.4
144.4
144.4
144.4
144.4
144.4
144.4
144.4
144.4
144.4
144.4
144.4
144.4
144.4
144.4
144.4
144.4
144.4
144.4
144.4
144.4
144.4
144.4
144.4
144.4
144.4
144.4
144.4
144.4
144.4
144.4
144.4
144.4
144.4
144.4
144.4
144.4
144.4
144.4
144.4
144.4
144.4
144.4
144.4
144.4
144.4
144.4
144.4
144.4
144.4
144.4
144.4
144.4
144.4
144.4
144.4
144.4
144.4
144.4
144.4
144.4
144.4
144.4
144.4
144.4
144.4
144.4
144.4
144.4
144.4
144.4
144.4
144.4
144.4
144.4
144.4
144.4
144.4
144.4
144.4
144.4
144.4
144.4
144.4
144.4
144.4
144.4
144.4
144.4
144.4
144.4
144.4
144.4
144.4
144.4
144.4
144.4
144.4
144.4
144.4
144.4
144.4
144.4
144.4
144.4
144.4
144.4
144.4
144.4
144.4
144.4
144.4
144.4
144.4
144.4
144.4
144.4
144.4
144.4
144.4
144.4
144.4
144.4
144.4
144.4
144.4
144.4
144.4
144.4
144.4
144.4
144.4
144.4
144.4
144.4
144.4
144.4
144.4
144.4
144.4
144.4
144.4
144.4
144.4
144.4
144.4
144.4
144.4
144.4
144.4
144.4
144.4
144.4
144.4
144.4
144.4
144.4
144.4
144.4
144.4
144.4
144.4
144.4
144.4
144.4
144.4
144.4
144.4
144.4
144.4
144.4
144.4
144.4
144.4
144.4
144.4
144.4
144.4
144.4
144.4
144.4
144.4
144.4
144.4
144.4
144.4
144.4
144.4
144.4
144.4
144.4
144.4
144.4
144.4
144.4
144.4
144.4
144.4
144.4
144.4
144.4
144.4
144.4
144.4
144.4
144.4
144.4
144.4
144.4
144.4
144.4
144.4
144.4
144.4
144.4
144.4
144.4
144.4
144.4
144.4
144.4
144.4
144.4
144.4
144.4
144.4
144.4
144.4
144.4
144.4
144.4
144.4
144.4
144.4
144.4
144.4
144.4
144.4
144.4
144.4
144.4
144.4
144.4
144.4
144.4
144.4
144.4
144.4
144.4
144.4
144.4
144.4
144.4
144.4
144.4
144.4
144.4
144.4
144.4
144.4
144.4
144.4
144.4
144.4
144.4
144.4
144.4
144.4
144.4
144.4
144.4
144.4
144.4
144.4
144.4
144.4
144.4
144.4
144.4
144.4
144.4
144.4
144.4
144.4
144.4
144.4
144.4
144.4
144.4
144.4
144.4
144.4
144.4
144.4
144.4
144.4
144.4
144.4
144.4
144.4
144.4
144.4
144.4
144.4
144.4
144.4
144.4
144.4
144.4
144.4
144.4
144.4
144.4
144.4
144.4
144.4
144.4
144.4
144.4
144.4
144.4
144.4
144.4
144.4
144.4
144.4
144.4
144.4
144.4
144.4
144.4
144.4
144.4
144.4
144.4
144.4
144.4
144.4
144.4
144.4
144.4
144.4
144.4
144.4
144.4
144.4
144.4
144.4
144.4
144.4
144.4
144.4
144.4
144.4
144.4
144.4
144.4
144.4
144.4
144.4
144.4
144.4
144.4
144.4
144.4
144.4
144.4
144.4
144.4
144.4
144.4
144.4
144.4
144.4
144.4
144.4
144.4
144.4
144.4
144.4
144.4
144.4
144.4
144.4
144.4
144.4
144.4
144.4
144.4
144.4
144.4
144.4
144.4
144.4
144.4
144.4
144.4
144.4
144.4
144.4
144.4
144.4
144.4
144.4
144.4
144.4
144.4
144.4
144.4
144.4
144.4
144.4
144.4
144.4
144.4
144.4
144.4
144.4
144.4
144.4
144.4
144.4
144.4
144.4
144.4
144.4
144.4
144.4
144.4
144.4
144.4
144.4
144.4
144.4
144.4
144.4
144.4
144.4
144.4
144.4
144.4
144.4
144.4
144.4
144.4
144.4
144.4
144.4
144.4
144.4
144.4
144.4
144.4
144.4
144.4
144.4
144.4
144.4
144.4
144.4
144.4
144.4
144.4
144.4
144.4
144.4
144.4
144.4
144.4
144.4
144.4
144.4
144.4
144.4
144.4
144.4
144.4
144.4
144.4
144.4
144.4
144.4
144.4
144.4
144.4
144.4
144.4
144.4
144.4
144.4
144.4
144.4
144.4
144.4
144.4
144.4
144.4
144.4
144.4
144.4
144.4
144.4
144.4
144.4
144.4
144.4
144.4
144.4
144.4
144.4
144.4
144.4
144.4
144.4
144.4
144.4
144.4
144.4
144.4
144.4
144.4
144.4
144.4
144.4
144.4
144.4
144.4
144.4
144.4
144.4
144.4
144.4
144.4
144.4
144.4
144.4
144.4
144.4
144.4
144.4
144.4
144.4
144.4
144.4
144.4
144.4
144.4
144.4
144.4
144.4
144.4
144.4
144.4
144.4
144.4
144.4
144.4
144.4
144.4
144.4
144.4
144.4
144.4
144.4
144.4
144.4
144.4
144.4
144.4
144.4
144.4
144.4
144.4
144.4
144.4
144.4
144.4
144.4
144.4
144.4
144.4
144.4
144.4
144.4
144.4
144.4
144.4
144.4
144.4
144.4
144.4
144.4
144.4
144.4
144.4
144.4
144.4
144.4
144.4
144.4
144.4
144.4
144.4
144.4
144.4
144.4
144.4
144.4
144.4
144.4
144.4
144.4
144.4
144.4
144.4
144.4
144.4
144.4
144.4
144.4
144.4
144.4
144.4
144.4
144.4
144.4
144.4
144.4
144.4
144.4
144.4
144.4
144.4
144.4
144.4
144.4
144.4
144.4
144.4
144.4
144.4
144.4
144.4
144.4
144.4
144.4
144.4
144.4
144.4
144.4
144.4
144.4
144.4
144.4
144.4
144.4
144.4
144.4
144.4
144.4
144.4
144.4
144.4
144.4
144.4
144.4
144.4
144.4
144.4
144.4
144.4
144.4
144.4
144.4
144.4
144.4
144.4
144.4
144.4
144.4
144.4
144.4
144.4
144.4
144.4
144.4
144.4
144.4
144.4
144.4
144.4
144.4
144.4
144.4
144.4
144.4
144.4
144.4
144.4
144.4
144.4
144.4
144.4
144.4
144.4
144.4
144.4
144.4
144.4
144.4
144.4
144.4
144.4
144.4
144.4
144.4
144.4
144.4
144.4
144.4
144.4
144.4
144.4
144.4
144.4
144.4
144.4
144.4
144.4
144.4
144.4
144.4
144.4
144.4
144.4
144.4
144.4
144.4
144.4
144.4
144.4
144.4
144.4
144.4
144.4
144.4
144.4
144.4
144.4
144.4
144.4
144.4
144.4
144.4
144.4
144.4
144.4
144.4
144.4
144.4
144.4
144.4
144.4
144.4
144.4
144.4
144.4
144.4
144.4
144.4
144.4
144.4
144.4
144.4
144.4
144.4
144.4
144.4
144.4
144.4
144.4
144.4
144.4
144.4
144.4
144.4
144.4
144.4
144.4
144.4
144.4
144.4
144.4
144.4
144.4
144.4
144.4
144.4
144.4
144.4
144.4
144.4
144.4
144.4
144.4
144.4
144.4
144.4
144.4
144.4
144.4
144.4
144.4
144.4
144.4
144.4
144.4
144.4
144.4
144.4
144.4
144.4
144.4
144.4
144.4
144.4
144.4
144.4
144.4
144.4
144.4
144.4
144.4
144.4
144.4
144.4
144.4
144.4
144.4
144.4
144.4
144.4
144.4
144.4
144.4
144.4
144.4
144.4
144.4
144.4
144.4
144.4
144.4
144.4
144.4
144.4
144.4
144.4
144.4
144.4
144.4
144.4
144.4
144.4
144.4
144.4
144.4
144.4
144.4
144.4
144.4
144.4
144.4
144.4
144.4
144.4
144.4
144.4
144.4
144.4
144.4
144.4
144.4
144.4
144.4
144.4
144.4
144.4
144.4
144.4
144.4
144.4
144.4
144.4
144.4
144.4
144.4
144.4
144.4
144.4
144.4
144.4
144.4
144.4
144.4
144.4
144.4
144.4
144.4
144.4
144.4
144.4
144.4
144.4
144.4
144.4
144.4
144.4
144.4
144.4
144.4
144.4
144.4
144.4
144.4
144.4
144.4
144.4
144.4
144.4
144.4
144.4
144.4
144.4
144.4
144.4
144.4
144.4
144.4
144.4
144.4
144.4
144.4
144.4
144.4
144.4
144.4
144.4
144.4
144.4
144.4
144.4
144.4
144.4
144.4
144.4
144.4
144.4
144.4
144.4
144.4
144.4
144.4
144.4
144.4
144.4
144.4
144.4
144.4
144.4
144.4
144.4
144.4
144.4
144.4
144.4
144.4
144.4
144.4
144.4
144.4
144.4
144.4
144.4
144.4
144.4
144.4
144.4
144.4
144.4
144.4
144.4
144.4
144.4
144.4
144.4
144.4
144.4
144.4
144.4
144.4
144.4
144.4
144.4
144.4
144.4
144.4
144.4
144.4
144.4
144.4
144.4
144.4
144.4
144.4
144.4
144.4
144.4
144.4
144.4
144.4
144.4
144.4
144.4
144.4
144.4
144.4
144.4
144.4
144.4
144.4
144.4
144.4
144.4
144.4
144.4
144.4
144.4
144.4
144.4
144.4
144.4
144.4
144.4
144.4
144.4
144.4
144.4
144.4
144.4
144.4
144.4
144.4
144.4
144.4
144.4
144.4
144.4
144.4
144.4
144.4
144.4
144.4
144.4
144.4
144.4
144.4
144.4
144.4
144.4
144.4
144.4
144.4
144.4
144.4
144.4
144.4
144.4
144.4
144.4
144.4
144.4
144.4
144.4
144.4
144.4
144.4
144.4
144.4
144.4
144.4
144.4
144.4
144.4
144.4
144.4
144.4
144.4
144.4
144.4
144.4
144.4
144.4
144.4
144.4
144.4
144.4
144.4
144.4
144.4
144.4
144.4
144.4
144.4
144.4
144.4
144.4
144.4
144.4
144.4
144.4
144.4
144.4
144.4
144.4
144.4
144.4
144.4
144.4
144.4
144.4
144.4
144.4
144.4
144.4
144.4
144.4
144.4
144.4
144.4
144.4
144.4
144.4
144.4
144.4
144.4
144.4
144.4
144.4
144.4
144.4
144.4
144.4
144.4
144.4
144.4
144.4
144.4
144.4
144.4
144.4
144.4
144.4
144.4
144.4
144.4
144.4
144.4
144.4
144.4
144.4
144.4
144.4
144.4
144.4
144.4
144.4
144.4
144.4
144.4
144.4
144.4
144.4
144.4
144.4
144.4
144.4
144.4
144.4
144.4
144.4
144.4
144.4
144.4
144.4
144.4
144.4
144.4
144.4
144.4
144.4
144.4
144.4
144.4
144.4
144.4
144.4
144.4
144.4
144.4
144.4
144.4
144.4
144.4
144.4
144.4
144.4
144.4
144.4
144.4
144.4
144.4
144.4
144.4
144.4
144.4
144.4
144.4
144.4
144.4
144.4
144.4
144.4
144.4
144.4
144.4
144.4
144.4
144.4
144.4
144.4
144.4
144.4
144.4
144.4
144.4
144.4
144.4
144.4
144.4
144.4
144.4
144.4
144.4
144.4
144.4
144.4
144.4
144.4
144.4
144.4
144.4
144.4
144.4
144.4
144.4
144.4
144.4
144.4
144.4
144.4
144.4
144.4
144.4
144.4
144.4
144.4
144.4
144.4
144.4
144.4
144.4
144.4
144.4
144.4
144.4
144.4
144.4
144.4
144.4
144.4
144.4
144.4
144.4
144.4
144.4
144.4
144.4
144.4
144.4
144.4
144.4
144.4
144.4
144.4
144.4
144.4
144.4
144.4
144.4
144.4
144.4
144.4
144.4
144.4
144.4
144.4
144.4
144.4
144.4
144.4
144.4
144.4
144.4
144.4
144.4
144.4
144.4
144.4
144.4
144.4
144.4
144.4
144.4
144.4
144.4
144.4
144.4
144.4
144.4
144.4
144.4
144.4
144.4
144.4
144.4
144.4
144.4
144.4
144.4
144.4
144.4
144.4
144.4
144.4
144.4
144.4
144.4
144.4
144.4
144.4
144.4
144.4
144.4
144.4
144.4
144.4
144.4
144.4
144.4
144.4
144.4
144.4
144.4
144.4
144.4
144.4
144.4
144.4
144.4
144.4
144.4
144.4
144.4
144.4
144.4
144.4
144.4
144.4
144.4
144.4
144.4
144.4
144.4
144.4
144.4
144.4
144.4
144.4
144.4
144.4
144.4
144.4
144.4
144.4
144.4
144.4
144.4
144.4
144.4
144.4
144.4
144.4
144.4
144.4
144.4
144.4
144.4
144.4
144.4
144.4
144.4
144.4
144.4
144.4
144.4
144.4
144.4
144.4
144.4
144.4
144.4
144.4
144.4
144.4
144.4
144.4
144.4
144.4
144.4
144.4
144.4
144.4
144.4
144.4
144.4
144.4
144.4
144.4
144.4
144.4
144.4
144.4
144.4
144.4
144.4
144.4
144.4
144.4
144.4
144.4
144.4
144.4
144.4
144.4
144.4
144.4
144.4
144.4
144.4
144.4
144.4
144.4
144.4
144.4
144.4
144.4
144.4
144.4
144.4
144.4
144.4
144.4
144.4
144.4
144.4
144.4
144.4
144.4
144.4
144.4
144.4
144.4
144.4
144.4
144.4
144.4
144.4
144.4
144.4
144.4
144.4
144.4
144.4
144.4
144.4
144.4
144.4
144.4
144.4
144.4
144.4
144.4
144.4
144.4
144.4
144.4
144.4
144.4
144.4
144.4
144.4
144.4
144.4
144.4
144.4
144.4
144.4
144.4
144.4
144.4
144.4
144.4
144.4
144.4
144.4
144.4
144.4
144.4
144.4
144.4
144.4
144.4
144.4
144.4
144.4
144.4
144.4
144.4
144.4
144.4
144.4
144.4
144.4
144.4
144.4
144.4
144.4
144.4
144.4
144.4
144.4
144.4
144.4
144.4
144.4
144.4
144.4
144.4
144.4
144.4
144.4
144.4
144.4
144.4
144.4
144.4
144.4
144.4
144.4
144.4
144.4
144.4
144.4
144.4
144.4
144.4
144.4
144.4
144.4
144.4
144.4
144.4
144.4
144.4
144.4
144.4
144.4
144.4
144.4
144.4
144.4
144.4
144.4
144.4
144.4
144.4
144.4
144.4
144.4
144.4
144.4
144.4
144.4
144.4
144.4
144.4
144.4
144.4
144.4
144.4
144.4
144.4
144.4
144.4
144.4
144.4
144.4
144.4
144.4
144.4
144.4
144.4
144.4
144.4
144.4
144.4
144.4
144.4
144.4
144.4
144.4
144.4
144.4
144.4
144.4
144.4
144.4
144.4
144.4
144.4
144.4
144.4
144.4
144.4
144.4
144.4
144.4
144.4
144.4
144.4
144.4
144.4
144.4
144.4
144.4
144.4
144.4
144.4
144.4
144.4
144.4
144.4
144.4
144.4
144.4
144.4
144.4
144.4
144.4
144.4
144.4
144.4
144.4
144.4
144.4
144.4
144.4
144.4
144.4
144.4
144.4
144.4
144.4
144.4
144.4
144.4
144.4
144.4
144.4
144.4
144.4
144.4
144.4
144.4
144.4
144.4
144.4
144.4
144.4
144.4
144.4
144.4
144.4
144.4
144.4
144.4
144.4
144.4
144.4
144.4
144.4
144.4
144.4
144.4
144.4
144.4
144.4
144.4
144.4
144.4
144.4
144.4
144.4
144.4
144.4
144.4
144.4
144.4
144.4
144.4
144.4
144.4
144.4
144.4
144.4
144.4
144.4
144.4
144.4
144.4
144.4
144.4
144.4
144.4
144.4
144.4
144.4
144.4
144.4
144.4
144.4
144.4
144.4
144.4
144.4
144.4
144.4
144.4
144.4
144.4
144.4
144.4
144.4
144.4
144.4
144.4
144.4
144.4
144.4
144.4
144.4
144.4
144.4
144.4
144.4
144.4
144.4
144.4
144.4
144.4
144.4
144.4
144.4
144.4
144.4
144.4
144.4
144.4
144.4
144.4
144.401
144.401
144.4
144.4
144.4
144.4
144.4
144.4
144.4
144.4
144.4
144.4
144.4
144.4
144.4
144.4
144.4
144.4
144.4
144.4
144.4
144.4
144.4
144.4
144.4
144.4
144.4
144.4
144.4
144.4
144.4
144.4
144.4
144.4
144.4
144.4
144.4
144.4
144.4
144.4
144.4
144.4
144.4
144.4
144.4
144.4
144.4
144.4
144.4
144.4
144.4
144.4
144.4
144.4
144.4
144.4
144.4
144.4
144.4
144.4
144.4
144.4
144.4
144.4
144.4
144.4
144.4
144.4
144.4
144.4
144.4
144.4
144.4
144.4
144.4
144.4
144.4
144.4
144.4
144.4
144.4
144.4
144.4
144.4
144.4
144.4
144.4
144.4
144.4
144.4
144.4
144.4
144.4
144.4
144.4
144.4
144.4
144.4
144.4
144.4
144.4
144.4
144.4
144.4
144.4
144.401
144.401
144.401
144.401
144.401
144.401
144.401
144.401
144.401
144.401
144.401
144.402
144.402
144.402
144.402
144.402
144.403
144.403
144.403
144.404
144.404
144.405
144.4
144.4
144.4
144.4
144.4
144.4
144.4
144.4
144.4
144.4
144.4
144.4
144.4
144.4
144.4
144.4
144.4
144.4
144.4
144.4
144.4
144.4
144.4
144.4
144.4
144.4
144.4
144.4
144.4
144.4
144.4
144.4
144.4
144.4
144.4
144.4
144.4
144.4
144.4
144.4
144.4
144.4
144.4
144.4
144.4
144.4
144.4
144.4
144.4
144.4
144.4
144.4
144.4
144.4
144.4
144.4
144.4
144.4
144.4
144.4
144.4
144.4
144.4
144.4
144.4
144.4
144.4
144.4
144.4
144.4
144.4
144.4
144.4
144.4
144.4
144.4
144.4
144.401
144.401
144.401
144.401
144.401
144.401
144.401
144.401
144.401
144.401
144.401
144.401
144.401
144.401
144.401
144.401
144.401
144.402
144.402
144.402
144.402
144.402
144.402
144.402
144.403
144.403
144.403
144.404
144.404
144.404
144.405
144.405
144.406
144.406
144.407
144.408
144.408
144.409
144.41
144.411
144.412
144.413
144.415
144.416
144.417
144.419
144.42
144.422
144.4
144.4
144.4
144.4
144.4
144.4
144.4
144.4
144.4
144.4
144.401
144.401
144.401
144.401
144.401
144.401
144.401
144.401
144.401
144.401
144.401
144.401
144.401
144.401
144.401
144.401
144.401
144.401
144.401
144.401
144.401
144.401
144.401
144.401
144.401
144.401
144.401
144.401
144.401
144.401
144.401
144.401
144.401
144.401
144.401
144.401
144.401
144.402
144.402
144.402
144.402
144.402
144.402
144.402
144.402
144.402
144.402
144.402
144.402
144.402
144.402
144.402
144.402
144.402
144.402
144.402
144.402
144.402
144.402
144.402
144.402
144.402
144.403
144.403
144.403
144.403
144.403
144.403
144.403
144.403
144.404
144.404
144.404
144.404
144.404
144.405
144.405
144.405
144.406
144.406
144.407
144.407
144.408
144.408
144.409
144.409
144.41
144.411
144.412
144.413
144.414
144.415
144.416
144.418
144.419
144.421
144.422
144.424
144.426
144.428
144.43
144.432
144.435
144.437
144.44
144.443
144.447
144.45
144.454
144.457
144.461
144.465
144.469
144.474
144.479
144.401
144.402
144.402
144.402
144.402
144.402
144.402
144.402
144.402
144.403
144.403
144.403
144.403
144.403
144.403
144.404
144.404
144.404
144.404
144.404
144.405
144.405
144.405
144.405
144.405
144.405
144.406
144.406
144.406
144.406
144.406
144.406
144.406
144.407
144.407
144.407
144.407
144.407
144.407
144.407
144.407
144.408
144.408
144.408
144.408
144.408
144.408
144.408
144.408
144.409
144.409
144.409
144.409
144.409
144.409
144.409
144.409
144.409
144.41
144.41
144.41
144.41
144.41
144.41
144.411
144.411
144.411
144.411
144.412
144.412
144.412
144.413
144.413
144.414
144.414
144.415
144.415
144.416
144.417
144.417
144.418
144.419
144.42
144.421
144.422
144.423
144.424
144.425
144.427
144.429
144.43
144.432
144.434
144.436
144.438
144.441
144.443
144.446
144.448
144.451
144.455
144.458
144.462
144.466
144.47
144.474
144.479
144.484
144.489
144.494
144.499
144.505
144.511
144.518
144.525
144.532
144.54
144.548
144.556
144.565
144.574
144.583
144.593
144.603
144.614
144.625
144.408
144.409
144.409
144.41
144.411
144.411
144.412
144.413
144.414
144.415
144.415
144.416
144.417
144.418
144.419
144.42
144.421
144.421
144.422
144.423
144.424
144.425
144.426
144.427
144.427
144.428
144.429
144.43
144.43
144.431
144.432
144.432
144.433
144.433
144.434
144.435
144.435
144.436
144.436
144.437
144.437
144.438
144.438
144.439
144.439
144.44
144.44
144.44
144.441
144.441
144.442
144.442
144.442
144.443
144.443
144.444
144.444
144.444
144.445
144.445
144.446
144.447
144.447
144.448
144.449
144.45
144.451
144.452
144.453
144.454
144.456
144.457
144.459
144.46
144.462
144.464
144.466
144.468
144.47
144.472
144.475
144.477
144.48
144.483
144.487
144.49
144.494
144.498
144.503
144.507
144.512
144.517
144.523
144.529
144.535
144.541
144.547
144.554
144.561
144.569
144.577
144.585
144.594
144.604
144.614
144.624
144.635
144.647
144.658
144.671
144.684
144.697
144.711
144.726
144.741
144.757
144.774
144.792
144.81
144.829
144.849
144.87
144.891
144.913
144.936
144.96
144.984
145.01
144.442
144.445
144.449
144.452
144.455
144.459
144.462
144.465
144.469
144.472
144.476
144.479
144.483
144.486
144.49
144.494
144.497
144.5
144.504
144.507
144.51
144.513
144.516
144.519
144.522
144.524
144.527
144.529
144.531
144.533
144.535
144.537
144.539
144.54
144.542
144.544
144.545
144.547
144.548
144.549
144.55
144.552
144.553
144.554
144.555
144.556
144.557
144.557
144.558
144.559
144.56
144.56
144.561
144.562
144.563
144.564
144.564
144.565
144.566
144.567
144.569
144.57
144.572
144.574
144.576
144.578
144.58
144.583
144.586
144.589
144.592
144.596
144.6
144.604
144.608
144.612
144.617
144.622
144.628
144.633
144.639
144.646
144.653
144.66
144.668
144.676
144.685
144.694
144.704
144.715
144.726
144.738
144.75
144.763
144.776
144.79
144.805
144.82
144.836
144.853
144.871
144.89
144.909
144.93
144.951
144.973
144.997
145.021
145.046
145.073
145.1
145.128
145.158
145.188
145.22
145.252
145.287
145.322
145.359
145.398
145.438
145.479
145.522
145.566
145.611
145.658
145.707
145.758
144.592
144.603
144.614
144.626
144.637
144.648
144.66
144.671
144.682
144.693
144.703
144.714
144.724
144.735
144.745
144.754
144.763
144.772
144.781
144.789
144.797
144.804
144.811
144.817
144.823
144.828
144.833
144.837
144.841
144.844
144.848
144.851
144.854
144.857
144.859
144.862
144.864
144.865
144.867
144.868
144.87
144.871
144.872
144.872
144.873
144.874
144.874
144.874
144.875
144.875
144.875
144.876
144.876
144.877
144.877
144.878
144.879
144.88
144.881
144.883
144.884
144.887
144.889
144.892
144.896
144.9
144.904
144.909
144.914
144.92
144.926
144.933
144.941
144.949
144.957
144.967
144.977
144.987
144.999
145.011
145.024
145.037
145.052
145.067
145.083
145.1
145.119
145.138
145.159
145.181
145.204
145.228
145.254
145.28
145.308
145.338
145.368
145.4
145.433
145.467
145.502
145.54
145.578
145.618
145.66
145.704
145.749
145.796
145.845
145.895
145.948
146.002
146.057
146.115
146.174
146.236
146.299
146.365
146.433
146.503
146.575
146.65
146.727
146.806
146.887
146.97
147.056
147.144
145.071
145.1
145.128
145.155
145.182
145.207
145.232
145.256
145.28
145.303
145.325
145.346
145.366
145.385
145.404
145.421
145.437
145.452
145.466
145.48
145.492
145.503
145.513
145.522
145.53
145.537
145.543
145.547
145.551
145.555
145.558
145.56
145.562
145.563
145.564
145.565
145.565
145.564
145.564
145.563
145.561
145.56
145.558
145.557
145.555
145.553
145.551
145.549
145.547
145.545
145.543
145.542
145.54
145.539
145.539
145.539
145.539
145.54
145.541
145.542
145.545
145.548
145.552
145.556
145.562
145.569
145.577
145.585
145.595
145.606
145.618
145.631
145.646
145.661
145.678
145.697
145.716
145.738
145.76
145.784
145.809
145.836
145.865
145.895
145.926
145.96
145.995
146.032
146.071
146.113
146.156
146.201
146.249
146.299
146.35
146.404
146.46
146.519
146.579
146.641
146.706
146.772
146.841
146.912
146.985
147.061
147.139
147.219
147.302
147.388
147.476
147.567
147.66
147.755
147.854
147.954
148.057
148.164
148.273
148.385
148.5
148.617
148.737
148.86
148.986
149.114
149.245
149.379
149.516
146.216
146.263
146.308
146.351
146.392
146.431
146.468
146.503
146.537
146.568
146.597
146.625
146.651
146.675
146.697
146.717
146.736
146.753
146.769
146.782
146.794
146.805
146.814
146.821
146.826
146.829
146.832
146.833
146.833
146.832
146.831
146.828
146.825
146.822
146.818
146.813
146.808
146.803
146.797
146.791
146.785
146.779
146.772
146.766
146.76
146.754
146.749
146.744
146.739
146.735
146.731
146.728
146.725
146.724
146.723
146.724
146.725
146.728
146.731
146.736
146.742
146.749
146.759
146.769
146.782
146.796
146.813
146.831
146.851
146.873
146.898
146.924
146.953
146.984
147.017
147.053
147.091
147.131
147.174
147.219
147.267
147.317
147.37
147.425
147.483
147.544
147.607
147.673
147.743
147.815
147.89
147.968
148.049
148.134
148.221
148.311
148.404
148.499
148.598
148.699
148.802
148.908
149.017
149.129
149.244
149.361
149.481
149.604
149.73
149.859
149.991
150.125
150.263
150.403
150.545
150.691
150.839
150.991
151.145
151.303
151.463
151.627
151.793
151.962
152.133
152.307
152.484
152.664
148.085
148.146
148.204
148.259
148.31
148.359
148.404
148.445
148.483
148.519
148.552
148.582
148.61
148.636
148.659
148.679
148.698
148.714
148.728
148.74
148.75
148.757
148.763
148.765
148.766
148.765
148.762
148.758
148.753
148.747
148.74
148.732
148.723
148.714
148.704
148.694
148.683
148.673
148.662
148.651
148.64
148.629
148.619
148.609
148.6
148.591
148.583
148.576
148.57
148.565
148.561
148.558
148.557
148.558
148.56
148.564
148.569
148.577
148.586
148.597
148.611
148.627
148.645
148.666
148.69
148.716
148.746
148.778
148.813
148.851
148.892
148.937
148.985
149.036
149.09
149.148
149.209
149.273
149.341
149.412
149.487
149.564
149.645
149.73
149.818
149.909
150.003
150.101
150.203
150.307
150.416
150.528
150.644
150.763
150.885
151.01
151.139
151.271
151.406
151.543
151.683
151.826
151.972
152.121
152.272
152.426
152.583
152.743
152.906
153.071
153.239
153.41
153.583
153.759
153.937
154.118
154.301
154.488
154.677
154.869
155.064
155.261
155.462
155.665
155.87
156.078
156.288
156.501
150.698
150.761
150.82
150.876
150.926
150.972
151.013
151.05
151.084
151.115
151.143
151.169
151.191
151.211
151.228
151.243
151.256
151.266
151.274
151.28
151.284
151.284
151.282
151.278
151.272
151.264
151.255
151.244
151.233
151.221
151.209
151.196
151.182
151.169
151.155
151.141
151.128
151.114
151.102
151.089
151.078
151.067
151.057
151.049
151.041
151.036
151.031
151.028
151.027
151.029
151.031
151.036
151.043
151.053
151.065
151.08
151.098
151.119
151.142
151.169
151.199
151.232
151.269
151.309
151.353
151.4
151.452
151.507
151.565
151.628
151.695
151.766
151.841
151.92
152.002
152.089
152.18
152.275
152.373
152.476
152.582
152.692
152.806
152.923
153.044
153.168
153.297
153.428
153.564
153.703
153.846
153.992
154.142
154.294
154.45
154.609
154.771
154.936
155.103
155.273
155.446
155.621
155.798
155.978
156.161
156.346
156.534
156.725
156.918
157.113
157.31
157.51
157.712
157.916
158.123
158.332
158.543
158.757
158.973
159.191
159.413
159.637
159.863
160.092
160.323
160.556
160.792
153.758
153.816
153.869
153.917
153.96
153.997
154.03
154.06
154.086
154.109
154.129
154.146
154.161
154.174
154.185
154.192
154.199
154.203
154.205
154.206
154.205
154.201
154.195
154.186
154.177
154.165
154.153
154.14
154.126
154.112
154.098
154.085
154.071
154.058
154.045
154.033
154.022
154.012
154.003
153.996
153.99
153.985
153.982
153.983
153.984
153.988
153.993
154.002
154.013
154.027
154.044
154.064
154.087
154.113
154.143
154.177
154.214
154.254
154.299
154.347
154.4
154.456
154.516
154.581
154.65
154.723
154.801
154.883
154.969
155.059
155.154
155.253
155.357
155.465
155.577
155.693
155.813
155.937
156.065
156.197
156.332
156.472
156.615
156.76
156.91
157.064
157.22
157.38
157.545
157.711
157.881
158.055
158.232
158.41
158.592
158.777
158.964
159.153
159.345
159.539
159.735
159.934
160.134
160.337
160.542
160.75
160.96
161.172
161.385
161.601
161.819
162.04
162.262
162.486
162.712
162.94
163.17
163.402
163.637
163.874
164.114
164.356
164.6
164.847
165.096
165.347
165.599
165.854
156.98
157.032
157.08
157.124
157.163
157.198
157.228
157.254
157.276
157.295
157.312
157.325
157.335
157.344
157.352
157.357
157.36
157.362
157.363
157.362
157.361
157.357
157.353
157.347
157.339
157.33
157.32
157.31
157.299
157.288
157.278
157.268
157.259
157.251
157.244
157.239
157.234
157.232
157.233
157.234
157.238
157.243
157.252
157.263
157.277
157.293
157.313
157.336
157.362
157.392
157.425
157.462
157.503
157.547
157.596
157.648
157.705
157.766
157.831
157.9
157.974
158.052
158.134
158.221
158.312
158.408
158.508
158.613
158.722
158.836
158.954
159.076
159.202
159.333
159.467
159.606
159.748
159.895
160.045
160.198
160.355
160.516
160.68
160.846
161.016
161.19
161.365
161.545
161.728
161.913
162.101
162.293
162.487
162.683
162.882
163.084
163.288
163.493
163.7
163.909
164.121
164.334
164.549
164.766
164.985
165.206
165.429
165.654
165.881
166.11
166.341
166.574
166.809
167.045
167.282
167.522
167.763
168.007
168.252
168.499
168.75
169.002
169.257
169.515
169.774
170.035
170.298
170.563
160.289
160.335
160.377
160.416
160.452
160.484
160.513
160.537
160.558
160.575
160.59
160.602
160.612
160.62
160.627
160.632
160.635
160.637
160.639
160.64
160.64
160.64
160.639
160.638
160.636
160.633
160.63
160.627
160.623
160.62
160.617
160.616
160.617
160.618
160.621
160.625
160.632
160.641
160.654
160.668
160.686
160.706
160.729
160.755
160.785
160.818
160.855
160.896
160.94
160.989
161.041
161.097
161.158
161.223
161.292
161.366
161.443
161.526
161.612
161.703
161.799
161.899
162.003
162.112
162.225
162.343
162.465
162.591
162.722
162.857
162.996
163.139
163.286
163.436
163.591
163.749
163.911
164.076
164.245
164.417
164.591
164.77
164.951
165.134
165.321
165.511
165.702
165.896
166.095
166.294
166.495
166.701
166.909
167.118
167.33
167.545
167.761
167.978
168.197
168.418
168.641
168.865
169.091
169.318
169.547
169.779
170.011
170.245
170.481
170.72
170.96
171.202
171.446
171.691
171.937
172.185
172.434
172.686
172.939
173.194
173.451
173.711
173.974
174.238
174.505
174.773
175.044
175.316
163.649
163.687
163.722
163.755
163.785
163.813
163.837
163.859
163.878
163.894
163.908
163.919
163.93
163.939
163.946
163.952
163.958
163.964
163.969
163.974
163.979
163.985
163.991
163.996
164.002
164.009
164.015
164.023
164.031
164.04
164.05
164.063
164.077
164.093
164.111
164.132
164.156
164.183
164.213
164.247
164.284
164.325
164.369
164.417
164.469
164.525
164.585
164.649
164.718
164.791
164.868
164.949
165.036
165.126
165.221
165.32
165.424
165.532
165.645
165.761
165.883
166.008
166.138
166.272
166.41
166.552
166.698
166.849
167.003
167.161
167.323
167.488
167.657
167.829
168.005
168.183
168.365
168.55
168.737
168.927
169.121
169.316
169.514
169.714
169.917
170.121
170.329
170.539
170.75
170.963
171.18
171.398
171.618
171.84
172.065
172.291
172.517
172.746
172.977
173.208
173.441
173.675
173.91
174.147
174.386
174.626
174.867
175.111
175.356
175.603
175.852
176.102
176.354
176.607
176.861
177.116
177.374
177.633
177.893
178.156
178.421
178.689
178.958
179.23
179.504
179.779
180.056
166.934
166.971
167.005
167.036
167.066
167.094
167.12
167.143
167.165
167.185
167.202
167.218
167.234
167.248
167.26
167.272
167.284
167.297
167.308
167.321
167.334
167.348
167.362
167.378
167.394
167.412
167.431
167.451
167.473
167.496
167.521
167.548
167.577
167.609
167.643
167.681
167.721
167.765
167.813
167.865
167.92
167.979
168.043
168.11
168.182
168.258
168.339
168.423
168.513
168.606
168.704
168.807
168.914
169.026
169.142
169.262
169.387
169.516
169.649
169.786
169.927
170.072
170.221
170.374
170.531
170.692
170.857
171.025
171.197
171.372
171.551
171.733
171.917
172.105
172.296
172.489
172.686
172.884
173.085
173.289
173.495
173.703
173.913
174.126
174.34
174.555
174.774
174.994
175.214
175.437
175.664
175.891
176.119
176.349
176.583
176.817
177.051
177.287
177.526
177.765
178.004
178.245
178.487
178.731
178.975
179.221
179.469
179.717
179.968
180.221
180.475
180.73
180.986
181.244
181.503
181.763
182.026
182.289
182.553
182.82
183.088
183.359
183.632
183.907
184.184
184.463
184.743
185.025
185.308
170.17
170.208
170.243
170.276
170.308
170.338
170.366
170.393
170.419
170.444
170.467
170.489
170.511
170.532
170.552
170.572
170.592
170.613
170.634
170.656
170.679
170.703
170.728
170.756
170.784
170.815
170.848
170.882
170.919
170.957
170.998
171.042
171.088
171.137
171.188
171.244
171.302
171.365
171.431
171.501
171.576
171.654
171.737
171.825
171.916
172.013
172.113
172.219
172.328
172.443
172.561
172.684
172.812
172.944
173.08
173.22
173.365
173.513
173.665
173.822
173.981
174.145
174.312
174.483
174.657
174.835
175.016
175.2
175.388
175.579
175.772
175.969
176.168
176.37
176.574
176.781
176.989
177.201
177.414
177.629
177.846
178.065
178.286