/*--------------------------------*- C++ -*----------------------------------*\
| =========                 |                                                 |
| \\      /  F ield         | OpenFOAM: The Open Source CFD Toolbox           |
|  \\    /   O peration     | Version:  v1706                                 |
|   \\  /    A nd           | Web:      www.OpenFOAM.com                      |
|    \\/     M anipulation  |                                                 |
\*---------------------------------------------------------------------------*/
FoamFile
{
    version     2.0;
    format      ascii;
    class       volScalarField;
    location    "3.7e-05";
    object      wallHeatFlux;
}
// * * * * * * * * * * * * * * * * * * * * * * * * * * * * * * * * * * * * * //

dimensions      [1 0 -3 0 0 0 0];


internalField   uniform 0;

boundaryField
{
    cone
    {
        type            calculated;
        value           nonuniform List<scalar> 
181
(
35388.4
35054.7
34721.5
34388.9
34056.8
33725.1
33394
33063.5
32733.6
32404.3
32075.8
31748.1
31421.1
31095.1
30770
30445.9
30122.9
29801.1
29480.6
29161.4
28843.6
28527.3
28212.7
27899.8
27588.8
27279.7
26972.7
26667.9
26365.4
26065.4
25767.9
25473.1
25181.1
24892
24606
24323.1
24043.6
23767.4
23494.8
23225.8
22960.6
22699.2
22441.7
22188.3
21938.9
21693.8
21452.9
21216.3
20984.2
20756.4
20533.2
20314.5
20100.3
19890.7
19685.7
19485.4
19289.6
19098.5
18912
18730
18552.7
18379.8
18211.5
18047.7
17888.4
17733.5
17583
17437
17295.5
17158.5
17026.3
16898.8
16776.2
16658.5
16545.9
16438.3
16335.4
16237
16142.6
16051.4
15962.5
15874.7
15786.8
15697.6
15605.7
15510.1
15410
15305.1
15195.6
15082.5
14967.1
14851.7
14739.3
14634.5
14543.7
14473.3
14426.7
14405
14411.1
14451.5
14531.1
14654.2
14820.3
15027.4
15270.7
15542.8
15832.7
16126.4
16408.4
16659.4
16859.2
16982.4
17003.4
16905.9
16674.2
16298.8
15783.7
15141.5
14393.8
13570.1
12705.1
11834.9
10994.1
10211.8
9510.21
8906.94
8412.81
8033.85
7781.1
7659.95
7671.37
7824.65
8127.26
8584.61
9201.5
9980.97
10922.1
12018.7
13257.2
14614.7
16058.1
17543.2
19017.3
20423
21706.1
22819.3
23725.5
24402.4
24834.5
25020.8
24967.9
24678.1
24153.2
23401.8
22438.5
21286
19975
18544.8
17040.4
15508.6
13994
12535
11162.1
9896.34
8750.14
7728.4
6830.17
6050.3
5380.98
4813.09
4337.96
3948.24
3635.76
3395.22
3221.38
3108.7
3053.37
3051.51
3100.96
3199.97
3345.22
)
;
    }
    inlet
    {
        type            calculated;
        value           uniform 0;
    }
    rWedge
    {
        type            wedge;
    }
    lWedge
    {
        type            wedge;
    }
    outlet
    {
        type            calculated;
        value           nonuniform 0();
    }
    procBoundary1to0
    {
        type            processor;
        value           uniform 0;
    }
    procBoundary1to2
    {
        type            processor;
        value           uniform 0;
    }
}


// ************************************************************************* //
