/*--------------------------------*- C++ -*----------------------------------*\
| =========                 |                                                 |
| \\      /  F ield         | OpenFOAM: The Open Source CFD Toolbox           |
|  \\    /   O peration     | Version:  v1706                                 |
|   \\  /    A nd           | Web:      www.OpenFOAM.com                      |
|    \\/     M anipulation  |                                                 |
\*---------------------------------------------------------------------------*/
FoamFile
{
    version     2.0;
    format      ascii;
    class       volScalarField;
    location    "3.8e-05";
    object      kappave;
}
// * * * * * * * * * * * * * * * * * * * * * * * * * * * * * * * * * * * * * //

dimensions      [1 1 -3 -1 0 0 0];


internalField   nonuniform List<scalar> 
30038
(
1.46038e-10
1.46038e-10
1.46038e-10
1.46038e-10
1.46038e-10
1.46038e-10
1.46038e-10
1.46038e-10
1.46038e-10
1.46038e-10
1.46038e-10
1.46038e-10
1.46038e-10
1.46038e-10
1.46038e-10
1.46038e-10
1.46038e-10
1.46038e-10
1.46038e-10
1.46038e-10
1.46038e-10
1.46038e-10
1.46038e-10
1.46038e-10
1.46038e-10
1.46038e-10
1.46038e-10
1.46038e-10
1.46038e-10
1.46038e-10
1.46038e-10
1.46038e-10
1.46038e-10
1.46038e-10
1.46038e-10
1.46038e-10
1.46038e-10
1.46038e-10
1.46038e-10
1.46038e-10
1.46038e-10
1.46038e-10
1.46038e-10
1.46038e-10
1.46038e-10
1.46038e-10
1.46038e-10
1.46038e-10
1.46038e-10
1.46038e-10
1.46038e-10
1.46038e-10
1.46038e-10
1.46038e-10
1.46038e-10
1.46038e-10
1.46038e-10
1.46038e-10
1.46038e-10
1.46038e-10
1.46038e-10
1.46038e-10
1.46038e-10
1.46038e-10
1.46038e-10
1.46038e-10
1.46038e-10
1.46038e-10
1.46038e-10
1.46038e-10
1.46038e-10
1.46038e-10
1.46038e-10
1.46038e-10
1.46038e-10
1.46038e-10
1.46038e-10
1.46038e-10
1.46038e-10
1.46038e-10
1.46038e-10
1.46038e-10
1.46038e-10
1.46038e-10
1.46038e-10
1.46038e-10
1.46038e-10
1.46038e-10
1.46038e-10
1.46038e-10
1.46038e-10
1.46038e-10
1.46038e-10
1.46038e-10
1.46038e-10
1.46038e-10
1.46038e-10
1.46038e-10
1.46038e-10
1.46038e-10
1.46038e-10
1.46038e-10
1.46038e-10
1.46038e-10
1.46038e-10
1.46038e-10
1.46038e-10
1.46038e-10
1.46038e-10
1.46038e-10
1.46038e-10
1.46038e-10
1.46038e-10
1.46038e-10
1.46038e-10
1.46038e-10
1.46038e-10
1.46038e-10
1.46038e-10
1.46038e-10
1.46038e-10
1.46038e-10
1.46038e-10
1.46038e-10
1.46038e-10
1.46038e-10
1.46038e-10
1.46038e-10
1.46038e-10
1.46038e-10
1.46038e-10
1.46038e-10
1.46038e-10
1.46038e-10
1.46038e-10
1.46038e-10
1.46038e-10
1.46038e-10
1.46038e-10
1.46038e-10
1.46038e-10
1.46038e-10
1.46038e-10
1.46038e-10
1.46038e-10
1.46038e-10
1.46038e-10
1.46038e-10
1.46038e-10
1.46038e-10
1.46038e-10
1.46038e-10
1.46038e-10
1.46038e-10
1.46038e-10
1.46038e-10
1.46038e-10
1.46038e-10
1.46038e-10
1.46038e-10
1.46038e-10
1.46038e-10
1.46038e-10
1.46038e-10
1.46038e-10
1.46038e-10
1.46038e-10
1.46038e-10
1.46038e-10
1.46038e-10
1.46038e-10
1.46038e-10
1.46038e-10
1.46038e-10
1.46038e-10
1.46038e-10
1.46038e-10
1.46038e-10
1.46038e-10
1.46038e-10
1.46038e-10
1.46038e-10
1.46038e-10
1.46038e-10
1.46038e-10
1.46038e-10
1.46038e-10
1.46038e-10
1.46038e-10
1.46038e-10
1.46038e-10
1.46038e-10
1.46038e-10
1.46038e-10
1.46038e-10
1.46038e-10
1.46038e-10
1.46038e-10
1.46038e-10
1.46038e-10
1.46038e-10
1.46038e-10
1.46038e-10
1.46038e-10
1.46038e-10
1.46038e-10
1.46038e-10
1.46038e-10
1.46038e-10
1.46038e-10
1.46038e-10
1.46038e-10
1.46038e-10
1.46038e-10
1.46038e-10
1.46038e-10
1.46038e-10
1.46038e-10
1.46038e-10
1.46038e-10
1.46038e-10
1.46038e-10
1.46038e-10
1.46038e-10
1.46038e-10
1.46038e-10
1.46038e-10
1.46038e-10
1.46038e-10
1.46038e-10
1.46038e-10
1.46038e-10
1.46038e-10
1.46038e-10
1.46038e-10
1.46038e-10
1.46038e-10
1.46038e-10
1.46038e-10
1.46038e-10
1.46038e-10
1.46038e-10
1.46038e-10
1.46038e-10
1.46038e-10
1.46038e-10
1.46038e-10
1.46038e-10
1.46038e-10
1.46038e-10
1.46038e-10
1.46038e-10
1.46038e-10
1.46038e-10
1.46038e-10
1.46038e-10
1.46038e-10
1.46038e-10
1.46038e-10
1.46038e-10
1.46038e-10
1.46038e-10
1.46038e-10
1.46038e-10
1.46038e-10
1.46038e-10
1.46038e-10
1.46038e-10
1.46038e-10
1.46038e-10
1.46038e-10
1.46038e-10
1.46038e-10
1.46038e-10
1.46038e-10
1.46038e-10
1.46038e-10
1.46038e-10
1.46038e-10
1.46038e-10
1.46038e-10
1.46038e-10
1.46038e-10
1.46038e-10
1.46038e-10
1.46038e-10
1.46038e-10
1.46038e-10
1.46038e-10
1.46038e-10
1.46038e-10
1.46038e-10
1.46038e-10
1.46038e-10
1.46038e-10
1.46038e-10
1.46038e-10
1.46038e-10
1.46038e-10
1.46038e-10
1.46038e-10
1.46038e-10
1.46038e-10
1.46038e-10
1.46038e-10
1.46038e-10
1.46038e-10
1.46038e-10
1.46038e-10
1.46038e-10
1.46038e-10
1.46038e-10
1.46038e-10
1.46038e-10
1.46038e-10
1.46038e-10
1.46038e-10
1.46038e-10
1.46038e-10
1.46038e-10
1.46038e-10
1.46038e-10
1.46038e-10
1.46038e-10
1.46038e-10
1.46038e-10
1.46038e-10
1.46038e-10
1.46038e-10
1.46038e-10
1.46038e-10
1.46038e-10
1.46038e-10
1.46038e-10
1.46038e-10
1.46038e-10
1.46038e-10
1.46038e-10
1.46038e-10
1.46038e-10
1.46038e-10
1.46038e-10
1.46038e-10
1.46038e-10
1.46038e-10
1.46038e-10
1.46038e-10
1.46038e-10
1.46038e-10
1.46038e-10
1.46038e-10
1.46038e-10
1.46038e-10
1.46038e-10
1.46038e-10
1.46038e-10
1.46038e-10
1.46038e-10
1.46038e-10
1.46038e-10
1.46038e-10
1.46038e-10
1.46038e-10
1.46038e-10
1.46038e-10
1.46038e-10
1.46038e-10
1.46038e-10
1.46038e-10
1.46038e-10
1.46038e-10
1.46038e-10
1.46038e-10
1.46038e-10
1.46038e-10
1.46038e-10
1.46038e-10
1.46038e-10
1.46038e-10
1.46038e-10
1.46038e-10
1.46038e-10
1.46038e-10
1.46038e-10
1.46038e-10
1.46038e-10
1.46038e-10
1.46038e-10
1.46038e-10
1.46038e-10
1.46038e-10
1.46038e-10
1.46038e-10
1.46038e-10
1.46038e-10
1.46038e-10
1.46038e-10
1.46038e-10
1.46038e-10
1.46038e-10
1.46038e-10
1.46038e-10
1.46038e-10
1.46038e-10
1.46038e-10
1.46038e-10
1.46038e-10
1.46038e-10
1.46038e-10
1.46038e-10
1.46038e-10
1.46038e-10
1.46038e-10
1.46038e-10
1.46038e-10
1.46038e-10
1.46038e-10
1.46038e-10
1.46038e-10
1.46039e-10
1.46039e-10
1.46038e-10
1.46038e-10
1.46038e-10
1.46038e-10
1.46038e-10
1.46038e-10
1.46038e-10
1.46038e-10
1.46038e-10
1.46038e-10
1.46038e-10
1.46038e-10
1.46038e-10
1.46038e-10
1.46038e-10
1.46038e-10
1.46038e-10
1.46038e-10
1.46038e-10
1.46038e-10
1.46038e-10
1.46038e-10
1.46038e-10
1.46038e-10
1.46038e-10
1.46038e-10
1.46038e-10
1.46038e-10
1.46038e-10
1.46038e-10
1.46038e-10
1.46038e-10
1.46038e-10
1.46038e-10
1.46038e-10
1.46039e-10
1.46039e-10
1.46039e-10
1.4604e-10
1.46041e-10
1.46038e-10
1.46038e-10
1.46038e-10
1.46038e-10
1.46038e-10
1.46038e-10
1.46038e-10
1.46038e-10
1.46038e-10
1.46038e-10
1.46038e-10
1.46038e-10
1.46038e-10
1.46038e-10
1.46038e-10
1.46038e-10
1.46038e-10
1.46038e-10
1.46038e-10
1.46038e-10
1.46038e-10
1.46038e-10
1.46038e-10
1.46038e-10
1.46038e-10
1.46038e-10
1.46038e-10
1.46038e-10
1.46038e-10
1.46038e-10
1.46038e-10
1.46038e-10
1.46038e-10
1.46039e-10
1.46039e-10
1.4604e-10
1.46041e-10
1.46043e-10
1.46045e-10
1.46048e-10
1.46038e-10
1.46038e-10
1.46038e-10
1.46038e-10
1.46038e-10
1.46038e-10
1.46038e-10
1.46038e-10
1.46038e-10
1.46038e-10
1.46038e-10
1.46038e-10
1.46038e-10
1.46038e-10
1.46038e-10
1.46038e-10
1.46038e-10
1.46038e-10
1.46038e-10
1.46038e-10
1.46038e-10
1.46038e-10
1.46038e-10
1.46038e-10
1.46038e-10
1.46038e-10
1.46038e-10
1.46038e-10
1.46038e-10
1.46038e-10
1.46039e-10
1.46039e-10
1.4604e-10
1.46041e-10
1.46042e-10
1.46045e-10
1.46048e-10
1.46052e-10
1.46059e-10
1.46068e-10
1.46038e-10
1.46038e-10
1.46038e-10
1.46038e-10
1.46038e-10
1.46038e-10
1.46038e-10
1.46038e-10
1.46038e-10
1.46038e-10
1.46038e-10
1.46038e-10
1.46038e-10
1.46038e-10
1.46038e-10
1.46038e-10
1.46038e-10
1.46038e-10
1.46038e-10
1.46038e-10
1.46038e-10
1.46038e-10
1.46038e-10
1.46038e-10
1.46038e-10
1.46038e-10
1.46039e-10
1.46039e-10
1.46039e-10
1.4604e-10
1.46041e-10
1.46042e-10
1.46044e-10
1.46047e-10
1.46051e-10
1.46057e-10
1.46066e-10
1.46078e-10
1.46096e-10
1.46123e-10
1.46038e-10
1.46038e-10
1.46038e-10
1.46038e-10
1.46038e-10
1.46038e-10
1.46038e-10
1.46038e-10
1.46038e-10
1.46038e-10
1.46038e-10
1.46038e-10
1.46038e-10
1.46038e-10
1.46038e-10
1.46038e-10
1.46038e-10
1.46038e-10
1.46038e-10
1.46038e-10
1.46038e-10
1.46038e-10
1.46038e-10
1.46039e-10
1.46039e-10
1.46039e-10
1.4604e-10
1.46041e-10
1.46042e-10
1.46044e-10
1.46047e-10
1.46051e-10
1.46057e-10
1.46064e-10
1.46076e-10
1.46092e-10
1.46116e-10
1.4615e-10
1.46199e-10
1.46271e-10
1.46038e-10
1.46038e-10
1.46038e-10
1.46038e-10
1.46038e-10
1.46038e-10
1.46038e-10
1.46038e-10
1.46038e-10
1.46038e-10
1.46038e-10
1.46038e-10
1.46038e-10
1.46038e-10
1.46038e-10
1.46038e-10
1.46038e-10
1.46038e-10
1.46038e-10
1.46038e-10
1.46039e-10
1.46039e-10
1.46039e-10
1.4604e-10
1.46041e-10
1.46042e-10
1.46044e-10
1.46047e-10
1.46051e-10
1.46056e-10
1.46064e-10
1.46075e-10
1.4609e-10
1.46112e-10
1.46143e-10
1.46187e-10
1.46251e-10
1.46342e-10
1.46474e-10
1.46665e-10
1.46038e-10
1.46038e-10
1.46038e-10
1.46038e-10
1.46038e-10
1.46038e-10
1.46038e-10
1.46038e-10
1.46038e-10
1.46038e-10
1.46038e-10
1.46038e-10
1.46038e-10
1.46038e-10
1.46038e-10
1.46038e-10
1.46038e-10
1.46039e-10
1.46039e-10
1.4604e-10
1.4604e-10
1.46041e-10
1.46043e-10
1.46044e-10
1.46047e-10
1.46051e-10
1.46056e-10
1.46064e-10
1.46074e-10
1.46089e-10
1.46109e-10
1.46138e-10
1.4618e-10
1.46238e-10
1.46322e-10
1.4644e-10
1.46609e-10
1.46849e-10
1.47194e-10
1.4769e-10
1.46038e-10
1.46038e-10
1.46038e-10
1.46038e-10
1.46038e-10
1.46038e-10
1.46038e-10
1.46038e-10
1.46038e-10
1.46038e-10
1.46038e-10
1.46038e-10
1.46038e-10
1.46038e-10
1.46038e-10
1.46039e-10
1.46039e-10
1.4604e-10
1.4604e-10
1.46041e-10
1.46043e-10
1.46045e-10
1.46047e-10
1.46051e-10
1.46056e-10
1.46064e-10
1.46074e-10
1.46088e-10
1.46108e-10
1.46136e-10
1.46175e-10
1.46231e-10
1.46308e-10
1.46418e-10
1.46573e-10
1.46791e-10
1.471e-10
1.47537e-10
1.48155e-10
1.49028e-10
1.50265e-10
1.46038e-10
1.46038e-10
1.46038e-10
1.46038e-10
1.46038e-10
1.46038e-10
1.46038e-10
1.46038e-10
1.46038e-10
1.46038e-10
1.46038e-10
1.46039e-10
1.46039e-10
1.46039e-10
1.4604e-10
1.46041e-10
1.46042e-10
1.46043e-10
1.46045e-10
1.46048e-10
1.46052e-10
1.46057e-10
1.46064e-10
1.46075e-10
1.46089e-10
1.46108e-10
1.46135e-10
1.46173e-10
1.46226e-10
1.463e-10
1.46404e-10
1.46549e-10
1.46752e-10
1.47036e-10
1.47435e-10
1.47994e-10
1.48775e-10
1.49866e-10
1.51384e-10
1.53482e-10
1.56361e-10
1.46038e-10
1.46038e-10
1.46038e-10
1.46038e-10
1.46038e-10
1.46038e-10
1.46038e-10
1.46038e-10
1.46038e-10
1.46039e-10
1.46039e-10
1.46039e-10
1.4604e-10
1.46041e-10
1.46042e-10
1.46044e-10
1.46046e-10
1.46049e-10
1.46053e-10
1.46058e-10
1.46065e-10
1.46076e-10
1.4609e-10
1.46109e-10
1.46136e-10
1.46173e-10
1.46225e-10
1.46297e-10
1.46396e-10
1.46534e-10
1.46725e-10
1.46992e-10
1.47363e-10
1.47879e-10
1.48596e-10
1.49589e-10
1.50959e-10
1.52839e-10
1.55398e-10
1.58843e-10
1.6341e-10
1.69343e-10
1.46038e-10
1.46038e-10
1.46038e-10
1.46038e-10
1.46038e-10
1.46038e-10
1.46039e-10
1.46039e-10
1.46039e-10
1.4604e-10
1.4604e-10
1.46041e-10
1.46043e-10
1.46044e-10
1.46046e-10
1.4605e-10
1.46054e-10
1.46059e-10
1.46067e-10
1.46078e-10
1.46092e-10
1.46112e-10
1.46139e-10
1.46176e-10
1.46227e-10
1.46297e-10
1.46394e-10
1.46527e-10
1.46711e-10
1.46965e-10
1.47317e-10
1.47801e-10
1.4847e-10
1.49389e-10
1.50651e-10
1.52371e-10
1.547e-10
1.57821e-10
1.61944e-10
1.67297e-10
1.74096e-10
1.82504e-10
1.92558e-10
1.46038e-10
1.46038e-10
1.46038e-10
1.46039e-10
1.46039e-10
1.46039e-10
1.4604e-10
1.46041e-10
1.46042e-10
1.46043e-10
1.46045e-10
1.46047e-10
1.46051e-10
1.46055e-10
1.46061e-10
1.46069e-10
1.4608e-10
1.46095e-10
1.46115e-10
1.46143e-10
1.46181e-10
1.46232e-10
1.46302e-10
1.46398e-10
1.46529e-10
1.46708e-10
1.46954e-10
1.47292e-10
1.47754e-10
1.48387e-10
1.49253e-10
1.50432e-10
1.52031e-10
1.54185e-10
1.57059e-10
1.60847e-10
1.65756e-10
1.7199e-10
1.79713e-10
1.89012e-10
1.99856e-10
2.12033e-10
2.25195e-10
1.46039e-10
1.46039e-10
1.46039e-10
1.4604e-10
1.4604e-10
1.46041e-10
1.46042e-10
1.46044e-10
1.46046e-10
1.46049e-10
1.46052e-10
1.46057e-10
1.46063e-10
1.46072e-10
1.46084e-10
1.46099e-10
1.46121e-10
1.46149e-10
1.46188e-10
1.4624e-10
1.46311e-10
1.46407e-10
1.46538e-10
1.46716e-10
1.46957e-10
1.47287e-10
1.47735e-10
1.48344e-10
1.49171e-10
1.5029e-10
1.51799e-10
1.53819e-10
1.56503e-10
1.60027e-10
1.64587e-10
1.70375e-10
1.77559e-10
1.8624e-10
1.96415e-10
2.0794e-10
2.20509e-10
2.33691e-10
2.46882e-10
2.594e-10
1.4604e-10
1.4604e-10
1.46041e-10
1.46042e-10
1.46043e-10
1.46045e-10
1.46047e-10
1.4605e-10
1.46054e-10
1.46059e-10
1.46066e-10
1.46076e-10
1.46088e-10
1.46105e-10
1.46127e-10
1.46157e-10
1.46198e-10
1.46252e-10
1.46324e-10
1.46423e-10
1.46555e-10
1.46734e-10
1.46975e-10
1.47301e-10
1.47742e-10
1.48337e-10
1.49139e-10
1.50217e-10
1.5166e-10
1.53583e-10
1.56123e-10
1.59443e-10
1.63727e-10
1.69157e-10
1.75898e-10
1.84063e-10
1.9368e-10
2.04652e-10
2.16736e-10
2.29559e-10
2.42613e-10
2.55229e-10
2.66658e-10
2.76282e-10
2.84002e-10
1.46041e-10
1.46043e-10
1.46044e-10
1.46046e-10
1.46049e-10
1.46052e-10
1.46056e-10
1.46062e-10
1.4607e-10
1.4608e-10
1.46094e-10
1.46112e-10
1.46136e-10
1.46168e-10
1.46211e-10
1.46267e-10
1.46343e-10
1.46445e-10
1.46581e-10
1.46763e-10
1.47008e-10
1.47336e-10
1.47776e-10
1.48365e-10
1.49154e-10
1.50207e-10
1.51608e-10
1.53463e-10
1.55899e-10
1.59067e-10
1.63139e-10
1.68286e-10
1.74669e-10
1.82406e-10
1.91541e-10
2.02016e-10
2.13646e-10
2.26109e-10
2.3898e-10
2.51695e-10
2.63555e-10
2.73892e-10
2.82306e-10
2.88797e-10
2.9362e-10
2.97307e-10
1.46044e-10
1.46045e-10
1.46048e-10
1.46051e-10
1.46054e-10
1.4606e-10
1.46066e-10
1.46075e-10
1.46086e-10
1.46101e-10
1.46121e-10
1.46147e-10
1.46182e-10
1.46227e-10
1.46288e-10
1.46368e-10
1.46475e-10
1.46617e-10
1.46805e-10
1.47057e-10
1.47391e-10
1.47836e-10
1.48429e-10
1.49216e-10
1.5026e-10
1.51639e-10
1.53452e-10
1.55819e-10
1.58881e-10
1.62796e-10
1.67728e-10
1.7383e-10
1.81217e-10
1.89948e-10
1.99991e-10
2.11198e-10
2.23299e-10
2.3593e-10
2.4861e-10
2.60732e-10
2.71628e-10
2.80792e-10
2.88051e-10
2.93568e-10
2.97693e-10
3.00863e-10
3.0345e-10
3.05868e-10
1.46053e-10
1.46058e-10
1.46063e-10
1.46071e-10
1.46081e-10
1.46094e-10
1.46111e-10
1.46133e-10
1.46161e-10
1.46199e-10
1.46249e-10
1.46314e-10
1.464e-10
1.46514e-10
1.46664e-10
1.46862e-10
1.47124e-10
1.47469e-10
1.47927e-10
1.48531e-10
1.49328e-10
1.50376e-10
1.51752e-10
1.53549e-10
1.55878e-10
1.58874e-10
1.62683e-10
1.6746e-10
1.73348e-10
1.80461e-10
1.88862e-10
1.98535e-10
2.09364e-10
2.21122e-10
2.33483e-10
2.46042e-10
2.58274e-10
2.69557e-10
2.7933e-10
2.87297e-10
2.93491e-10
2.98194e-10
3.01793e-10
3.04685e-10
3.07207e-10
3.09644e-10
3.12247e-10
3.15255e-10
1.46062e-10
1.46068e-10
1.46077e-10
1.46089e-10
1.46103e-10
1.46122e-10
1.46147e-10
1.46179e-10
1.46221e-10
1.46276e-10
1.46348e-10
1.46441e-10
1.46564e-10
1.46724e-10
1.46935e-10
1.47211e-10
1.47574e-10
1.4805e-10
1.48674e-10
1.49492e-10
1.5056e-10
1.51951e-10
1.53754e-10
1.56076e-10
1.59043e-10
1.62791e-10
1.67467e-10
1.73204e-10
1.80113e-10
1.88253e-10
1.97622e-10
2.08125e-10
2.19567e-10
2.31658e-10
2.44044e-10
2.56274e-10
2.67791e-10
2.78027e-10
2.86597e-10
2.93421e-10
2.98691e-10
3.02751e-10
3.05987e-10
3.08753e-10
3.11351e-10
3.14025e-10
3.16975e-10
3.20319e-10
3.24348e-10
3.29327e-10
1.46098e-10
1.46115e-10
1.46137e-10
1.46166e-10
1.46202e-10
1.46249e-10
1.4631e-10
1.4639e-10
1.46493e-10
1.46627e-10
1.46801e-10
1.47029e-10
1.47324e-10
1.4771e-10
1.48212e-10
1.48866e-10
1.49715e-10
1.50817e-10
1.52242e-10
1.54074e-10
1.56418e-10
1.5939e-10
1.63121e-10
1.67745e-10
1.7339e-10
1.80156e-10
1.88103e-10
1.97229e-10
2.07459e-10
2.1862e-10
2.30454e-10
2.42643e-10
2.54797e-10
2.66428e-10
2.7699e-10
2.86048e-10
2.93428e-10
2.99232e-10
3.03752e-10
3.07352e-10
3.10393e-10
3.13184e-10
3.15988e-10
3.19023e-10
3.2244e-10
3.26428e-10
3.31185e-10
3.36823e-10
3.4356e-10
3.51885e-10
1.46189e-10
1.46231e-10
1.46285e-10
1.46354e-10
1.46443e-10
1.46558e-10
1.46707e-10
1.46899e-10
1.47147e-10
1.47468e-10
1.47883e-10
1.48419e-10
1.49112e-10
1.50007e-10
1.51158e-10
1.52635e-10
1.5452e-10
1.56913e-10
1.59925e-10
1.63678e-10
1.68299e-10
1.73904e-10
1.80587e-10
1.88401e-10
1.97346e-10
2.07354e-10
2.18274e-10
2.29872e-10
2.41858e-10
2.53891e-10
2.65543e-10
2.7631e-10
2.85742e-10
2.9359e-10
2.99879e-10
3.04841e-10
3.0881e-10
3.12141e-10
3.15154e-10
3.18118e-10
3.21275e-10
3.24794e-10
3.28827e-10
3.33612e-10
3.39278e-10
3.45962e-10
3.53881e-10
3.63297e-10
3.74528e-10
3.88309e-10
1.46409e-10
1.46511e-10
1.46641e-10
1.46808e-10
1.47021e-10
1.47296e-10
1.47648e-10
1.481e-10
1.48681e-10
1.49426e-10
1.50379e-10
1.51596e-10
1.53145e-10
1.55108e-10
1.57579e-10
1.60664e-10
1.64479e-10
1.6914e-10
1.74756e-10
1.8141e-10
1.89148e-10
1.97967e-10
2.07805e-10
2.18525e-10
2.29913e-10
2.417e-10
2.53586e-10
2.65193e-10
2.76067e-10
2.85763e-10
2.93988e-10
3.00698e-10
3.06068e-10
3.10397e-10
3.14026e-10
3.17281e-10
3.20433e-10
3.23737e-10
3.27388e-10
3.31521e-10
3.36375e-10
3.4211e-10
3.48858e-10
3.56809e-10
3.66206e-10
3.77302e-10
3.90395e-10
4.05864e-10
4.24212e-10
4.46493e-10
1.46935e-10
1.47176e-10
1.47483e-10
1.47875e-10
1.48374e-10
1.4901e-10
1.49819e-10
1.50847e-10
1.52149e-10
1.53793e-10
1.55858e-10
1.58437e-10
1.6163e-10
1.65545e-10
1.70291e-10
1.75964e-10
1.82639e-10
1.90353e-10
1.99097e-10
2.08813e-10
2.19372e-10
2.30575e-10
2.42177e-10
2.53901e-10
2.65419e-10
2.76323e-10
2.86187e-10
2.94697e-10
3.01758e-10
3.07491e-10
3.1216e-10
3.16087e-10
3.19594e-10
3.22959e-10
3.26438e-10
3.30249e-10
3.34527e-10
3.3949e-10
3.45332e-10
3.52198e-10
3.60249e-10
3.69717e-10
3.80864e-10
3.93955e-10
4.09334e-10
4.27391e-10
4.48553e-10
4.73324e-10
5.02416e-10
5.37361e-10
1.4816e-10
1.48718e-10
1.49422e-10
1.50312e-10
1.51432e-10
1.52841e-10
1.54604e-10
1.568e-10
1.59517e-10
1.62853e-10
1.66907e-10
1.71779e-10
1.77555e-10
1.84298e-10
1.92035e-10
2.00752e-10
2.10387e-10
2.20822e-10
2.31867e-10
2.43296e-10
2.54855e-10
2.66254e-10
2.77127e-10
2.87078e-10
2.95788e-10
3.03125e-10
3.09169e-10
3.1415e-10
3.18366e-10
3.2213e-10
3.25727e-10
3.2941e-10
3.33405e-10
3.37871e-10
3.43e-10
3.48992e-10
3.56021e-10
3.6424e-10
3.73857e-10
3.85131e-10
3.9833e-10
4.13765e-10
4.31817e-10
4.52902e-10
4.7747e-10
5.06049e-10
5.39236e-10
5.77741e-10
6.22553e-10
6.75844e-10
1.50927e-10
1.52162e-10
1.53701e-10
1.5561e-10
1.57968e-10
1.60858e-10
1.64373e-10
1.68605e-10
1.73644e-10
1.79565e-10
1.86419e-10
1.94222e-10
2.02953e-10
2.12546e-10
2.22887e-10
2.338e-10
2.45069e-10
2.56462e-10
2.67721e-10
2.78519e-10
2.88489e-10
2.97322e-10
3.04865e-10
3.11166e-10
3.16423e-10
3.20914e-10
3.24939e-10
3.28781e-10
3.32691e-10
3.369e-10
3.41593e-10
3.46936e-10
3.53132e-10
3.60371e-10
3.68826e-10
3.78666e-10
3.90155e-10
4.03567e-10
4.19182e-10
4.37367e-10
4.58532e-10
4.83113e-10
5.11611e-10
5.44595e-10
5.82699e-10
6.26643e-10
6.77245e-10
7.35476e-10
8.02693e-10
8.81899e-10
1.56854e-10
1.59407e-10
1.62506e-10
1.66238e-10
1.70687e-10
1.75933e-10
1.82039e-10
1.89042e-10
1.9695e-10
2.05729e-10
2.15313e-10
2.25589e-10
2.36389e-10
2.47509e-10
2.58738e-10
2.69844e-10
2.80531e-10
2.90467e-10
2.99355e-10
3.07038e-10
3.13542e-10
3.19039e-10
3.23785e-10
3.28071e-10
3.32171e-10
3.36334e-10
3.40795e-10
3.45746e-10
3.51347e-10
3.57806e-10
3.65322e-10
3.74073e-10
3.84219e-10
3.96011e-10
4.09727e-10
4.25642e-10
4.44097e-10
4.65497e-10
4.90271e-10
5.18894e-10
5.51913e-10
5.8994e-10
6.33658e-10
6.83838e-10
7.41344e-10
8.07144e-10
8.82337e-10
9.68222e-10
1.06663e-09
1.18162e-09
1.68507e-10
1.73213e-10
1.78704e-10
1.8503e-10
1.92218e-10
2.0026e-10
2.09117e-10
2.18717e-10
2.28949e-10
2.39652e-10
2.50633e-10
2.61699e-10
2.7264e-10
2.83192e-10
2.93049e-10
3.01938e-10
3.09703e-10
3.16358e-10
3.22058e-10
3.27043e-10
3.31586e-10
3.35956e-10
3.40396e-10
3.45145e-10
3.50395e-10
3.56308e-10
3.63098e-10
3.70945e-10
3.80052e-10
3.90595e-10
4.02785e-10
4.16908e-10
4.33245e-10
4.52108e-10
4.73896e-10
4.99033e-10
5.2798e-10
5.6126e-10
5.99468e-10
6.43258e-10
6.93366e-10
7.50619e-10
8.15937e-10
8.90349e-10
9.75001e-10
1.07117e-09
1.18031e-09
1.30413e-09
1.44503e-09
1.60845e-09
1.88602e-10
1.96002e-10
2.04204e-10
2.13159e-10
2.22794e-10
2.32997e-10
2.43613e-10
2.54461e-10
2.65364e-10
2.76133e-10
2.86529e-10
2.96273e-10
3.05114e-10
3.12911e-10
3.19675e-10
3.25548e-10
3.30755e-10
3.35555e-10
3.40208e-10
3.44954e-10
3.50025e-10
3.55618e-10
3.619e-10
3.69085e-10
3.77336e-10
3.8688e-10
3.97902e-10
4.10586e-10
4.25225e-10
4.42106e-10
4.61521e-10
4.83855e-10
5.09529e-10
5.38997e-10
5.72763e-10
6.11403e-10
6.55552e-10
7.05914e-10
7.63284e-10
8.28544e-10
9.02675e-10
9.8677e-10
1.08204e-09
1.18984e-09
1.31166e-09
1.44917e-09
1.60423e-09
1.77905e-09
1.97679e-09
2.20452e-09
2.17903e-10
2.27584e-10
2.37767e-10
2.48301e-10
2.59016e-10
2.69755e-10
2.80345e-10
2.90569e-10
3.00172e-10
3.0893e-10
3.16719e-10
3.23556e-10
3.29577e-10
3.34995e-10
3.40056e-10
3.45011e-10
3.50093e-10
3.5553e-10
3.61519e-10
3.68228e-10
3.7587e-10
3.84611e-10
3.9468e-10
4.06272e-10
4.19558e-10
4.34832e-10
4.5238e-10
4.72495e-10
4.95538e-10
5.21933e-10
5.52123e-10
5.86599e-10
6.25921e-10
6.70708e-10
7.21642e-10
7.79487e-10
8.45095e-10
9.19405e-10
1.00346e-09
1.09843e-09
1.20559e-09
1.32636e-09
1.46232e-09
1.6152e-09
1.78693e-09
1.97963e-09
2.19567e-09
2.43788e-09
2.71028e-09
3.022e-09
2.53744e-10
2.64325e-10
2.74897e-10
2.85304e-10
2.95343e-10
3.04784e-10
3.13431e-10
3.21183e-10
3.28068e-10
3.34222e-10
3.39848e-10
3.45182e-10
3.50463e-10
3.55918e-10
3.61769e-10
3.68213e-10
3.75418e-10
3.83597e-10
3.92917e-10
4.036e-10
4.15856e-10
4.29875e-10
4.45906e-10
4.6426e-10
4.85228e-10
5.09154e-10
5.36457e-10
5.6758e-10
6.03e-10
6.4326e-10
6.8897e-10
7.40791e-10
7.99463e-10
8.65811e-10
9.40742e-10
1.02526e-09
1.12049e-09
1.22764e-09
1.34809e-09
1.48333e-09
1.635e-09
1.80493e-09
1.99513e-09
2.20779e-09
2.44534e-09
2.71045e-09
3.00612e-09
3.33586e-09
3.70478e-09
4.12443e-09
2.91041e-10
3.00885e-10
3.10149e-10
3.18667e-10
3.26364e-10
3.33286e-10
3.39569e-10
3.45412e-10
3.51039e-10
3.56679e-10
3.62553e-10
3.68876e-10
3.75841e-10
3.83621e-10
3.92424e-10
4.02419e-10
4.13824e-10
4.26864e-10
4.41733e-10
4.58664e-10
4.77974e-10
4.99964e-10
5.24956e-10
5.53365e-10
5.85636e-10
6.2224e-10
6.63709e-10
7.10636e-10
7.6367e-10
8.23528e-10
8.91011e-10
9.67001e-10
1.05247e-09
1.14849e-09
1.25625e-09
1.37706e-09
1.51233e-09
1.66367e-09
1.83278e-09
2.02159e-09
2.23219e-09
2.46685e-09
2.7281e-09
3.01869e-09
3.34164e-09
3.70025e-09
4.09822e-09
4.53991e-09
5.03167e-09
5.58795e-09
3.24697e-10
3.32336e-10
3.39296e-10
3.45721e-10
3.51802e-10
3.57757e-10
3.63801e-10
3.70152e-10
3.77015e-10
3.84577e-10
3.93023e-10
4.02548e-10
4.13326e-10
4.25576e-10
4.39531e-10
4.55387e-10
4.73369e-10
4.93803e-10
5.16991e-10
5.43251e-10
5.72983e-10
6.06638e-10
6.4468e-10
6.87629e-10
7.36073e-10
7.9065e-10
8.52061e-10
9.21085e-10
9.98581e-10
1.08549e-09
1.18285e-09
1.29182e-09
1.41363e-09
1.54969e-09
1.7015e-09
1.87072e-09
2.05918e-09
2.26887e-09
2.50196e-09
2.76084e-09
3.04811e-09
3.36662e-09
3.71948e-09
4.11006e-09
4.54207e-09
5.01955e-09
5.547e-09
6.12974e-09
6.77557e-09
7.50233e-09
3.52801e-10
3.5916e-10
3.6549e-10
3.71997e-10
3.78896e-10
3.86383e-10
3.94633e-10
4.0385e-10
4.14209e-10
4.25892e-10
4.39126e-10
4.54142e-10
4.71135e-10
4.9035e-10
5.12088e-10
5.36667e-10
5.64405e-10
5.95695e-10
6.30987e-10
6.70743e-10
7.15472e-10
7.65753e-10
8.22219e-10
8.85556e-10
9.56528e-10
1.03598e-09
1.12482e-09
1.22407e-09
1.33484e-09
1.45833e-09
1.5959e-09
1.74899e-09
1.91921e-09
2.1083e-09
2.31817e-09
2.55091e-09
2.80879e-09
3.09428e-09
3.41009e-09
3.75916e-09
4.14467e-09
4.57012e-09
5.03927e-09
5.55624e-09
6.1255e-09
6.75192e-09
7.44091e-09
8.19888e-09
9.03528e-09
9.97187e-09
3.74426e-10
3.81477e-10
3.89011e-10
3.97221e-10
4.06263e-10
4.16373e-10
4.27698e-10
4.40428e-10
4.54801e-10
4.71042e-10
4.89347e-10
5.09982e-10
5.33231e-10
5.5942e-10
5.88876e-10
6.21976e-10
6.59172e-10
7.0093e-10
7.47755e-10
8.00218e-10
8.58947e-10
9.24614e-10
9.97967e-10
1.07983e-09
1.17111e-09
1.2728e-09
1.38596e-09
1.5118e-09
1.6516e-09
1.80677e-09
1.97885e-09
2.16954e-09
2.38067e-09
2.61423e-09
2.8724e-09
3.15756e-09
3.47228e-09
3.81935e-09
4.2018e-09
4.62294e-09
5.08633e-09
5.59585e-09
6.15568e-09
6.77036e-09
7.44483e-09
8.18439e-09
8.99485e-09
9.88263e-09
1.08554e-08
1.19244e-08
1.31159e-08
4.09812e-10
4.19794e-10
4.30927e-10
4.43366e-10
4.57306e-10
4.72991e-10
4.90646e-10
5.10467e-10
5.32732e-10
5.5772e-10
5.85759e-10
6.1719e-10
6.52382e-10
6.91784e-10
7.35867e-10
7.85127e-10
8.40134e-10
9.01512e-10
9.69928e-10
1.04612e-09
1.1309e-09
1.22515e-09
1.32984e-09
1.44603e-09
1.57487e-09
1.71762e-09
1.87566e-09
2.05048e-09
2.24372e-09
2.45714e-09
2.69267e-09
2.95241e-09
3.23862e-09
3.55377e-09
3.90053e-09
4.2818e-09
4.70072e-09
5.16067e-09
5.66532e-09
6.21863e-09
6.82488e-09
7.4887e-09
8.21507e-09
9.00938e-09
9.87742e-09
1.08255e-08
1.18604e-08
1.29896e-08
1.42222e-08
1.55716e-08
1.70688e-08
4.47914e-10
4.61639e-10
4.7698e-10
4.94178e-10
5.13458e-10
5.35018e-10
5.5915e-10
5.86139e-10
6.163e-10
6.49993e-10
6.87581e-10
7.29513e-10
7.76268e-10
8.28341e-10
8.86294e-10
9.50748e-10
1.02236e-09
1.10187e-09
1.19008e-09
1.28786e-09
1.39615e-09
1.51601e-09
1.64855e-09
1.79501e-09
1.95672e-09
2.13515e-09
2.33188e-09
2.54863e-09
2.78725e-09
3.04978e-09
3.33839e-09
3.65546e-09
4.00355e-09
4.38543e-09
4.80409e-09
5.26277e-09
5.76496e-09
6.31442e-09
6.91521e-09
7.57169e-09
8.28857e-09
9.07091e-09
9.92416e-09
1.08542e-08
1.18673e-08
1.29702e-08
1.41703e-08
1.54754e-08
1.68943e-08
1.84374e-08
2.01206e-08
2.19805e-08
5.18937e-10
5.40079e-10
5.63636e-10
5.89906e-10
6.19182e-10
6.5177e-10
6.88044e-10
7.28375e-10
7.73199e-10
8.23008e-10
8.78297e-10
9.39623e-10
1.00761e-09
1.08292e-09
1.16627e-09
1.25846e-09
1.36036e-09
1.47288e-09
1.59707e-09
1.73403e-09
1.88497e-09
2.0512e-09
2.23414e-09
2.43533e-09
2.65644e-09
2.89928e-09
3.16581e-09
3.45815e-09
3.77858e-09
4.12957e-09
4.51378e-09
4.93408e-09
5.39357e-09
5.89559e-09
6.4437e-09
7.04179e-09
7.69399e-09
8.40475e-09
9.17888e-09
1.00215e-08
1.09381e-08
1.19347e-08
1.30175e-08
1.41934e-08
1.54696e-08
1.6854e-08
1.8355e-08
1.99817e-08
2.17439e-08
2.36539e-08
2.57299e-08
2.80148e-08
6.25803e-10
6.57681e-10
6.93041e-10
7.32256e-10
7.75706e-10
8.23825e-10
8.77113e-10
9.3607e-10
1.00124e-09
1.07326e-09
1.15279e-09
1.24054e-09
1.33731e-09
1.44395e-09
1.56139e-09
1.69063e-09
1.83277e-09
1.98899e-09
2.16059e-09
2.34896e-09
2.5556e-09
2.78214e-09
3.03035e-09
3.30212e-09
3.59951e-09
3.92473e-09
4.28017e-09
4.66839e-09
5.09216e-09
5.55446e-09
6.05847e-09
6.60764e-09
7.20564e-09
7.85642e-09
8.56423e-09
9.33362e-09
1.01694e-08
1.10769e-08
1.20616e-08
1.31296e-08
1.42871e-08
1.5541e-08
1.68986e-08
1.83677e-08
1.99567e-08
2.16745e-08
2.35305e-08
2.55353e-08
2.77e-08
3.00385e-08
3.25718e-08
3.53495e-08
7.83713e-10
8.30703e-10
8.82565e-10
9.39799e-10
1.00292e-09
1.07246e-09
1.14906e-09
1.23339e-09
1.32616e-09
1.42814e-09
1.5402e-09
1.66326e-09
1.79831e-09
1.94643e-09
2.10881e-09
2.28669e-09
2.48145e-09
2.69456e-09
2.92763e-09
3.18236e-09
3.46063e-09
3.76441e-09
4.09587e-09
4.45731e-09
4.85121e-09
5.28025e-09
5.7473e-09
6.25542e-09
6.80793e-09
7.40834e-09
8.06044e-09
8.76828e-09
9.53619e-09
1.03688e-08
1.12711e-08
1.22482e-08
1.3306e-08
1.44504e-08
1.56878e-08
1.7025e-08
1.84695e-08
2.00289e-08
2.17116e-08
2.35264e-08
2.54829e-08
2.75909e-08
2.98614e-08
3.23059e-08
3.49373e-08
3.77709e-08
4.0831e-08
4.41742e-08
1.01251e-09
1.08033e-09
1.15482e-09
1.23661e-09
1.32637e-09
1.42481e-09
1.53271e-09
1.65093e-09
1.78039e-09
1.92206e-09
2.07703e-09
2.24645e-09
2.43157e-09
2.63374e-09
2.85441e-09
3.09514e-09
3.35761e-09
3.64365e-09
3.9552e-09
4.29435e-09
4.66335e-09
5.06461e-09
5.50073e-09
5.97446e-09
6.48878e-09
7.04686e-09
7.6521e-09
8.30814e-09
9.01886e-09
9.78839e-09
1.06212e-08
1.15219e-08
1.24956e-08
1.35476e-08
1.46836e-08
1.59098e-08
1.72326e-08
1.86588e-08
2.01958e-08
2.18513e-08
2.36336e-08
2.55516e-08
2.76146e-08
2.98325e-08
3.22159e-08
3.47761e-08
3.75251e-08
4.04758e-08
4.36425e-08
4.70425e-08
5.07033e-08
5.46891e-08
1.33779e-09
1.43368e-09
1.53852e-09
1.6531e-09
1.77828e-09
1.91497e-09
2.06415e-09
2.22688e-09
2.40432e-09
2.5977e-09
2.80835e-09
3.03769e-09
3.28728e-09
3.55876e-09
3.85392e-09
4.17464e-09
4.52299e-09
4.90114e-09
5.31146e-09
5.75645e-09
6.23879e-09
6.76137e-09
7.32726e-09
7.93972e-09
8.60226e-09
9.3186e-09
1.00927e-08
1.09289e-08
1.18316e-08
1.28055e-08
1.3856e-08
1.49882e-08
1.62081e-08
1.75218e-08
1.89356e-08
2.04566e-08
2.20921e-08
2.38498e-08
2.5738e-08
2.77654e-08
2.99413e-08
3.22755e-08
3.47785e-08
3.74614e-08
4.03358e-08
4.34142e-08
4.67101e-08
5.02376e-08
5.40125e-08
5.80542e-08
6.23934e-08
6.71024e-08
1.79174e-09
1.92475e-09
2.06958e-09
2.22721e-09
2.39871e-09
2.58521e-09
2.78794e-09
3.00821e-09
3.24744e-09
3.50714e-09
3.78895e-09
4.0946e-09
4.42598e-09
4.78507e-09
5.17403e-09
5.59514e-09
6.05084e-09
6.54376e-09
7.07667e-09
7.65256e-09
8.2746e-09
8.94617e-09
9.67086e-09
1.04525e-08
1.12951e-08
1.22031e-08
1.31811e-08
1.42338e-08
1.53666e-08
1.65848e-08
1.78943e-08
1.93013e-08
2.08123e-08
2.24342e-08
2.41744e-08
2.60406e-08
2.8041e-08
3.01843e-08
3.24798e-08
3.49371e-08
3.75665e-08
4.03789e-08
4.33859e-08
4.65996e-08
5.0033e-08
5.36998e-08
5.76145e-08
6.17929e-08
6.62524e-08
7.10141e-08
7.61124e-08
8.16282e-08
2.59568e-09
2.79236e-09
3.00561e-09
3.23672e-09
3.48711e-09
3.75827e-09
4.0518e-09
4.36943e-09
4.71299e-09
5.08445e-09
5.4859e-09
5.91959e-09
6.3879e-09
6.89338e-09
7.43875e-09
8.02689e-09
8.66088e-09
9.34399e-09
1.00797e-08
1.08717e-08
1.17239e-08
1.26405e-08
1.36259e-08
1.46847e-08
1.5822e-08
1.70429e-08
1.83531e-08
1.97583e-08
2.12649e-08
2.28793e-08
2.46085e-08
2.64599e-08
2.84411e-08
3.05605e-08
3.28265e-08
3.52483e-08
3.78356e-08
4.05984e-08
4.35475e-08
4.66943e-08
5.00506e-08
5.36291e-08
5.74431e-08
6.15068e-08
6.58351e-08
7.04438e-08
7.53501e-08
8.05728e-08
8.61354e-08
9.20757e-08
9.84837e-08
3.49786e-09
3.76077e-09
4.04481e-09
4.35155e-09
4.68271e-09
5.04007e-09
5.42559e-09
5.84131e-09
6.28944e-09
6.7723e-09
7.2924e-09
7.85237e-09
8.45503e-09
9.10337e-09
9.80056e-09
1.055e-08
1.13552e-08
1.222e-08
1.31484e-08
1.41447e-08
1.52133e-08
1.6359e-08
1.75868e-08
1.89021e-08
2.03105e-08
2.18178e-08
2.34304e-08
2.51548e-08
2.6998e-08
2.89673e-08
3.10704e-08
3.33156e-08
3.57112e-08
3.82665e-08
4.09908e-08