/*--------------------------------*- C++ -*----------------------------------*\
| =========                 |                                                 |
| \\      /  F ield         | OpenFOAM: The Open Source CFD Toolbox           |
|  \\    /   O peration     | Version:  v1706                                 |
|   \\  /    A nd           | Web:      www.OpenFOAM.com                      |
|    \\/     M anipulation  |                                                 |
\*---------------------------------------------------------------------------*/
FoamFile
{
    version     2.0;
    format      ascii;
    class       volScalarField;
    location    "3.8e-05";
    object      Mach;
}
// * * * * * * * * * * * * * * * * * * * * * * * * * * * * * * * * * * * * * //

dimensions      [0 0 0 0 0 0 0];


internalField   nonuniform List<scalar> 
30038
(
3.99498
3.99498
3.99498
3.99498
3.99498
3.99498
3.99498
3.99498
3.99498
3.99498
3.99498
3.99498
3.99498
3.99498
3.99498
3.99498
3.99498
3.99498
3.99498
3.99498
3.99498
3.99498
3.99498
3.99498
3.99498
3.99498
3.99498
3.99498
3.99498
3.99498
3.99498
3.99498
3.99498
3.99498
3.99498
3.99498
3.99498
3.99498
3.99498
3.99498
3.99498
3.99498
3.99498
3.99498
3.99498
3.99498
3.99498
3.99498
3.99498
3.99498
3.99498
3.99498
3.99498
3.99498
3.99498
3.99498
3.99498
3.99498
3.99498
3.99498
3.99498
3.99498
3.99498
3.99498
3.99498
3.99498
3.99498
3.99498
3.99498
3.99498
3.99498
3.99498
3.99498
3.99498
3.99498
3.99498
3.99498
3.99498
3.99498
3.99498
3.99498
3.99498
3.99498
3.99498
3.99498
3.99498
3.99498
3.99498
3.99498
3.99498
3.99498
3.99498
3.99498
3.99498
3.99498
3.99498
3.99498
3.99498
3.99498
3.99498
3.99498
3.99498
3.99498
3.99498
3.99498
3.99498
3.99498
3.99498
3.99498
3.99498
3.99498
3.99498
3.99498
3.99498
3.99498
3.99498
3.99498
3.99498
3.99498
3.99498
3.99498
3.99498
3.99498
3.99498
3.99498
3.99498
3.99498
3.99498
3.99498
3.99498
3.99498
3.99498
3.99498
3.99498
3.99498
3.99498
3.99498
3.99498
3.99498
3.99498
3.99498
3.99498
3.99498
3.99498
3.99498
3.99498
3.99498
3.99498
3.99498
3.99498
3.99498
3.99498
3.99498
3.99498
3.99498
3.99498
3.99498
3.99498
3.99498
3.99498
3.99498
3.99498
3.99498
3.99498
3.99498
3.99498
3.99498
3.99498
3.99498
3.99498
3.99498
3.99498
3.99498
3.99498
3.99498
3.99498
3.99498
3.99498
3.99498
3.99498
3.99498
3.99498
3.99498
3.99498
3.99498
3.99498
3.99498
3.99498
3.99498
3.99498
3.99498
3.99498
3.99498
3.99498
3.99498
3.99498
3.99498
3.99498
3.99498
3.99498
3.99498
3.99498
3.99498
3.99498
3.99498
3.99498
3.99498
3.99498
3.99498
3.99498
3.99498
3.99498
3.99498
3.99498
3.99498
3.99498
3.99498
3.99498
3.99498
3.99498
3.99498
3.99498
3.99498
3.99498
3.99498
3.99498
3.99498
3.99498
3.99498
3.99498
3.99498
3.99498
3.99498
3.99498
3.99498
3.99498
3.99498
3.99498
3.99498
3.99498
3.99498
3.99498
3.99498
3.99498
3.99498
3.99498
3.99498
3.99498
3.99498
3.99498
3.99498
3.99498
3.99498
3.99498
3.99498
3.99498
3.99498
3.99498
3.99498
3.99498
3.99498
3.99498
3.99498
3.99498
3.99498
3.99498
3.99498
3.99498
3.99498
3.99498
3.99498
3.99498
3.99498
3.99498
3.99498
3.99498
3.99498
3.99498
3.99498
3.99498
3.99498
3.99498
3.99498
3.99498
3.99498
3.99498
3.99498
3.99498
3.99498
3.99498
3.99498
3.99498
3.99498
3.99498
3.99498
3.99498
3.99498
3.99498
3.99498
3.99498
3.99498
3.99498
3.99498
3.99498
3.99498
3.99498
3.99498
3.99498
3.99498
3.99498
3.99498
3.99498
3.99498
3.99498
3.99498
3.99498
3.99498
3.99498
3.99498
3.99498
3.99498
3.99498
3.99498
3.99498
3.99498
3.99498
3.99498
3.99498
3.99498
3.99498
3.99498
3.99498
3.99498
3.99498
3.99498
3.99498
3.99498
3.99498
3.99498
3.99498
3.99498
3.99498
3.99497
3.99498
3.99498
3.99498
3.99498
3.99498
3.99498
3.99498
3.99498
3.99498
3.99498
3.99498
3.99498
3.99498
3.99498
3.99498
3.99498
3.99498
3.99498
3.99498
3.99498
3.99498
3.99498
3.99498
3.99498
3.99498
3.99498
3.99498
3.99498
3.99498
3.99498
3.99498
3.99498
3.99498
3.99498
3.99498
3.99497
3.99497
3.99497
3.99497
3.99498
3.99498
3.99498
3.99498
3.99498
3.99498
3.99498
3.99498
3.99498
3.99498
3.99498
3.99498
3.99498
3.99498
3.99498
3.99498
3.99498
3.99498
3.99498
3.99498
3.99498
3.99498
3.99498
3.99498
3.99498
3.99498
3.99498
3.99498
3.99498
3.99498
3.99498
3.99498
3.99497
3.99497
3.99497
3.99497
3.99496
3.99496
3.99495
3.99498
3.99498
3.99498
3.99498
3.99498
3.99498
3.99498
3.99498
3.99498
3.99498
3.99498
3.99498
3.99498
3.99498
3.99498
3.99498
3.99498
3.99498
3.99498
3.99498
3.99498
3.99498
3.99498
3.99498
3.99498
3.99498
3.99498
3.99498
3.99498
3.99498
3.99497
3.99497
3.99497
3.99497
3.99496
3.99496
3.99495
3.99493
3.99492
3.99489
3.99498
3.99498
3.99498
3.99498
3.99498
3.99498
3.99498
3.99498
3.99498
3.99498
3.99498
3.99498
3.99498
3.99498
3.99498
3.99498
3.99498
3.99498
3.99498
3.99498
3.99498
3.99498
3.99498
3.99498
3.99498
3.99498
3.99498
3.99497
3.99497
3.99497
3.99497
3.99496
3.99496
3.99495
3.99494
3.99492
3.99489
3.99485
3.9948
3.99471
3.99498
3.99498
3.99498
3.99498
3.99498
3.99498
3.99498
3.99498
3.99498
3.99498
3.99498
3.99498
3.99498
3.99498
3.99498
3.99498
3.99498
3.99498
3.99498
3.99498
3.99498
3.99498
3.99498
3.99498
3.99497
3.99497
3.99497
3.99497
3.99496
3.99496
3.99495
3.99494
3.99492
3.99489
3.99486
3.99481
3.99473
3.99462
3.99446
3.99422
3.99498
3.99498
3.99498
3.99498
3.99498
3.99498
3.99498
3.99498
3.99498
3.99498
3.99498
3.99498
3.99498
3.99498
3.99498
3.99498
3.99498
3.99498
3.99498
3.99498
3.99497
3.99497
3.99497
3.99497
3.99497
3.99496
3.99496
3.99495
3.99494
3.99492
3.9949
3.99486
3.99481
3.99474
3.99464
3.99449
3.99428
3.99398
3.99353
3.99288
3.99498
3.99498
3.99498
3.99498
3.99498
3.99498
3.99498
3.99498
3.99498
3.99498
3.99498
3.99498
3.99498
3.99498
3.99498
3.99498
3.99498
3.99497
3.99497
3.99497
3.99497
3.99497
3.99496
3.99496
3.99495
3.99494
3.99492
3.9949
3.99486
3.99481
3.99475
3.99465
3.99451
3.99431
3.99403
3.99363
3.99305
3.99222
3.991
3.98923
3.99498
3.99498
3.99498
3.99498
3.99498
3.99498
3.99498
3.99498
3.99498
3.99498
3.99498
3.99498
3.99498
3.99498
3.99497
3.99497
3.99497
3.99497
3.99497
3.99496
3.99496
3.99495
3.99493
3.99492
3.99489
3.99486
3.99481
3.99475
3.99465
3.99452
3.99433
3.99407
3.99369
3.99315
3.99238
3.99129
3.98972
3.98748
3.98423
3.97956
3.99498
3.99498
3.99498
3.99498
3.99498
3.99498
3.99498
3.99498
3.99498
3.99498
3.99497
3.99497
3.99497
3.99497
3.99497
3.99496
3.99496
3.99495
3.99494
3.99493
3.99491
3.99489
3.99486
3.99481
3.99474
3.99465
3.99452
3.99434
3.99408
3.99372
3.99321
3.99249
3.99147
3.99002
3.98798
3.98507
3.98093
3.97505
3.9666
3.95462
3.99498
3.99498
3.99498
3.99498
3.99498
3.99498
3.99498
3.99498
3.99497
3.99497
3.99497
3.99497
3.99497
3.99496
3.99496
3.99495
3.99494
3.99493
3.99491
3.99489
3.99485
3.9948
3.99474
3.99464
3.99451
3.99433
3.99408
3.99373
3.99324
3.99255
3.99158
3.99022
3.9883
3.98561
3.98181
3.97646
3.96892
3.95829
3.94337
3.92231
3.8931
3.99498
3.99498
3.99498
3.99498
3.99497
3.99497
3.99497
3.99497
3.99497
3.99497
3.99496
3.99496
3.99495
3.99494
3.99492
3.99491
3.99488
3.99484
3.99479
3.99472
3.99463
3.9945
3.99432
3.99407
3.99372
3.99324
3.99257
3.99163
3.99033
3.98851
3.98597
3.98241
3.97744
3.97049
3.96078
3.94725
3.92844
3.90243
3.86677
3.81802
3.75335
3.99498
3.99498
3.99497
3.99497
3.99497
3.99497
3.99497
3.99496
3.99496
3.99495
3.99495
3.99493
3.99492
3.9949
3.99487
3.99483
3.99478
3.99471
3.99461
3.99448
3.99429
3.99404
3.99369
3.99321
3.99254
3.99163
3.99036
3.9886
3.98616
3.98278
3.97808
3.97157
3.96253
3.95002
3.93276
3.90905
3.8767
3.833
3.77473
3.69857
3.60054
3.48011
3.99497
3.99497
3.99497
3.99497
3.99497
3.99496
3.99496
3.99495
3.99494
3.99493
3.99491
3.99489
3.99486
3.99482
3.99476
3.99469
3.99458
3.99444
3.99425
3.99399
3.99364
3.99315
3.99248
3.99157
3.99031
3.98859
3.98621
3.98294
3.97843
3.97222
3.96367
3.95192
3.93581
3.91382
3.88398
3.84386
3.79057
3.72095
3.63192
3.52098
3.38721
3.23052
3.05748
3.99497
3.99496
3.99496
3.99495
3.99495
3.99493
3.99492
3.9949
3.99488
3.99484
3.9948
3.99474
3.99466
3.99455
3.9944
3.9942
3.99393
3.99356
3.99306
3.99238
3.99146
3.99019
3.98847
3.98612
3.98291
3.97852
3.97251
3.96429
3.95308
3.93781
3.9171
3.88917
3.85179
3.80233
3.73786
3.65544
3.55263
3.42803
3.28209
3.11733
2.93889
2.75072
2.56467
3.99496
3.99495
3.99494
3.99493
3.99491
3.99489
3.99486
3.99482
3.99478
3.99471
3.99462
3.9945
3.99434
3.99413
3.99384
3.99346
3.99293
3.99223
3.99128
3.99
3.98825
3.98589
3.98269
3.97834
3.97243
3.96442
3.95356
3.93887
3.91908
3.89255
3.85725
3.81074
3.75031
3.67318
3.57692
3.45997
3.32225
3.16574
2.99443
2.81375
2.63004
2.45101
2.28183
2.13231
3.99493
3.99492
3.9949
3.99488
3.99484
3.9948
3.99475
3.99467
3.99457
3.99444
3.99427
3.99404
3.99373
3.99332
3.99277
3.99203
3.99104
3.98971
3.98792
3.98551
3.98227
3.9779
3.97201
3.96407
3.9534
3.93906
3.91988
3.89432
3.86051
3.81621
3.75889
3.68593
3.59497
3.48438
3.35375
3.20445
3.03983
2.8647
2.68484
2.5067
2.33715
2.18274
2.05036
1.94298
1.86205
3.99488
3.99486
3.99482
3.99477
3.99471
3.99462
3.99451
3.99437
3.99418
3.99393
3.99359
3.99314
3.99255
3.99177
3.99072
3.98932
3.98746
3.98497
3.98164
3.97718
3.97122
3.96325
3.9526
3.93841
3.91954
3.89458
3.86177
3.81903
3.76399
3.69421
3.60744
3.50203
3.37738
3.23446
3.076
2.90635
2.7306
2.55461
2.38461
2.22679
2.08734
1.97153
1.88151
1.81619
1.77079
1.74043
3.99483
3.99479
3.99473
3.99466
3.99456
3.99444
3.99428
3.99406
3.99378
3.99341
3.99292
3.99228
3.99143
3.99031
3.98882
3.98685
3.98424
3.98077
3.97616
3.97004
3.96192
3.95115
3.93689
3.91808
3.89337
3.8611
3.81934
3.76587
3.6984
3.6148
3.51348
3.39376
3.25632
3.10343
2.93892
2.76753
2.59445
2.42531
2.26589
2.12186
1.99866
1.89983
1.82554
1.77292
1.73736
1.71437
1.69992
1.69092
3.9946
3.99449
3.99434
3.99416
3.99391
3.9936
3.99318
3.99264
3.99193
3.991
3.98978
3.98818
3.98606
3.98328
3.97962
3.97479
3.96842
3.96003
3.94898
3.93447
3.91546
3.89067
3.85853
3.81721
3.76465
3.6987
3.61736
3.51914
3.40334
3.27047
3.12248
2.96274
2.79568
2.62595
2.45867
2.2991
2.15246
2.02395
1.91782
1.83559
1.77564
1.73418
1.70674
1.68922
1.67842
1.67211
1.66894
1.66742
3.99439
3.99422
3.994
3.99372
3.99336
3.99289
3.99228
3.99149
3.99046
3.98911
3.98736
3.98507
3.98207
3.97814
3.97301
3.96629
3.9575
3.94602
3.93105
3.91159
3.8864
3.85399
3.81261
3.76034
3.69519
3.61528
3.51925
3.40644
3.27728
3.13348
2.97807
2.81512
2.64897
2.48421
2.32559
2.17795
2.04606
1.93437
1.8454
1.77873
1.73146
1.69947
1.67867
1.66564
1.65788
1.65354
1.6516
1.65112
1.65201
1.65268
3.99348
3.99306
3.99252
3.99183
3.99093
3.98977
3.98827
3.98633
3.9838
3.98053
3.97627
3.97074
3.96356
3.95424
3.94215
3.92651
3.90634
3.88042
3.84733
3.80542
3.75287
3.68783
3.6086
3.51391
3.40323
3.27697
3.13667
2.98512
2.82603
2.66353
2.5017
2.34488
2.19747
2.06383
1.94828
1.85396
1.78147
1.7288
1.69239
1.66824
1.65283
1.64337
1.63801
1.63538
1.63459
1.63477
1.63604
1.63727
1.6393
1.6415
3.99125
3.99022
3.9889
3.98721
3.98502
3.98221
3.97858
3.97391
3.96788
3.96011
3.95009
3.9372
3.92066
3.89949
3.87251
3.83834
3.79542
3.74204
3.67648
3.5972
3.50311
3.39377
3.26965
3.1322
2.98403
2.82855
2.66964
2.51103
2.35664
2.21043
2.07639
1.95855
1.86031
1.78306
1.72564
1.6851
1.65771
1.63991
1.62882
1.62231
1.61886
1.6175
1.6175
1.61855
1.61986
1.62169
1.6241
1.62653
1.62909
1.63172
3.98585
3.98337
3.98019
3.97613
3.97093
3.96428
3.95576
3.94487
3.93097
3.91326
3.89078
3.86238
3.82672
3.7823
3.72754
3.66085
3.58088
3.48668
3.37799
3.25534
3.12017
2.97492
2.82279
2.66738
2.51218
2.36066
2.21643
2.0831
1.96434
1.86359
1.78274
1.72141
1.67722
1.64681
1.62671
1.61398
1.60627
1.60209
1.60024
1.60001
1.60063
1.60223
1.60377
1.60609
1.60866
1.61131
1.61401
1.61692
1.61983
1.62261
3.97304
3.96719
3.95975
3.95031
3.93833
3.92316
3.90399
3.87987
3.84966
3.81205
3.76565
3.70896
3.64056
3.55927
3.46435
3.35569
3.23394
3.10054
2.95785
2.80885
2.65688
2.50521
2.35692
2.21528
2.08353
1.96503
1.86305
1.77981
1.71548
1.66829
1.63525
1.61306
1.59875
1.58997
1.58498
1.58264
1.58198
1.58256
1.58385
1.58562
1.58775
1.59046
1.59314
1.59594
1.59888
1.60192
1.6049
1.60788
1.61084
1.61366
3.94347
3.93014
3.91341
3.89245
3.8663
3.83384
3.79383
3.74493
3.68578
3.61511
3.53194
3.43573
3.32659
3.20526
3.07325
2.93281
2.78677
2.63822
2.49019
2.34543
2.20688
2.07746
1.96019
1.85815
1.77366
1.70734
1.65788
1.62269
1.59869
1.58298
1.5732
1.56748
1.56465
1.56373
1.56412
1.56526
1.56724
1.56913
1.57175
1.5746
1.57748
1.58041
1.58358
1.58673
1.58985
1.59295
1.59601
1.59901
1.60198
1.60483
3.87812
3.84951
3.81434
3.77141
3.71948
3.65734
3.58387
3.49832
3.40037
3.29032
3.16907
3.03815
2.89977
2.7566
2.61149
2.46723
2.32627
2.19124
2.06477
1.94958
1.8485
1.76385
1.69651
1.64558
1.60882
1.58341
1.56655
1.55588
1.54953
1.54623
1.54508
1.54524
1.54635
1.5481
1.55025
1.55275
1.55578
1.55867
1.56171
1.56488
1.56816
1.57139
1.57464
1.57785
1.58102
1.58415
1.58724
1.59027
1.59328
1.59617
3.744
3.68853
3.62287
3.54613
3.45776
3.35771
3.24647
3.12507
2.99511
2.8587
2.71841
2.57682
2.43648
2.29959
2.16848
2.04549
1.93309
1.83386
1.75004
1.68265
1.63106
1.59336
1.56699
1.54927
1.5379
1.53107
1.5274
1.52598
1.52601
1.52702
1.52879
1.53109
1.5334
1.53639
1.53948
1.54261
1.54579
1.5492
1.55258
1.55594
1.5593
1.56261
1.5659
1.56914
1.57235
1.57552
1.57864
1.58172
1.58476
1.58768
3.50105
3.40955
3.30717
3.1946
3.07299
2.94396
2.80959
2.67227
2.53437
2.39815
2.2656
2.13876
2.01975
1.91076
1.81416
1.73205
1.6655
1.61406
1.57608
1.54922
1.53099
1.51916
1.51199
1.50803
1.50642
1.5064
1.50739
1.50906
1.51138
1.51384
1.51677
1.52003
1.52318
1.52645
1.52989
1.5334
1.53686
1.54035
1.54382
1.54724
1.55064
1.554
1.55732
1.56061
1.56386
1.56707
1.57024
1.57335
1.57643
1.57939
3.13428
3.01255
2.8846
2.75245
2.61832
2.48434
2.3525
2.22457
2.10235
1.98774
1.88272
1.78944
1.70985
1.64495
1.59443
1.55682
1.52998
1.51161
1.49959
1.49221
1.4881
1.48638
1.48634
1.48729
1.48896
1.49127
1.49393
1.49677
1.50013
1.50343
1.50679
1.51024
1.51386
1.51746
1.52106
1.52465
1.52821
1.53174
1.53525
1.53872
1.54216
1.54556
1.54894
1.55227
1.55557
1.55882
1.56203
1.56518
1.5683
1.57129
2.68739
2.55676
2.427
2.29984
2.17682
2.05958
1.94978
1.84922
1.75987
1.6835
1.62101
1.57212
1.53549
1.50918
1.49104
1.47909
1.47171
1.46761
1.46586
1.46581
1.46676
1.46847
1.47086
1.47368
1.47642
1.47982
1.48331
1.48676
1.49027
1.49398
1.49771
1.50141
1.50513
1.50882
1.51249
1.51613
1.51974
1.52332
1.52687
1.53039
1.53388
1.53734
1.54076
1.54414
1.54748
1.55077
1.55402
1.55721
1.56036
1.56338
2.24055
2.12278
2.01084
1.90624
1.8106
1.72574
1.65321
1.5938
1.54717
1.5121
1.48678
1.46925
1.45764
1.45046
1.4465
1.44481
1.44481
1.44589
1.44766
1.45007
1.45288
1.45591
1.45925
1.46291
1.46641
1.47002
1.47378
1.47761
1.48141
1.48525
1.48908
1.49287
1.49665
1.50039
1.50411
1.5078
1.51146
1.5151
1.5187
1.52228
1.52582
1.52932
1.53279
1.53622
1.5396
1.54293
1.54622
1.54944
1.55261
1.55567
1.85758
1.7673
1.68742
1.6193
1.56353
1.51973
1.48672
1.46282
1.44622
1.43521
1.42843
1.42473
1.42321
1.42335
1.42458
1.42645
1.42889
1.43178
1.43499
1.43834
1.44211
1.44577
1.44946
1.45326
1.45721
1.46113
1.46507
1.46901
1.47292
1.47681
1.48069
1.48454
1.48837
1.49217
1.49594
1.49969
1.50341
1.5071
1.51075
1.51438
1.51797
1.52152
1.52504
1.5285
1.53193
1.5353
1.53861
1.54187
1.54507
1.54815
1.58216
1.53053
1.49003
1.4595
1.43738
1.42202
1.41185
1.40563
1.40232
1.40108
1.40142
1.40283
1.4048
1.40735
1.41035
1.41373
1.41709
1.42093
1.42477
1.42856
1.43241
1.43647
1.44052
1.44456
1.44862
1.45265
1.45667
1.46067
1.46464
1.46859
1.47252
1.47642
1.48031
1.48416
1.48799
1.4918
1.49557
1.49932
1.50303
1.5067
1.51034
1.51394
1.51749
1.521
1.52446
1.52786
1.53121
1.53449
1.53772
1.54082
1.43066
1.41062
1.39674
1.3876
1.3821
1.37931
1.37843
1.37902
1.38066
1.38278
1.38545
1.3886
1.392
1.39561
1.39947
1.40347
1.40736
1.41131
1.41545
1.4196
1.42373
1.4279
1.43206
1.4362
1.44031
1.44441
1.44849
1.45254
1.45657
1.46058
1.46457
1.46853
1.47247
1.47639
1.48027
1.48413
1.48796
1.49175
1.49551
1.49924
1.50292
1.50656
1.51015
1.5137
1.51719
1.52063
1.52401
1.52731
1.53056
1.53369
1.37051
1.36256
1.3579
1.35572
1.35527
1.35618
1.35808
1.36038
1.36319
1.36651
1.37001
1.37381
1.37771
1.38182
1.38585
1.38991
1.39412
1.39838
1.40262
1.4069
1.41117
1.41541
1.41964
1.42386
1.42806
1.43223
1.43639
1.44052
1.44464
1.44873
1.4528
1.45685
1.46087
1.46487
1.46884
1.47278
1.47669
1.48057
1.48441
1.48822
1.49199
1.49571
1.49939
1.50302
1.50661
1.51013
1.5136
1.517
1.52033
1.5236
1.52674
1.33161
1.33165
1.33294
1.3351
1.3376
1.34059
1.34408
1.34773
1.35167
1.35569
1.3599
1.36407
1.36822
1.3725
1.37687
1.38122
1.3856
1.38998
1.39434
1.39869
1.40301
1.40732
1.41161
1.41589
1.42015
1.42438
1.4286
1.4328
1.43697
1.44112
1.44525
1.44936
1.45344
1.45749
1.46151
1.46551
1.46947
1.4734
1.47729
1.48114
1.48495
1.48871
1.49243
1.4961
1.49971
1.50327
1.50676
1.51019
1.51354
1.51682
1.51998
1.30931
1.31174
1.31448
1.31766
1.32132
1.32515
1.32917
1.33339
1.33771
1.34199
1.34624
1.3506
1.35508
1.35954
1.36402
1.3685
1.37297
1.37743
1.38187
1.3863
1.39071
1.39509
1.39946
1.40382
1.40815
1.41247
1.41677
1.42105
1.4253
1.42954
1.43375
1.43793
1.4421
1.44623
1.45034
1.45441
1.45846
1.46247
1.46644
1.47037
1.47427
1.47812
1.48192
1.48568
1.48938
1.49302
1.49661
1.50012
1.50357
1.50694
1.51023
1.5134
1.29442
1.29825
1.30227
1.30642
1.31079
1.31524
1.3196
1.32399
1.32844
1.33303
1.3376
1.34216
1.34676
1.35134
1.3559
1.36045
1.36498
1.3695
1.37401
1.37849
1.38296
1.38741
1.39184
1.39626
1.40065
1.40503
1.40939
1.41373
1.41804
1.42233
1.4266
1.43084
1.43506
1.43924
1.4434
1.44753
1.45162
1.45568
1.4597
1.46367
1.46761
1.4715
1.47534
1.47913
1.48286
1.48653
1.49014
1.49368
1.49714
1.50052
1.50383
1.507
1.2834
1.28789
1.2925
1.29696
1.30147
1.30602
1.31071
1.31538
1.32005
1.32474
1.32943
1.3341
1.33876
1.3434
1.34803
1.35264
1.35723
1.36181
1.36638
1.37092
1.37545
1.37996
1.38446
1.38893
1.39339
1.39783
1.40224
1.40664
1.41101
1.41536
1.41968
1.42398
1.42824
1.43248
1.43669
1.44086
1.445
1.4491
1.45316
1.45718
1.46115
1.46508
1.46895
1.47277
1.47653
1.48023
1.48386
1.48742
1.4909
1.49429
1.49761
1.50078
1.27407
1.27868
1.28335
1.28814
1.29291
1.29768
1.30248
1.30727
1.31204
1.3168
1.32155
1.32628
1.331
1.3357
1.34039
1.34506
1.34972
1.35436
1.35898
1.36359
1.36818
1.37276
1.37731
1.38184
1.38636
1.39085
1.39533
1.39978
1.4042
1.4086
1.41298
1.41733
1.42164
1.42593
1.43018
1.4344
1.43859
1.44273
1.44683
1.45089
1.4549
1.45886
1.46277
1.46661
1.4704
1.47412
1.47777
1.48134
1.48484
1.48824
1.49156
1.49473
1.26533
1.2702
1.27507
1.27997
1.28486
1.28973
1.2946
1.29945
1.30428
1.3091
1.31391
1.31871
1.32348
1.32825
1.333
1.33773
1.34244
1.34715
1.35183
1.3565
1.36115
1.36578
1.37039
1.37498
1.37956
1.38411
1.38863
1.39314
1.39762
1.40207
1.4065
1.41089
1.41526
1.41959
1.42389
1.42816
1.43238
1.43657
1.44071
1.4448
1.44884
1.45284
1.45677
1.46065
1.46446
1.4682
1.47186
1.47545
1.47895
1.48236
1.48568
1.48885
1.25723
1.26221
1.26719
1.27215
1.2771
1.28204
1.28696
1.29187
1.29677
1.30165
1.30651
1.31137
1.31621
1.32103
1.32584
1.33063
1.33541
1.34017
1.34491
1.34964
1.35434
1.35903
1.3637
1.36835
1.37298
1.37758
1.38216
1.38672
1.39125
1.39575
1.40023
1.40467
1.40908
1.41346
1.41781
1.42211
1.42638
1.4306
1.43478
1.4389
1.44298
1.447
1.45096
1.45486
1.45869
1.46245
1.46613
1.46973
1.47324
1.47664
1.47996
1.48313
1.24948
1.25452
1.25956
1.26458
1.26959
1.27459
1.27957
1.28454
1.28949
1.29443
1.29936
1.30427
1.30917
1.31405
1.31892
1.32377
1.3286
1.33342
1.33822
1.343
1.34777
1.35251
1.35723
1.36194
1.36661
1.37127
1.3759
1.38051
1.38509
1.38964
1.39417
1.39866
1.40311
1.40754
1.41192
1.41627
1.42057
1.42483
1.42904
1.4332
1.43731
1.44135
1.44534
1.44926
1.45311
1.45688
1.46057
1.46417
1.46769
1.47109
1.4744
1.47756
1.24708
1.25217
1.25725
1.26232
1.26737
1.27242
1.27744
1.28245
1.28745
1.29244
1.29741
1.30236
1.3073
1.31223
1.31714
1.32203
1.3269
1.33175
1.33659
1.34141
1.34621
1.35098
1.35574
1.36047
1.36518
1.36986
1.37451
1.37914
1.38374
1.38831
1.39284
1.39734
1.40181
1.40623
1.41062
1.41496
1.41925
1.42349
1.42768
1.43181
1.43589
1.43989
1.44383
1.4477
1.45148
1.45518
1.45878
1.46229
1.46569
1.46899
1.47213
1.23988
1.24503
1.25017
1.25529
1.2604
1.2655
1.27058
1.27565
1.28071
1.28575
1.29078
1.29579
1.30078
1.30576
1.31073
1.31567
1.3206
1.32551
1.3304
1.33527
1.34012
1.34494
1.34975
1.35453
1.35929
1.36402
1.36872
1.37339
1.37804
1.38265
1.38723
1.39177
1.39627
1.40073
1.40515
1.40953
1.41385
1.41813
1.42234
1.4265
1.43059
1.43462
1.43857
1.44245
1.44624
1.44994
1.45355
1.45705
1.46044
1.46372
1.46684
1.23291
1.23812
1.24331
1.24849
1.25366
1.25881
1.26395
1.26908
1.27419
1.27929
1.28437
1.28943
1.29448
1.29952
1.30453
1.30953
1.31451
1.31947
1.32442
1.32934
1.33424
1.33911
1.34397
1.3488
1.3536
1.35838
1.36313
1.36784
1.37253
1.37718
1.3818
1.38638
1.39092
1.39542
1.39988
1.40428
1.40863
1.41293
1.41718
1.42135
1.42547
1.42951
1.43347
1.43736
1.44115
1.44485
1.44845
1.45195
1.45532
1.45858
1.46168
1.23144
1.23669
1.24193
1.24715
1.25236
1.25755
1.26273
1.2679
1.27305
1.27818
1.2833
1.2884
1.29349
1.29855
1.3036
1.30864
1.31365
1.31864
1.32361
1.32856
1.33348
1.33839
1.34326
1.34811
1.35293
1.35772
1.36249
1.36721
1.37191
1.37656
1.38118
1.38576
1.39029
1.39477
1.39921
1.40359
1.40791
1.41217
1.41637
1.4205
1.42455
1.42853
1.43241
1.43621
1.43991
1.4435
1.44698
1.45033
1.45357
1.45664
1.22499
1.2303
1.23558
1.24086
1.24612
1.25137
1.2566
1.26182
1.26702
1.2722
1.27738
1.28253
1.28766
1.29278
1.29788
1.30296
1.30803
1.31307
1.31808
1.32308
1.32805
1.333
1.33792
1.34281
1.34768
1.35251
1.35731
1.36208
1.36681
1.3715
1.37616
1.38076
1.38533
1.38984
1.3943
1.39871
1.40305
1.40733
1.41155
1.41568
1.41975
1.42372
1.42761
1.4314
1.43509
1.43867
1.44213
1.44546
1.44867
1.4517
1.21877
1.22412
1.22946
1.23479
1.2401
1.2454
1.25068
1.25595
1.2612
1.26644
1.27166
1.27686
1.28205
1.28721
1.29236
1.29749
1.3026
1.30769
1.31275
1.31779
1.32281
1.3278
1.33277
1.3377
1.34261
1.34748
1.35232
1.35712
1.36189
1.36662
1.3713
1.37594
1.38053
1.38507
1.38956
1.39398
1.39834
1.40264
1.40686
1.41101
1.41508
1.41906
1.42294
1.42672
1.4304
1.43396
1.4374
1.4407
1.44387
1.44686
1.21275
1.21816
1.22355
1.22892
1.23429
1.23963
1.24497
1.25028
1.25559
1.26087
1.26614
1.27139
1.27663
1.28184
1.28704
1.29221
1.29737
1.3025
1.30761
1.31269
1.31775
1.32279
1.32779
1.33277
1.33771
1.34262
1.3475
1.35234
1.35714
1.3619
1.36661
1.37128
1.37589
1.38046
1.38496
1.3894
1.39378
1.39809
1.40232
1.40647
1.41054
1.41451
1.41839
1.42216
1.42582
1.42935
1.43276
1.43603
1.43916
1.4421
1.20695
1.2124
1.21784
1.22327
1.22868
1.23407
1.23945
1.24482
1.25017
1.2555
1.26082
1.26612
1.2714
1.27666
1.2819
1.28712
1.29232
1.29749
1.30265
1.30777
1.31287
1.31795
1.32299
1.32801
1.33299
1.33793
1.34284
1.34772
1.35255
1.35733
1.36207
1.36677
1.3714
1.37599
1.38051
1.38497
1.38935
1.39367
1.39791
1.40206
1.40612
1.41009
1.41395
1.4177
1.42134
1.42484
1.42821
1.43144
1.43452
1.43741
1.20134
1.20685
1.21233
1.21781
1.22326
1.22871
1.23414
1.23955
1.24494
1.25032
1.25568
1.26103
1.26635
1.27166
1.27694
1.28221
1.28745
1.29266
1.29786
1.30303
1.30817
1.31328
1.31836
1.32341
1.32842
1.3334
1.33835
1.34325
1.34811
1.35292
1.35768
1.3624
1.36705
1.37165
1.37619
1.38066
1.38505
1.38937
1.39361
1.39776
1.40181
1.40576
1.40961
1.41333
1.41694
1.42041
1.42374
1.42692
1.42994
1.43277
1.19594
1.20149
1.20702
1.21254
1.21804
1.22353
1.22901
1.23446
1.2399
1.24533
1.25073
1.25612
1.26149
1.26684
1.27216
1.27747
1.28275
1.28801
1.29324
1.29844
1.30362
1.30877
1.31389
1.31897
1.32402
1.32903
1.334
1.33893
1.34381
1.34865
1.35343
1.35816
1.36284
1.36745
1.37199
1.37647
1.38087
1.38519
1.38942
1.39356
1.3976
1.40153
1.40535
1.40905
1.41262
1.41605
1.41933
1.42245
1.42541
1.42817
1.19631
1.20189
1.20746
1.21301
1.21854
1.22406
1.22956
1.23504
1.24051
1.24596
1.25139
1.25679
1.26218
1.26755
1.27289
1.27821
1.28351
1.28878
1.29402
1.29923
1.30441
1.30956
1.31468
1.31975
1.32479
1.32979
1.33474
1.33965
1.3445
1.34931
1.35405
1.35874
1.36336
1.36791
1.37239
1.37678
1.3811
1.38532
1.38944
1.39346
1.39737
1.40117
1.40483
1.40836
1.41174
1.41497
1.41803
1.42092
1.4236
1.19133
1.19695
1.20256
1.20815
1.21372
1.21928
1.22483
1.23035
1.23586
1.24135
1.24682
1.25227
1.25769
1.2631
1.26848
1.27384
1.27917
1.28447
1.28975
1.29499
1.30021
1.30538
1.31053
1.31563
1.32069
1.32571
1.33069
1.33561
1.34048
1.3453
1.35006
1.35475
1.35938
1.36393
1.3684
1.37279
1.3771
1.3813
1.38541
1.38941
1.39329
1.39704
1.40066
1.40414
1.40747
1.41064
1.41363
1.41644
1.41904
1.18651
1.19218
1.19783
1.20346
1.20908
1.21468
1.22026
1.22583
1.23137
1.2369
1.24241
1.2479
1.25336
1.2588
1.26422
1.26961
1.27498
1.28031
1.28562
1.29089
1.29613
1.30134
1.30651
1.31163
1.31672
1.32176
1.32675
1.33169
1.33657
1.3414
1.34616
1.35086
1.35549
1.36003
1.3645
1.36888
1.37317
1.37736
1.38144
1.3854
1.38925
1.39296
1.39653
1.39996
1.40322
1.40632
1.40923
1.41196
1.41446
1.18757
1.19326
1.19894
1.20459
1.21023
1.21586
1.22146
1.22704
1.23261
1.23815
1.24368
1.24917
1.25465
1.2601
1.26552
1.27092
1.27629
1.28162
1.28692
1.29219
1.29742
1.30261
1.30775
1.31286
1.31791
1.32292
1.32787
1.33276
1.33759
1.34236
1.34706
1.35168
1.35622
1.36068
1.36504
1.36931
1.37347
1.37752
1.38144
1.38524
1.38891
1.39242
1.39578
1.39898
1.402
1.40483
1.40746
1.40986
1.18313
1.18886
1.19457
1.20027
1.20594
1.2116
1.21724
1.22286
1.22846
1.23404
1.2396
1.24513
1.25063
1.25612
1.26157
1.26699
1.27238
1.27775
1.28307
1.28836
1.29361
1.29882
1.30398
1.3091
1.31417
1.31918
1.32414
1.32904
1.33387
1.33864
1.34333
1.34794
1.35247
1.35691
1.36125
1.36548
1.36961
1.37362
1.37751
1.38126
1.38486
1.38832
1.39161
1.39473
1.39766
1.4004
1.40293
1.40522
1.18461
1.19036
1.19609
1.2018
1.20749
1.21317
1.21882
1.22445
1.23006
1.23565
1.24121
1.24675
1.25226
1.25773
1.26318
1.2686
1.27398
1.27933
1.28464
1.28991
1.29513
1.30031
1.30544
1.31051
1.31553
1.3205
1.32539
1.33022
1.33498
1.33966
1.34425
1.34876
1.35317
1.35749
1.36169
1.36578
1.36975
1.37358
1.37728
1.38082
1.3842
1.38742
1.39045
1.39329
1.39593
1.39835
1.40052
1.1805
1.18628
1.19204
1.19779
1.20352
1.20922
1.21491
1.22057
1.22621
1.23183
1.23741
1.24298
1.24851
1.25401
1.25949
1.26492
1.27033
1.27569
1.28101
1.28629
1.29153
1.29672
1.30185
1.30693
1.31195
1.31691
1.3218
1.32662
1.33137
1.33603
1.3406
1.34509
1.34947
1.35375
1.35792
1.36196
1.36588
1.36966
1.37329
1.37676
1.38007
1.3832
1.38614
1.38888
1.3914
1.39371
1.39575
1.18234
1.18813
1.19391
1.19967
1.2054
1.21112
1.21681
1.22247
1.22812
1.23373
1.23931
1.24487
1.25039
1.25589
1.26134
1.26676
1.27214
1.27747
1.28276
1.28801
1.2932
1.29833
1.30341
1.30843
1.31338
1.31826
1.32307
1.32779
1.33243
1.33698
1.34144
1.34579
1.35003
1.35415
1.35814
1.362
1.36571
1.36927
1.37267
1.37589
1.37893
1.38177
1.3844
1.38681
1.38898
1.39089
1.17852
1.18435
1.19015
1.19594
1.2017
1.20744
1.21316
1.21885
1.22451
1.23014
1.23575
1.24133
1.24687
1.25237
1.25784
1.26327
1.26866
1.274
1.2793
1.28454
1.28973
1.29486
1.29994
1.30495
1.30989
1.31475
1.31954
1.32424
1.32886
1.33338
1.33779
1.3421
1.34629
1.35036
1.3543
1.35809
1.36173
1.36522
1.36853
1.37166
1.37459
1.37732
1.37984
1.38212
1.38416
1.38592
1.17482
1.18067
1.1865
1.19231
1.1981
1.20386
1.2096
1.21531
1.221
1.22665
1.23227
1.23786
1.24342
1.24894
1.25441
1.25985
1.26524
1.27059
1.27588
1.28112
1.28631
1.29144
1.2965
1.3015
1.30642
1.31127
1.31603
1.3207
1.32529
1.32977
1.33414
1.3384
1.34254
1.34655
1.35042
1.35414
1.35771
1.36111
1.36432
1.36735
1.37018
1.37279
1.37518
1.37732
1.37922
1.38083
1.17122
1.1771
1.18296
1.18879
1.1946
1.20038
1.20614
1.21187
1.21757
1.22323
1.22887
1.23447
1.24003
1.24556
1.25104
1.25648
1.26187
1.26722
1.27251
1.27775
1.28293
1.28804
1.29309
1.29807
1.30297
1.30779
1.31252
1.31716
1.3217
1.32614
1.33047
1.33467
1.33875
1.3427
1.34649
1.35014
1.35362
1.35692
1.36004
1.36296
1.36567
1.36816
1.37041
1.37241
1.37415
1.3756
1.16773
1.17362
1.1795
1.18535
1.19118
1.19698
1.20275
1.20849
1.2142
1.21988
1.22552
1.23113
1.2367
1.24223
1.24771
1.25315
1.25855
1.26388
1.26917
1.2744
1.27956
1.28466
1.28969
1.29464
1.29951
1.3043
1.309
1.3136
1.3181
1.32248
1.32676
1.3309
1.33491
1.33878
1.3425
1.34606
1.34945
1.35265
1.35566
1.35846
1.36105
1.3634
1.36551
1.36736
1.36894
1.37021
1.16431
1.17023
1.17612
1.18198
1.18782
1.19364
1.19942
1.20517
1.21089
1.21658
1.22223
1.22784
1.23341
1.23894
1.24442
1.24986
1.25524
1.26057
1.26584
1.27105
1.2762
1.28128
1.28628
1.2912
1.29604
1.30079
1.30545
1.31
1.31445
1.31878
1.32299
1.32707
1.33101
1.3348
1.33843
1.34189
1.34518
1.34827
1.35117
1.35385
1.3563
1.35851
1.36046
1.36215
1.36356
1.36465
1.16097
1.1669
1.1728
1.17868
1.18453
1.19035
1.19615
1.20191
1.20763
1.21332
1.21897
1.22458
1.23015
1.23568
1.24115
1.24658
1.25195
1.25727
1.26252
1.26771
1.27283
1.27788
1.28285
1.28774
1.29254
1.29725
1.30186
1.30636
1.31075
1.31502
1.31916
1.32316
1.32702
1.33072
1.33426
1.33763
1.3408
1.34378
1.34655
1.3491
1.35141
1.35347
1.35526
1.35678
1.35801
1.35892
1.16363
1.16954
1.17543
1.18129
1.18712
1.19292
1.19868
1.20441
1.21009
1.21574
1.22135
1.22691
1.23243
1.23789
1.2433
1.24866
1.25395
1.25918
1.26435
1.26944
1.27446
1.27939
1.28424
1.28899
1.29365
1.29821
1.30265
1.30697
1.31117
1.31524
1.31916
1.32293
1.32654
1.32998
1.33324
1.3363
1.33916
1.34179
1.3442
1.34636
1.34826
1.34989
1.35123
1.35228
1.35298
1.1604
1.16633
1.17222
1.17808
1.18392
1.18971
1.19548
1.2012
1.20688
1.21253
1.21812
1.22368
1.22918
1.23462
1.24002
1.24535
1.25062
1.25582
1.26096
1.26601
1.27099
1.27588
1.28068
1.28539
1.28999
1.29449
1.29886
1.30312
1.30724
1.31123
1.31506
1.31874
1.32225
1.32558
1.32872
1.33166
1.33438
1.33688
1.33914
1.34114
1.34288
1.34433
1.34549
1.34634
1.34684
1.15722
1.16315
1.16904
1.17491
1.18074
1.18653
1.19229
1.198
1.20368
1.20931
1.21489
1.22043
1.22591
1.23134
1.23671
1.24201
1.24725
1.25242
1.25752
1.26254
1.26747
1.27231
1.27706
1.28171
1.28625
1.29068
1.29499
1.29917
1.30321
1.3071
1.31085
1.31442
1.31782
1.32104
1.32406
1.32687
1.32945
1.3318
1.3339
1.33574
1.33731
1.33858
1.33954
1.34019
1.34048
1.15998
1.16588
1.17174
1.17756
1.18335
1.1891
1.1948
1.20046
1.20608
1.21165
1.21716
1.22262
1.22802
1.23336
1.23863
1.24384
1.24897
1.25402
1.25899
1.26388
1.26867
1.27336
1.27795
1.28242
1.28678
1.29101
1.2951
1.29905
1.30286