/*--------------------------------*- C++ -*----------------------------------*\
| =========                 |                                                 |
| \\      /  F ield         | OpenFOAM: The Open Source CFD Toolbox           |
|  \\    /   O peration     | Version:  v1706                                 |
|   \\  /    A nd           | Web:      www.OpenFOAM.com                      |
|    \\/     M anipulation  |                                                 |
\*---------------------------------------------------------------------------*/
FoamFile
{
    version     2.0;
    format      ascii;
    class       volScalarField;
    location    "3.8e-05";
    object      mu;
}
// * * * * * * * * * * * * * * * * * * * * * * * * * * * * * * * * * * * * * //

dimensions      [1 -1 -1 0 0 0 0];


internalField   nonuniform List<scalar> 
30038
(
1.0351e-05
1.0351e-05
1.0351e-05
1.0351e-05
1.0351e-05
1.0351e-05
1.0351e-05
1.0351e-05
1.0351e-05
1.0351e-05
1.0351e-05
1.0351e-05
1.0351e-05
1.0351e-05
1.0351e-05
1.0351e-05
1.0351e-05
1.0351e-05
1.0351e-05
1.0351e-05
1.0351e-05
1.0351e-05
1.0351e-05
1.0351e-05
1.0351e-05
1.0351e-05
1.0351e-05
1.0351e-05
1.0351e-05
1.0351e-05
1.0351e-05
1.0351e-05
1.0351e-05
1.0351e-05
1.0351e-05
1.0351e-05
1.0351e-05
1.0351e-05
1.0351e-05
1.0351e-05
1.0351e-05
1.0351e-05
1.0351e-05
1.0351e-05
1.0351e-05
1.0351e-05
1.0351e-05
1.0351e-05
1.0351e-05
1.0351e-05
1.0351e-05
1.0351e-05
1.0351e-05
1.0351e-05
1.0351e-05
1.0351e-05
1.0351e-05
1.0351e-05
1.0351e-05
1.0351e-05
1.0351e-05
1.0351e-05
1.0351e-05
1.0351e-05
1.0351e-05
1.0351e-05
1.0351e-05
1.0351e-05
1.0351e-05
1.0351e-05
1.0351e-05
1.0351e-05
1.0351e-05
1.0351e-05
1.0351e-05
1.0351e-05
1.0351e-05
1.0351e-05
1.0351e-05
1.0351e-05
1.0351e-05
1.0351e-05
1.0351e-05
1.0351e-05
1.0351e-05
1.0351e-05
1.0351e-05
1.0351e-05
1.0351e-05
1.0351e-05
1.0351e-05
1.0351e-05
1.0351e-05
1.0351e-05
1.0351e-05
1.0351e-05
1.0351e-05
1.0351e-05
1.0351e-05
1.0351e-05
1.0351e-05
1.0351e-05
1.0351e-05
1.0351e-05
1.0351e-05
1.0351e-05
1.0351e-05
1.0351e-05
1.0351e-05
1.0351e-05
1.0351e-05
1.0351e-05
1.0351e-05
1.0351e-05
1.0351e-05
1.0351e-05
1.0351e-05
1.0351e-05
1.0351e-05
1.0351e-05
1.0351e-05
1.0351e-05
1.0351e-05
1.0351e-05
1.0351e-05
1.0351e-05
1.0351e-05
1.0351e-05
1.0351e-05
1.0351e-05
1.0351e-05
1.0351e-05
1.0351e-05
1.0351e-05
1.0351e-05
1.0351e-05
1.0351e-05
1.0351e-05
1.0351e-05
1.0351e-05
1.0351e-05
1.0351e-05
1.0351e-05
1.0351e-05
1.0351e-05
1.0351e-05
1.0351e-05
1.0351e-05
1.0351e-05
1.0351e-05
1.0351e-05
1.0351e-05
1.0351e-05
1.0351e-05
1.0351e-05
1.0351e-05
1.0351e-05
1.0351e-05
1.0351e-05
1.0351e-05
1.0351e-05
1.0351e-05
1.0351e-05
1.0351e-05
1.0351e-05
1.0351e-05
1.0351e-05
1.0351e-05
1.0351e-05
1.0351e-05
1.0351e-05
1.0351e-05
1.0351e-05
1.0351e-05
1.0351e-05
1.0351e-05
1.0351e-05
1.0351e-05
1.0351e-05
1.0351e-05
1.0351e-05
1.0351e-05
1.0351e-05
1.0351e-05
1.0351e-05
1.0351e-05
1.0351e-05
1.0351e-05
1.0351e-05
1.0351e-05
1.0351e-05
1.0351e-05
1.0351e-05
1.0351e-05
1.0351e-05
1.0351e-05
1.0351e-05
1.0351e-05
1.0351e-05
1.0351e-05
1.0351e-05
1.0351e-05
1.0351e-05
1.0351e-05
1.0351e-05
1.0351e-05
1.0351e-05
1.0351e-05
1.0351e-05
1.0351e-05
1.0351e-05
1.0351e-05
1.0351e-05
1.0351e-05
1.0351e-05
1.0351e-05
1.0351e-05
1.0351e-05
1.0351e-05
1.0351e-05
1.0351e-05
1.0351e-05
1.0351e-05
1.0351e-05
1.0351e-05
1.0351e-05
1.0351e-05
1.0351e-05
1.0351e-05
1.0351e-05
1.0351e-05
1.0351e-05
1.0351e-05
1.0351e-05
1.0351e-05
1.0351e-05
1.0351e-05
1.0351e-05
1.0351e-05
1.0351e-05
1.0351e-05
1.0351e-05
1.0351e-05
1.0351e-05
1.0351e-05
1.0351e-05
1.0351e-05
1.0351e-05
1.0351e-05
1.0351e-05
1.0351e-05
1.0351e-05
1.0351e-05
1.0351e-05
1.0351e-05
1.0351e-05
1.0351e-05
1.0351e-05
1.0351e-05
1.0351e-05
1.0351e-05
1.0351e-05
1.0351e-05
1.0351e-05
1.0351e-05
1.0351e-05
1.0351e-05
1.0351e-05
1.0351e-05
1.0351e-05
1.0351e-05
1.0351e-05
1.0351e-05
1.0351e-05
1.0351e-05
1.0351e-05
1.0351e-05
1.0351e-05
1.0351e-05
1.0351e-05
1.0351e-05
1.0351e-05
1.0351e-05
1.0351e-05
1.0351e-05
1.0351e-05
1.0351e-05
1.0351e-05
1.0351e-05
1.0351e-05
1.0351e-05
1.0351e-05
1.0351e-05
1.0351e-05
1.0351e-05
1.0351e-05
1.0351e-05
1.0351e-05
1.0351e-05
1.0351e-05
1.0351e-05
1.0351e-05
1.0351e-05
1.0351e-05
1.0351e-05
1.0351e-05
1.0351e-05
1.0351e-05
1.0351e-05
1.0351e-05
1.0351e-05
1.0351e-05
1.0351e-05
1.0351e-05
1.0351e-05
1.0351e-05
1.0351e-05
1.0351e-05
1.0351e-05
1.0351e-05
1.0351e-05
1.0351e-05
1.0351e-05
1.0351e-05
1.0351e-05
1.0351e-05
1.0351e-05
1.0351e-05
1.0351e-05
1.0351e-05
1.0351e-05
1.0351e-05
1.0351e-05
1.0351e-05
1.0351e-05
1.0351e-05
1.0351e-05
1.0351e-05
1.0351e-05
1.0351e-05
1.0351e-05
1.0351e-05
1.0351e-05
1.0351e-05
1.0351e-05
1.0351e-05
1.0351e-05
1.0351e-05
1.0351e-05
1.0351e-05
1.0351e-05
1.0351e-05
1.0351e-05
1.0351e-05
1.0351e-05
1.0351e-05
1.0351e-05
1.0351e-05
1.0351e-05
1.0351e-05
1.0351e-05
1.0351e-05
1.0351e-05
1.0351e-05
1.0351e-05
1.0351e-05
1.0351e-05
1.0351e-05
1.0351e-05
1.0351e-05
1.0351e-05
1.0351e-05
1.0351e-05
1.0351e-05
1.0351e-05
1.0351e-05
1.0351e-05
1.0351e-05
1.0351e-05
1.0351e-05
1.0351e-05
1.0351e-05
1.0351e-05
1.0351e-05
1.0351e-05
1.0351e-05
1.0351e-05
1.0351e-05
1.0351e-05
1.0351e-05
1.0351e-05
1.0351e-05
1.0351e-05
1.0351e-05
1.0351e-05
1.0351e-05
1.0351e-05
1.0351e-05
1.0351e-05
1.0351e-05
1.0351e-05
1.0351e-05
1.0351e-05
1.0351e-05
1.0351e-05
1.0351e-05
1.0351e-05
1.0351e-05
1.0351e-05
1.0351e-05
1.0351e-05
1.0351e-05
1.0351e-05
1.0351e-05
1.0351e-05
1.0351e-05
1.0351e-05
1.0351e-05
1.0351e-05
1.03511e-05
1.03511e-05
1.0351e-05
1.0351e-05
1.0351e-05
1.0351e-05
1.0351e-05
1.0351e-05
1.0351e-05
1.0351e-05
1.0351e-05
1.0351e-05
1.0351e-05
1.0351e-05
1.0351e-05
1.0351e-05
1.0351e-05
1.0351e-05
1.0351e-05
1.0351e-05
1.0351e-05
1.0351e-05
1.0351e-05
1.0351e-05
1.0351e-05
1.0351e-05
1.0351e-05
1.0351e-05
1.0351e-05
1.0351e-05
1.0351e-05
1.0351e-05
1.0351e-05
1.0351e-05
1.0351e-05
1.0351e-05
1.0351e-05
1.03511e-05
1.03511e-05
1.03511e-05
1.03512e-05
1.03513e-05
1.0351e-05
1.0351e-05
1.0351e-05
1.0351e-05
1.0351e-05
1.0351e-05
1.0351e-05
1.0351e-05
1.0351e-05
1.0351e-05
1.0351e-05
1.0351e-05
1.0351e-05
1.0351e-05
1.0351e-05
1.0351e-05
1.0351e-05
1.0351e-05
1.0351e-05
1.0351e-05
1.0351e-05
1.0351e-05
1.0351e-05
1.0351e-05
1.0351e-05
1.0351e-05
1.0351e-05
1.0351e-05
1.0351e-05
1.0351e-05
1.0351e-05
1.0351e-05
1.03511e-05
1.03511e-05
1.03511e-05
1.03512e-05
1.03512e-05
1.03514e-05
1.03515e-05
1.03518e-05
1.0351e-05
1.0351e-05
1.0351e-05
1.0351e-05
1.0351e-05
1.0351e-05
1.0351e-05
1.0351e-05
1.0351e-05
1.0351e-05
1.0351e-05
1.0351e-05
1.0351e-05
1.0351e-05
1.0351e-05
1.0351e-05
1.0351e-05
1.0351e-05
1.0351e-05
1.0351e-05
1.0351e-05
1.0351e-05
1.0351e-05
1.0351e-05
1.0351e-05
1.0351e-05
1.0351e-05
1.0351e-05
1.0351e-05
1.03511e-05
1.03511e-05
1.03511e-05
1.03512e-05
1.03512e-05
1.03513e-05
1.03515e-05
1.03517e-05
1.0352e-05
1.03525e-05
1.03532e-05
1.0351e-05
1.0351e-05
1.0351e-05
1.0351e-05
1.0351e-05
1.0351e-05
1.0351e-05
1.0351e-05
1.0351e-05
1.0351e-05
1.0351e-05
1.0351e-05
1.0351e-05
1.0351e-05
1.0351e-05
1.0351e-05
1.0351e-05
1.0351e-05
1.0351e-05
1.0351e-05
1.0351e-05
1.0351e-05
1.0351e-05
1.0351e-05
1.0351e-05
1.0351e-05
1.03511e-05
1.03511e-05
1.03511e-05
1.03512e-05
1.03512e-05
1.03513e-05
1.03515e-05
1.03517e-05
1.0352e-05
1.03524e-05
1.0353e-05
1.03539e-05
1.03551e-05
1.0357e-05
1.0351e-05
1.0351e-05
1.0351e-05
1.0351e-05
1.0351e-05
1.0351e-05
1.0351e-05
1.0351e-05
1.0351e-05
1.0351e-05
1.0351e-05
1.0351e-05
1.0351e-05
1.0351e-05
1.0351e-05
1.0351e-05
1.0351e-05
1.0351e-05
1.0351e-05
1.0351e-05
1.0351e-05
1.0351e-05
1.0351e-05
1.03511e-05
1.03511e-05
1.03511e-05
1.03512e-05
1.03512e-05
1.03513e-05
1.03515e-05
1.03517e-05
1.03519e-05
1.03523e-05
1.03529e-05
1.03537e-05
1.03549e-05
1.03565e-05
1.03589e-05
1.03624e-05
1.03675e-05
1.0351e-05
1.0351e-05
1.0351e-05
1.0351e-05
1.0351e-05
1.0351e-05
1.0351e-05
1.0351e-05
1.0351e-05
1.0351e-05
1.0351e-05
1.0351e-05
1.0351e-05
1.0351e-05
1.0351e-05
1.0351e-05
1.0351e-05
1.0351e-05
1.0351e-05
1.0351e-05
1.03511e-05
1.03511e-05
1.03511e-05
1.03512e-05
1.03512e-05
1.03513e-05
1.03515e-05
1.03517e-05
1.03519e-05
1.03523e-05
1.03529e-05
1.03536e-05
1.03547e-05
1.03562e-05
1.03584e-05
1.03616e-05
1.03661e-05
1.03726e-05
1.03819e-05
1.03955e-05
1.0351e-05
1.0351e-05
1.0351e-05
1.0351e-05
1.0351e-05
1.0351e-05
1.0351e-05
1.0351e-05
1.0351e-05
1.0351e-05
1.0351e-05
1.0351e-05
1.0351e-05
1.0351e-05
1.0351e-05
1.0351e-05
1.03511e-05
1.03511e-05
1.03511e-05
1.03511e-05
1.03512e-05
1.03513e-05
1.03513e-05
1.03515e-05
1.03517e-05
1.03519e-05
1.03523e-05
1.03528e-05
1.03536e-05
1.03546e-05
1.03561e-05
1.03581e-05
1.03611e-05
1.03652e-05
1.03711e-05
1.03795e-05
1.03915e-05
1.04085e-05
1.04329e-05
1.04681e-05
1.0351e-05
1.0351e-05
1.0351e-05
1.0351e-05
1.0351e-05
1.0351e-05
1.0351e-05
1.0351e-05
1.0351e-05
1.0351e-05
1.0351e-05
1.0351e-05
1.0351e-05
1.0351e-05
1.03511e-05
1.03511e-05
1.03511e-05
1.03511e-05
1.03512e-05
1.03513e-05
1.03514e-05
1.03515e-05
1.03517e-05
1.0352e-05
1.03523e-05
1.03528e-05
1.03536e-05
1.03546e-05
1.0356e-05
1.0358e-05
1.03608e-05
1.03647e-05
1.03702e-05
1.0378e-05
1.03889e-05
1.04044e-05
1.04263e-05
1.04573e-05
1.0501e-05
1.05629e-05
1.06506e-05
1.0351e-05
1.0351e-05
1.0351e-05
1.0351e-05
1.0351e-05
1.0351e-05
1.0351e-05
1.0351e-05
1.0351e-05
1.0351e-05
1.0351e-05
1.03511e-05
1.03511e-05
1.03511e-05
1.03512e-05
1.03512e-05
1.03513e-05
1.03514e-05
1.03515e-05
1.03517e-05
1.0352e-05
1.03524e-05
1.03529e-05
1.03536e-05
1.03546e-05
1.0356e-05
1.03579e-05
1.03606e-05
1.03644e-05
1.03696e-05
1.03769e-05
1.03872e-05
1.04016e-05
1.04218e-05
1.045e-05
1.04896e-05
1.0545e-05
1.06223e-05
1.07298e-05
1.08784e-05
1.10824e-05
1.0351e-05
1.0351e-05
1.0351e-05
1.0351e-05
1.0351e-05
1.0351e-05
1.0351e-05
1.0351e-05
1.03511e-05
1.03511e-05
1.03511e-05
1.03511e-05
1.03512e-05
1.03512e-05
1.03513e-05
1.03514e-05
1.03516e-05
1.03518e-05
1.03521e-05
1.03524e-05
1.0353e-05
1.03537e-05
1.03547e-05
1.03561e-05
1.0358e-05
1.03606e-05
1.03643e-05
1.03693e-05
1.03764e-05
1.03862e-05
1.03997e-05
1.04186e-05
1.04449e-05
1.04815e-05
1.05323e-05
1.06026e-05
1.06997e-05
1.08329e-05
1.10141e-05
1.12581e-05
1.15815e-05
1.20015e-05
1.0351e-05
1.0351e-05
1.0351e-05
1.0351e-05
1.0351e-05
1.0351e-05
1.03511e-05
1.03511e-05
1.03511e-05
1.03511e-05
1.03512e-05
1.03513e-05
1.03513e-05
1.03515e-05
1.03516e-05
1.03518e-05
1.03521e-05
1.03525e-05
1.03531e-05
1.03538e-05
1.03549e-05
1.03562e-05
1.03582e-05
1.03608e-05
1.03644e-05
1.03694e-05
1.03762e-05
1.03857e-05
1.03987e-05
1.04168e-05
1.04416e-05
1.0476e-05
1.05233e-05
1.05885e-05
1.06778e-05
1.07997e-05
1.09647e-05
1.11857e-05
1.14776e-05
1.18566e-05
1.23377e-05
1.29325e-05
1.36432e-05
1.0351e-05
1.0351e-05
1.03511e-05
1.03511e-05
1.03511e-05
1.03511e-05
1.03512e-05
1.03512e-05
1.03513e-05
1.03514e-05
1.03515e-05
1.03517e-05
1.03519e-05
1.03522e-05
1.03527e-05
1.03532e-05
1.0354e-05
1.03551e-05
1.03565e-05
1.03585e-05
1.03611e-05
1.03648e-05
1.03697e-05
1.03765e-05
1.03858e-05
1.03985e-05
1.04159e-05
1.04399e-05
1.04726e-05
1.05175e-05
1.05788e-05
1.06623e-05
1.07756e-05
1.09282e-05
1.11317e-05
1.13998e-05
1.17473e-05
1.21884e-05
1.27347e-05
1.33921e-05
1.41579e-05
1.5017e-05
1.59439e-05
1.03511e-05
1.03511e-05
1.03511e-05
1.03511e-05
1.03512e-05
1.03513e-05
1.03513e-05
1.03514e-05
1.03516e-05
1.03518e-05
1.0352e-05
1.03524e-05
1.03528e-05
1.03534e-05
1.03543e-05
1.03554e-05
1.03569e-05
1.03589e-05
1.03616e-05
1.03653e-05
1.03704e-05
1.03772e-05
1.03864e-05
1.0399e-05
1.04162e-05
1.04395e-05
1.04713e-05
1.05144e-05
1.0573e-05
1.06523e-05
1.07591e-05
1.09022e-05
1.10922e-05
1.13417e-05
1.16644e-05
1.2074e-05
1.2582e-05
1.31956e-05
1.39141e-05
1.47271e-05
1.56124e-05
1.65388e-05
1.74625e-05
1.83345e-05
1.03511e-05
1.03512e-05
1.03512e-05
1.03513e-05
1.03514e-05
1.03515e-05
1.03517e-05
1.03519e-05
1.03522e-05
1.03525e-05
1.0353e-05
1.03537e-05
1.03546e-05
1.03558e-05
1.03574e-05
1.03595e-05
1.03623e-05
1.03662e-05
1.03713e-05
1.03783e-05
1.03877e-05
1.04003e-05
1.04174e-05
1.04405e-05
1.04718e-05
1.05139e-05
1.05707e-05
1.0647e-05
1.07493e-05
1.08854e-05
1.10652e-05
1.13003e-05
1.16034e-05
1.19876e-05
1.24642e-05
1.30412e-05
1.37202e-05
1.44941e-05
1.5345e-05
1.6246e-05
1.71604e-05
1.80399e-05
1.88308e-05
1.9488e-05
2.00027e-05
1.03513e-05
1.03514e-05
1.03515e-05
1.03516e-05
1.03518e-05
1.0352e-05
1.03523e-05
1.03527e-05
1.03533e-05
1.0354e-05
1.0355e-05
1.03563e-05
1.0358e-05
1.03602e-05
1.03633e-05
1.03673e-05
1.03727e-05
1.03799e-05
1.03895e-05
1.04024e-05
1.04197e-05
1.0443e-05
1.04741e-05
1.05159e-05
1.05718e-05
1.06464e-05
1.07456e-05
1.08769e-05
1.10493e-05
1.12736e-05
1.15616e-05
1.19257e-05
1.2377e-05
1.29235e-05
1.35684e-05
1.4307e-05
1.51257e-05
1.60011e-05
1.69025e-05
1.7789e-05
1.86103e-05
1.93181e-05
1.98831e-05
2.03042e-05
2.05975e-05
2.07967e-05
1.03514e-05
1.03515e-05
1.03517e-05
1.03519e-05
1.03522e-05
1.03525e-05
1.0353e-05
1.03536e-05
1.03544e-05
1.03555e-05
1.03569e-05
1.03588e-05
1.03612e-05
1.03644e-05
1.03687e-05
1.03744e-05
1.0382e-05
1.0392e-05
1.04054e-05
1.04232e-05
1.04469e-05
1.04784e-05
1.05204e-05
1.05762e-05
1.06501e-05
1.07477e-05
1.08761e-05
1.10436e-05
1.12603e-05
1.15372e-05
1.1886e-05
1.23172e-05
1.2839e-05
1.34551e-05
1.4163e-05
1.49516e-05
1.58013e-05
1.66853e-05
1.75691e-05
1.84086e-05
1.91556e-05
1.97731e-05
2.0248e-05
2.05903e-05
2.08229e-05
2.09744e-05
2.10675e-05
2.11241e-05
1.03521e-05
1.03524e-05
1.03528e-05
1.03534e-05
1.03541e-05
1.0355e-05
1.03562e-05
1.03577e-05
1.03598e-05
1.03624e-05
1.0366e-05
1.03706e-05
1.03767e-05
1.03847e-05
1.03954e-05
1.04094e-05
1.04279e-05
1.04524e-05
1.04848e-05
1.05276e-05
1.0584e-05
1.06583e-05
1.07557e-05
1.08828e-05
1.10477e-05
1.12596e-05
1.1529e-05
1.18667e-05
1.22827e-05
1.2785e-05
1.33776e-05
1.4059e-05
1.48206e-05
1.56457e-05
1.65103e-05
1.73851e-05
1.82318e-05
1.90054e-05
1.96652e-05
2.01891e-05
2.05782e-05
2.08505e-05
2.10314e-05
2.11461e-05
2.1215e-05
2.12543e-05
2.12754e-05
2.12832e-05
1.03527e-05
1.03532e-05
1.03538e-05
1.03546e-05
1.03556e-05
1.0357e-05
1.03588e-05
1.0361e-05
1.0364e-05
1.03679e-05
1.0373e-05
1.03796e-05
1.03883e-05
1.03997e-05
1.04146e-05
1.04342e-05
1.04598e-05
1.04936e-05
1.05378e-05
1.05956e-05
1.06712e-05
1.07697e-05
1.08973e-05
1.10616e-05
1.12714e-05
1.15365e-05
1.18669e-05
1.22721e-05
1.27597e-05
1.33336e-05
1.39932e-05
1.47314e-05
1.55336e-05
1.63787e-05
1.72405e-05
1.80862e-05
1.88754e-05
1.95667e-05
2.01319e-05
2.05638e-05
2.08745e-05
2.10862e-05
2.12234e-05
2.13081e-05
2.13576e-05
2.13844e-05
2.13971e-05
2.13973e-05
2.13954e-05
2.13901e-05
1.03553e-05
1.03565e-05
1.03581e-05
1.03601e-05
1.03626e-05
1.0366e-05
1.03703e-05
1.0376e-05
1.03833e-05
1.03928e-05
1.04051e-05
1.04212e-05
1.04422e-05
1.04694e-05
1.0505e-05
1.05513e-05
1.06114e-05
1.06894e-05
1.07902e-05
1.09199e-05
1.10856e-05
1.12958e-05
1.15595e-05
1.18862e-05
1.22847e-05
1.2762e-05
1.33218e-05
1.3964e-05
1.46823e-05
1.54641e-05
1.62902e-05
1.71371e-05
1.79765e-05
1.87723e-05
1.94851e-05
2.00829e-05
2.05519e-05
2.0898e-05
2.11396e-05
2.12999e-05
2.14014e-05
2.14619e-05
2.14956e-05
2.15124e-05
2.15166e-05
2.15139e-05
2.15092e-05
2.14999e-05
2.14862e-05
2.147e-05
1.03617e-05
1.03647e-05
1.03685e-05
1.03734e-05
1.03797e-05
1.03879e-05
1.03984e-05
1.0412e-05
1.04296e-05
1.04523e-05
1.04817e-05
1.05197e-05
1.05687e-05
1.0632e-05
1.07135e-05
1.0818e-05
1.09513e-05
1.11205e-05
1.13334e-05
1.15986e-05
1.19249e-05
1.23203e-05
1.27914e-05
1.33416e-05
1.39703e-05
1.46724e-05
1.54363e-05
1.62448e-05
1.70762e-05
1.79055e-05
1.87011e-05
1.94264e-05
2.00481e-05
2.05475e-05
2.09247e-05
2.11941e-05
2.13769e-05
2.1495e-05
2.15674e-05
2.16086e-05
2.16303e-05
2.16382e-05
2.16359e-05
2.16312e-05
2.16232e-05
2.16103e-05
2.15939e-05
2.15755e-05
2.1555e-05
2.15338e-05
1.03773e-05
1.03845e-05
1.03937e-05
1.04055e-05
1.04207e-05
1.04401e-05
1.0465e-05
1.04971e-05
1.05382e-05
1.05909e-05
1.06583e-05
1.07444e-05
1.0854e-05
1.09928e-05
1.11674e-05
1.13854e-05
1.16548e-05
1.19837e-05
1.23797e-05
1.28484e-05
1.33926e-05
1.40119e-05
1.47011e-05
1.54499e-05
1.62422e-05
1.70581e-05
1.78751e-05
1.86654e-05
1.93956e-05
2.0033e-05
2.05556e-05
2.09586e-05
2.12526e-05
2.14562e-05
2.15905e-05
2.16747e-05
2.17238e-05
2.17503e-05
2.1762e-05
2.17613e-05
2.17565e-05
2.1749e-05
2.17371e-05
2.17213e-05
2.17029e-05
2.16824e-05
2.16602e-05
2.16378e-05
2.16162e-05
2.15951e-05
1.04146e-05
1.04316e-05
1.04534e-05
1.04811e-05
1.05164e-05
1.05614e-05
1.06187e-05
1.06914e-05
1.07835e-05
1.08997e-05
1.10457e-05
1.12278e-05
1.14533e-05
1.17296e-05
1.20643e-05
1.24639e-05
1.29336e-05
1.34756e-05
1.40888e-05
1.47683e-05
1.55044e-05
1.62821e-05
1.7083e-05
1.78863e-05
1.86676e-05
1.93968e-05
2.00423e-05
2.05808e-05
2.10038e-05
2.13182e-05
2.154e-05
2.16891e-05
2.17845e-05
2.18415e-05
2.1873e-05
2.18881e-05
2.18898e-05
2.18849e-05
2.18771e-05
2.18662e-05
2.18509e-05
2.18325e-05
2.18124e-05
2.17901e-05
2.17669e-05
2.17439e-05
2.17214e-05
2.16991e-05
2.16775e-05
2.16565e-05
1.05013e-05
1.05407e-05
1.05905e-05
1.06535e-05
1.07327e-05
1.08323e-05
1.09569e-05
1.1112e-05
1.13039e-05
1.15393e-05
1.18252e-05
1.21684e-05
1.25749e-05
1.30488e-05
1.35916e-05
1.42018e-05
1.48744e-05
1.56001e-05
1.63647e-05
1.7151e-05
1.79398e-05
1.87093e-05
1.94324e-05
2.00796e-05
2.06271e-05
2.10639e-05
2.13938e-05
2.16306e-05
2.17924e-05
2.18977e-05
2.19622e-05
2.19985e-05
2.20167e-05
2.2021e-05
2.20168e-05
2.20086e-05
2.19978e-05
2.19833e-05
2.1965e-05
2.19447e-05
2.19224e-05
2.18986e-05
2.18745e-05
2.1851e-05
2.18278e-05
2.18048e-05
2.17824e-05
2.17601e-05
2.17384e-05
2.1717e-05
1.06969e-05
1.07842e-05
1.08929e-05
1.10278e-05
1.11942e-05
1.13982e-05
1.1646e-05
1.19442e-05
1.22988e-05
1.2715e-05
1.31959e-05
1.37425e-05
1.43523e-05
1.50203e-05
1.57374e-05
1.64902e-05
1.72622e-05
1.80358e-05
1.87914e-05
1.95044e-05
2.01475e-05
2.06975e-05
2.11419e-05
2.14823e-05
2.17301e-05
2.19021e-05
2.20158e-05
2.20867e-05
2.21274e-05
2.21481e-05
2.21549e-05
2.21517e-05
2.21431e-05
2.21318e-05
2.2118e-05
2.20997e-05
2.20792e-05
2.20574e-05
2.20332e-05
2.20083e-05
2.19837e-05
2.19594e-05
2.19353e-05
2.19116e-05
2.18883e-05
2.18653e-05
2.18425e-05
2.182e-05
2.17979e-05
2.17762e-05
1.11154e-05
1.12954e-05
1.15139e-05
1.17768e-05
1.20899e-05
1.24586e-05
1.28871e-05
1.33776e-05
1.39302e-05
1.45419e-05
1.52071e-05
1.59171e-05
1.66589e-05
1.74168e-05
1.81745e-05
1.89142e-05
1.96136e-05
2.02478e-05
2.07943e-05
2.12404e-05
2.15859e-05
2.18406e-05
2.20197e-05
2.21397e-05
2.22157e-05
2.22601e-05
2.22833e-05
2.22919e-05
2.22893e-05
2.22806e-05
2.22691e-05
2.22553e-05
2.22373e-05
2.22165e-05
2.21943e-05
2.21701e-05
2.21446e-05
2.2119e-05
2.20938e-05
2.20688e-05
2.2044e-05
2.20196e-05
2.19954e-05
2.19715e-05
2.19479e-05
2.19245e-05
2.19013e-05
2.18784e-05
2.1856e-05
2.18338e-05
1.19357e-05
1.22663e-05
1.26516e-05
1.30947e-05
1.3597e-05
1.41574e-05
1.47725e-05
1.54363e-05
1.614e-05
1.68711e-05
1.76147e-05
1.83556e-05
1.90776e-05
1.97606e-05
2.03814e-05
2.09191e-05
2.13611e-05
2.17065e-05
2.19637e-05
2.21465e-05
2.22705e-05
2.23499e-05
2.2397e-05
2.24222e-05
2.2432e-05
2.243e-05
2.24218e-05
2.24093e-05
2.23948e-05
2.23774e-05
2.23563e-05
2.23338e-05
2.23096e-05
2.22835e-05
2.2257e-05
2.22309e-05
2.22049e-05
2.21791e-05
2.21537e-05
2.21285e-05
2.21035e-05
2.20788e-05
2.20543e-05
2.203e-05
2.2006e-05
2.19821e-05
2.19586e-05
2.19353e-05
2.19124e-05
2.18899e-05
1.33418e-05
1.38574e-05
1.44269e-05
1.50463e-05
1.57093e-05
1.6407e-05
1.71273e-05
1.78559e-05
1.85788e-05
1.92814e-05
1.99449e-05
2.05483e-05
2.10723e-05
2.1505e-05
2.18452e-05
2.21006e-05
2.22837e-05
2.2409e-05
2.24901e-05
2.25387e-05
2.25649e-05
2.25753e-05
2.25738e-05
2.25658e-05
2.25524e-05
2.25372e-05
2.25199e-05
2.24984e-05
2.24754e-05
2.24512e-05
2.24249e-05
2.23977e-05
2.23706e-05
2.23438e-05
2.23169e-05
2.22905e-05
2.22643e-05
2.22384e-05
2.22126e-05
2.21871e-05
2.21617e-05
2.21366e-05
2.21117e-05
2.20869e-05
2.20624e-05
2.20382e-05
2.20142e-05
2.19905e-05
2.19673e-05
2.19443e-05
1.53656e-05
1.60277e-05
1.6719e-05
1.74276e-05
1.814e-05
1.88435e-05
1.95245e-05
2.01659e-05
2.07481e-05
2.12537e-05
2.16722e-05
2.20025e-05
2.22519e-05
2.24318e-05
2.25558e-05
2.26367e-05
2.26855e-05
2.27119e-05
2.27225e-05
2.27209e-05
2.27125e-05
2.26986e-05
2.26826e-05
2.2665e-05
2.26431e-05
2.26196e-05
2.25949e-05
2.25684e-05
2.25406e-05
2.25127e-05
2.2485e-05
2.24574e-05
2.24299e-05
2.24028e-05
2.23759e-05
2.23491e-05
2.23226e-05
2.22963e-05
2.22701e-05
2.22441e-05
2.22183e-05
2.21927e-05
2.21673e-05
2.21422e-05
2.21173e-05
2.20926e-05
2.20682e-05
2.20441e-05
2.20205e-05
2.19972e-05
1.77718e-05
1.84664e-05
1.91486e-05
1.98058e-05
2.04221e-05
2.09795e-05
2.14625e-05
2.18622e-05
2.21782e-05
2.24176e-05
2.25911e-05
2.27112e-05
2.279e-05
2.28376e-05
2.28633e-05
2.28733e-05
2.28713e-05
2.28625e-05
2.28479e-05
2.28308e-05
2.28121e-05
2.27906e-05
2.27663e-05
2.27411e-05
2.27144e-05
2.26859e-05
2.26572e-05
2.26287e-05
2.26003e-05
2.25719e-05
2.25438e-05
2.2516e-05
2.24883e-05
2.24608e-05
2.24335e-05
2.24063e-05
2.23794e-05
2.23525e-05
2.23259e-05
2.22995e-05
2.22732e-05
2.22471e-05
2.22213e-05
2.21957e-05
2.21704e-05
2.21453e-05
2.21205e-05
2.2096e-05
2.2072e-05
2.20484e-05
2.01233e-05
2.07113e-05
2.12403e-05
2.16967e-05
2.20735e-05
2.23715e-05
2.25973e-05
2.27614e-05
2.28753e-05
2.29499e-05
2.2995e-05
2.30191e-05
2.30277e-05
2.3025e-05
2.30154e-05
2.30001e-05
2.29817e-05
2.29622e-05
2.29403e-05
2.29152e-05
2.28893e-05
2.28624e-05
2.28336e-05
2.28041e-05
2.27748e-05
2.27455e-05
2.27162e-05
2.26872e-05
2.26585e-05
2.26299e-05
2.26015e-05
2.25733e-05
2.25452e-05
2.25172e-05
2.24895e-05
2.24618e-05
2.24344e-05
2.24071e-05
2.238e-05
2.2353e-05
2.23263e-05
2.22998e-05
2.22735e-05
2.22475e-05
2.22218e-05
2.21963e-05
2.21711e-05
2.21463e-05
2.21219e-05
2.20979e-05
2.1954e-05
2.23043e-05
2.25806e-05
2.27899e-05
2.2942e-05
2.30475e-05
2.31164e-05
2.31578e-05
2.31792e-05
2.31858e-05
2.31819e-05
2.31712e-05
2.31547e-05
2.31352e-05
2.31148e-05
2.30923e-05
2.30664e-05
2.30399e-05
2.30125e-05
2.29832e-05
2.2953e-05
2.29229e-05
2.28929e-05
2.28629e-05
2.2833e-05
2.28034e-05
2.27739e-05
2.27446e-05
2.27155e-05
2.26865e-05
2.26576e-05
2.26289e-05
2.26004e-05
2.25719e-05
2.25437e-05
2.25155e-05
2.24876e-05
2.24598e-05
2.24322e-05
2.24049e-05
2.23777e-05
2.23507e-05
2.2324e-05
2.22976e-05
2.22714e-05
2.22456e-05
2.222e-05
2.21948e-05
2.21701e-05
2.21457e-05
2.2994e-05
2.31319e-05
2.32273e-05
2.32888e-05
2.33254e-05
2.33435e-05
2.33473e-05
2.3342e-05
2.33298e-05
2.33119e-05
2.32914e-05
2.327e-05
2.32463e-05
2.32201e-05
2.31927e-05
2.31646e-05
2.31348e-05
2.31039e-05
2.30731e-05
2.30424e-05
2.30116e-05
2.29809e-05
2.29504e-05
2.29202e-05
2.289e-05
2.286e-05
2.28301e-05
2.28004e-05
2.27708e-05
2.27413e-05
2.2712e-05
2.26828e-05
2.26537e-05
2.26248e-05
2.2596e-05
2.25674e-05
2.2539e-05
2.25108e-05
2.24827e-05
2.24549e-05
2.24273e-05
2.23999e-05
2.23728e-05
2.23459e-05
2.23193e-05
2.22931e-05
2.22672e-05
2.22416e-05
2.22165e-05
2.21918e-05
2.34133e-05
2.34668e-05
2.34976e-05
2.35118e-05
2.3512e-05
2.3505e-05
2.3491e-05
2.34716e-05
2.345e-05
2.34275e-05
2.34025e-05
2.33758e-05
2.33475e-05
2.33186e-05
2.32884e-05
2.32569e-05
2.32254e-05
2.31939e-05
2.31624e-05
2.31308e-05
2.30996e-05
2.30685e-05
2.30375e-05
2.30067e-05
2.2976e-05
2.29454e-05
2.2915e-05
2.28846e-05
2.28544e-05
2.28243e-05
2.27943e-05
2.27645e-05
2.27348e-05
2.27053e-05
2.26759e-05
2.26466e-05
2.26175e-05
2.25886e-05
2.25599e-05
2.25314e-05
2.25031e-05
2.24751e-05
2.24473e-05
2.24197e-05
2.23925e-05
2.23655e-05
2.23389e-05
2.23126e-05
2.22867e-05
2.22612e-05
2.22362e-05
2.36828e-05
2.36803e-05
2.36707e-05
2.36546e-05
2.36335e-05
2.36107e-05
2.35871e-05
2.3561e-05
2.35335e-05
2.35044e-05
2.34746e-05
2.34438e-05
2.34118e-05
2.33794e-05
2.33473e-05
2.33151e-05
2.32828e-05
2.32507e-05
2.32189e-05
2.31871e-05
2.31554e-05
2.31239e-05
2.30926e-05
2.30613e-05
2.30301e-05
2.29991e-05
2.29681e-05
2.29373e-05
2.29066e-05
2.2876e-05
2.28455e-05
2.28152e-05
2.2785e-05
2.2755e-05
2.27251e-05
2.26953e-05
2.26658e-05
2.26364e-05
2.26073e-05
2.25783e-05
2.25496e-05
2.25211e-05
2.24929e-05
2.24649e-05
2.24372e-05
2.24099e-05
2.23828e-05
2.23562e-05
2.23299e-05
2.23042e-05
2.22788e-05
2.38386e-05
2.38202e-05
2.37977e-05
2.37736e-05
2.37488e-05
2.37214e-05
2.36928e-05
2.36632e-05
2.36324e-05
2.3601e-05
2.35684e-05
2.35353e-05
2.35025e-05
2.34695e-05
2.34365e-05
2.34037e-05
2.33712e-05
2.33386e-05
2.33061e-05
2.32739e-05
2.32417e-05
2.32096e-05
2.31777e-05
2.31458e-05
2.3114e-05
2.30824e-05
2.30508e-05
2.30194e-05
2.29881e-05
2.29569e-05
2.29258e-05
2.28948e-05
2.2864e-05
2.28333e-05
2.28028e-05
2.27724e-05
2.27422e-05
2.27122e-05
2.26824e-05
2.26528e-05
2.26234e-05
2.25942e-05
2.25653e-05
2.25366e-05
2.25082e-05
2.24802e-05
2.24524e-05
2.2425e-05
2.2398e-05
2.23714e-05
2.23453e-05
2.23196e-05
2.39383e-05
2.39121e-05
2.38835e-05
2.38539e-05
2.38236e-05
2.3792e-05
2.37597e-05
2.37265e-05
2.36928e-05
2.36592e-05
2.36257e-05
2.3592e-05
2.35585e-05
2.35252e-05
2.34919e-05
2.34587e-05
2.34257e-05
2.33927e-05
2.33599e-05
2.33272e-05
2.32945e-05
2.3262e-05
2.32295e-05
2.31972e-05
2.31649e-05
2.31328e-05
2.31007e-05
2.30688e-05
2.3037e-05
2.30053e-05
2.29737e-05
2.29423e-05
2.2911e-05
2.28798e-05
2.28488e-05
2.2818e-05
2.27873e-05
2.27568e-05
2.27265e-05
2.26965e-05
2.26666e-05
2.2637e-05
2.26076e-05
2.25786e-05
2.25498e-05
2.25213e-05
2.24931e-05
2.24653e-05
2.24379e-05
2.2411e-05
2.23845e-05
2.23585e-05
2.40167e-05
2.39854e-05
2.39531e-05
2.39199e-05
2.38862e-05
2.38518e-05
2.38175e-05
2.37834e-05
2.37491e-05
2.37148e-05
2.36808e-05
2.36468e-05
2.36129e-05
2.35792e-05
2.35455e-05
2.3512e-05
2.34785e-05
2.34451e-05
2.34118e-05
2.33786e-05
2.33455e-05
2.33124e-05
2.32795e-05
2.32467e-05
2.32139e-05
2.31813e-05
2.31487e-05
2.31163e-05
2.3084e-05
2.30518e-05
2.30198e-05
2.29879e-05
2.29561e-05
2.29244e-05
2.2893e-05
2.28616e-05
2.28305e-05
2.27996e-05
2.27688e-05
2.27383e-05
2.2708e-05
2.26779e-05
2.26481e-05
2.26186e-05
2.25894e-05
2.25605e-05
2.2532e-05
2.25038e-05
2.2476e-05
2.24487e-05
2.24219e-05
2.23955e-05
2.40816e-05
2.40471e-05
2.40122e-05
2.39772e-05
2.39424e-05
2.39075e-05
2.38726e-05
2.38379e-05
2.38033e-05
2.37687e-05
2.37343e-05
2.37e-05
2.36657e-05
2.36315e-05
2.35974e-05
2.35634e-05
2.35294e-05
2.34956e-05
2.34618e-05
2.34281e-05
2.33945e-05
2.3361e-05
2.33276e-05
2.32943e-05
2.3261e-05
2.32279e-05
2.31949e-05
2.3162e-05
2.31292e-05
2.30965e-05
2.3064e-05
2.30316e-05
2.29993e-05
2.29672e-05
2.29352e-05
2.29034e-05
2.28718e-05
2.28404e-05
2.28092e-05
2.27782e-05
2.27475e-05
2.2717e-05
2.26867e-05
2.26568e-05
2.26271e-05
2.25978e-05
2.25689e-05
2.25403e-05
2.25122e-05
2.24845e-05
2.24573e-05
2.24306e-05
2.41382e-05
2.41027e-05
2.40673e-05
2.40317e-05
2.39964e-05
2.39612e-05
2.39259e-05
2.38908e-05
2.38559e-05
2.38209e-05
2.37861e-05
2.37513e-05
2.37166e-05
2.36819e-05
2.36474e-05
2.36129e-05
2.35785e-05
2.35442e-05
2.35099e-05
2.34757e-05
2.34417e-05
2.34077e-05
2.33738e-05
2.334e-05
2.33063e-05
2.32726e-05
2.32391e-05
2.32057e-05
2.31725e-05
2.31393e-05
2.31063e-05
2.30734e-05
2.30406e-05
2.30081e-05
2.29756e-05
2.29434e-05
2.29113e-05
2.28794e-05
2.28477e-05
2.28163e-05
2.2785e-05
2.27541e-05
2.27234e-05
2.2693e-05
2.26629e-05
2.26332e-05
2.26038e-05
2.25749e-05
2.25464e-05
2.25183e-05
2.24908e-05
2.24637e-05
2.4192e-05
2.41561e-05
2.41203e-05
2.40844e-05
2.40487e-05
2.40131e-05
2.39775e-05
2.3942e-05
2.39066e-05
2.38712e-05
2.38359e-05
2.38007e-05
2.37656e-05
2.37305e-05
2.36955e-05
2.36605e-05
2.36256e-05
2.35908e-05
2.35561e-05
2.35215e-05
2.34869e-05
2.34525e-05
2.34181e-05
2.33838e-05
2.33496e-05
2.33155e-05
2.32815e-05
2.32476e-05
2.32139e-05
2.31802e-05
2.31467e-05
2.31133e-05
2.30801e-05
2.3047e-05
2.30141e-05
2.29813e-05
2.29488e-05
2.29164e-05
2.28843e-05
2.28523e-05
2.28207e-05
2.27892e-05
2.27581e-05
2.27273e-05
2.26968e-05
2.26666e-05
2.26368e-05
2.26075e-05
2.25786e-05
2.25501e-05
2.25222e-05
2.24948e-05
2.4244e-05
2.42077e-05
2.41715e-05
2.41353e-05
2.40992e-05
2.40632e-05
2.40272e-05
2.39913e-05
2.39555e-05
2.39197e-05
2.38839e-05
2.38483e-05
2.38127e-05
2.37771e-05
2.37416e-05
2.37062e-05
2.36709e-05
2.36356e-05
2.36004e-05
2.35653e-05
2.35303e-05
2.34953e-05
2.34605e-05
2.34257e-05
2.3391e-05
2.33564e-05
2.3322e-05
2.32876e-05
2.32533e-05
2.32192e-05
2.31852e-05
2.31513e-05
2.31176e-05
2.3084e-05
2.30506e-05
2.30174e-05
2.29843e-05
2.29515e-05
2.29189e-05
2.28865e-05
2.28543e-05
2.28224e-05
2.27908e-05
2.27595e-05
2.27286e-05
2.2698e-05
2.26678e-05
2.2638e-05
2.26087e-05
2.25798e-05
2.25516e-05
2.25238e-05
2.42575e-05
2.4221e-05
2.41844e-05
2.41479e-05
2.41115e-05
2.40751e-05
2.40387e-05
2.40024e-05
2.39662e-05
2.393e-05
2.38939e-05
2.38579e-05
2.38219e-05
2.37859e-05
2.37501e-05
2.37143e-05
2.36785e-05
2.36429e-05
2.36073e-05
2.35718e-05
2.35363e-05
2.3501e-05
2.34657e-05
2.34306e-05
2.33955e-05
2.33605e-05
2.33257e-05
2.32909e-05
2.32563e-05
2.32218e-05
2.31874e-05
2.31532e-05
2.31191e-05
2.30852e-05
2.30514e-05
2.30179e-05
2.29846e-05
2.29514e-05
2.29185e-05
2.28859e-05
2.28535e-05
2.28215e-05
2.27897e-05
2.27583e-05
2.27273e-05
2.26967e-05
2.26665e-05
2.26367e-05
2.26075e-05
2.25789e-05
2.25507e-05
2.43056e-05
2.42685e-05
2.42316e-05
2.41947e-05
2.41578e-05
2.4121e-05
2.40842e-05
2.40475e-05
2.40108e-05
2.39742e-05
2.39377e-05
2.39011e-05
2.38647e-05
2.38283e-05
2.3792e-05
2.37557e-05
2.37195e-05
2.36834e-05
2.36473e-05
2.36113e-05
2.35754e-05
2.35396e-05
2.35038e-05
2.34682e-05
2.34326e-05
2.33971e-05
2.33618e-05
2.33265e-05
2.32914e-05
2.32564e-05
2.32215e-05
2.31867e-05
2.31522e-05
2.31177e-05
2.30835e-05
2.30494e-05
2.30156e-05
2.2982e-05
2.29486e-05
2.29155e-05
2.28826e-05
2.28501e-05
2.28178e-05
2.2786e-05
2.27545e-05
2.27234e-05
2.26928e-05
2.26626e-05
2.2633e-05
2.2604e-05
2.25755e-05
2.43517e-05
2.43142e-05
2.42769e-05
2.42395e-05
2.42023e-05
2.4165e-05
2.41278e-05
2.40907e-05
2.40536e-05
2.40165e-05
2.39795e-05
2.39426e-05
2.39056e-05
2.38688e-05
2.3832e-05
2.37953e-05
2.37586e-05
2.3722e-05
2.36854e-05
2.3649e-05
2.36126e-05
2.35762e-05
2.354e-05
2.35038e-05
2.34678e-05
2.34318e-05
2.33959e-05
2.33601e-05
2.33245e-05
2.32889e-05
2.32536e-05
2.32183e-05
2.31832e-05
2.31483e-05
2.31135e-05
2.30789e-05
2.30446e-05
2.30104e-05