/*--------------------------------*- C++ -*----------------------------------*\
| =========                 |                                                 |
| \\      /  F ield         | OpenFOAM: The Open Source CFD Toolbox           |
|  \\    /   O peration     | Version:  v1706                                 |
|   \\  /    A nd           | Web:      www.OpenFOAM.com                      |
|    \\/     M anipulation  |                                                 |
\*---------------------------------------------------------------------------*/
FoamFile
{
    version     2.0;
    format      ascii;
    class       volScalarField;
    location    "3.8e-05";
    object      Tt;
}
// * * * * * * * * * * * * * * * * * * * * * * * * * * * * * * * * * * * * * //

dimensions      [0 0 0 1 0 0 0];


internalField   nonuniform List<scalar> 
30038
(
144.4
144.4
144.4
144.4
144.4
144.4
144.4
144.4
144.4
144.4
144.4
144.4
144.4
144.4
144.4
144.4
144.4
144.4
144.4
144.4
144.4
144.4
144.4
144.4
144.4
144.4
144.4
144.4
144.4
144.4
144.4
144.4
144.4
144.4
144.4
144.4
144.4
144.4
144.4
144.4
144.4
144.4
144.4
144.4
144.4
144.4
144.4
144.4
144.4
144.4
144.4
144.4
144.4
144.4
144.4
144.4
144.4
144.4
144.4
144.4
144.4
144.4
144.4
144.4
144.4
144.4
144.4
144.4
144.4
144.4
144.4
144.4
144.4
144.4
144.4
144.4
144.4
144.4
144.4
144.4
144.4
144.4
144.4
144.4
144.4
144.4
144.4
144.4
144.4
144.4
144.4
144.4
144.4
144.4
144.4
144.4
144.4
144.4
144.4
144.4
144.4
144.4
144.4
144.4
144.4
144.4
144.4
144.4
144.4
144.4
144.4
144.4
144.4
144.4
144.4
144.4
144.4
144.4
144.4
144.4
144.4
144.4
144.4
144.4
144.4
144.4
144.4
144.4
144.4
144.4
144.4
144.4
144.4
144.4
144.4
144.4
144.4
144.4
144.4
144.4
144.4
144.4
144.4
144.4
144.4
144.4
144.4
144.4
144.4
144.4
144.4
144.4
144.4
144.4
144.4
144.4
144.4
144.4
144.4
144.4
144.4
144.4
144.4
144.4
144.4
144.4
144.4
144.4
144.4
144.4
144.4
144.4
144.4
144.4
144.4
144.4
144.4
144.4
144.4
144.4
144.4
144.4
144.4
144.4
144.4
144.4
144.4
144.4
144.4
144.4
144.4
144.4
144.4
144.4
144.4
144.4
144.4
144.4
144.4
144.4
144.4
144.4
144.4
144.4
144.4
144.4
144.4
144.4
144.4
144.4
144.4
144.4
144.4
144.4
144.4
144.4
144.4
144.4
144.4
144.4
144.4
144.4
144.4
144.4
144.4
144.4
144.4
144.4
144.4
144.4
144.4
144.4
144.4
144.4
144.4
144.4
144.4
144.4
144.4
144.4
144.4
144.4
144.4
144.4
144.4
144.4
144.4
144.4
144.4
144.4
144.4
144.4
144.4
144.4
144.4
144.4
144.4
144.4
144.4
144.4
144.4
144.4
144.4
144.4
144.4
144.4
144.4
144.4
144.4
144.4
144.4
144.4
144.4
144.4
144.4
144.4
144.4
144.4
144.4
144.4
144.4
144.4
144.4
144.4
144.4
144.4
144.4
144.4
144.4
144.4
144.4
144.4
144.4
144.4
144.4
144.4
144.4
144.4
144.4
144.4
144.4
144.4
144.4
144.4
144.4
144.4
144.4
144.4
144.4
144.4
144.4
144.4
144.4
144.4
144.4
144.4
144.4
144.4
144.4
144.4
144.4
144.4
144.4
144.4
144.4
144.4
144.4
144.4
144.4
144.4
144.4
144.4
144.4
144.4
144.4
144.4
144.4
144.4
144.4
144.4
144.4
144.4
144.4
144.4
144.4
144.4
144.4
144.4
144.4
144.4
144.4
144.4
144.4
144.4
144.4
144.4
144.4
144.4
144.4
144.4
144.4
144.4
144.4
144.4
144.4
144.4
144.4
144.4
144.4
144.4
144.4
144.4
144.4
144.4
144.4
144.4
144.4
144.4
144.4
144.4
144.4
144.401
144.4
144.4
144.4
144.4
144.4
144.4
144.4
144.4
144.4
144.4
144.4
144.4
144.4
144.4
144.4
144.4
144.4
144.4
144.4
144.4
144.4
144.4
144.4
144.4
144.4
144.4
144.4
144.4
144.4
144.4
144.4
144.4
144.4
144.4
144.4
144.401
144.401
144.401
144.402
144.4
144.4
144.4
144.4
144.4
144.4
144.4
144.4
144.4
144.4
144.4
144.4
144.4
144.4
144.4
144.4
144.4
144.4
144.4
144.4
144.4
144.4
144.4
144.4
144.4
144.4
144.4
144.4
144.4
144.4
144.4
144.4
144.4
144.401
144.401
144.401
144.402
144.402
144.403
144.405
144.4
144.4
144.4
144.4
144.4
144.4
144.4
144.4
144.4
144.4
144.4
144.4
144.4
144.4
144.4
144.4
144.4
144.4
144.4
144.4
144.4
144.4
144.4
144.4
144.4
144.4
144.4
144.4
144.4
144.4
144.401
144.401
144.401
144.402
144.402
144.403
144.405
144.407
144.41
144.414
144.4
144.4
144.4
144.4
144.4
144.4
144.4
144.4
144.4
144.4
144.4
144.4
144.4
144.4
144.4
144.4
144.4
144.4
144.4
144.4
144.4
144.4
144.4
144.4
144.4
144.4
144.4
144.401
144.401
144.401
144.402
144.402
144.403
144.404
144.406
144.409
144.413
144.419
144.428
144.441
144.4
144.4
144.4
144.4
144.4
144.4
144.4
144.4
144.4
144.4
144.4
144.4
144.4
144.4
144.4
144.4
144.4
144.4
144.4
144.4
144.4
144.4
144.4
144.4
144.401
144.401
144.401
144.402
144.402
144.403
144.404
144.406
144.409
144.413
144.418
144.426
144.437
144.454
144.478
144.514
144.4
144.4
144.4
144.4
144.4
144.4
144.4
144.4
144.4
144.4
144.4
144.4
144.4
144.4
144.4
144.4
144.4
144.4
144.4
144.4
144.4
144.401
144.401
144.401
144.402
144.402
144.403
144.404
144.406
144.409
144.412
144.418
144.425
144.436
144.451
144.473
144.504
144.549
144.615
144.711
144.4
144.4
144.4
144.4
144.4
144.4
144.4
144.4
144.4
144.4
144.4
144.4
144.4
144.4
144.4
144.4
144.4
144.4
144.401
144.401
144.401
144.402
144.402
144.403
144.405
144.406
144.409
144.412
144.418
144.425
144.435
144.449
144.47
144.499
144.54
144.6
144.684
144.806
144.982
145.239
144.4
144.4
144.4
144.4
144.4
144.4
144.4
144.4
144.4
144.4
144.4
144.4
144.4
144.4
144.4
144.401
144.401
144.401
144.402
144.402
144.403
144.405
144.407
144.409
144.413
144.418
144.425
144.435
144.448
144.468
144.496
144.535
144.59
144.668
144.779
144.938
145.163
145.485
145.946
146.611
144.4
144.4
144.4
144.4
144.4
144.4
144.4
144.4
144.4
144.4
144.4
144.4
144.401
144.401
144.401
144.401
144.402
144.403
144.404
144.405
144.407
144.409
144.413
144.418
144.425
144.435
144.448
144.467
144.494
144.531
144.584
144.658
144.762
144.908
145.115
145.407
145.82
146.405
147.233
148.407
150.072
144.4
144.4
144.4
144.4
144.4
144.4
144.4
144.4
144.4
144.401
144.401
144.401
144.402
144.402
144.403
144.404
144.405
144.407
144.41
144.414
144.419
144.426
144.436
144.449
144.468
144.494
144.53
144.581
144.652
144.751
144.889
145.082
145.354
145.735
146.268
147.017
148.067
149.534
151.582
154.424
158.347
144.4
144.4
144.4
144.4
144.4
144.4
144.401
144.401
144.401
144.401
144.402
144.402
144.403
144.404
144.406
144.408
144.411
144.415
144.42
144.427
144.437
144.451
144.47
144.496
144.532
144.581
144.65
144.746
144.878
145.063
145.319
145.676
146.173
146.864
147.826
149.161
151.008
153.552
157.032
161.748
168.056
176.339
144.4
144.4
144.4
144.4
144.401
144.401
144.401
144.401
144.402
144.403
144.404
144.405
144.406
144.409
144.412
144.416
144.421
144.429
144.439
144.453
144.473
144.499
144.535
144.585
144.653
144.746
144.876
145.054
145.3
145.64
146.11
146.759
147.656
148.892
150.592
152.917
156.08
160.344
166.023
173.47
183.045
195.066
209.687
144.401
144.401
144.401
144.401
144.402
144.402
144.403
144.404
144.405
144.407
144.41
144.413
144.417
144.423
144.431
144.442
144.457
144.477
144.504
144.541
144.591
144.659
144.753
144.881
145.056
145.296
145.625
146.077
146.696
147.545
148.708
150.296
152.457
155.379
159.3
164.505
171.314
180.06
191.048
204.49
220.448
238.713
258.837
144.401
144.402
144.402
144.403
144.404
144.405
144.406
144.408
144.411
144.415
144.419
144.426
144.434
144.446
144.461
144.482
144.511
144.549
144.6
144.67
144.765
144.893
145.068
145.306
145.629
146.07
146.67
147.487
148.598
150.105
152.142
154.881
158.538
163.373
169.683
177.78
187.959
200.447
215.335
232.508
251.592
271.974
292.704
312.633
144.402
144.403
144.404
144.406
144.407
144.41
144.413
144.417
144.422
144.429
144.438
144.451
144.467
144.49
144.52
144.56
144.613
144.686
144.783
144.914
145.091
145.33
145.653
146.089
146.68
147.477
148.554
150.005
151.954
154.559
158.017
162.568
168.486
176.064
185.586
197.287
211.291
227.55
245.786
265.488
285.88
305.861
324.127
339.515
351.697
144.405
144.407
144.409
144.411
144.415
144.419
144.425
144.433
144.443
144.457
144.475
144.499
144.531
144.574
144.631
144.707
144.808
144.944
145.126
145.37
145.697
146.135
146.725
147.515
148.575
149.992
151.883
154.395
157.71
162.049
167.667
174.839
183.834
194.886
208.138
223.591
241.052
260.095
280.089
300.125
319.006
335.518
348.856
358.884
365.913
370.707
144.408
144.41
144.413
144.417
144.422
144.429
144.438
144.45
144.465
144.485
144.511
144.546
144.592
144.653
144.734
144.842
144.984
145.174
145.426
145.762
146.209
146.806
147.601
148.658
150.063
151.924
154.38
157.6
161.791
167.19
174.052
182.637
193.165
205.794
220.555
237.31
255.714
275.237
295.122
314.342
331.707
346.247
357.539
365.737
371.337
374.994
377.248
378.621
144.421
144.427
144.434
144.444
144.458
144.475
144.497
144.527
144.565
144.616
144.682
144.769
144.884
145.036
145.237
145.501
145.851
146.314
146.927
147.737
148.808
150.22
152.077
154.51
157.68
161.779
167.029
173.671
181.947
192.069
204.193
218.372
234.506
252.317
271.343
290.952
310.267
328.195
343.694
356.132
365.444
372.001
376.371
379.151
380.824
381.777
382.292
382.48
144.432
144.441
144.453
144.468
144.488
144.513
144.546
144.589
144.645
144.718
144.814
144.939
145.103
145.318
145.599
145.969
146.455
147.092
147.93
149.028
150.466
152.344
154.787
157.948
162.008
167.175
173.675
181.734
191.556
203.288
216.993
232.602
249.88
268.423
287.687
306.924
325.164
341.368
354.767
365.098
372.577
377.695
381.025
383.084
384.287
384.941
385.249
385.255
385.209
385.08
144.481
144.504
144.533
144.571
144.619
144.683
144.764
144.87
145.008
145.187
145.42
145.724
146.12
146.636
147.309
148.186
149.328
150.813
152.737
155.221
158.412
162.482
167.626
174.057
181.986
191.603
203.046
216.38
231.555
248.369
266.466
285.359
304.409
322.765
339.443
353.598
364.81
373.141
378.987
382.88
385.35
386.825
387.647
388.057
388.161
388.096
387.981
387.753
387.421
387.026
144.602
144.658
144.73
144.823
144.942
145.095
145.294
145.55
145.882
146.312
146.867
147.587
148.517
149.72
151.272
153.268
155.825
159.086
163.213
168.393
174.823
182.7
192.201
203.453
216.514
231.344
247.767
265.463
283.988
302.786
321.111
338.06
352.768
364.702
373.784
380.308
384.751
387.63
389.398
390.404
390.934
391.129
391.073
390.957
390.762
390.448
390.047
389.599
389.098
388.58
144.896
145.032
145.206
145.428
145.714
146.081
146.553
147.159
147.938
148.938
150.22
151.862
153.958
156.622
159.992
164.225
169.496
175.99
183.891
193.358
204.506
217.385
231.956
248.063
265.406
283.582
302.092
320.283
337.337
352.409
364.895
374.603
381.726
386.681
389.957
392.017
393.218
393.868
394.154
394.139
394.02
393.837
393.547
393.159
392.709
392.209
391.667
391.119
390.592
390.076
145.599
145.921
146.332
146.857
147.526
148.379
149.466
150.85
152.608
154.834
157.641
161.163
165.55
170.968
177.59
185.584
195.094
206.22
218.999
233.391
249.247
266.29
284.142
302.348
320.334
337.362
352.63
365.499
375.694
383.317
388.722
392.365
394.701
396.099
396.872
397.244
397.285
397.165
396.976
396.709
396.332
395.882
395.39
394.844
394.275
393.713
393.163
392.618
392.09
391.575
147.239
147.986
148.932
150.128
151.639
153.542
155.932
158.921
162.639
167.231
172.852
179.665
187.82
197.445
208.623
221.377
235.66
251.328
268.117
285.672
303.57
321.302
338.2
353.516
366.609
377.145
385.155
390.932
394.893
397.475
399.06
399.953
400.4
400.506
400.404
400.202
399.938
399.581
399.133
398.634
398.088
397.502
396.912
396.336
395.767
395.205
394.654
394.11
393.577
393.054
150.956
152.622
154.704
157.297
160.512
164.474
169.324
175.206
182.27
190.652
200.459
211.758
224.553
238.79
254.323
270.899
288.179
305.769
323.209
339.894
355.133
368.3
379.034
387.308
393.365
397.581
400.374
402.12
403.122
403.634
403.802
403.723
403.512
403.234
402.894
402.444
401.94
401.402
400.809
400.196
399.591
398.995
398.403
397.822
397.251
396.685
396.128
395.576
395.035
394.502
158.987
162.476
166.735
171.898
178.101
185.477
194.147
204.198
215.676
228.57
242.812
258.256
274.651
291.672
308.951
326.067
342.471
357.524
370.631
381.422
389.835
396.07
400.467
403.422
405.298
406.393
406.967
407.18
407.115
406.903
406.618
406.277
405.833
405.32
404.773
404.178
403.548
402.918
402.299
401.683
401.073
400.474
399.88
399.292
398.712
398.138
397.57
397.008
396.457
395.914
175.039
181.621
189.37
198.385
208.735
220.443
233.482
247.77
263.155
279.391
296.16
313.12
329.881
345.943
360.715
373.64
384.354
392.782
399.089
403.587
406.645
408.61
409.775
410.398
410.642
410.592
410.39
410.08
409.722
409.292
408.771
408.214
407.619
406.974
406.321
405.676
405.036
404.399
403.772
403.153
402.538
401.93
401.327
400.73
400.139
399.554
398.975
398.403
397.842
397.289
203.461
214.155
226.134
239.35
253.711
269.056
285.14
301.654
318.278
334.652
350.313
364.715
377.343
387.857
396.178
402.453
406.969
410.067
412.077
413.282
413.932
414.192
414.153
413.956
413.625
413.248
412.818
412.286
411.716
411.118
410.468
409.795
409.126
408.462
407.8
407.146
406.501
405.86
405.225
404.596
403.972
403.352
402.738
402.13
401.528
400.931
400.342
399.76
399.188
398.625
246.24
260.685
275.994
291.918
308.16
324.423
340.369
355.569
369.516
381.741
391.938
400.038
406.18
410.629
413.702
415.711
416.924
417.58
417.844
417.804
417.597
417.251
416.855
416.417
415.875
415.29
414.679
414.022
413.332
412.641
411.956
411.272
410.592
409.922
409.256
408.595
407.94
407.289
406.643
406.002
405.366
404.735
404.11
403.49
402.876
402.269
401.669
401.077
400.496
399.923
299.739
315.678
331.541
347.013
361.687
375.096
386.818
396.589
404.362
410.275
414.575
417.559
419.519
420.706
421.346
421.596
421.547
421.327
420.965
420.538
420.075
419.539
418.934
418.309
417.644
416.938
416.225
415.518
414.812
414.107
413.412
412.722
412.036
411.356
410.68
410.009
409.341
408.679
408.021
407.368
406.72
406.077
405.44
404.809
404.184
403.566
402.956
402.354
401.764
401.181
354.553
368.629
381.413
392.535
401.781
409.131
414.726
418.804
421.641
423.503
424.63
425.23
425.448
425.379
425.14
424.758
424.299
423.813
423.267
422.642
421.997
421.327
420.608
419.875
419.145
418.417
417.69
416.97
416.257
415.547
414.842
414.142
413.446
412.753
412.065
411.382
410.702
410.027
409.356
408.691
408.031
407.377
406.728
406.086
405.451
404.823
404.203
403.591
402.991
402.4
398.839
407.468
414.309
419.511
423.302
425.937
427.66
428.696
429.233
429.398
429.302
429.034
428.621
428.135
427.625
427.062
426.416
425.752
425.068
424.337
423.584
422.833
422.086
421.338
420.594
419.858
419.124
418.395
417.672
416.951
416.235
415.522
414.814
414.109
413.408
412.711
412.019
411.332
410.649
409.972
409.3
408.634
407.975
407.322
406.676
406.038
405.408
404.786
404.177
403.577
424.595
428.044
430.433
431.977
432.895
433.35
433.446
433.314
433.007
432.558
432.044
431.509
430.914
430.259
429.572
428.869
428.124
427.353
426.583
425.816
425.047
424.279
423.521
422.766
422.013
421.266
420.523
419.783
419.047
418.314
417.585
416.859
416.138
415.42
414.707
413.997
413.293
412.593
411.899
411.21
410.527
409.849
409.179
408.515
407.859
407.21
406.571
405.94
405.322
404.713
435.099
436.444
437.22
437.577
437.583
437.407
437.055
436.568
436.025
435.461
434.834
434.162
433.453
432.726
431.97
431.182
430.392
429.604
428.814
428.025
427.244
426.468
425.693
424.923
424.158
423.395
422.636
421.88
421.127
420.378
419.633
418.89
418.152
417.418
416.687
415.961
415.24
414.523
413.811
413.105
412.404
411.71
411.021
410.34
409.665
408.999
408.341
407.692
407.052
406.425
405.807
441.884
441.821
441.579
441.175
440.644
440.068
439.475
438.818
438.124
437.393
436.643
435.87
435.065
434.254
433.448
432.639
431.829
431.027
430.229
429.432
428.64
427.853
427.068
426.287
425.509
424.733
423.961
423.192
422.427
421.665
420.906
420.151
419.4
418.653
417.91
417.171
416.438
415.709
414.985
414.267
413.555
412.849
412.15
411.457
410.772
410.096
409.427
408.769
408.12
407.484
406.858
445.818
445.354
444.784
444.176
443.551
442.86
442.137
441.391
440.616
439.824
439.003
438.171
437.344
436.517
435.687
434.864
434.046
433.229
432.415
431.606
430.8
429.996
429.197
428.4
427.605
426.814
426.026
425.241
424.459
423.681
422.905
422.134
421.366
420.603
419.843
419.088
418.337
417.591
416.85
416.115
415.385
414.661
413.944
413.234
412.531
411.835
411.148
410.47
409.802
409.144
408.499
407.864
448.34
447.677
446.955
446.206
445.44
444.641
443.825
442.989
442.138
441.292
440.447
439.598
438.753
437.916
437.078
436.244
435.415
434.588
433.763
432.942
432.124
431.308
430.495
429.685
428.878
428.074
427.273
426.475
425.68
424.889
424.101
423.317
422.536
421.76
420.988
420.22
419.457
418.699
417.947
417.199
416.458
415.723
414.994
414.273
413.559
412.853
412.156
411.468
410.79
410.123
409.469
408.825
450.325
449.533
448.714
447.876
447.021
446.153
445.286
444.424
443.557
442.693
441.836
440.979
440.124
439.275
438.428
437.583
436.742
435.903
435.066
434.232
433.401
432.573
431.747
430.924
430.104
429.287
428.473
427.663
426.855
426.051
425.251
424.454
423.661
422.872
422.088
421.308
420.533
419.762
418.998
418.239
417.486
416.739
415.999
415.267
414.542
413.825
413.118
412.42
411.732
411.056
410.393
409.741
451.97
451.095
450.211
449.325
448.445
447.562
446.677
445.802
444.928
444.054
443.185
442.319
441.454
440.592
439.734
438.877
438.023
437.172
436.323
435.476
434.632
433.791
432.953
432.117
431.284
430.455
429.628
428.804
427.984
427.167
426.354
425.545
424.739
423.938
423.141
422.349
421.562
420.779
420.003
419.232
418.467
417.709
416.957
416.214
415.478
414.751
414.033
413.325
412.628
411.941
411.27
410.609
453.406
452.507
451.607
450.705
449.811
448.92
448.027
447.139
446.255
445.372
444.491
443.613
442.737
441.864
440.993
440.124
439.258
438.394
437.532
436.673
435.816
434.963
434.112
433.263
432.418
431.575
430.736
429.9
429.067
428.237
427.412
426.59
425.772
424.958
424.149
423.344
422.544
421.75
420.961
420.178
419.401
418.631
417.868
417.113
416.367
415.629
414.9
414.182
413.475
412.779
412.098
411.428
454.772
453.861
452.952
452.042
451.136
450.235
449.333
448.434
447.538
446.644
445.752
444.862
443.974
443.088
442.205
441.324
440.445
439.569
438.695
437.823
436.954
436.088
435.224
434.363
433.505
432.65
431.797
430.949
430.103
429.261
428.422
427.588
426.757
425.931
425.109
424.291
423.479
422.672
421.871
421.076
420.287
419.506
418.731
417.965
417.207
416.458
415.719
414.99
414.273
413.567
412.877
412.198
456.095
455.172
454.253
453.335
452.418
451.505
450.593
449.683
448.775
447.869
446.965
446.063
445.163
444.266
443.37
442.477
441.586
440.697
439.81
438.926
438.045
437.166
436.289
435.416
434.545
433.677
432.812
431.95
431.092
430.237
429.386
428.538
427.695
426.855
426.021
425.191
424.366
423.547
422.733
421.926
421.125
420.331
419.545
418.767
417.997
417.237
416.487
415.748
415.02
414.305
413.605
412.917
456.439
455.51
454.581
453.653
452.728
451.805
450.884
449.964
449.047
448.131
447.217
446.305
445.396
444.488
443.582
442.679
441.778
440.879
439.982
439.088
438.197
437.308
436.421
435.538
434.657
433.779
432.904
432.033
431.165
430.301
429.44
428.584
427.732
426.884
426.042
425.204
424.372
423.545
422.725
421.912
421.106
420.308
419.518
418.737
417.965
417.204
416.454
415.716
414.991
414.281
413.583
457.66
456.719
455.78
454.841
453.905
452.97
452.037
451.106
450.177
449.25
448.324
447.4
446.479
445.559
444.641
443.725
442.812
441.9
440.991
440.085
439.18
438.278
437.379
436.483
435.589
434.698
433.81
432.926
432.045
431.167
430.294
429.424
428.559
427.698
426.842
425.992
425.146
424.307
423.475
422.649
421.83
421.019
420.217
419.424
418.641
417.869
417.108
416.359
415.623
414.904
414.196
458.834
457.882
456.931
455.982
455.034
454.088
453.144
452.201
451.26
450.321
449.384
448.448
447.514
446.582
445.652
444.724
443.798
442.874
441.952
441.033
440.116
439.201
438.289
437.379
436.472
435.568
434.667
433.769
432.875
431.984
431.097
430.214
429.335
428.461
427.592
426.728
425.87
425.017
424.172
423.333
422.501
421.678
420.864
420.059
419.264
418.48
417.707
416.948
416.202
415.471
414.754
458.997
458.035
457.075
456.116
455.159
454.203
453.249
452.296
451.345
450.396
449.448
448.502
447.558
446.616
445.675
444.736
443.8
442.865
441.933
441.003
440.075
439.149
438.226
437.306
436.389
435.474
434.563
433.655
432.75
431.85
430.953
430.06
429.173
428.29
427.412
426.54
425.675
424.815
423.963
423.119
422.283
421.456
420.638
419.831
419.035
418.252
417.481
416.724
415.984
415.257
460.065
459.092
458.121
457.151
456.182
455.215
454.249
453.285
452.322
451.36
450.401
449.442
448.486
447.531
446.578
445.626
444.677
443.729
442.784
441.84
440.899
439.96
439.023
438.089
437.158
436.23
435.305
434.383
433.464
432.55
431.639
430.733
429.831
428.934
428.043
427.157
426.278
425.405
424.539
423.682
422.833
421.993
421.162
420.343
419.535
418.74
417.958
417.19
416.439
415.702
461.086
460.102
459.119
458.138
457.158
456.179
455.201
454.225
453.25
452.277
451.305
450.334
449.365
448.397
447.431
446.467
445.504
444.543
443.584
442.627
441.672
440.72
439.769
438.821
437.876
436.934
435.995
435.058
434.126
433.197
432.272
431.351
430.435
429.524
428.618
427.719
426.825
425.939
425.059
424.188
423.326
422.473
421.63
420.798
419.978
419.17
418.377
417.598
416.836
416.088
462.059
461.064
460.07
459.077
458.086
457.095
456.106
455.117
454.13
453.144
452.16
451.176
450.194
449.214
448.234
447.257
446.281
445.306
444.334
443.363
442.394
441.427
440.463
439.501
438.541
437.585
436.631
435.68
434.733
433.789
432.85
431.915
430.984
430.058
429.138
428.224
427.316
426.416
425.522
424.637
423.761
422.895
422.039
421.194
420.362
419.542
418.737
417.947
417.174
416.416
462.984
461.978
460.973
459.968
458.965
457.962
456.961
455.96
454.961
453.962
452.965
451.968
450.973
449.979
448.987
447.996
447.006
446.018
445.031
444.046
443.063
442.082
441.103
440.127
439.152
438.181
437.212
436.247
435.285
434.326
433.372
432.421
431.476
430.536
429.601
428.672
427.75
426.834
425.927
425.028
424.138
423.258
422.389
421.531
420.686
419.855
419.038
418.237
417.453
416.684
463.861
462.843
461.827
460.81
459.795
458.78
457.766
456.753
455.741
454.729
453.719
452.71
451.701
450.694
449.687
448.682
447.678
446.676
445.675
444.676
443.678
442.682
441.689
440.697
439.708
438.722
437.738
436.757
435.78
434.806
433.836
432.871
431.91
430.955
430.005
429.061
428.124
427.194
426.272
425.359
424.455
423.562
422.679
421.808
420.951
420.107
419.279
418.466
417.671
416.892
464.689
463.66
462.631
461.603
460.575
459.548
458.521
457.495
456.47
455.445
454.421
453.398
452.376
451.355
450.335
449.315
448.297
447.28
446.265
445.251
444.238
443.227
442.218
441.212
440.207
439.205
438.206
437.21
436.217
435.228
434.242
433.262
432.285
431.315
430.349
429.39
428.438
427.494
426.557
425.63
424.712
423.804
422.908
422.025
421.154
420.298
419.458
418.634
417.828
417.039
464.426
463.385
462.344
461.304
460.264
459.224
458.185
457.146
456.108
455.071
454.034
452.998
451.962
450.927
449.894
448.861
447.829
446.798
445.769
444.741
443.715
442.691
441.668
440.648
439.631
438.616
437.604
436.595
435.59
434.589
433.592
432.601
431.614
430.633
429.659
428.692
427.732
426.781
425.839
424.907
423.986
423.076
422.179
421.296
420.428
419.576
418.74
417.924
417.124
465.14
464.087
463.033
461.98
460.927
459.874
458.822
457.769
456.718
455.666
454.615
453.564
452.514
451.464
450.416
449.368
448.321
447.275
446.23
445.187
444.145
443.105
442.066
441.03
439.997
438.966
437.938
436.913
435.892
434.875
433.862
432.854
431.852
430.856
429.866
428.884
427.909
426.943
425.986
425.04
424.105
423.182
422.271
421.376
420.495
419.631
418.785
417.959
417.15
465.802
464.736
463.67
462.603
461.537
460.47
459.404
458.338
457.271
456.205
455.14
454.074
453.009
451.944
450.88
449.817
448.754
447.693
446.632
445.573
444.515
443.459
442.404
441.352
440.302
439.255
438.21
437.169
436.132
435.099
434.07
433.046
432.028
431.016
430.01
429.012
428.023
427.042
426.07
425.109
424.16
423.225
422.303
421.396
420.504
419.63
418.773
417.937
417.119
465.331
464.251
463.171
462.091
461.011
459.93
458.849
457.769
456.688
455.607
454.526
453.446
452.366
451.286
450.207
449.129
448.051
446.974
445.899
444.825
443.752
442.681
441.612
440.546
439.482
438.421
437.363
436.31
435.26
434.215
433.175
432.14
431.112
430.091
429.077
428.073
427.078
426.093
425.119
424.158
423.209
422.275
421.357
420.454
419.569
418.703
417.856
417.028
465.871
464.777
463.683
462.589
461.494
460.399
459.303
458.208
457.112
456.016
454.92
453.824
452.728
451.632
450.537
449.442
448.348
447.255
446.163
445.072
443.983
442.895
441.81
440.727
439.646
438.568
437.494
436.423
435.357
434.295
433.239
432.189
431.146
430.11
429.083
428.064
427.055
426.057
425.07
424.096
423.134
422.188
421.257
420.343
419.448
418.571
417.715
416.878
465.246
464.138
463.029
461.919
460.809
459.698
458.587
457.476
456.364
455.252
454.14
453.028
451.916
450.805
449.694
448.583
447.473
446.365
445.257
444.151
443.046
441.944
440.843
439.746
438.651
437.559
436.473
435.391
434.314
433.242
432.177
431.12
430.069
429.028
427.994
426.971
425.959
424.958
423.971
422.997
422.038
421.096
420.172
419.266
418.38
417.515
416.669
465.656
464.533
463.409
462.284
461.159
460.033
458.906
457.779
456.651
455.523
454.395
453.267
452.138
451.01
449.882
448.755
447.628
446.502
445.377
444.254
443.132
442.012
440.895
439.782
438.671
437.564
436.462
435.364
434.272
433.185
432.105
431.031
429.966
428.909
427.861
426.824
425.798
424.784
423.784
422.799
421.829
420.876
419.941
419.025
418.13
417.257
416.404
464.867
463.728
462.588
461.447
460.305
459.163
458.019
456.875
455.731
454.586
453.441
452.296
451.151
450.006
448.861
447.717
446.574
445.432
444.293
443.155
442.019
440.886
439.756
438.63
437.508
436.389
435.275
434.166
433.064
431.968
430.879
429.799
428.727
427.666
426.615
425.576
424.55
423.538
422.541
421.56
420.596
419.652
418.728
417.824
416.944
416.083
465.14
463.985
462.829
461.672
460.514
459.356
458.196
457.035
455.874
454.713
453.55
452.388
451.225
450.064
448.903
447.743
446.583
445.425
444.27
443.116
441.964
440.815
439.668
438.525
437.386
436.251
435.121
433.997
432.879
431.768
430.664
429.569
428.484
427.409
426.345
425.293
424.255
423.232
422.224
421.233
420.26
419.307
418.374
417.463
416.575
415.708
465.349
464.178
463.006
461.833
460.659
459.483
458.307
457.129
455.951
454.772
453.594
452.416
451.237
450.059
448.882
447.706
446.53
445.356
444.183
443.012
441.843
440.677
439.514
438.355
437.199
436.049
434.903
433.764
432.631
431.505
430.387
429.279
428.18
427.092
426.015
424.952
423.902
422.868
421.85
420.849
419.867
418.906
417.966
417.048
416.154
415.282
465.493
464.306
463.118
461.928
460.736
459.544
458.352
457.159
455.964
454.77
453.575
452.381
451.186
449.992
448.798
447.604
446.412
445.22
444.031
442.843
441.658
440.475
439.296
438.12
436.949
435.783
434.622
433.468
432.32
431.181
430.049
428.927
427.815
426.715
425.627
424.552
423.492
422.447
421.42
420.41
419.421
418.452
417.505
416.582
415.683
414.805
465.569
464.366
463.162
461.957
460.75
459.542
458.334
457.125
455.915
454.704
453.492
452.281
451.069
449.857
448.646
447.436
446.227
445.019
443.812
442.608
441.407
440.208
439.013
437.822
436.636
435.455
434.279
433.111
431.949
430.796
429.651
428.516
427.392
426.28
425.181
424.096
423.026
421.972
420.936
419.919
418.922
417.946
416.994
416.065
415.162
414.281
465.582
464.363
463.144
461.923
460.7
459.476
458.251
457.025
455.798
454.57
453.342
452.113
450.885
449.657
448.429
447.202
445.976
444.752
443.53
442.309
441.092
439.878
438.668
437.462
436.261
435.065
433.875
432.693
431.518
430.351
429.194
428.048
426.912
425.789
424.68
423.585
422.505
421.443
420.4
419.375
418.372
417.391
416.434
415.502
414.595
413.711
465.53
464.296
463.06
461.822
460.583
459.342
458.1
456.857
455.614
454.369
453.124
451.879
450.634
449.39
448.145
446.902
445.66
444.42
443.182
441.947
440.714
439.485
438.26
437.039
435.824
434.614
433.411
432.215
431.028
429.849
428.68
427.523
426.376
425.243
424.124
423.02
421.933
420.864
419.813
418.783
417.775
416.789
415.828
414.892
413.983
413.098
464.16
462.907
461.653
460.397
459.14
457.882
456.622
455.362
454.101
452.84
451.579
450.318
449.057
447.797
446.538
445.28
444.025
442.771
441.521
440.273
439.03
437.79
436.556
435.327
434.104
432.888
431.68
430.481
429.291
428.111
426.943
425.787
424.645
423.517
422.405
421.311
420.235
419.179
418.143
417.131
416.142
415.178
414.24
413.33
412.444
463.955
462.686
461.415
460.143
458.87
457.596
456.32
455.044
453.767
452.49
451.212
449.935
448.659
447.384
446.109
444.837
443.566
442.298
441.033
439.771
438.514
437.261
436.013
434.771
433.536
432.308
431.089
429.878
428.678
427.488
426.31
425.146
423.995
422.86
421.741
420.641
419.559
418.498
417.459
416.443
415.452
414.487
413.548
412.637
411.751
463.681
462.396
461.11
459.822
458.533
457.242
455.951
454.659
453.366
452.074
450.781
449.489
448.197
446.907
445.618
444.33
443.046
441.764
440.485
439.21
437.939
436.673
435.413
434.159
432.912
431.673
430.443
429.222
428.012
426.813
425.627
424.455
423.297
422.155
421.031
419.925
418.839
417.774
416.732
415.714
414.722
413.756
412.817
411.907
411.022
462.039
460.737
459.433
458.128
456.822
455.515
454.208
452.9
451.593
450.285
448.978
447.672
446.367
445.064
443.763
442.464
441.169
439.877
438.589
437.306
436.028
434.757
433.492
432.234
430.985
429.745
428.515
427.296
426.089
424.896
423.716
422.552
421.405
420.276
419.166
418.077
417.01
415.966
414.947
413.954
412.988
412.051
411.143
410.261
461.613
460.296
458.977
457.657
456.336
455.015
453.692
452.37
451.048
449.726
448.405
447.085
445.766
444.45
443.135
441.824
440.516
439.212
437.912
436.617
435.329
434.046
432.771
431.504
430.245
428.996
427.758
426.532
425.318
424.118
422.933
421.764
420.612
419.479
418.366
417.275
416.206
415.162
414.143
413.151
412.187
411.252
410.346
409.468
461.121
459.789
458.455
457.121
455.785
454.449
453.113
451.776
450.44
449.105
447.77
446.437
445.105
443.776
442.449
441.126
439.806
438.491
437.18
435.875
434.576
433.284
431.999
430.723
429.456
428.2
426.954
425.721
424.501
423.296
422.106
420.933
419.778
418.643
417.528
416.436
415.367
414.323
413.305
412.315
411.354
410.422
409.52
408.646
460.562
459.216
457.868
456.519
455.17
453.82
452.47
451.121
449.771
448.423
447.076
445.73
444.386
443.045
441.707
440.372
439.042
437.716
436.395
435.08
433.772
432.471
431.178
429.894
428.62
427.357
426.106
424.867
423.643
422.433
421.24
420.064
418.907
417.77
416.655
415.562
414.494
413.452
412.437
411.45
410.492
409.564
408.668
407.799
458.578
457.217
455.855
454.492
453.129
451.767
450.404