/*--------------------------------*- C++ -*----------------------------------*\
| =========                 |                                                 |
| \\      /  F ield         | OpenFOAM: The Open Source CFD Toolbox           |
|  \\    /   O peration     | Version:  v1706                                 |
|   \\  /    A nd           | Web:      www.OpenFOAM.com                      |
|    \\/     M anipulation  |                                                 |
\*---------------------------------------------------------------------------*/
FoamFile
{
    version     2.0;
    format      ascii;
    class       volScalarField;
    location    "3.8e-05";
    object      Tv;
}
// * * * * * * * * * * * * * * * * * * * * * * * * * * * * * * * * * * * * * //

dimensions      [0 0 0 1 0 0 0];


internalField   nonuniform List<scalar> 
30038
(
144.4
144.4
144.4
144.4
144.4
144.4
144.4
144.4
144.4
144.4
144.4
144.4
144.4
144.4
144.4
144.4
144.4
144.4
144.4
144.4
144.4
144.4
144.4
144.4
144.4
144.4
144.4
144.4
144.4
144.4
144.4
144.4
144.4
144.4
144.4
144.4
144.4
144.4
144.4
144.4
144.4
144.4
144.4
144.4
144.4
144.4
144.4
144.4
144.4
144.4
144.4
144.4
144.4
144.4
144.4
144.4
144.4
144.4
144.4
144.4
144.4
144.4
144.4
144.4
144.4
144.4
144.4
144.4
144.4
144.4
144.4
144.4
144.4
144.4
144.4
144.4
144.4
144.4
144.4
144.4
144.4
144.4
144.4
144.4
144.4
144.4
144.4
144.4
144.4
144.4
144.4
144.4
144.4
144.4
144.4
144.4
144.4
144.4
144.4
144.4
144.4
144.4
144.4
144.4
144.4
144.4
144.4
144.4
144.4
144.4
144.4
144.4
144.4
144.4
144.4
144.4
144.4
144.4
144.4
144.4
144.4
144.4
144.4
144.4
144.4
144.4
144.4
144.4
144.4
144.4
144.4
144.4
144.4
144.4
144.4
144.4
144.4
144.4
144.4
144.4
144.4
144.4
144.4
144.4
144.4
144.4
144.4
144.4
144.4
144.4
144.4
144.4
144.4
144.4
144.4
144.4
144.4
144.4
144.4
144.4
144.4
144.4
144.4
144.4
144.4
144.4
144.4
144.4
144.4
144.4
144.4
144.4
144.4
144.4
144.4
144.4
144.4
144.4
144.4
144.4
144.4
144.4
144.4
144.4
144.4
144.4
144.4
144.4
144.4
144.4
144.4
144.4
144.4
144.4
144.4
144.4
144.4
144.4
144.4
144.4
144.4
144.4
144.4
144.4
144.4
144.4
144.4
144.4
144.4
144.4
144.4
144.4
144.4
144.4
144.4
144.4
144.4
144.4
144.4
144.4
144.4
144.4
144.4
144.4
144.4
144.4
144.4
144.4
144.4
144.4
144.4
144.4
144.4
144.4
144.4
144.4
144.4
144.4
144.4
144.4
144.4
144.4
144.4
144.4
144.4
144.4
144.4
144.4
144.4
144.4
144.4
144.4
144.4
144.4
144.4
144.4
144.4
144.4
144.4
144.4
144.4
144.4
144.4
144.4
144.4
144.4
144.4
144.4
144.4
144.4
144.4
144.4
144.4
144.4
144.4
144.4
144.4
144.4
144.4
144.4
144.4
144.4
144.4
144.4
144.4
144.4
144.4
144.4
144.4
144.4
144.4
144.4
144.4
144.4
144.4
144.4
144.4
144.4
144.4
144.4
144.4
144.4
144.4
144.4
144.4
144.4
144.4
144.4
144.4
144.4
144.4
144.4
144.4
144.4
144.4
144.4
144.4
144.4
144.4
144.4
144.4
144.4
144.4
144.4
144.4
144.4
144.4
144.4
144.4
144.4
144.4
144.4
144.4
144.4
144.4
144.4
144.4
144.4
144.4
144.4
144.4
144.4
144.4
144.4
144.4
144.4
144.4
144.4
144.4
144.4
144.4
144.4
144.4
144.4
144.4
144.4
144.4
144.4
144.4
144.4
144.4
144.4
144.4
144.4
144.4
144.4
144.4
144.4
144.4
144.4
144.4
144.4
144.4
144.4
144.4
144.4
144.4
144.4
144.4
144.4
144.4
144.4
144.4
144.4
144.4
144.4
144.4
144.4
144.4
144.4
144.4
144.4
144.4
144.4
144.4
144.4
144.4
144.4
144.4
144.4
144.4
144.4
144.4
144.4
144.4
144.4
144.4
144.4
144.4
144.4
144.4
144.4
144.4
144.4
144.4
144.4
144.4
144.4
144.4
144.4
144.4
144.4
144.4
144.4
144.4
144.4
144.4
144.4
144.4
144.4
144.4
144.4
144.4
144.4
144.4
144.4
144.4
144.4
144.4
144.4
144.4
144.4
144.4
144.4
144.4
144.4
144.4
144.4
144.4
144.4
144.4
144.4
144.4
144.4
144.4
144.4
144.4
144.4
144.4
144.4
144.4
144.4
144.4
144.4
144.4
144.4
144.4
144.4
144.4
144.4
144.4
144.4
144.4
144.4
144.4
144.4
144.4
144.4
144.4
144.4
144.4
144.4
144.4
144.4
144.4
144.4
144.4
144.4
144.4
144.4
144.4
144.4
144.4
144.4
144.4
144.4
144.4
144.4
144.4
144.4
144.4
144.4
144.4
144.4
144.4
144.4
144.4
144.4
144.4
144.4
144.4
144.4
144.4
144.4
144.4
144.4
144.4
144.4
144.4
144.4
144.4
144.4
144.4
144.4
144.4
144.4
144.4
144.4
144.4
144.4
144.4
144.4
144.4
144.4
144.4
144.4
144.4
144.4
144.4
144.4
144.4
144.4
144.4
144.4
144.4
144.4
144.4
144.4
144.4
144.4
144.4
144.4
144.4
144.4
144.4
144.4
144.4
144.4
144.4
144.4
144.4
144.4
144.4
144.4
144.4
144.4
144.4
144.4
144.4
144.4
144.4
144.4
144.4
144.4
144.4
144.4
144.4
144.4
144.4
144.4
144.4
144.4
144.4
144.4
144.4
144.4
144.4
144.4
144.4
144.4
144.4
144.4
144.4
144.4
144.4
144.4
144.4
144.4
144.4
144.4
144.4
144.4
144.4
144.4
144.4
144.4
144.4
144.4
144.4
144.4
144.4
144.4
144.4
144.4
144.4
144.4
144.4
144.4
144.4
144.4
144.4
144.4
144.4
144.4
144.4
144.4
144.4
144.4
144.4
144.4
144.4
144.4
144.4
144.4
144.4
144.4
144.4
144.4
144.4
144.4
144.4
144.4
144.4
144.4
144.4
144.4
144.4
144.4
144.4
144.4
144.4
144.4
144.4
144.4
144.4
144.4
144.4
144.4
144.4
144.4
144.4
144.4
144.4
144.4
144.4
144.4
144.4
144.4
144.4
144.4
144.4
144.4
144.4
144.4
144.4
144.4
144.4
144.4
144.4
144.4
144.4
144.4
144.4
144.4
144.4
144.4
144.4
144.4
144.4
144.4
144.4
144.4
144.4
144.4
144.4
144.4
144.4
144.4
144.4
144.4
144.4
144.4
144.4
144.4
144.4
144.4
144.4
144.4
144.4
144.4
144.4
144.4
144.4
144.4
144.4
144.4
144.4
144.4
144.4
144.4
144.4
144.4
144.4
144.4
144.4
144.4
144.4
144.4
144.4
144.4
144.4
144.4
144.4
144.4
144.4
144.4
144.4
144.4
144.4
144.4
144.4
144.4
144.4
144.4
144.4
144.4
144.4
144.4
144.4
144.4
144.4
144.4
144.4
144.4
144.4
144.4
144.4
144.4
144.4
144.4
144.4
144.4
144.4
144.4
144.4
144.4
144.4
144.4
144.4
144.4
144.4
144.4
144.4
144.4
144.4
144.4
144.4
144.4
144.4
144.4
144.4
144.4
144.4
144.4
144.4
144.4
144.4
144.4
144.4
144.4
144.4
144.4
144.4
144.4
144.4
144.4
144.4
144.4
144.4
144.4
144.4
144.4
144.4
144.4
144.4
144.4
144.4
144.4
144.4
144.4
144.4
144.4
144.4
144.4
144.4
144.4
144.4
144.4
144.4
144.4
144.4
144.4
144.4
144.4
144.401
144.4
144.4
144.4
144.4
144.4
144.4
144.4
144.4
144.4
144.4
144.4
144.4
144.4
144.4
144.4
144.4
144.4
144.4
144.4
144.4
144.4
144.4
144.4
144.4
144.4
144.4
144.4
144.4
144.4
144.4
144.4
144.4
144.4
144.4
144.4
144.4
144.4
144.4
144.4
144.401
144.401
144.402
144.403
144.4
144.4
144.4
144.4
144.4
144.4
144.4
144.4
144.4
144.4
144.4
144.4
144.4
144.4
144.4
144.4
144.4
144.4
144.4
144.4
144.4
144.4
144.4
144.4
144.4
144.4
144.4
144.4
144.4
144.4
144.4
144.4
144.4
144.4
144.4
144.4
144.401
144.401
144.402
144.402
144.404
144.405
144.407
144.4
144.4
144.4
144.4
144.4
144.4
144.4
144.4
144.4
144.4
144.4
144.4
144.4
144.4
144.4
144.4
144.4
144.4
144.4
144.4
144.4
144.4
144.4
144.4
144.4
144.4
144.4
144.4
144.4
144.4
144.4
144.4
144.4
144.401
144.401
144.401
144.402
144.403
144.404
144.405
144.407
144.41
144.414
144.419
144.4
144.4
144.4
144.4
144.4
144.4
144.4
144.4
144.4
144.4
144.4
144.4
144.4
144.4
144.4
144.4
144.4
144.4
144.4
144.4
144.4
144.4
144.4
144.4
144.4
144.4
144.4
144.4
144.4
144.4
144.4
144.401
144.401
144.401
144.402
144.403
144.404
144.405
144.407
144.41
144.414
144.419
144.425
144.433
144.443
144.4
144.4
144.4
144.4
144.4
144.4
144.4
144.4
144.4
144.4
144.4
144.4
144.4
144.4
144.4
144.4
144.4
144.4
144.4
144.4
144.4
144.4
144.4
144.4
144.4
144.4
144.4
144.4
144.4
144.401
144.401
144.401
144.402
144.403
144.404
144.406
144.408
144.411
144.414
144.419
144.425
144.433
144.443
144.455
144.47
144.489
144.4
144.4
144.4
144.4
144.4
144.4
144.4
144.4
144.4
144.4
144.4
144.4
144.4
144.4
144.4
144.4
144.4
144.4
144.4
144.4
144.4
144.4
144.4
144.4
144.4
144.4
144.4
144.4
144.401
144.401
144.401
144.402
144.403
144.404
144.406
144.408
144.411
144.415
144.42
144.426
144.434
144.444
144.456
144.471
144.49
144.512
144.54
144.576
144.4
144.4
144.4
144.4
144.4
144.4
144.4
144.4
144.4
144.4
144.4
144.4
144.4
144.4
144.4
144.4
144.4
144.4
144.4
144.4
144.4
144.4
144.4
144.4
144.4
144.401
144.401
144.402
144.402
144.403
144.404
144.406
144.409
144.412
144.416
144.421
144.428
144.436
144.446
144.458
144.473
144.492
144.515
144.542
144.576
144.617
144.667
144.73
144.4
144.4
144.4
144.4
144.4
144.4
144.4
144.4
144.4
144.4
144.4
144.4
144.4
144.4
144.4
144.4
144.4
144.4
144.4
144.4
144.4
144.4
144.4
144.401
144.401
144.401
144.402
144.402
144.403
144.405
144.407
144.409
144.413
144.417
144.422
144.429
144.438
144.448
144.461
144.476
144.495
144.519
144.547
144.581
144.622
144.671
144.731
144.802
144.888
144.993
144.4
144.4
144.4
144.4
144.4
144.4
144.4
144.4
144.4
144.4
144.4
144.4
144.4
144.4
144.4
144.4
144.4
144.4
144.4
144.4
144.401
144.401
144.401
144.402
144.403
144.404
144.405
144.407
144.41
144.414
144.418
144.424
144.431
144.44
144.451
144.464
144.48
144.5
144.524
144.552
144.587
144.628
144.678
144.738
144.809
144.894
144.994
145.112
145.252
145.421
144.4
144.4
144.4
144.4
144.4
144.4
144.4
144.4
144.4
144.4
144.4
144.4
144.4
144.4
144.4
144.4
144.401
144.401
144.401
144.402
144.402
144.403
144.404
144.406
144.408
144.411
144.415
144.42
144.426
144.434
144.443
144.455
144.469
144.486
144.506
144.531
144.56
144.595
144.638
144.688
144.749
144.82
144.905
145.005
145.123
145.26
145.42
145.607
145.823
146.08
144.4
144.4
144.4
144.4
144.4
144.4
144.4
144.4
144.4
144.4
144.4
144.4
144.4
144.401
144.401
144.401
144.402
144.403
144.404
144.405
144.407
144.41
144.413
144.417
144.422
144.429
144.437
144.447
144.46
144.474
144.492
144.514
144.539
144.57
144.606
144.65
144.702
144.763
144.836
144.921
145.022
145.14
145.277
145.437
145.621
145.833
146.077
146.354
146.669
147.034
144.4
144.4
144.4
144.4
144.4
144.4
144.4
144.4
144.4
144.401
144.401
144.401
144.402
144.402
144.403
144.404
144.406
144.408
144.411
144.415
144.419
144.425
144.432
144.441
144.452
144.466
144.481
144.5
144.523
144.55
144.582
144.62
144.665
144.718
144.781
144.855
144.943
145.045
145.164
145.302
145.462
145.646
145.857
146.098
146.371
146.68
147.026
147.412
147.841
148.328
144.4
144.4
144.4
144.4
144.4
144.401
144.401
144.401
144.402
144.402
144.403
144.404
144.405
144.407
144.41
144.413
144.417
144.422
144.429
144.437
144.447
144.458
144.473
144.49
144.51
144.534
144.563
144.596
144.636
144.683
144.739
144.804
144.88
144.97
145.074
145.195
145.335
145.496
145.681
145.892
146.133
146.404
146.71
147.052
147.431
147.851
148.311
148.814
149.361
149.967
144.4
144.401
144.401
144.401
144.401
144.402
144.403
144.404
144.405
144.407
144.409
144.412
144.415
144.42
144.426
144.433
144.442
144.453
144.466
144.482
144.5
144.522
144.548
144.578
144.614
144.656
144.706
144.764
144.832
144.911
145.003
145.11
145.234
145.376
145.54
145.727
145.94
146.181
146.452
146.757
147.096
147.472
147.886
148.34
148.833
149.366
149.94
150.554
151.21
151.922
144.401
144.402
144.403
144.403
144.405
144.406
144.408
144.411
144.414
144.419
144.424
144.431
144.439
144.449
144.461
144.475
144.493
144.513
144.537
144.564
144.597
144.635
144.68
144.733
144.794
144.865
144.948
145.043
145.154
145.281
145.428
145.594
145.784
146
146.243
146.516
146.82
147.159
147.533
147.944
148.392
148.879
149.404
149.968
150.57
151.208
151.883
152.593
153.34
154.137
144.404
144.406
144.408
144.41
144.414
144.418
144.423
144.429
144.437
144.446
144.457
144.471
144.487
144.506
144.528
144.554
144.585
144.62
144.661
144.709
144.765
144.83
144.905
144.992
145.092
145.207
145.339
145.489
145.661
145.855
146.074
146.32
146.595
146.902
147.241
147.614
148.023
148.469
148.951
149.47
150.026
150.618
151.245
151.907
152.602
153.328
154.085
154.87
155.687
156.549
144.413
144.417
144.422
144.428
144.435
144.444
144.455
144.468
144.483
144.501
144.522
144.547
144.576
144.609
144.648
144.692
144.744
144.804
144.873
144.953
145.044
145.15
145.27
145.407
145.563
145.74
145.939
146.163
146.414
146.693
147.002
147.343
147.718
148.126
148.57
149.049
149.563
150.112
150.697
151.315
151.966
152.648
153.361
154.102
154.87
155.664
156.482
157.324
158.191
159.098
144.435
144.443
144.454
144.466
144.481
144.499
144.519
144.543
144.57
144.602
144.639
144.681
144.73
144.786
144.85
144.924
145.009
145.107
145.218
145.344
145.488
145.65
145.833
146.039
146.269
146.525
146.809
147.122
147.467
147.843
148.253
148.696
149.173
149.684
150.229
150.807
151.417
152.058
152.73
153.43
154.158
154.911
155.689
156.49
157.313
158.156
159.018
159.899
160.801
161.739
144.481
144.498
144.518
144.541
144.568
144.598
144.634
144.674
144.721
144.774
144.835
144.905
144.985
145.076
145.18
145.298
145.432
145.582
145.752
145.943
146.155
146.392
146.655
146.945
147.264
147.613
147.993
148.405
148.849
149.326
149.835
150.376
150.948
151.552
152.185
152.847
153.536
154.252
154.992
155.755
156.541
157.347
158.172
159.016
159.877
160.754
161.646
162.553
163.478
164.435
144.568
144.598
144.633
144.672
144.718
144.769
144.828
144.895
144.971
145.057
145.156
145.267
145.392
145.534
145.693
145.871
146.07
146.291
146.536
146.807
147.104
147.43
147.784
148.168
148.584
149.03
149.507
150.015
150.554
151.122
151.72
152.346
153
153.679
154.383
155.111
155.861
156.632
157.423
158.232
159.058
159.901
160.76
161.632
162.518
163.418
164.329
165.253
166.192
167.161
144.72
144.77
144.827
144.892
144.966
145.049
145.143
145.249
145.369
145.503
145.654
145.822
146.01
146.218
146.449
146.703
146.982
147.287
147.62
147.981
148.371
148.79
149.239
149.718
150.226
150.763
151.329
151.922
152.542
153.188
153.859
154.553
155.269
156.007
156.764
157.54
158.334
159.144
159.97
160.811
161.665
162.533
163.413
164.304
165.207
166.12
167.043
167.977
168.924
169.899
144.97
145.051
145.142
145.245
145.36
145.489
145.633
145.794
145.972
146.171
146.389
146.63
146.894
147.183
147.498
147.839
148.207
148.603
149.027
149.48
149.961
150.469
151.006
151.569
152.159
152.774
153.413
154.075
154.76
155.466
156.191
156.936
157.698
158.478
159.273
160.082
160.906
161.744
162.593
163.455
164.327
165.21
166.103
167.006
167.918
168.839
169.768
170.707
171.658
172.634
145.253
145.365
145.49
145.63
145.785
145.957
146.147
146.356
146.587
146.839
147.114
147.413
147.737
148.087
148.463
148.866
149.296
149.753
150.236
150.747
151.283
151.845
152.431
153.041
153.674
154.329
155.005
155.701
156.415
157.148
157.897
158.663
159.443
160.237
161.045
161.866
162.698
163.542
164.396
165.261
166.135
167.019
167.911
168.811
169.72
170.637
171.561
172.492
173.432
174.383
175.359
145.795
145.962
146.146
146.349
146.57
146.813
147.077
147.364
147.674
148.009
148.368
148.753
149.163
149.599
150.06
150.547
151.059
151.596
152.156
152.74
153.346
153.973
154.621
155.289
155.975
156.679
157.4
158.137
158.889
159.655
160.435
161.227
162.032
162.847
163.674
164.511
165.358
166.213
167.078
167.951
168.832
169.721
170.618
171.522
172.433
173.35
174.275
175.206
176.144
177.093
178.065
146.366
146.581
146.817
147.072
147.349
147.648
147.97
148.315
148.685
149.078
149.496
149.938
150.405
150.895
151.409
151.946
152.505
153.086
153.688
154.31
154.951
155.611
156.289
156.982
157.692
158.417
159.156
159.909
160.674
161.451
162.24
163.04
163.85
164.67
165.499
166.337
167.184
168.038
168.901
169.771
170.648
171.532
172.423
173.321
174.224
175.134
176.05
176.973
177.901
178.836
179.781
180.748
147.368
147.658
147.97
148.304
148.66
149.04
149.442
149.868
150.316
150.787
151.281
151.797
152.335
152.893
153.471
154.07
154.686
155.321
155.973
156.642
157.326
158.025
158.738
159.464
160.204
160.955
161.718
162.492
163.276
164.069
164.873
165.685
166.506
167.335
168.171
169.016
169.867
170.725
171.59
172.462
173.34
174.224
175.114
176.01
176.911
177.818
178.731
179.649
180.573
181.503
182.443
183.403
148.679
149.046
149.436
149.847
150.28
150.735
151.211
151.708
152.226
152.764
153.321
153.897
154.491
155.103
155.731
156.376
157.035
157.71
158.398
159.1
159.814
160.54
161.278
162.026
162.785
163.554
164.332
165.119
165.915
166.718
167.53
168.349
169.176
170.009
170.849
171.696
172.548
173.407
174.272
175.142
176.019
176.9
177.787
178.679
179.577
180.479
181.387
182.3
183.218
184.142
185.075
186.027
150.296
150.736
151.197
151.677
152.177
152.696
153.234
153.79
154.363
154.953
155.56
156.182
156.818
157.47
158.134
158.812
159.502
160.204
160.918
161.642
162.376
163.121
163.874
164.637
165.408
166.187
166.974
167.769
168.571
169.38
170.196
171.018
171.846
172.681
173.521
174.367
175.219
176.076
176.938
177.805
178.678
179.555
180.438
181.325
182.217
183.113
184.015
184.921
185.832
186.749
187.674
188.619
152.188
152.69
153.21
153.748
154.302
154.872
155.458
156.059
156.674
157.303
157.945
158.6
159.267
159.946
160.636
161.337
162.048
162.768
163.498
164.237
164.984
165.74
166.503
167.274
168.052
168.837
169.629
170.427
171.231
172.042
172.858
173.681
174.508
175.341
176.18
177.023
177.871
178.725
179.583
180.445
181.313
182.185
183.061
183.942
184.828
185.717
186.612
187.511
188.414
189.323
190.24
191.175
154.305
154.857
155.424
156.005
156.6
157.208
157.829
158.462
159.108
159.764
160.432
161.11
161.798
162.495
163.202
163.917
164.641
165.373
166.113
166.861
167.616
168.377
169.146
169.92
170.702
171.489
172.282
173.081
173.885
174.695
175.509
176.329
177.154
177.984
178.819
179.658
180.501
181.35
182.202
183.059
183.92
184.785
185.655
186.529
187.407
188.289
189.175
190.066
190.961
191.861
192.769
193.695
156.595
157.184
157.785
158.398
159.022
159.657
160.303
160.959
161.625
162.3
162.984
163.677
164.378
165.088
165.805
166.529
167.261
168
168.745
169.497
170.255
171.019
171.79
172.565
173.347
174.133
174.925
175.722
176.524
177.331
178.143
178.959
179.779
180.604
181.434
182.267
183.105
183.947
184.793
185.643
186.497
187.355
188.217
189.082
189.952
190.826
191.703
192.585
193.471
194.362
195.261
196.176
159.624
160.249
160.884
161.528
162.181
162.844
163.515
164.194
164.881
165.576
166.278
166.987
167.703
168.426
169.155
169.891
170.632
171.38
172.133
172.892
173.656
174.425
175.2
175.979
176.763
177.552
178.346
179.144
179.946
180.753
181.564
182.379
183.198
184.021
184.848
185.679
186.514
187.352
188.194
189.041
189.89
190.744
191.601
192.462
193.326
194.195
195.067
195.943
196.825
197.713
198.618
162.139
162.78
163.429
164.087
164.752
165.425
166.105
166.792
167.486
168.187
168.894
169.607
170.327
171.052
171.783
172.519
173.261
174.008
174.76
175.517
176.279
177.046
177.817
178.593
179.373
180.158
180.946
181.739
182.536
183.337
184.141
184.95
185.762
186.578
187.398
188.221
189.048
189.878
190.712
191.55
192.39
193.235
194.083
194.934
195.789
196.648
197.51
198.377
199.248
200.126
201.02
164.701
165.352
166.011
166.676
167.348
168.027
168.712
169.404
170.101
170.804
171.513
172.227
172.947
173.672
174.402
175.137
175.877
176.622
177.371
178.125
178.883
179.646
180.413
181.184
181.959
182.737
183.52
184.307
185.097
185.891
186.689
187.49
188.295
189.103
189.914
190.729
191.547
192.369
193.194
194.022
194.854
195.689
196.527
197.369
198.214
199.062
199.914
200.77
201.631
202.498
203.38
167.946
168.609
169.279
169.954
170.636
171.323
172.016
172.713
173.417
174.125
174.838
175.556
176.279
177.007
177.739
178.476
179.217
179.962
180.711
181.464
182.222
182.983
183.748
184.517
185.289
186.065
186.845
187.628
188.414
189.204
189.997
190.793
191.593
192.396
193.202
194.011
194.823
195.639
196.457
197.279
198.104
198.932
199.764
200.598
201.436
202.278
203.123
203.972
204.828
205.699
170.546
171.212
171.883
172.559
173.241
173.927
174.619
175.316
176.017
176.723
177.434
178.149
178.868
179.592
180.32
181.052
181.788
182.527
183.271
184.019
184.77
185.524
186.283
187.044
187.81
188.578
189.35
190.125
190.903
191.685
192.469
193.257
194.047
194.841
195.638
196.437
197.24
198.045
198.854
199.665
200.48
201.298
202.118
202.942
203.769
204.6
205.434
206.272
207.117
207.976
173.144
173.809
174.479
175.154
175.834
176.519
177.208
177.902
178.6
179.302
180.009
180.719
181.434
182.153
182.875
183.602
184.332
185.065
185.803
186.543
187.288
188.035
188.786
189.54
190.297
191.058
191.821
192.588
193.357
194.13
194.905
195.683
196.465
197.249
198.035
198.825
199.618
200.413
201.211
202.012
202.816
203.623
204.433
205.245
206.061
206.881
207.703
208.53
209.363
210.21
175.73
176.393
177.061
177.734
178.411
179.092
179.777
180.467
181.16
181.858
182.56
183.265
183.974
184.687
185.403
186.123
186.847
187.573
188.303
189.037
189.773
190.513
191.256
192.002
192.751
193.502
194.257
195.015
195.775
196.538
197.304
198.072
198.844
199.618
200.394
201.174
201.956
202.74
203.528
204.318
205.111
205.907
206.705
207.507
208.311
209.119
209.93
210.745
211.567
212.401
178.3
178.96
179.624
180.293
180.965
181.642
182.323
183.007
183.695
184.387
185.083
185.782
186.485
187.191
187.901
188.614
189.33
190.049
190.771
191.497
192.225
192.957
193.691
194.428
195.168
195.911
196.656
197.404
198.155
198.908
199.664
200.423
201.184
201.948
202.714
203.482
204.254
205.027
205.804
206.583
207.365
208.149
208.936
209.726
210.519
211.315
212.115
212.918
213.727
214.549
180.848
181.504
182.164
182.828
183.495
184.166
184.841
185.52
186.202
186.888
187.577
188.27
188.965
189.664
190.366
191.072
191.78
192.491
193.205
193.922
194.642
195.365
196.09
196.818
197.549
198.282
199.018
199.756
200.497
201.24
201.986
202.734
203.484
204.237
204.993
205.751
206.511
207.273
208.039
208.806
209.577
210.349
211.125
211.903
212.685
213.469
214.256
215.047
215.845
216.654
183.372
184.023
184.678
185.336
185.997
186.663
187.331
188.003
188.679
189.358
190.039
190.725
191.413
192.104
192.798
193.495
194.195
194.898
195.603
196.312
197.023
197.736
198.452
199.17
199.891
200.615
201.341
202.069
202.799
203.532
204.267
205.005
205.745
206.487
207.231
207.978
208.727
209.478
210.232
210.988
211.747
212.508
213.272
214.038
214.807
215.579
216.355
217.134
217.919
218.715
186.514
187.162
187.814
188.469
189.128
189.79
190.455
191.123
191.794
192.469
193.146
193.826
194.509
195.195
195.884
196.575
197.269
197.965
198.664
199.366
200.069
200.776
201.484
202.195
202.909
203.624
204.342
205.062
205.784
206.509
207.235
207.964
208.695
209.428
210.164
210.901
211.641
212.383
213.128
213.874
214.624
215.376
216.13
216.887
217.647
218.411
219.177
219.95
220.734
188.975
189.617
190.262
190.91
191.561
192.216
192.873
193.534
194.197
194.863
195.532
196.204
196.879
197.556
198.235
198.917
199.602
200.289
200.979
201.67
202.365
203.061
203.759
204.46
205.163
205.868
206.575
207.285
207.996
208.71
209.425
210.143
210.862
211.584
212.308
213.034
213.762
214.492
215.225
215.96
216.697
217.437
218.18
218.925
219.672
220.423
221.178
221.938
222.709
191.404
192.039
192.676
193.317
193.961
194.608
195.257
195.909
196.565
197.222
197.883
198.546
199.211
199.879
200.55
201.222
201.898
202.575
203.255
203.936
204.621
205.307
205.995
206.685
207.378
208.072
208.768
209.467
210.167
210.869
211.574
212.28
212.988
213.698
214.41
215.125
215.841
216.56
217.28
218.003
218.729
219.456
220.186
220.919
221.655
222.393
223.136
223.883
224.642
194.427
195.057
195.69
196.326
196.964
197.605
198.249
198.896
199.545
200.196
200.85
201.506
202.165
202.826
203.489
204.154
204.822
205.492
206.163
206.837
207.513
208.19
208.87
209.552
210.235
210.92
211.608
212.297
212.988
213.681
214.375
215.072
215.771
216.471
217.174
217.878
218.585
219.293
220.004
220.717
221.433
222.151
222.871
223.595
224.321
225.051
225.786
226.531
196.78
197.402
198.027
198.655
199.285
199.917
200.552
201.19
201.83
202.472
203.117
203.763
204.412
205.063
205.717
206.372
207.029
207.689
208.35
209.013
209.679
210.346
211.014
211.685
212.357
213.032
213.708
214.386
215.065
215.746
216.43
217.115
217.801
218.49
219.181
219.873
220.568
221.264
221.963
222.664
223.367
224.073
224.781
225.492
226.206
226.924
227.646
228.379
199.712
200.328
200.947
201.568
202.192
202.818
203.446
204.077
204.709
205.344
205.982
206.621
207.262
207.905
208.55
209.197
209.846
210.497
211.15
211.804
212.46
213.118
213.778
214.439
215.102
215.767
216.433
217.101
217.771
218.442
219.115
219.79
220.467
221.146
221.826
222.509
223.193
223.88
224.569
225.26
225.953
226.649
227.348
228.049
228.754
229.464
230.184
201.984
202.592
203.201
203.814
204.428
205.045
205.664
206.285
206.908
207.533
208.161
208.79
209.421
210.054
210.689
211.325
211.963
212.604
213.245
213.889
214.534
215.181
215.829
216.479
217.131
217.784
218.439
219.095
219.754
220.413
221.075
221.738
222.403
223.069
223.738
224.408
225.081
225.755
226.432
227.11
227.792
228.475
229.161
229.85
230.543
231.241
231.948
204.817
205.418
206.021
206.626
207.234
207.843
208.454
209.068
209.683
210.3
210.919
211.54
212.162
212.787
213.413
214.04
214.67
215.301
215.933
216.567
217.203
217.84
218.479
219.119
219.761
220.404
221.049
221.695
222.343
222.993
223.644
224.297
224.952
225.608
226.266
226.926
227.589
228.253
228.92
229.588
230.26
230.934
231.61
232.291
232.976
233.67
207.005
207.596
208.19
208.786
209.383
209.983
210.584
211.188
211.793
212.4
213.008
213.619
214.231
214.845
215.46
216.077
216.695
217.315
217.937
218.559
219.184
219.81
220.437
221.066
221.696
222.328
222.961
223.596
224.232
224.869
225.509
226.15
226.792
227.437
228.083
228.731
229.381
230.033
230.688
231.344
232.003
232.665
233.329
233.997
234.67
235.352
209.154
209.736
210.32
210.906
211.493
212.083
212.675
213.268
213.863
214.459
215.058
215.658
216.259
216.862
217.467
218.073
218.68
219.289
219.899
220.511
221.124
221.739
222.355
222.972
223.591
224.211
224.832
225.455
226.079
226.705
227.333
227.962
228.592
229.225
229.859
230.495
231.133
231.773
232.415
233.06
233.706
234.356
235.008
235.664
236.324
236.993
211.263
211.836
212.41
212.986
213.564
214.144
214.725
215.308
215.893
216.479
217.067
217.656
218.247
218.839
219.433
220.028
220.625
221.222
221.822
222.422
223.024
223.627
224.232
224.837
225.444
226.053
226.663
227.274
227.887
228.501
229.116
229.733
230.352
230.972
231.595
232.219
232.844
233.472
234.102
234.735
235.369
236.007
236.647
237.29
237.938
238.594
213.334
213.897
214.461
215.028
215.595
216.165
216.736
217.309
217.883
218.459
219.036
219.615
220.195
220.777
221.359
221.943
222.529
223.116
223.704
224.293
224.883
225.475
226.068
226.662
227.258
227.855
228.453
229.052
229.653
230.256
230.859
231.465
232.071
232.68
233.29
233.902
234.516
235.132
235.75
236.37
236.993
237.618
238.246
238.877
239.513
240.157
215.365
215.918
216.473
217.029
217.587
218.146
218.707
219.27
219.834
220.399
220.966
221.534
222.103
222.674
223.245
223.819
224.393
224.969
225.545
226.123
226.703
227.283
227.865
228.447
229.031
229.617
230.203
230.791
231.38
231.971
232.563
233.156
233.751
234.348
234.946
235.546
236.148
236.752
237.358
237.966
238.577
239.19
239.806
240.425
241.049
241.68
217.357
217.9
218.445
218.991
219.539
220.088
220.639
221.191
221.744
222.299
222.855
223.412
223.971
224.531
225.092
225.654
226.217
226.782
227.347
227.914
228.482
229.051
229.621
230.193
230.765
231.339
231.914
232.49
233.068
233.647
234.227
234.809
235.392
235.977
236.563
237.151
237.741
238.333
238.928
239.524
240.122
240.724
241.328
241.935
242.546
243.166
219.843
220.378
220.914
221.451
221.99
222.531
223.072
223.615
224.159
224.705
225.251
225.799
226.348
226.898
227.449
228.002
228.555
229.11
229.665
230.222
230.78
231.339
231.899
232.46
233.022
233.586
234.15
234.716
235.283
235.852
236.422
236.994
237.567
238.141
238.718
239.296
239.877
240.459
241.043
241.63
242.219
242.811
243.407
244.006
244.613
221.746
222.271
222.797
223.324
223.853
224.383
224.914
225.447
225.98
226.515
227.051
227.588
228.126
228.665
229.206
229.747
230.289
230.833
231.377
231.923
232.469
233.017
233.566
234.115
234.666
235.218
235.772
236.326
236.882
237.439
237.997
238.557
239.119
239.682
240.247
240.813
241.382
241.953
242.525
243.1
243.678
244.258
244.842
245.429
246.025
223.61
224.125
224.641
225.158
225.676
226.196
226.717
227.239
227.762
228.286
228.811
229.338
229.865
230.394
230.923
231.453
231.985
232.517
233.051
233.585
234.12
234.657
235.194
235.733
236.272
236.813
237.355
237.898
238.442
238.988
239.535
240.083
240.633
241.185
241.738
242.293
242.85
243.409
243.97
244.534
245.1
245.668
246.24
246.816
247.399
225.94
226.446
226.953
227.461
227.97
228.481
228.992
229.505
230.018
230.533
231.049
231.566
232.083
232.602
233.121
233.642
234.163
234.686
235.209
235.733
236.259
236.785
237.312
237.841
238.37
238.901
239.432
239.965
240.5
241.035
241.572
242.111
242.651
243.193
243.736
244.282
244.829
245.379
245.931
246.486
247.043
247.603
248.167
248.739
227.716
228.212
228.709
229.207
229.706
230.206
230.707
231.209
231.712
232.217
232.722
233.228
233.735
234.242
234.751
235.261
235.771
236.283
236.795
237.309
237.823
238.338
238.854
239.371
239.89
240.409
240.93
241.451
241.975
242.499
243.025
243.552
244.081
244.611
245.144
245.678
246.214
246.752
247.293
247.836
248.382
248.93
249.483
250.043
229.454
229.94
230.427
230.914
231.403
231.893
232.384
232.876
233.368
233.862
234.357
234.852
235.348
235.845
236.343
236.842
237.342
237.843
238.344
238.847
239.35
239.854
240.359
240.866
241.373
241.881
242.391
242.901
243.413
243.927
244.441
244.957
245.475
245.994
246.515
247.038
247.563
248.09
248.62
249.151
249.686
250.223
250.765
251.313
231.154
231.63
232.106
232.584
233.063
233.542
234.023
234.504
234.987
235.47
235.954
236.439
236.925
237.411
237.899
238.387
238.876
239.366
239.857
240.348
240.841
241.334
241.829
242.324
242.82
243.318
243.816
244.316
244.817
245.319
245.822
246.328
246.834
247.342
247.852
248.364
248.878
249.394
249.912
250.433
250.956
251.482
252.013
252.549
233.282
233.749
234.216
234.685
235.154
235.625
236.096
236.568
237.041
237.515
237.989
238.464
238.941
239.417
239.895
240.374
240.853
241.333
241.814
242.296
242.778
243.262
243.746
244.232
244.718
245.206
245.695
246.185
246.676
247.169
247.663
248.159
248.656
249.155
249.656
250.159
250.664
251.171
251.681
252.193
252.708
253.227
253.753
234.897
235.354
235.812
236.27
236.73
237.19
237.651
238.113
238.575
239.039
239.503
239.968
240.434
240.9
241.367
241.835
242.304
242.774
243.244
243.715
244.187
244.66
245.134
245.609
246.085
246.562
247.04
247.519
248
248.482
248.965
249.45
249.936
250.425
250.915
251.407
251.901
252.397
252.896
253.397
253.902
254.41
254.924
236.476
236.922
237.37
237.819
238.268
238.719
239.17
239.621
240.074
240.527
240.981
241.436
241.891
242.347
242.804
243.262
243.72
244.179
244.639
245.1
245.561
246.024
246.487
246.952
247.417
247.883
248.351
248.82
249.289
249.761
250.234
250.708
251.184
251.661
252.141
252.622
253.105
253.591
254.079
254.57
255.063
255.56
256.064
238.455
238.893
239.332
239.771