/*--------------------------------*- C++ -*----------------------------------*\
| =========                 |                                                 |
| \\      /  F ield         | OpenFOAM: The Open Source CFD Toolbox           |
|  \\    /   O peration     | Version:  v1706                                 |
|   \\  /    A nd           | Web:      www.OpenFOAM.com                      |
|    \\/     M anipulation  |                                                 |
\*---------------------------------------------------------------------------*/
FoamFile
{
    version     2.0;
    format      ascii;
    class       volScalarField;
    location    "3.3e-05";
    object      alpha;
}
// * * * * * * * * * * * * * * * * * * * * * * * * * * * * * * * * * * * * * //

dimensions      [1 -1 -1 0 0 0 0];


internalField   nonuniform List<scalar> 
30038
(
1.40478e-05
1.40478e-05
1.40478e-05
1.40478e-05
1.40478e-05
1.40478e-05
1.40478e-05
1.40478e-05
1.40478e-05
1.40478e-05
1.40478e-05
1.40478e-05
1.40478e-05
1.40478e-05
1.40478e-05
1.40478e-05
1.40478e-05
1.40478e-05
1.40478e-05
1.40478e-05
1.40478e-05
1.40478e-05
1.40478e-05
1.40478e-05
1.40478e-05
1.40478e-05
1.40478e-05
1.40478e-05
1.40478e-05
1.40478e-05
1.40478e-05
1.40478e-05
1.40478e-05
1.40478e-05
1.40478e-05
1.40478e-05
1.40478e-05
1.40478e-05
1.40478e-05
1.40478e-05
1.40478e-05
1.40478e-05
1.40478e-05
1.40478e-05
1.40478e-05
1.40478e-05
1.40478e-05
1.40478e-05
1.40478e-05
1.40478e-05
1.40478e-05
1.40478e-05
1.40478e-05
1.40478e-05
1.40478e-05
1.40478e-05
1.40478e-05
1.40478e-05
1.40478e-05
1.40478e-05
1.40478e-05
1.40478e-05
1.40478e-05
1.40478e-05
1.40478e-05
1.40478e-05
1.40478e-05
1.40478e-05
1.40478e-05
1.40478e-05
1.40478e-05
1.40478e-05
1.40478e-05
1.40478e-05
1.40478e-05
1.40478e-05
1.40478e-05
1.40478e-05
1.40478e-05
1.40478e-05
1.40478e-05
1.40478e-05
1.40478e-05
1.40478e-05
1.40478e-05
1.40478e-05
1.40478e-05
1.40478e-05
1.40478e-05
1.40478e-05
1.40478e-05
1.40478e-05
1.40478e-05
1.40478e-05
1.40478e-05
1.40478e-05
1.40478e-05
1.40478e-05
1.40478e-05
1.40478e-05
1.40478e-05
1.40478e-05
1.40478e-05
1.40478e-05
1.40478e-05
1.40478e-05
1.40478e-05
1.40478e-05
1.40478e-05
1.40478e-05
1.40478e-05
1.40478e-05
1.40478e-05
1.40478e-05
1.40478e-05
1.40478e-05
1.40478e-05
1.40478e-05
1.40478e-05
1.40478e-05
1.40478e-05
1.40478e-05
1.40478e-05
1.40478e-05
1.40478e-05
1.40478e-05
1.40478e-05
1.40478e-05
1.40478e-05
1.40478e-05
1.40478e-05
1.40478e-05
1.40478e-05
1.40478e-05
1.40478e-05
1.40478e-05
1.40478e-05
1.40478e-05
1.40478e-05
1.40478e-05
1.40478e-05
1.40478e-05
1.40478e-05
1.40478e-05
1.40478e-05
1.40478e-05
1.40478e-05
1.40478e-05
1.40478e-05
1.40478e-05
1.40478e-05
1.40478e-05
1.40478e-05
1.40478e-05
1.40478e-05
1.40478e-05
1.40478e-05
1.40478e-05
1.40478e-05
1.40478e-05
1.40478e-05
1.40478e-05
1.40478e-05
1.40478e-05
1.40478e-05
1.40478e-05
1.40478e-05
1.40478e-05
1.40478e-05
1.40478e-05
1.40478e-05
1.40478e-05
1.40478e-05
1.40478e-05
1.40478e-05
1.40478e-05
1.40478e-05
1.40478e-05
1.40478e-05
1.40478e-05
1.40478e-05
1.40478e-05
1.40478e-05
1.40478e-05
1.40478e-05
1.40478e-05
1.40478e-05
1.40478e-05
1.40478e-05
1.40478e-05
1.40478e-05
1.40478e-05
1.40478e-05
1.40478e-05
1.40478e-05
1.40478e-05
1.40478e-05
1.40478e-05
1.40478e-05
1.40478e-05
1.40478e-05
1.40478e-05
1.40478e-05
1.40478e-05
1.40478e-05
1.40478e-05
1.40478e-05
1.40478e-05
1.40478e-05
1.40478e-05
1.40478e-05
1.40478e-05
1.40478e-05
1.40478e-05
1.40478e-05
1.40478e-05
1.40478e-05
1.40478e-05
1.40478e-05
1.40478e-05
1.40478e-05
1.40478e-05
1.40478e-05
1.40478e-05
1.40478e-05
1.40478e-05
1.40478e-05
1.40478e-05
1.40478e-05
1.40478e-05
1.40478e-05
1.40478e-05
1.40478e-05
1.40478e-05
1.40478e-05
1.40478e-05
1.40478e-05
1.40478e-05
1.40478e-05
1.40478e-05
1.40478e-05
1.40478e-05
1.40478e-05
1.40478e-05
1.40478e-05
1.40478e-05
1.40478e-05
1.40478e-05
1.40478e-05
1.40478e-05
1.40478e-05
1.40478e-05
1.40478e-05
1.40478e-05
1.40478e-05
1.40478e-05
1.40478e-05
1.40478e-05
1.40478e-05
1.40478e-05
1.40478e-05
1.40478e-05
1.40478e-05
1.40478e-05
1.40478e-05
1.40478e-05
1.40478e-05
1.40478e-05
1.40478e-05
1.40478e-05
1.40478e-05
1.40478e-05
1.40478e-05
1.40478e-05
1.40478e-05
1.40478e-05
1.40478e-05
1.40478e-05
1.40478e-05
1.40478e-05
1.40478e-05
1.40478e-05
1.40478e-05
1.40478e-05
1.40478e-05
1.40478e-05
1.40478e-05
1.40478e-05
1.40478e-05
1.40478e-05
1.40478e-05
1.40478e-05
1.40478e-05
1.40478e-05
1.40478e-05
1.40478e-05
1.40478e-05
1.40478e-05
1.40478e-05
1.40478e-05
1.40478e-05
1.40478e-05
1.40478e-05
1.40478e-05
1.40478e-05
1.40478e-05
1.40478e-05
1.40478e-05
1.40478e-05
1.40478e-05
1.40478e-05
1.40478e-05
1.40478e-05
1.40478e-05
1.40478e-05
1.40478e-05
1.40478e-05
1.40478e-05
1.40478e-05
1.40478e-05
1.40478e-05
1.40478e-05
1.40478e-05
1.40478e-05
1.40478e-05
1.40478e-05
1.40478e-05
1.40478e-05
1.40478e-05
1.40478e-05
1.40478e-05
1.40478e-05
1.40478e-05
1.40478e-05
1.40478e-05
1.40478e-05
1.40478e-05
1.40478e-05
1.40478e-05
1.40478e-05
1.40478e-05
1.40479e-05
1.40479e-05
1.40478e-05
1.40478e-05
1.40478e-05
1.40478e-05
1.40478e-05
1.40478e-05
1.40478e-05
1.40478e-05
1.40478e-05
1.40478e-05
1.40478e-05
1.40478e-05
1.40478e-05
1.40478e-05
1.40478e-05
1.40478e-05
1.40478e-05
1.40478e-05
1.40478e-05
1.40478e-05
1.40478e-05
1.40478e-05
1.40478e-05
1.40478e-05
1.40478e-05
1.40478e-05
1.40478e-05
1.40478e-05
1.40478e-05
1.40478e-05
1.40478e-05
1.40478e-05
1.40478e-05
1.40478e-05
1.40479e-05
1.40479e-05
1.40479e-05
1.4048e-05
1.40481e-05
1.40478e-05
1.40478e-05
1.40478e-05
1.40478e-05
1.40478e-05
1.40478e-05
1.40478e-05
1.40478e-05
1.40478e-05
1.40478e-05
1.40478e-05
1.40478e-05
1.40478e-05
1.40478e-05
1.40478e-05
1.40478e-05
1.40478e-05
1.40478e-05
1.40478e-05
1.40478e-05
1.40478e-05
1.40478e-05
1.40478e-05
1.40478e-05
1.40478e-05
1.40478e-05
1.40478e-05
1.40478e-05
1.40478e-05
1.40478e-05
1.40478e-05
1.40478e-05
1.40479e-05
1.40479e-05
1.4048e-05
1.40481e-05
1.40482e-05
1.40484e-05
1.40487e-05
1.40478e-05
1.40478e-05
1.40478e-05
1.40478e-05
1.40478e-05
1.40478e-05
1.40478e-05
1.40478e-05
1.40478e-05
1.40478e-05
1.40478e-05
1.40478e-05
1.40478e-05
1.40478e-05
1.40478e-05
1.40478e-05
1.40478e-05
1.40478e-05
1.40478e-05
1.40478e-05
1.40478e-05
1.40478e-05
1.40478e-05
1.40478e-05
1.40478e-05
1.40478e-05
1.40478e-05
1.40478e-05
1.40478e-05
1.40478e-05
1.40479e-05
1.40479e-05
1.4048e-05
1.40481e-05
1.40482e-05
1.40484e-05
1.40486e-05
1.4049e-05
1.40496e-05
1.40505e-05
1.40478e-05
1.40478e-05
1.40478e-05
1.40478e-05
1.40478e-05
1.40478e-05
1.40478e-05
1.40478e-05
1.40478e-05
1.40478e-05
1.40478e-05
1.40478e-05
1.40478e-05
1.40478e-05
1.40478e-05
1.40478e-05
1.40478e-05
1.40478e-05
1.40478e-05
1.40478e-05
1.40478e-05
1.40478e-05
1.40478e-05
1.40478e-05
1.40478e-05
1.40478e-05
1.40478e-05
1.40479e-05
1.40479e-05
1.4048e-05
1.40481e-05
1.40482e-05
1.40483e-05
1.40486e-05
1.40489e-05
1.40495e-05
1.40502e-05
1.40514e-05
1.40531e-05
1.40556e-05
1.40478e-05
1.40478e-05
1.40478e-05
1.40478e-05
1.40478e-05
1.40478e-05
1.40478e-05
1.40478e-05
1.40478e-05
1.40478e-05
1.40478e-05
1.40478e-05
1.40478e-05
1.40478e-05
1.40478e-05
1.40478e-05
1.40478e-05
1.40478e-05
1.40478e-05
1.40478e-05
1.40478e-05
1.40478e-05
1.40478e-05
1.40479e-05
1.40479e-05
1.40479e-05
1.4048e-05
1.4048e-05
1.40482e-05
1.40483e-05
1.40486e-05
1.40489e-05
1.40494e-05
1.40501e-05
1.40511e-05
1.40526e-05
1.40548e-05
1.4058e-05
1.40628e-05
1.40698e-05
1.40478e-05
1.40478e-05
1.40478e-05
1.40478e-05
1.40478e-05
1.40478e-05
1.40478e-05
1.40478e-05
1.40478e-05
1.40478e-05
1.40478e-05
1.40478e-05
1.40478e-05
1.40478e-05
1.40478e-05
1.40478e-05
1.40478e-05
1.40478e-05
1.40478e-05
1.40478e-05
1.40479e-05
1.40479e-05
1.40479e-05
1.4048e-05
1.40481e-05
1.40482e-05
1.40483e-05
1.40485e-05
1.40489e-05
1.40493e-05
1.405e-05
1.4051e-05
1.40523e-05
1.40544e-05
1.40573e-05
1.40615e-05
1.40676e-05
1.40765e-05
1.40896e-05
1.4109e-05
1.40478e-05
1.40478e-05
1.40478e-05
1.40478e-05
1.40478e-05
1.40478e-05
1.40478e-05
1.40478e-05
1.40478e-05
1.40478e-05
1.40478e-05
1.40478e-05
1.40478e-05
1.40478e-05
1.40478e-05
1.40478e-05
1.40478e-05
1.40479e-05
1.40479e-05
1.40479e-05
1.4048e-05
1.40481e-05
1.40482e-05
1.40483e-05
1.40485e-05
1.40489e-05
1.40493e-05
1.405e-05
1.40509e-05
1.40522e-05
1.4054e-05
1.40567e-05
1.40606e-05
1.40662e-05
1.40742e-05
1.40858e-05
1.41025e-05
1.41268e-05
1.41622e-05
1.42139e-05
1.40478e-05
1.40478e-05
1.40478e-05
1.40478e-05
1.40478e-05
1.40478e-05
1.40478e-05
1.40478e-05
1.40478e-05
1.40478e-05
1.40478e-05
1.40478e-05
1.40478e-05
1.40478e-05
1.40479e-05
1.40479e-05
1.40479e-05
1.4048e-05
1.40481e-05
1.40482e-05
1.40483e-05
1.40486e-05
1.40489e-05
1.40493e-05
1.40499e-05
1.40508e-05
1.40521e-05
1.40539e-05
1.40564e-05
1.406e-05
1.40652e-05
1.40726e-05
1.40832e-05
1.40983e-05
1.412e-05
1.41512e-05
1.4196e-05
1.42603e-05
1.43526e-05
1.4485e-05
1.40478e-05
1.40478e-05
1.40478e-05
1.40478e-05
1.40478e-05
1.40478e-05
1.40478e-05
1.40478e-05
1.40478e-05
1.40478e-05
1.40478e-05
1.40479e-05
1.40479e-05
1.40479e-05
1.4048e-05
1.40481e-05
1.40482e-05
1.40484e-05
1.40486e-05
1.40489e-05
1.40493e-05
1.405e-05
1.40508e-05
1.40521e-05
1.40538e-05
1.40562e-05
1.40597e-05
1.40646e-05
1.40715e-05
1.40813e-05
1.40953e-05
1.41152e-05
1.41435e-05
1.41838e-05
1.42411e-05
1.43224e-05
1.44376e-05
1.46e-05
1.48272e-05
1.51422e-05
1.40478e-05
1.40478e-05
1.40478e-05
1.40478e-05
1.40478e-05
1.40478e-05
1.40478e-05
1.40478e-05
1.40479e-05
1.40479e-05
1.40479e-05
1.4048e-05
1.4048e-05
1.40481e-05
1.40482e-05
1.40484e-05
1.40486e-05
1.4049e-05
1.40494e-05
1.405e-05
1.40509e-05
1.40521e-05
1.40538e-05
1.40562e-05
1.40595e-05
1.40642e-05
1.40708e-05
1.40801e-05
1.40933e-05
1.41118e-05
1.4138e-05
1.41749e-05
1.42271e-05
1.43006e-05
1.44039e-05
1.45484e-05
1.47493e-05
1.50259e-05
1.54019e-05
1.59036e-05
1.65567e-05
1.40478e-05
1.40478e-05
1.40478e-05
1.40478e-05
1.40478e-05
1.40479e-05
1.40479e-05
1.40479e-05
1.4048e-05
1.4048e-05
1.40481e-05
1.40483e-05
1.40484e-05
1.40487e-05
1.4049e-05
1.40495e-05
1.40501e-05
1.4051e-05
1.40522e-05
1.40539e-05
1.40563e-05
1.40596e-05
1.40642e-05
1.40706e-05
1.40795e-05
1.40921e-05
1.41096e-05
1.41342e-05
1.41687e-05
1.4217e-05
1.42846e-05
1.43789e-05
1.45101e-05
1.46914e-05
1.49399e-05
1.52764e-05
1.57247e-05
1.63097e-05
1.70538e-05
1.79715e-05
1.90598e-05
1.40478e-05
1.40478e-05
1.40479e-05
1.40479e-05
1.40479e-05
1.40479e-05
1.4048e-05
1.40481e-05
1.40482e-05
1.40483e-05
1.40485e-05
1.40488e-05
1.40491e-05
1.40496e-05
1.40503e-05
1.40512e-05
1.40524e-05
1.40542e-05
1.40565e-05
1.40598e-05
1.40644e-05
1.40707e-05
1.40795e-05
1.40916e-05
1.41085e-05
1.4132e-05
1.41647e-05
1.42101e-05
1.42733e-05
1.43609e-05
1.44819e-05
1.46482e-05
1.4875e-05
1.51811e-05
1.55882e-05
1.61195e-05
1.67965e-05
1.76353e-05
1.86404e-05
1.98007e-05
2.10845e-05
2.24446e-05
1.40479e-05
1.40479e-05
1.40479e-05
1.4048e-05
1.4048e-05
1.40481e-05
1.40482e-05
1.40484e-05
1.40486e-05
1.40489e-05
1.40493e-05
1.40498e-05
1.40505e-05
1.40514e-05
1.40527e-05
1.40545e-05
1.40569e-05
1.40603e-05
1.40649e-05
1.40712e-05
1.40799e-05
1.40919e-05
1.41084e-05
1.41312e-05
1.41627e-05
1.42062e-05
1.42661e-05
1.43487e-05
1.4462e-05
1.46168e-05
1.48269e-05
1.51092e-05
1.54837e-05
1.5972e-05
1.65952e-05
1.73701e-05
1.83048e-05
1.93929e-05
2.06105e-05
2.19169e-05
2.32534e-05
2.45385e-05
2.56927e-05
1.4048e-05
1.40481e-05
1.40482e-05
1.40483e-05
1.40485e-05
1.40487e-05
1.4049e-05
1.40494e-05
1.405e-05
1.40507e-05
1.40517e-05
1.40531e-05
1.4055e-05
1.40575e-05
1.4061e-05
1.40657e-05
1.40721e-05
1.40808e-05
1.40928e-05
1.41092e-05
1.41317e-05
1.41625e-05
1.42048e-05
1.42626e-05
1.43416e-05
1.44494e-05
1.45956e-05
1.4793e-05
1.50569e-05
1.54057e-05
1.58597e-05
1.64389e-05
1.71605e-05
1.80348e-05
1.90601e-05
2.02197e-05
2.14799e-05
2.2792e-05
2.40883e-05
2.52837e-05
2.63012e-05
2.7096e-05
2.76837e-05
1.40482e-05
1.40484e-05
1.40486e-05
1.40488e-05
1.40492e-05
1.40496e-05
1.40502e-05
1.4051e-05
1.40521e-05
1.40536e-05
1.40556e-05
1.40583e-05
1.40619e-05
1.40668e-05
1.40734e-05
1.40824e-05
1.40946e-05
1.41111e-05
1.41336e-05
1.41642e-05
1.42059e-05
1.42625e-05
1.43393e-05
1.44433e-05
1.45835e-05
1.47715e-05
1.50216e-05
1.53507e-05
1.57775e-05
1.63214e-05
1.69989e-05
1.78218e-05
1.87918e-05
1.98972e-05
2.1111e-05
2.23926e-05
2.3686e-05
2.49171e-05
2.60052e-05
2.68914e-05
2.75583e-05
2.80286e-05
2.83392e-05
2.85409e-05
1.40487e-05
1.4049e-05
1.40494e-05
1.40499e-05
1.40506e-05
1.40515e-05
1.40527e-05
1.40543e-05
1.40564e-05
1.40593e-05
1.40631e-05
1.40683e-05
1.40752e-05
1.40845e-05
1.40971e-05
1.4114e-05
1.41369e-05
1.41678e-05
1.42094e-05
1.42657e-05
1.43414e-05
1.44433e-05
1.45797e-05
1.47613e-05
1.50016e-05
1.53159e-05
1.57221e-05
1.6238e-05
1.68801e-05
1.76601e-05
1.85821e-05
1.96383e-05
2.08072e-05
2.20539e-05
2.3332e-05
2.45785e-05
2.57175e-05
2.6681e-05
2.74341e-05
2.7982e-05
2.83567e-05
2.85993e-05
2.87501e-05
2.88389e-05
2.88906e-05
1.40497e-05
1.40502e-05
1.4051e-05
1.4052e-05
1.40533e-05
1.40551e-05
1.40574e-05
1.40605e-05
1.40647e-05
1.40702e-05
1.40776e-05
1.40874e-05
1.41005e-05
1.41181e-05
1.41417e-05
1.41733e-05
1.42156e-05
1.42723e-05
1.43481e-05
1.44493e-05
1.45838e-05
1.47618e-05
1.49956e-05
1.52998e-05
1.56908e-05
1.61856e-05
1.67998e-05
1.7545e-05
1.84266e-05
1.94398e-05
2.05668e-05
2.17779e-05
2.30332e-05
2.42796e-05
2.54494e-05
2.64725e-05
2.7301e-05
2.79242e-05
2.83638e-05
2.86566e-05
2.88425e-05
2.89547e-05
2.90193e-05
2.90538e-05
2.90697e-05
2.90721e-05
1.40507e-05
1.40515e-05
1.40527e-05
1.40542e-05
1.40561e-05
1.40587e-05
1.40622e-05
1.40667e-05
1.40727e-05
1.40806e-05
1.40911e-05
1.41051e-05
1.41236e-05
1.41483e-05
1.41811e-05
1.42247e-05
1.42826e-05
1.43596e-05
1.44615e-05
1.4596e-05
1.47728e-05
1.50033e-05
1.53014e-05
1.56823e-05
1.61619e-05
1.67551e-05
1.74731e-05
1.83216e-05
1.92978e-05
2.03871e-05
2.1564e-05
2.27928e-05
2.40289e-05
2.52132e-05
2.62784e-05
2.71687e-05
2.78601e-05
2.83624e-05
2.87065e-05
2.89304e-05
2.90692e-05
2.91508e-05
2.91959e-05
2.92181e-05
2.92237e-05
2.92214e-05
2.92168e-05
2.92057e-05
1.40553e-05
1.40575e-05
1.40604e-05
1.40642e-05
1.40692e-05
1.40758e-05
1.40845e-05
1.40959e-05
1.41109e-05
1.41307e-05
1.41568e-05
1.41914e-05
1.42369e-05
1.4297e-05
1.43762e-05
1.44803e-05
1.46166e-05
1.47944e-05
1.50247e-05
1.53203e-05
1.56957e-05
1.61657e-05
1.67441e-05
1.74418e-05
1.82642e-05
1.92097e-05
2.02665e-05
2.14115e-05
2.26131e-05
2.38325e-05
2.50186e-05
2.61099e-05
2.70476e-05
2.77974e-05
2.83576e-05
2.87518e-05
2.90146e-05
2.91816e-05
2.92823e-05
2.93393e-05
2.93687e-05
2.93802e-05
2.93782e-05
2.93737e-05
2.93642e-05
2.93478e-05
2.9327e-05
2.93043e-05
1.40592e-05
1.40625e-05
1.40668e-05
1.40725e-05
1.40798e-05
1.40894e-05
1.41019e-05
1.41183e-05
1.41397e-05
1.41678e-05
1.42047e-05
1.42529e-05
1.43161e-05
1.43986e-05
1.45063e-05
1.46463e-05
1.48275e-05
1.50603e-05
1.53571e-05
1.57312e-05
1.61966e-05
1.6766e-05
1.74496e-05
1.82525e-05
1.91734e-05
2.02024e-05
2.13189e-05
2.24941e-05
2.36931e-05
2.48725e-05
2.59767e-05
2.69478e-05
2.77446e-05
2.83555e-05
2.87963e-05
2.90973e-05
2.92929e-05
2.94138e-05
2.94839e-05
2.95219e-05
2.95391e-05
2.95393e-05
2.95344e-05
2.95265e-05
2.95118e-05
2.94916e-05
2.94684e-05
2.94426e-05
2.94153e-05
2.93884e-05
1.40766e-05
1.40849e-05
1.40956e-05
1.41096e-05
1.41277e-05
1.41512e-05
1.41818e-05
1.42216e-05
1.42734e-05
1.43406e-05
1.44278e-05
1.45407e-05
1.46863e-05
1.48731e-05
1.51114e-05
1.54127e-05
1.57896e-05
1.6255e-05
1.68209e-05
1.74963e-05
1.82857e-05
1.91878e-05
2.01939e-05
2.12854e-05
2.24357e-05
2.36131e-05
2.47796e-05
2.58861e-05
2.68778e-05
2.77099e-05
2.83629e-05
2.88449e-05
2.91815e-05
2.9405e-05
2.95463e-05
2.96303e-05
2.9677e-05
2.96996e-05
2.97046e-05
2.96997e-05
2.96917e-05
2.96789e-05
2.96594e-05
2.96361e-05
2.96108e-05
2.95828e-05
2.9554e-05
2.9526e-05
2.9499e-05
2.94725e-05
1.41192e-05
1.41395e-05
1.41657e-05
1.41994e-05
1.4243e-05
1.42992e-05
1.43717e-05
1.4465e-05
1.45848e-05
1.47379e-05
1.49329e-05
1.51795e-05
1.54887e-05
1.58724e-05
1.63424e-05
1.69097e-05
1.75822e-05
1.83636e-05
1.92524e-05
2.02403e-05
2.13105e-05
2.24378e-05
2.35931e-05
2.47429e-05
2.58437e-05
2.68448e-05
2.77007e-05
2.83862e-05
2.89027e-05
2.92709e-05
2.95203e-05
2.96811e-05
2.97792e-05
2.98347e-05
2.98634e-05
2.98726e-05
2.9869e-05
2.98603e-05
2.98488e-05
2.98305e-05
2.98076e-05
2.97822e-05
2.97541e-05
2.97242e-05
2.96945e-05
2.96657e-05
2.96373e-05
2.96095e-05
2.95826e-05
2.95563e-05
1.42216e-05
1.42699e-05
1.43318e-05
1.44109e-05
1.45119e-05
1.46404e-05
1.48034e-05
1.50092e-05
1.52671e-05
1.55877e-05
1.5982e-05
1.64609e-05
1.70342e-05
1.77087e-05
1.84873e-05
1.93675e-05
2.03416e-05
2.13936e-05
2.25e-05
2.36335e-05
2.47638e-05
2.58529e-05
2.68544e-05
2.77234e-05
2.84316e-05
2.89748e-05
2.93692e-05
2.96413e-05
2.982e-05
2.99315e-05
2.99957e-05
3.003e-05
3.00437e-05
3.00419e-05
3.00332e-05
3.00213e-05
3.0005e-05
2.99821e-05
2.99564e-05
2.99287e-05
2.98984e-05
2.98673e-05
2.98368e-05
2.98069e-05
2.97774e-05
2.97486e-05
2.97203e-05
2.96924e-05
2.96653e-05
2.96387e-05
1.446e-05
1.45705e-05
1.471e-05
1.48854e-05
1.51048e-05
1.53772e-05
1.57127e-05
1.61215e-05
1.66135e-05
1.71972e-05
1.78783e-05
1.86583e-05
1.95343e-05
2.04983e-05
2.15351e-05
2.26223e-05
2.37344e-05
2.48436e-05
2.59164e-05
2.69104e-05
2.77829e-05
2.85041e-05
2.90659e-05
2.94803e-05
2.97708e-05
2.9965e-05
3.00882e-05
3.01609e-05
3.02005e-05
3.02184e-05
3.0218e-05
3.02101e-05
3.01975e-05
3.01819e-05
3.01597e-05
3.01339e-05
3.01062e-05
3.00757e-05
3.00436e-05
3.00117e-05
2.99805e-05
2.99494e-05
2.99189e-05
2.9889e-05
2.98595e-05
2.98305e-05
2.98019e-05
2.97737e-05
2.97462e-05
2.97193e-05
1.49873e-05
1.52234e-05
1.55138e-05
1.58678e-05
1.6295e-05
1.68041e-05
1.74023e-05
1.80939e-05
1.88794e-05
1.97547e-05
2.07117e-05
2.17356e-05
2.2805e-05
2.3896e-05
2.49828e-05
2.60355e-05
2.70155e-05
2.7883e-05
2.8608e-05
2.91799e-05
2.96075e-05
2.99116e-05
3.01179e-05
3.02508e-05
3.03308e-05
3.03753e-05
3.03963e-05
3.03983e-05
3.03912e-05
3.03777e-05
3.03618e-05
3.03407e-05
3.03147e-05
3.02866e-05
3.02562e-05
3.02235e-05
3.01903e-05
3.01577e-05
3.01253e-05
3.00933e-05
3.00619e-05
3.00308e-05
3.00001e-05
2.99699e-05
2.994e-05
2.99106e-05
2.98816e-05
2.98531e-05
2.98253e-05
2.9798e-05
1.6058e-05
1.65073e-05
1.70373e-05
1.76537e-05
1.83594e-05
1.91534e-05
2.0031e-05
2.09834e-05
2.19962e-05
2.30488e-05
2.41183e-05
2.51812e-05
2.62106e-05
2.71713e-05
2.80262e-05
2.87464e-05
2.93201e-05
2.97538e-05
3.00661e-05
3.02805e-05
3.04206e-05
3.05064e-05
3.05547e-05
3.05781e-05
3.05825e-05
3.05759e-05
3.05618e-05
3.05449e-05
3.05248e-05
3.04984e-05
3.04699e-05
3.04397e-05
3.04065e-05
3.03723e-05
3.03384e-05
3.03048e-05
3.02714e-05
3.02385e-05
3.0206e-05
3.01738e-05
3.01421e-05
3.01106e-05
3.00795e-05
3.00488e-05
3.00185e-05
2.99887e-05
2.99593e-05
2.99305e-05
2.99024e-05
2.98749e-05
1.79566e-05
1.86791e-05
1.94841e-05
2.03659e-05
2.13153e-05
2.23179e-05
2.33537e-05
2.44011e-05
2.54386e-05
2.64417e-05
2.73781e-05
2.82136e-05
2.8921e-05
2.94886e-05
2.99215e-05
3.02363e-05
3.04547e-05
3.0599e-05
3.06885e-05
3.07395e-05
3.07648e-05
3.07706e-05
3.07642e-05
3.07501e-05
3.0732e-05
3.07119e-05
3.06856e-05
3.06564e-05
3.06257e-05
3.05925e-05
3.05575e-05
3.05223e-05
3.04876e-05
3.0453e-05
3.04187e-05
3.03849e-05
3.03513e-05
3.0318e-05
3.02851e-05
3.02526e-05
3.02203e-05
3.01884e-05
3.01568e-05
3.01257e-05
3.0095e-05
3.00647e-05
3.0035e-05
3.00059e-05
2.99775e-05
2.99498e-05
2.07625e-05
2.17094e-05
2.27018e-05
2.37201e-05
2.47441e-05
2.57542e-05
2.67278e-05
2.76353e-05
2.84453e-05
2.91327e-05
2.96867e-05
3.01119e-05
3.04234e-05
3.06414e-05
3.07868e-05
3.08777e-05
3.09301e-05
3.09563e-05
3.09628e-05
3.09566e-05
3.09423e-05
3.09229e-05
3.09017e-05
3.08763e-05
3.08462e-05
3.08149e-05
3.07816e-05
3.07458e-05
3.07096e-05
3.06737e-05
3.0638e-05
3.06022e-05
3.05671e-05
3.05323e-05
3.04977e-05
3.04634e-05
3.04294e-05
3.03957e-05
3.03622e-05
3.03291e-05
3.02963e-05
3.02639e-05
3.02319e-05
3.02004e-05
3.01693e-05
3.01387e-05
3.01087e-05
3.00793e-05
3.00508e-05
3.00229e-05
2.41478e-05
2.51464e-05
2.61267e-05
2.70676e-05
2.79416e-05
2.87201e-05
2.93808e-05
2.99144e-05
3.03255e-05
3.06282e-05
3.08415e-05
3.09847e-05
3.10747e-05
3.11268e-05
3.11529e-05
3.11592e-05
3.11529e-05
3.11382e-05
3.11174e-05
3.10953e-05
3.10697e-05
3.10388e-05
3.10068e-05
3.09733e-05
3.09371e-05
3.08999e-05
3.08629e-05
3.0826e-05
3.07892e-05
3.07527e-05
3.07167e-05
3.06807e-05
3.06451e-05
3.06098e-05
3.05747e-05
3.05398e-05
3.05053e-05
3.0471e-05
3.0437e-05
3.04034e-05
3.03701e-05
3.03373e-05
3.03049e-05
3.0273e-05
3.02416e-05
3.02107e-05
3.01805e-05
3.01509e-05
3.01222e-05
3.00941e-05
2.74587e-05
2.82946e-05
2.9036e-05
2.96637e-05
3.01705e-05
3.05616e-05
3.08506e-05
3.1055e-05
3.11928e-05
3.12796e-05
3.13299e-05
3.13548e-05
3.136e-05
3.13532e-05
3.13373e-05
3.13157e-05
3.12922e-05
3.12662e-05
3.12346e-05
3.12018e-05
3.11677e-05
3.11311e-05
3.1093e-05
3.10549e-05
3.1017e-05
3.09791e-05
3.09414e-05
3.09042e-05
3.08671e-05
3.08302e-05
3.07936e-05
3.07571e-05
3.0721e-05
3.0685e-05
3.06493e-05
3.06139e-05
3.05788e-05
3.0544e-05
3.05095e-05
3.04754e-05
3.04417e-05
3.04085e-05
3.03757e-05
3.03435e-05
3.03118e-05
3.02807e-05
3.02503e-05
3.02205e-05
3.01917e-05
3.01636e-05
2.99787e-05
3.04531e-05
3.08191e-05
3.10899e-05
3.12817e-05
3.14112e-05
3.14925e-05
3.15394e-05
3.1562e-05
3.15653e-05
3.15574e-05
3.15403e-05
3.15175e-05
3.14926e-05
3.14652e-05
3.14338e-05
3.13997e-05
3.13649e-05
3.13278e-05
3.12889e-05
3.12498e-05
3.1211e-05
3.1172e-05
3.11331e-05
3.10946e-05
3.10564e-05
3.10183e-05
3.09805e-05
3.09429e-05
3.09054e-05
3.08682e-05
3.08312e-05
3.07944e-05
3.07579e-05
3.07216e-05
3.06857e-05
3.065e-05
3.06147e-05
3.05798e-05
3.05453e-05
3.05112e-05
3.04776e-05
3.04445e-05
3.0412e-05
3.038e-05
3.03487e-05
3.03181e-05
3.02883e-05
3.02593e-05
3.02312e-05
3.13445e-05
3.15206e-05
3.1639e-05
3.17131e-05
3.17552e-05
3.17745e-05
3.17749e-05
3.17655e-05
3.1747e-05
3.17228e-05
3.16962e-05
3.16676e-05
3.16357e-05
3.16005e-05
3.15647e-05
3.15272e-05
3.14875e-05
3.14475e-05
3.14076e-05
3.13677e-05
3.13277e-05
3.12881e-05
3.12488e-05
3.12095e-05
3.11705e-05
3.11317e-05
3.10931e-05
3.10546e-05
3.10164e-05
3.09783e-05
3.09404e-05
3.09028e-05
3.08654e-05
3.08283e-05
3.07915e-05
3.07551e-05
3.07189e-05
3.06832e-05
3.06478e-05
3.06129e-05
3.05785e-05
3.05446e-05
3.05112e-05
3.04784e-05
3.04463e-05
3.04148e-05
3.03841e-05
3.03541e-05
3.03251e-05
3.02969e-05
3.19408e-05
3.19768e-05
3.19914e-05
3.19891e-05
3.19774e-05
3.1957e-05
3.19309e-05
3.1903e-05
3.18731e-05
3.18401e-05
3.1804e-05
3.17672e-05
3.17291e-05
3.16887e-05
3.16477e-05
3.16068e-05
3.15659e-05
3.15249e-05
3.14842e-05
3.14438e-05
3.14035e-05
3.13633e-05
3.13234e-05
3.12836e-05
3.1244e-05
3.12046e-05
3.11653e-05
3.11262e-05
3.10873e-05
3.10486e-05
3.10102e-05
3.0972e-05
3.0934e-05
3.08964e-05
3.08591e-05
3.08222e-05
3.07856e-05
3.07494e-05
3.07137e-05
3.06784e-05
3.06437e-05
3.06095e-05
3.05759e-05
3.05429e-05
3.05105e-05
3.04789e-05
3.04481e-05
3.04181e-05
3.0389e-05
3.03609e-05
3.22074e-05
3.21927e-05
3.21699e-05
3.21422e-05
3.21128e-05
3.20814e-05
3.20468e-05
3.20102e-05
3.19722e-05
3.19332e-05
3.18922e-05
3.18502e-05
3.18084e-05
3.17667e-05
3.17247e-05
3.1683e-05
3.16415e-05
3.16001e-05
3.15589e-05
3.15179e-05
3.1477e-05
3.14363e-05
3.13957e-05
3.13553e-05
3.1315e-05
3.12749e-05
3.1235e-05
3.11953e-05
3.11558e-05
3.11165e-05
3.10775e-05
3.10387e-05
3.10003e-05
3.09622e-05
3.09244e-05
3.0887e-05
3.085e-05
3.08135e-05
3.07774e-05
3.07418e-05
3.07068e-05
3.06724e-05
3.06385e-05
3.06053e-05
3.05729e-05
3.05411e-05
3.05102e-05
3.04801e-05
3.04511e-05
3.04229e-05
3.23857e-05
3.23563e-05
3.23253e-05
3.22923e-05
3.22563e-05
3.22188e-05
3.21796e-05
3.21394e-05
3.20979e-05
3.20551e-05
3.20124e-05
3.19697e-05
3.19268e-05
3.1884e-05
3.18416e-05
3.17993e-05
3.1757e-05
3.1715e-05
3.16731e-05
3.16312e-05
3.15896e-05
3.1548e-05
3.15066e-05
3.14654e-05
3.14243e-05
3.13834e-05
3.13427e-05
3.13021e-05
3.12618e-05
3.12218e-05
3.11819e-05
3.11424e-05
3.11032e-05
3.10642e-05
3.10257e-05
3.09875e-05
3.09497e-05
3.09123e-05
3.08754e-05
3.0839e-05
3.08032e-05
3.07679e-05
3.07332e-05
3.06991e-05
3.06658e-05
3.06332e-05
3.06013e-05
3.05704e-05
3.05402e-05
3.05112e-05
3.0483e-05
3.25055e-05
3.24681e-05
3.24294e-05
3.23894e-05
3.2348e-05
3.23057e-05
3.22621e-05
3.22184e-05
3.21749e-05
3.21312e-05
3.20874e-05
3.2044e-05
3.20008e-05
3.19575e-05
3.19144e-05
3.18715e-05
3.18287e-05
3.1786e-05
3.17434e-05
3.17009e-05
3.16586e-05
3.16164e-05
3.15744e-05
3.15325e-05
3.14908e-05
3.14493e-05
3.14079e-05
3.13668e-05
3.1326e-05
3.12854e-05
3.1245e-05
3.1205e-05
3.11653e-05
3.11259e-05
3.10869e-05
3.10483e-05
3.10102e-05
3.09724e-05
3.09352e-05
3.08985e-05
3.08624e-05
3.08269e-05
3.0792e-05
3.07578e-05
3.07242e-05
3.06915e-05
3.06596e-05
3.06285e-05
3.05984e-05
3.05693e-05
3.05412e-05
3.2642e-05
3.26011e-05
3.25587e-05
3.25152e-05
3.24711e-05
3.24264e-05
3.23821e-05
3.23376e-05
3.22929e-05
3.22486e-05
3.22044e-05
3.21602e-05
3.21161e-05
3.20723e-05
3.20285e-05
3.19848e-05
3.19412e-05
3.18977e-05
3.18544e-05
3.18111e-05
3.1768e-05
3.1725e-05
3.16822e-05
3.16396e-05
3.15971e-05
3.15548e-05
3.15127e-05
3.14708e-05
3.14291e-05
3.13877e-05
3.13466e-05
3.13058e-05
3.12653e-05
3.12251e-05
3.11853e-05
3.1146e-05
3.1107e-05
3.10685e-05
3.10304e-05
3.09929e-05
3.09559e-05
3.09196e-05
3.08838e-05
3.08487e-05
3.08143e-05
3.07807e-05
3.07478e-05
3.07158e-05
3.06847e-05
3.06545e-05
3.06254e-05
3.05972e-05
3.27267e-05
3.26817e-05
3.26363e-05
3.2591e-05
3.25458e-05
3.25003e-05
3.24551e-05
3.24101e-05
3.23649e-05
3.23199e-05
3.22752e-05
3.22305e-05
3.21858e-05
3.21413e-05
3.20968e-05
3.20525e-05
3.20083e-05
3.19641e-05
3.19201e-05
3.18762e-05
3.18325e-05
3.17889e-05
3.17455e-05
3.17022e-05
3.16591e-05
3.16163e-05
3.15736e-05
3.15312e-05
3.1489e-05
3.14471e-05
3.14055e-05
3.13643e-05
3.13233e-05
3.12827e-05
3.12426e-05
3.12028e-05
3.11635e-05
3.11246e-05
3.10863e-05
3.10485e-05
3.10112e-05
3.09746e-05
3.09386e-05
3.09033e-05
3.08688e-05
3.0835e-05
3.0802e-05
3.07699e-05
3.07387e-05
3.07084e-05
3.06793e-05
3.06511e-05
3.28017e-05
3.27556e-05
3.27094e-05
3.26633e-05
3.26174e-05
3.25715e-05
3.25257e-05
3.248e-05
3.24344e-05
3.23888e-05
3.23434e-05
3.22981e-05
3.22528e-05
3.22076e-05
3.21625e-05
3.21175e-05
3.20727e-05
3.20279e-05
3.19833e-05
3.19388e-05
3.18944e-05
3.18502e-05
3.18062e-05
3.17624e-05
3.17188e-05
3.16753e-05
3.16322e-05
3.15892e-05
3.15466e-05
3.15042e-05
3.14622e-05
3.14205e-05
3.13791e-05
3.13381e-05
3.12976e-05
3.12574e-05
3.12178e-05
3.11786e-05
3.114e-05
3.11019e-05
3.10644e-05
3.10275e-05
3.09913e-05
3.09559e-05
3.09211e-05
3.08872e-05
3.0854e-05
3.08218e-05
3.07905e-05
3.07602e-05
3.0731e-05
3.07027e-05
3.28731e-05
3.28264e-05
3.27797e-05
3.2733e-05
3.26866e-05
3.26401e-05
3.25937e-05
3.25475e-05
3.25012e-05
3.24551e-05
3.2409e-05
3.2363e-05
3.23171e-05
3.22713e-05
3.22255e-05
3.21799e-05
3.21344e-05
3.20891e-05
3.20438e-05
3.19988e-05
3.19538e-05
3.19091e-05
3.18645e-05
3.18201e-05
3.1776e-05
3.17321e-05
3.16884e-05
3.1645e-05
3.16019e-05
3.1559e-05
3.15166e-05
3.14744e-05
3.14327e-05
3.13913e-05
3.13504e-05
3.13099e-05
3.12699e-05
3.12304e-05
3.11915e-05
3.11531e-05
3.11154e-05
3.10783e-05
3.10419e-05
3.10062e-05
3.09712e-05
3.09371e-05
3.09038e-05
3.08715e-05
3.084e-05
3.08096e-05
3.07803e-05
3.07519e-05
3.29419e-05
3.28947e-05
3.28475e-05
3.28002e-05
3.27532e-05
3.27061e-05
3.26591e-05
3.26122e-05
3.25654e-05
3.25186e-05
3.24719e-05
3.24253e-05
3.23787e-05
3.23323e-05
3.2286e-05
3.22398e-05
3.21937e-05
3.21477e-05
3.21019e-05
3.20563e-05
3.20108e-05
3.19655e-05
3.19204e-05
3.18755e-05
3.18308e-05
3.17864e-05
3.17423e-05
3.16984e-05
3.16548e-05
3.16116e-05
3.15687e-05
3.15261e-05
3.1484e-05
3.14423e-05
3.1401e-05
3.13602e-05
3.13198e-05
3.128e-05
3.12408e-05
3.12022e-05
3.11641e-05
3.11268e-05
3.10901e-05
3.10542e-05
3.10191e-05
3.09847e-05
3.09513e-05
3.09187e-05
3.08871e-05
3.08565e-05
3.08271e-05
3.07986e-05
3.30082e-05
3.29604e-05
3.29126e-05
3.28648e-05
3.28171e-05
3.27694e-05
3.27218e-05
3.26743e-05
3.26268e-05
3.25794e-05
3.25321e-05
3.24849e-05
3.24378e-05
3.23908e-05
3.23438e-05
3.22971e-05
3.22504e-05
3.22039e-05
3.21575e-05
3.21113e-05
3.20653e-05
3.20195e-05
3.19739e-05
3.19285e-05
3.18834e-05
3.18385e-05
3.17939e-05
3.17495e-05
3.17055e-05
3.16619e-05
3.16185e-05
3.15756e-05
3.15331e-05
3.1491e-05
3.14493e-05
3.14082e-05
3.13675e-05
3.13274e-05
3.12878e-05
3.12489e-05
3.12106e-05
3.1173e-05
3.1136e-05
3.10999e-05
3.10645e-05
3.10299e-05
3.09963e-05
3.09635e-05
3.09317e-05
3.09009e-05
3.08713e-05
3.08426e-05
3.30718e-05
3.30234e-05
3.2975e-05
3.29266e-05
3.28783e-05
3.283e-05
3.27818e-05
3.27337e-05
3.26857e-05
3.26377e-05
3.25898e-05
3.2542e-05
3.24943e-05
3.24467e-05
3.23992e-05
3.23519e-05
3.23047e-05
3.22576e-05
3.22107e-05
3.2164e-05
3.21175e-05
3.20712e-05
3.20251e-05
3.19792e-05
3.19336e-05
3.18882e-05
3.18432e-05
3.17984e-05
3.1754e-05
3.17099e-05
3.16661e-05
3.16228e-05
3.15799e-05
3.15374e-05
3.14954e-05
3.14539e-05
3.14129e-05
3.13724e-05
3.13325e-05
3.12933e-05
3.12547e-05
3.12167e-05
3.11795e-05
3.11431e-05
3.11074e-05
3.10726e-05
3.10387e-05
3.10057e-05
3.09736e-05
3.09426e-05
3.09127e-05
3.08838e-05
3.30837e-05
3.30347e-05
3.29858e-05
3.29369e-05
3.2888e-05
3.28393e-05
3.27906e-05
3.27419e-05
3.26934e-05
3.26449e-05
3.25966e-05
3.25483e-05
3.25002e-05
3.24521e-05
3.24043e-05
3.23565e-05
3.23089e-05
3.22615e-05
3.22143e-05
3.21673e-05
3.21205e-05
3.20739e-05
3.20275e-05
3.19815e-05
3.19356e-05
3.18901e-05
3.18449e-05
3.18001e-05
3.17555e-05
3.17114e-05
3.16677e-05
3.16244e-05
3.15815e-05
3.15391e-05
3.14972e-05
3.14558e-05
3.1415e-05
3.13748e-05
3.13352e-05
3.12963e-05
3.1258e-05
3.12205e-05
3.11837e-05
3.11478e-05
3.11126e-05
3.10784e-05
3.10451e-05
3.10127e-05
3.09814e-05
3.09512e-05
3.09219e-05
3.31414e-05
3.30918e-05
3.30423e-05
3.29928e-05
3.29434e-05
3.28941e-05
3.28448e-05
3.27957e-05
3.27466e-05
3.26976e-05
3.26487e-05
3.25999e-05
3.25512e-05
3.25026e-05
3.24542e-05
3.2406e-05
3.23579e-05
3.231e-05
3.22623e-05
3.22147e-05
3.21674e-05
3.21204e-05
3.20736e-05
3.2027e-05
3.19807e-05
3.19348e-05
3.18891e-05
3.18438e-05
3.17989e-05
3.17543e-05
3.17102e-05
3.16664e-05
3.16232e-05
3.15804e-05
3.15381e-05
3.14964e-05