/*--------------------------------*- C++ -*----------------------------------*\
| =========                 |                                                 |
| \\      /  F ield         | OpenFOAM: The Open Source CFD Toolbox           |
|  \\    /   O peration     | Version:  v1706                                 |
|   \\  /    A nd           | Web:      www.OpenFOAM.com                      |
|    \\/     M anipulation  |                                                 |
\*---------------------------------------------------------------------------*/
FoamFile
{
    version     2.0;
    format      ascii;
    class       volScalarField;
    location    "3.3e-05";
    object      kappave;
}
// * * * * * * * * * * * * * * * * * * * * * * * * * * * * * * * * * * * * * //

dimensions      [1 1 -3 -1 0 0 0];


internalField   nonuniform List<scalar> 
30038
(
1.46038e-10
1.46038e-10
1.46038e-10
1.46038e-10
1.46038e-10
1.46038e-10
1.46038e-10
1.46038e-10
1.46038e-10
1.46038e-10
1.46038e-10
1.46038e-10
1.46038e-10
1.46038e-10
1.46038e-10
1.46038e-10
1.46038e-10
1.46038e-10
1.46038e-10
1.46038e-10
1.46038e-10
1.46038e-10
1.46038e-10
1.46038e-10
1.46038e-10
1.46038e-10
1.46038e-10
1.46038e-10
1.46038e-10
1.46038e-10
1.46038e-10
1.46038e-10
1.46038e-10
1.46038e-10
1.46038e-10
1.46038e-10
1.46038e-10
1.46038e-10
1.46038e-10
1.46038e-10
1.46038e-10
1.46038e-10
1.46038e-10
1.46038e-10
1.46038e-10
1.46038e-10
1.46038e-10
1.46038e-10
1.46038e-10
1.46038e-10
1.46038e-10
1.46038e-10
1.46038e-10
1.46038e-10
1.46038e-10
1.46038e-10
1.46038e-10
1.46038e-10
1.46038e-10
1.46038e-10
1.46038e-10
1.46038e-10
1.46038e-10
1.46038e-10
1.46038e-10
1.46038e-10
1.46038e-10
1.46038e-10
1.46038e-10
1.46038e-10
1.46038e-10
1.46038e-10
1.46038e-10
1.46038e-10
1.46038e-10
1.46038e-10
1.46038e-10
1.46038e-10
1.46038e-10
1.46038e-10
1.46038e-10
1.46038e-10
1.46038e-10
1.46038e-10
1.46038e-10
1.46038e-10
1.46038e-10
1.46038e-10
1.46038e-10
1.46038e-10
1.46038e-10
1.46038e-10
1.46038e-10
1.46038e-10
1.46038e-10
1.46038e-10
1.46038e-10
1.46038e-10
1.46038e-10
1.46038e-10
1.46038e-10
1.46038e-10
1.46038e-10
1.46038e-10
1.46038e-10
1.46038e-10
1.46038e-10
1.46038e-10
1.46038e-10
1.46038e-10
1.46038e-10
1.46038e-10
1.46038e-10
1.46038e-10
1.46038e-10
1.46038e-10
1.46038e-10
1.46038e-10
1.46038e-10
1.46038e-10
1.46038e-10
1.46038e-10
1.46038e-10
1.46038e-10
1.46038e-10
1.46038e-10
1.46038e-10
1.46038e-10
1.46038e-10
1.46038e-10
1.46038e-10
1.46038e-10
1.46038e-10
1.46038e-10
1.46038e-10
1.46038e-10
1.46038e-10
1.46038e-10
1.46038e-10
1.46038e-10
1.46038e-10
1.46038e-10
1.46038e-10
1.46038e-10
1.46038e-10
1.46038e-10
1.46038e-10
1.46038e-10
1.46038e-10
1.46038e-10
1.46038e-10
1.46038e-10
1.46038e-10
1.46038e-10
1.46038e-10
1.46038e-10
1.46038e-10
1.46038e-10
1.46038e-10
1.46038e-10
1.46038e-10
1.46038e-10
1.46038e-10
1.46038e-10
1.46038e-10
1.46038e-10
1.46038e-10
1.46038e-10
1.46038e-10
1.46038e-10
1.46038e-10
1.46038e-10
1.46038e-10
1.46038e-10
1.46038e-10
1.46038e-10
1.46038e-10
1.46038e-10
1.46038e-10
1.46038e-10
1.46038e-10
1.46038e-10
1.46038e-10
1.46038e-10
1.46038e-10
1.46038e-10
1.46038e-10
1.46038e-10
1.46038e-10
1.46038e-10
1.46038e-10
1.46038e-10
1.46038e-10
1.46038e-10
1.46038e-10
1.46038e-10
1.46038e-10
1.46038e-10
1.46038e-10
1.46038e-10
1.46038e-10
1.46038e-10
1.46038e-10
1.46038e-10
1.46038e-10
1.46038e-10
1.46038e-10
1.46038e-10
1.46038e-10
1.46038e-10
1.46038e-10
1.46038e-10
1.46038e-10
1.46038e-10
1.46038e-10
1.46038e-10
1.46038e-10
1.46038e-10
1.46038e-10
1.46038e-10
1.46038e-10
1.46038e-10
1.46038e-10
1.46038e-10
1.46038e-10
1.46038e-10
1.46038e-10
1.46038e-10
1.46038e-10
1.46038e-10
1.46038e-10
1.46038e-10
1.46038e-10
1.46038e-10
1.46038e-10
1.46038e-10
1.46038e-10
1.46038e-10
1.46038e-10
1.46038e-10
1.46038e-10
1.46038e-10
1.46038e-10
1.46038e-10
1.46038e-10
1.46038e-10
1.46038e-10
1.46038e-10
1.46038e-10
1.46038e-10
1.46038e-10
1.46038e-10
1.46038e-10
1.46038e-10
1.46038e-10
1.46038e-10
1.46038e-10
1.46038e-10
1.46038e-10
1.46038e-10
1.46038e-10
1.46038e-10
1.46038e-10
1.46038e-10
1.46038e-10
1.46038e-10
1.46038e-10
1.46038e-10
1.46038e-10
1.46038e-10
1.46038e-10
1.46038e-10
1.46038e-10
1.46038e-10
1.46038e-10
1.46038e-10
1.46038e-10
1.46038e-10
1.46038e-10
1.46038e-10
1.46038e-10
1.46038e-10
1.46038e-10
1.46038e-10
1.46038e-10
1.46038e-10
1.46038e-10
1.46038e-10
1.46038e-10
1.46038e-10
1.46038e-10
1.46038e-10
1.46038e-10
1.46038e-10
1.46038e-10
1.46038e-10
1.46038e-10
1.46038e-10
1.46038e-10
1.46038e-10
1.46038e-10
1.46038e-10
1.46038e-10
1.46038e-10
1.46038e-10
1.46038e-10
1.46038e-10
1.46038e-10
1.46038e-10
1.46038e-10
1.46038e-10
1.46038e-10
1.46038e-10
1.46038e-10
1.46038e-10
1.46038e-10
1.46038e-10
1.46038e-10
1.46038e-10
1.46038e-10
1.46038e-10
1.46038e-10
1.46038e-10
1.46038e-10
1.46038e-10
1.46038e-10
1.46038e-10
1.46038e-10
1.46038e-10
1.46038e-10
1.46038e-10
1.46038e-10
1.46038e-10
1.46038e-10
1.46038e-10
1.46038e-10
1.46038e-10
1.46038e-10
1.46038e-10
1.46038e-10
1.46038e-10
1.46038e-10
1.46039e-10
1.46038e-10
1.46038e-10
1.46038e-10
1.46038e-10
1.46038e-10
1.46038e-10
1.46038e-10
1.46038e-10
1.46038e-10
1.46038e-10
1.46038e-10
1.46038e-10
1.46038e-10
1.46038e-10
1.46038e-10
1.46038e-10
1.46038e-10
1.46038e-10
1.46038e-10
1.46038e-10
1.46038e-10
1.46038e-10
1.46038e-10
1.46038e-10
1.46038e-10
1.46038e-10
1.46038e-10
1.46038e-10
1.46038e-10
1.46038e-10
1.46038e-10
1.46038e-10
1.46038e-10
1.46038e-10
1.46038e-10
1.46039e-10
1.46039e-10
1.4604e-10
1.46041e-10
1.46038e-10
1.46038e-10
1.46038e-10
1.46038e-10
1.46038e-10
1.46038e-10
1.46038e-10
1.46038e-10
1.46038e-10
1.46038e-10
1.46038e-10
1.46038e-10
1.46038e-10
1.46038e-10
1.46038e-10
1.46038e-10
1.46038e-10
1.46038e-10
1.46038e-10
1.46038e-10
1.46038e-10
1.46038e-10
1.46038e-10
1.46038e-10
1.46038e-10
1.46038e-10
1.46038e-10
1.46038e-10
1.46038e-10
1.46038e-10
1.46038e-10
1.46038e-10
1.46039e-10
1.46039e-10
1.4604e-10
1.46041e-10
1.46042e-10
1.46044e-10
1.46047e-10
1.46038e-10
1.46038e-10
1.46038e-10
1.46038e-10
1.46038e-10
1.46038e-10
1.46038e-10
1.46038e-10
1.46038e-10
1.46038e-10
1.46038e-10
1.46038e-10
1.46038e-10
1.46038e-10
1.46038e-10
1.46038e-10
1.46038e-10
1.46038e-10
1.46038e-10
1.46038e-10
1.46038e-10
1.46038e-10
1.46038e-10
1.46038e-10
1.46038e-10
1.46038e-10
1.46038e-10
1.46038e-10
1.46038e-10
1.46038e-10
1.46039e-10
1.46039e-10
1.4604e-10
1.4604e-10
1.46042e-10
1.46044e-10
1.46046e-10
1.46051e-10
1.46057e-10
1.46066e-10
1.46038e-10
1.46038e-10
1.46038e-10
1.46038e-10
1.46038e-10
1.46038e-10
1.46038e-10
1.46038e-10
1.46038e-10
1.46038e-10
1.46038e-10
1.46038e-10
1.46038e-10
1.46038e-10
1.46038e-10
1.46038e-10
1.46038e-10
1.46038e-10
1.46038e-10
1.46038e-10
1.46038e-10
1.46038e-10
1.46038e-10
1.46038e-10
1.46038e-10
1.46038e-10
1.46038e-10
1.46039e-10
1.46039e-10
1.4604e-10
1.4604e-10
1.46042e-10
1.46043e-10
1.46046e-10
1.4605e-10
1.46055e-10
1.46063e-10
1.46075e-10
1.46092e-10
1.46119e-10
1.46038e-10
1.46038e-10
1.46038e-10
1.46038e-10
1.46038e-10
1.46038e-10
1.46038e-10
1.46038e-10
1.46038e-10
1.46038e-10
1.46038e-10
1.46038e-10
1.46038e-10
1.46038e-10
1.46038e-10
1.46038e-10
1.46038e-10
1.46038e-10
1.46038e-10
1.46038e-10
1.46038e-10
1.46038e-10
1.46038e-10
1.46038e-10
1.46039e-10
1.46039e-10
1.4604e-10
1.4604e-10
1.46042e-10
1.46043e-10
1.46046e-10
1.46049e-10
1.46054e-10
1.46062e-10
1.46072e-10
1.46088e-10
1.46111e-10
1.46144e-10
1.46193e-10
1.46267e-10
1.46038e-10
1.46038e-10
1.46038e-10
1.46038e-10
1.46038e-10
1.46038e-10
1.46038e-10
1.46038e-10
1.46038e-10
1.46038e-10
1.46038e-10
1.46038e-10
1.46038e-10
1.46038e-10
1.46038e-10
1.46038e-10
1.46038e-10
1.46038e-10
1.46038e-10
1.46038e-10
1.46038e-10
1.46039e-10
1.46039e-10
1.4604e-10
1.4604e-10
1.46042e-10
1.46043e-10
1.46046e-10
1.46049e-10
1.46054e-10
1.46061e-10
1.46071e-10
1.46085e-10
1.46106e-10
1.46136e-10
1.4618e-10
1.46243e-10
1.46336e-10
1.46472e-10
1.46674e-10
1.46038e-10
1.46038e-10
1.46038e-10
1.46038e-10
1.46038e-10
1.46038e-10
1.46038e-10
1.46038e-10
1.46038e-10
1.46038e-10
1.46038e-10
1.46038e-10
1.46038e-10
1.46038e-10
1.46038e-10
1.46038e-10
1.46038e-10
1.46038e-10
1.46039e-10
1.46039e-10
1.4604e-10
1.46041e-10
1.46042e-10
1.46043e-10
1.46046e-10
1.46049e-10
1.46054e-10
1.4606e-10
1.4607e-10
1.46083e-10
1.46103e-10
1.46131e-10
1.46171e-10
1.46229e-10
1.46312e-10
1.46433e-10
1.46607e-10
1.4686e-10
1.47227e-10
1.47764e-10
1.46038e-10
1.46038e-10
1.46038e-10
1.46038e-10
1.46038e-10
1.46038e-10
1.46038e-10
1.46038e-10
1.46038e-10
1.46038e-10
1.46038e-10
1.46038e-10
1.46038e-10
1.46038e-10
1.46038e-10
1.46039e-10
1.46039e-10
1.4604e-10
1.46041e-10
1.46042e-10
1.46043e-10
1.46046e-10
1.46049e-10
1.46054e-10
1.4606e-10
1.46069e-10
1.46082e-10
1.46101e-10
1.46127e-10
1.46165e-10
1.46219e-10
1.46295e-10
1.46405e-10
1.46563e-10
1.46789e-10
1.47113e-10
1.47579e-10
1.48247e-10
1.49207e-10
1.50584e-10
1.46038e-10
1.46038e-10
1.46038e-10
1.46038e-10
1.46038e-10
1.46038e-10
1.46038e-10
1.46038e-10
1.46038e-10
1.46038e-10
1.46038e-10
1.46039e-10
1.46039e-10
1.46039e-10
1.4604e-10
1.46041e-10
1.46042e-10
1.46044e-10
1.46046e-10
1.46049e-10
1.46054e-10
1.4606e-10
1.46069e-10
1.46082e-10
1.461e-10
1.46125e-10
1.46161e-10
1.46212e-10
1.46284e-10
1.46386e-10
1.46532e-10
1.46739e-10
1.47033e-10
1.47452e-10
1.48047e-10
1.48893e-10
1.50091e-10
1.51779e-10
1.54142e-10
1.57418e-10
1.46038e-10
1.46038e-10
1.46038e-10
1.46038e-10
1.46038e-10
1.46038e-10
1.46038e-10
1.46038e-10
1.46038e-10
1.46039e-10
1.46039e-10
1.46039e-10
1.4604e-10
1.46041e-10
1.46042e-10
1.46044e-10
1.46046e-10
1.4605e-10
1.46054e-10
1.46061e-10
1.4607e-10
1.46083e-10
1.461e-10
1.46125e-10
1.4616e-10
1.46209e-10
1.46277e-10
1.46374e-10
1.46511e-10
1.46703e-10
1.46975e-10
1.47359e-10
1.47902e-10
1.48666e-10
1.4974e-10
1.51243e-10
1.53333e-10
1.56209e-10
1.60119e-10
1.65338e-10
1.72134e-10
1.46038e-10
1.46038e-10
1.46038e-10
1.46038e-10
1.46038e-10
1.46038e-10
1.46039e-10
1.46039e-10
1.4604e-10
1.4604e-10
1.46041e-10
1.46043e-10
1.46045e-10
1.46047e-10
1.46051e-10
1.46055e-10
1.46062e-10
1.46071e-10
1.46084e-10
1.46102e-10
1.46126e-10
1.4616e-10
1.46208e-10
1.46275e-10
1.46368e-10
1.46498e-10
1.4668e-10
1.46936e-10
1.47295e-10
1.47797e-10
1.485e-10
1.49481e-10
1.50845e-10
1.52731e-10
1.55315e-10
1.58815e-10
1.63478e-10
1.69564e-10
1.77308e-10
1.86861e-10
1.98195e-10
1.46038e-10
1.46038e-10
1.46038e-10
1.46039e-10
1.46039e-10
1.46039e-10
1.4604e-10
1.46041e-10
1.46042e-10
1.46043e-10
1.46045e-10
1.46048e-10
1.46052e-10
1.46057e-10
1.46064e-10
1.46073e-10
1.46086e-10
1.46104e-10
1.46129e-10
1.46163e-10
1.4621e-10
1.46276e-10
1.46367e-10
1.46493e-10
1.46669e-10
1.46913e-10
1.47253e-10
1.47726e-10
1.48382e-10
1.49293e-10
1.50551e-10
1.52281e-10
1.5464e-10
1.57824e-10
1.62059e-10
1.67587e-10
1.74632e-10
1.83364e-10
1.93831e-10
2.05922e-10
2.1931e-10
2.33513e-10
1.46039e-10
1.46039e-10
1.46039e-10
1.4604e-10
1.4604e-10
1.46041e-10
1.46042e-10
1.46044e-10
1.46046e-10
1.46049e-10
1.46053e-10
1.46058e-10
1.46066e-10
1.46075e-10
1.46089e-10
1.46108e-10
1.46133e-10
1.46168e-10
1.46215e-10
1.46281e-10
1.46371e-10
1.46496e-10
1.46668e-10
1.46905e-10
1.47232e-10
1.47684e-10
1.48308e-10
1.49166e-10
1.50345e-10
1.51955e-10
1.5414e-10
1.57077e-10
1.60973e-10
1.66054e-10
1.72539e-10
1.80607e-10
1.9034e-10
2.01679e-10
2.14377e-10
2.28017e-10
2.41996e-10
2.55471e-10
2.67632e-10
1.4604e-10
1.46041e-10
1.46042e-10
1.46043e-10
1.46045e-10
1.46047e-10
1.4605e-10
1.46055e-10
1.4606e-10
1.46068e-10
1.46079e-10
1.46093e-10
1.46112e-10
1.46139e-10
1.46175e-10
1.46224e-10
1.4629e-10
1.46381e-10
1.46506e-10
1.46677e-10
1.4691e-10
1.47231e-10
1.4767e-10
1.48271e-10
1.49093e-10
1.50214e-10
1.51735e-10
1.53788e-10
1.56533e-10
1.60162e-10
1.64886e-10
1.70915e-10
1.78428e-10
1.87533e-10
1.98218e-10
2.10313e-10
2.2347e-10
2.37192e-10
2.50781e-10
2.6336e-10
2.74137e-10
2.82658e-10
2.89108e-10
1.46042e-10
1.46044e-10
1.46046e-10
1.46049e-10
1.46052e-10
1.46057e-10
1.46063e-10
1.46072e-10
1.46083e-10
1.46098e-10
1.46119e-10
1.46147e-10
1.46184e-10
1.46235e-10
1.46304e-10
1.46397e-10
1.46524e-10
1.46696e-10
1.4693e-10
1.47248e-10
1.47681e-10
1.4827e-10
1.49069e-10
1.5015e-10
1.51609e-10
1.53565e-10
1.56167e-10
1.5959e-10
1.64033e-10
1.69693e-10
1.76748e-10
1.8532e-10
1.9543e-10
2.0696e-10
2.19635e-10
2.33039e-10
2.46596e-10
2.59545e-10
2.71055e-10
2.80522e-10
2.87778e-10
2.93071e-10
2.96811e-10
2.99571e-10
1.46047e-10
1.4605e-10
1.46054e-10
1.4606e-10
1.46067e-10
1.46076e-10
1.46088e-10
1.46105e-10
1.46127e-10
1.46157e-10
1.46197e-10
1.46251e-10
1.46323e-10
1.4642e-10
1.4655e-10
1.46726e-10
1.46964e-10
1.47285e-10
1.47719e-10
1.48303e-10
1.49091e-10
1.50151e-10
1.51569e-10
1.53459e-10
1.55959e-10
1.5923e-10
1.63457e-10
1.68828e-10
1.75515e-10
1.83641e-10
1.93252e-10
2.04271e-10
2.1648e-10
2.2952e-10
2.42919e-10
2.56029e-10
2.68069e-10
2.78342e-10
2.86495e-10
2.92596e-10
2.96995e-10
3.00143e-10
3.02487e-10
3.04381e-10
3.0617e-10
1.46057e-10
1.46063e-10
1.46071e-10
1.46081e-10
1.46095e-10
1.46114e-10
1.46138e-10
1.4617e-10
1.46213e-10
1.46271e-10
1.46347e-10
1.46449e-10
1.46586e-10
1.46769e-10
1.47014e-10
1.47343e-10
1.47783e-10
1.48373e-10
1.49161e-10
1.50214e-10
1.51613e-10
1.53465e-10
1.55898e-10
1.59064e-10
1.63134e-10
1.68285e-10
1.74682e-10
1.82447e-10
1.9164e-10
2.02212e-10
2.13987e-10
2.26658e-10
2.39822e-10
2.52932e-10
2.65296e-10
2.76193e-10
2.85136e-10
2.92026e-10
2.97104e-10
3.00776e-10
3.03482e-10
3.05603e-10
3.07451e-10
3.09259e-10
3.11221e-10
3.13538e-10
1.46068e-10
1.46077e-10
1.46089e-10
1.46104e-10
1.46125e-10
1.46152e-10
1.46187e-10
1.46234e-10
1.46296e-10
1.46379e-10
1.46488e-10
1.46633e-10
1.46826e-10
1.47083e-10
1.47424e-10
1.47877e-10
1.4848e-10
1.4928e-10
1.50341e-10
1.5174e-10
1.53579e-10
1.55978e-10
1.59081e-10
1.63046e-10
1.68041e-10
1.74221e-10
1.81704e-10
1.90554e-10
2.00743e-10
2.12128e-10
2.24447e-10
2.37338e-10
2.50346e-10
2.62866e-10
2.74208e-10
2.83802e-10
2.91411e-10
2.97152e-10
3.01367e-10
3.04476e-10
3.06875e-10
3.08897e-10
3.10803e-10
3.12793e-10
3.15001e-10
3.17608e-10
3.20795e-10
3.24763e-10
1.46115e-10
1.46138e-10
1.46169e-10
1.46209e-10
1.46261e-10
1.46329e-10
1.46419e-10
1.46538e-10
1.46694e-10
1.469e-10
1.47172e-10
1.47531e-10
1.48005e-10
1.4863e-10
1.49453e-10
1.50536e-10
1.51955e-10
1.53805e-10
1.56202e-10
1.5928e-10
1.63188e-10
1.68083e-10
1.74111e-10
1.81384e-10
1.89964e-10
1.99838e-10
2.10888e-10
2.2288e-10
2.35493e-10
2.48334e-10
2.60881e-10
2.72504e-10
2.82604e-10
2.90834e-10
2.97193e-10
3.01945e-10
3.05474e-10
3.08181e-10
3.10411e-10
3.12445e-10
3.14507e-10
3.16763e-10
3.19339e-10
3.22449e-10
3.26177e-10
3.30645e-10
3.36077e-10
3.42903e-10
1.46156e-10
1.46191e-10
1.46236e-10
1.46294e-10
1.46371e-10
1.4647e-10
1.46601e-10
1.46771e-10
1.46994e-10
1.47286e-10
1.47669e-10
1.48171e-10
1.48828e-10
1.49687e-10
1.50808e-10
1.52265e-10
1.5415e-10
1.56574e-10
1.59664e-10
1.6356e-10
1.68409e-10
1.74345e-10
1.81474e-10
1.89853e-10
1.99475e-10
2.10241e-10
2.21941e-10
2.34287e-10
2.46926e-10
2.59413e-10
2.71184e-10
2.81648e-10
2.90387e-10
2.97295e-10
3.02554e-10
3.06505e-10
3.09533e-10
3.11995e-10
3.14185e-10
3.16351e-10
3.18675e-10
3.21271e-10
3.24357e-10
3.28064e-10
3.32477e-10
3.37763e-10
3.44134e-10
3.51815e-10
3.61127e-10
3.72731e-10
1.46337e-10
1.46423e-10
1.46535e-10
1.4668e-10
1.46868e-10
1.47113e-10
1.47432e-10
1.47846e-10
1.48384e-10
1.49084e-10
1.49991e-10
1.51166e-10
1.52681e-10
1.54626e-10
1.57107e-10
1.60244e-10
1.64171e-10
1.69022e-10
1.74923e-10
1.8197e-10
1.90213e-10
1.99644e-10
2.10177e-10
2.21626e-10
2.33723e-10
2.46147e-10
2.58516e-10
2.70329e-10
2.81027e-10
2.90158e-10
2.97533e-10
3.03252e-10
3.07605e-10
3.10958e-10
3.13667e-10
3.16036e-10
3.18325e-10
3.20733e-10
3.23401e-10
3.26497e-10
3.302e-10
3.34612e-10
3.39856e-10
3.46137e-10
3.53675e-10
3.62698e-10
3.73512e-10
3.86479e-10
4.0207e-10
4.21254e-10
1.46781e-10
1.46992e-10
1.47264e-10
1.47615e-10
1.48068e-10
1.48653e-10
1.49408e-10
1.50378e-10
1.51625e-10
1.5322e-10
1.5525e-10
1.57818e-10
1.61039e-10
1.65037e-10
1.69938e-10
1.75856e-10
1.82876e-10
1.91042e-10
2.0034e-10
2.10692e-10
2.2193e-10
2.338e-10
2.4601e-10
2.58223e-10
2.69999e-10
2.80822e-10
2.90231e-10
2.97979e-10
3.04096e-10
3.08821e-10
3.12488e-10
3.15449e-10
3.18014e-10
3.20444e-10
3.22964e-10
3.25723e-10
3.28874e-10
3.32602e-10
3.37048e-10
3.42306e-10
3.48562e-10
3.56035e-10
3.64943e-10
3.75561e-10
3.88221e-10
4.03289e-10
4.2118e-10
4.42406e-10
4.67664e-10
4.98386e-10
1.47846e-10
1.48349e-10
1.48992e-10
1.49816e-10
1.50867e-10
1.52205e-10
1.53903e-10
1.56046e-10
1.58733e-10
1.62073e-10
1.66184e-10
1.7118e-10
1.77164e-10
1.8421e-10
1.92352e-10
2.0157e-10
2.11788e-10
2.22849e-10
2.34517e-10
2.4652e-10
2.58554e-10
2.70236e-10
2.81095e-10
2.90679e-10
2.98706e-10
3.0515e-10
3.10201e-10
3.14162e-10
3.17371e-10
3.20141e-10
3.2273e-10
3.25379e-10
3.28257e-10
3.31497e-10
3.35292e-10
3.39793e-10
3.45121e-10
3.51409e-10
3.58882e-10
3.67764e-10
3.78295e-10
3.9079e-10
4.05605e-10
4.23128e-10
4.43811e-10
4.68181e-10
4.96843e-10
5.30523e-10
5.70221e-10
6.18002e-10
1.50327e-10
1.51478e-10
1.52931e-10
1.54758e-10
1.57043e-10
1.59883e-10
1.6338e-10
1.67644e-10
1.7278e-10
1.78877e-10
1.85997e-10
1.94162e-10
2.03346e-10
2.13472e-10
2.24392e-10
2.35881e-10
2.47685e-10
2.59529e-10
2.71075e-10
2.81896e-10
2.91562e-10
2.99777e-10
3.06473e-10
3.11798e-10
3.16023e-10
3.19469e-10
3.22445e-10
3.2521e-10
3.28008e-10
3.31028e-10
3.34385e-10
3.38288e-10
3.42884e-10
3.48318e-10
3.547e-10
3.62242e-10
3.71171e-10
3.81711e-10
3.94156e-10
4.0885e-10
4.26168e-10
4.46532e-10
4.70439e-10
4.9845e-10
5.31209e-10
5.69455e-10
6.14037e-10
6.65971e-10
7.26655e-10
7.98988e-10
1.55821e-10
1.58281e-10
1.61309e-10
1.65003e-10
1.69461e-10
1.74779e-10
1.81032e-10
1.88271e-10
1.96503e-10
2.05693e-10
2.15763e-10
2.2657e-10
2.37899e-10
2.49513e-10
2.61159e-10
2.72539e-10
2.83264e-10
2.92934e-10
3.01251e-10
3.08123e-10
3.13663e-10
3.18117e-10
3.21783e-10
3.24961e-10
3.27914e-10
3.30881e-10
3.34059e-10
3.37574e-10
3.41626e-10
3.46354e-10
3.5193e-10
3.58468e-10
3.66145e-10
3.75192e-10
3.85837e-10
3.98342e-10
4.13041e-10
4.303e-10
4.5052e-10
4.74167e-10
5.01779e-10
5.33958e-10
5.71394e-10
6.14877e-10
6.65297e-10
7.23673e-10
7.91169e-10
8.69169e-10
9.59585e-10
1.06641e-09
1.66993e-10
1.71687e-10
1.77228e-10
1.83679e-10
1.91074e-10
1.99408e-10
2.08639e-10
2.18682e-10
2.29399e-10
2.40585e-10
2.52014e-10
2.63456e-10
2.74644e-10
2.85227e-10
2.94833e-10
3.03176e-10
3.10152e-10
3.15851e-10
3.20492e-10
3.24357e-10
3.27733e-10
3.3088e-10
3.34031e-10
3.37392e-10
3.411e-10
3.45336e-10
3.50246e-10
3.56006e-10
3.62758e-10
3.70634e-10
3.79876e-10
3.90713e-10
4.03385e-10
4.18212e-10
4.35552e-10
4.55793e-10
4.79374e-10
5.0681e-10
5.38672e-10
5.75613e-10
6.18373e-10
6.67791e-10
7.24815e-10
7.90519e-10
8.66115e-10
9.52971e-10
1.05265e-09
1.16701e-09
1.29861e-09
1.45284e-09
1.86872e-10
1.94456e-10
2.02922e-10
2.12218e-10
2.22257e-10
2.32901e-10
2.43951e-10
2.55197e-10
2.66429e-10
2.77405e-10
2.87807e-10
2.97292e-10
3.05594e-10
3.12607e-10
3.18408e-10
3.23198e-10
3.27239e-10
3.30808e-10
3.34154e-10
3.3751e-10
3.41079e-10
3.45009e-10
3.49467e-10
3.54612e-10
3.60611e-10
3.67628e-10
3.75777e-10
3.85291e-10
3.96404e-10
4.09351e-10
4.24426e-10
4.41984e-10
4.62403e-10
4.86105e-10
5.13577e-10
5.4537e-10
5.82101e-10
6.24473e-10
6.7328e-10
7.29415e-10
7.93885e-10
8.67824e-10
9.52508e-10
1.04937e-09
1.16002e-09
1.28628e-09
1.43019e-09
1.59421e-09
1.78172e-09
1.99984e-09
2.16471e-10
2.26519e-10
2.37097e-10
2.48014e-10
2.59074e-10
2.70087e-10
2.80833e-10
2.91021e-10
3.00337e-10
3.08539e-10
3.15531e-10
3.21384e-10
3.26285e-10
3.30482e-10
3.34236e-10
3.37789e-10
3.41369e-10
3.45176e-10
3.4936e-10
3.54088e-10
3.5952e-10
3.65813e-10
3.73145e-10
3.81653e-10
3.9152e-10
4.03e-10
4.16329e-10
4.31777e-10
4.49691e-10
4.70445e-10
4.94445e-10
5.22157e-10
5.54115e-10
5.9091e-10
6.33209e-10
6.81768e-10
7.37432e-10
8.01155e-10
8.74006e-10
9.57184e-10
1.05203e-09
1.16005e-09
1.28293e-09
1.42255e-09
1.58102e-09
1.76069e-09
1.96423e-09
2.1948e-09
2.4568e-09
2.75952e-09
2.52791e-10
2.63658e-10
2.74442e-10
2.8494e-10
2.94884e-10
3.03989e-10
3.1204e-10
3.18961e-10
3.24824e-10
3.29806e-10
3.34141e-10
3.3808e-10
3.41849e-10
3.45674e-10
3.4975e-10
3.54226e-10
3.59274e-10
3.65048e-10
3.71698e-10
3.79421e-10
3.88355e-10
3.98663e-10
4.10608e-10
4.24427e-10
4.40375e-10
4.58788e-10
4.80037e-10
5.04516e-10
5.32676e-10
5.65031e-10
6.02151e-10
6.44676e-10
6.93329e-10
7.48919e-10
8.1235e-10
8.84635e-10
9.66909e-10
1.06044e-09
1.16664e-09
1.28709e-09
1.42354e-09
1.57797e-09
1.75255e-09
1.94972e-09
2.17217e-09
2.42294e-09
2.70542e-09
3.02364e-09
3.38322e-09
3.79607e-09
2.89737e-10
2.99408e-10
3.08265e-10
3.16126e-10
3.22936e-10
3.28775e-10
3.33816e-10
3.38281e-10
3.42406e-10
3.46408e-10
3.50506e-10
3.54888e-10
3.597e-10
3.65121e-10
3.71293e-10
3.78378e-10
3.86565e-10
3.96009e-10
4.06855e-10
4.19371e-10
4.33793e-10
4.50374e-10
4.69432e-10
4.91337e-10
5.16479e-10
5.45293e-10
5.78277e-10
6.15985e-10
6.59033e-10
7.08115e-10
7.64008e-10
8.27576e-10
8.99787e-10
9.81719e-10
1.07457e-09
1.17969e-09
1.29855e-09
1.43282e-09
1.58434e-09
1.75514e-09
1.9475e-09
2.16394e-09
2.40723e-09
2.68048e-09
2.9871e-09
3.33091e-09
3.71616e-09
4.14791e-09
4.63327e-09
5.18725e-09
3.20825e-10
3.27495e-10
3.33289e-10
3.38378e-10
3.42973e-10
3.47296e-10
3.51554e-10
3.55958e-10
3.60691e-10
3.65892e-10
3.71746e-10
3.78388e-10
3.85985e-10
3.94722e-10
4.04758e-10
4.16261e-10
4.29457e-10
4.44608e-10
4.61961e-10
4.81822e-10
5.04558e-10
5.30552e-10
5.60229e-10
5.94074e-10
6.32632e-10
6.76497e-10
7.26339e-10
7.82908e-10
8.47033e-10
9.19642e-10
1.00177e-09
1.09455e-09
1.19927e-09
1.31733e-09
1.45031e-09
1.59994e-09
1.76814e-09
1.95704e-09
2.169e-09
2.40662e-09
2.67278e-09
2.97065e-09
3.30374e-09
3.67592e-09
4.09145e-09
4.55506e-09
5.07202e-09
5.64859e-09
6.29358e-09
7.02571e-09
3.43566e-10
3.48302e-10
3.52845e-10
3.57394e-10
3.62148e-10
3.67285e-10
3.72931e-10
3.79291e-10
3.86484e-10
3.9468e-10
4.04062e-10
4.148e-10
4.27069e-10
4.41075e-10
4.57089e-10
4.75367e-10
4.96197e-10
5.19944e-10
5.46992e-10
5.77756e-10
6.1271e-10
6.52387e-10
6.97366e-10
7.48297e-10
8.05908e-10
8.71003e-10
9.44472e-10
1.02731e-09
1.12061e-09
1.22559e-09
1.34359e-09
1.47612e-09
1.62481e-09
1.79148e-09
1.97815e-09
2.18703e-09
2.42057e-09
2.68146e-09
2.97268e-09
3.29748e-09
3.65946e-09
4.06257e-09
4.51115e-09
5.00997e-09
5.56426e-09
6.17981e-09
6.86305e-09
7.62161e-09
8.46629e-09
9.42009e-09
3.64055e-10
3.69214e-10
3.74813e-10
3.80991e-10
3.87934e-10
3.95766e-10
4.04657e-10
4.148e-10
4.26359e-10
4.39515e-10
4.54473e-10
4.71505e-10
4.90872e-10
5.12854e-10
5.37807e-10
5.66122e-10
5.98207e-10
6.34526e-10
6.75603e-10
7.22007e-10
7.74369e-10
8.33399e-10
8.99877e-10
9.74664e-10
1.05872e-09
1.1531e-09
1.25898e-09
1.37764e-09
1.51051e-09
1.65915e-09
1.82531e-09
2.01089e-09
2.21799e-09
2.44891e-09
2.70619e-09
2.99263e-09
3.31128e-09
3.6655e-09
4.05897e-09
4.49574e-09
4.98022e-09
5.51725e-09
6.11214e-09
6.77066e-09
7.49918e-09
8.30465e-09
9.19483e-09
1.01789e-08
1.12699e-08
1.24958e-08
3.90267e-10
3.97885e-10
4.06459e-10
4.16165e-10
4.27193e-10
4.39707e-10
4.53888e-10
4.69963e-10
4.88179e-10
5.08812e-10
5.32143e-10
5.58519e-10
5.88334e-10
6.21994e-10
6.59952e-10
7.02724e-10
7.50874e-10
8.0502e-10
8.65855e-10
9.3414e-10
1.01071e-09
1.0965e-09
1.19253e-09
1.29993e-09
1.41993e-09
1.55392e-09
1.70339e-09
1.87e-09
2.05556e-09
2.26208e-09
2.49174e-09
2.74695e-09
3.03033e-09
3.34477e-09
3.69344e-09
4.07977e-09
4.50755e-09
4.9809e-09
5.50433e-09
6.08276e-09
6.72154e-09
7.42653e-09
8.20411e-09
9.06121e-09
1.00054e-08
1.1045e-08
1.21893e-08
1.3449e-08
1.48399e-08
1.63954e-08
4.18845e-10
4.29499e-10
4.41552e-10
4.55172e-10
4.70546e-10
4.8791e-10
5.075e-10
5.29602e-10
5.54502e-10
5.82538e-10
6.14104e-10
6.49607e-10
6.89494e-10
7.3428e-10
7.84523e-10
8.40828e-10
9.0387e-10
9.74399e-10
1.05323e-09
1.14128e-09
1.23953e-09
1.34907e-09
1.47112e-09
1.60698e-09
1.75812e-09
1.9261e-09
2.11269e-09
2.31978e-09
2.54946e-09
2.80402e-09
3.08596e-09
3.398e-09
3.74313e-09
4.1246e-09
4.54595e-09
5.01107e-09
5.52416e-09
6.08981e-09
6.71303e-09
7.39923e-09
8.15434e-09
8.98476e-09
9.89748e-09
1.09001e-08
1.20007e-08
1.32084e-08
1.45329e-08
1.5985e-08
1.75774e-08
1.93288e-08
2.12786e-08
4.73159e-10
4.89913e-10
5.0876e-10
5.29943e-10
5.53736e-10
5.80446e-10
6.10401e-10
6.43997e-10
6.81645e-10
7.23784e-10
7.70924e-10
8.23622e-10
8.82475e-10
9.48152e-10
1.02139e-09
1.10299e-09
1.19383e-09
1.29488e-09
1.40721e-09
1.53199e-09
1.6705e-09
1.82413e-09
1.99441e-09
2.18303e-09
2.39181e-09
2.62275e-09
2.87803e-09
3.16003e-09
3.47136e-09
3.81484e-09
4.19355e-09
4.61084e-09
5.07036e-09
5.57607e-09
6.13227e-09
6.74366e-09
7.41529e-09
8.15267e-09
8.96177e-09
9.84906e-09
1.08215e-08
1.18868e-08
1.3053e-08
1.43291e-08
1.57247e-08
1.72502e-08
1.89169e-08
2.07373e-08
2.27264e-08
2.49057e-08
2.73218e-08
5.33056e-10
5.56069e-10
5.81812e-10
6.10599e-10
6.42764e-10
6.78695e-10
7.1881e-10
7.6355e-10
8.1342e-10
8.68975e-10
9.30805e-10
9.99568e-10
1.076e-09
1.16088e-09
1.25508e-09
1.35955e-09
1.47533e-09
1.60356e-09
1.74548e-09
1.90244e-09
2.07594e-09
2.26759e-09
2.47915e-09
2.71254e-09
2.96987e-09
3.25341e-09
3.56563e-09
3.90924e-09
4.28716e-09
4.70258e-09
5.15895e-09
5.66e-09
6.2098e-09
6.81275e-09
7.47361e-09
8.19753e-09
8.99009e-09
9.85732e-09
1.08057e-08
1.18423e-08
1.29748e-08
1.42112e-08
1.55606e-08
1.70323e-08
1.86368e-08
2.0385e-08
2.22891e-08
2.43619e-08
2.6618e-08
2.90743e-08
3.1756e-08
3.47169e-08
6.45708e-10
6.80403e-10
7.19011e-10
7.61956e-10
8.09682e-10
8.62687e-10
9.21528e-10
9.86795e-10
1.05914e-09
1.13928e-09
1.22801e-09
1.32616e-09
1.43468e-09
1.5546e-09
1.68701e-09
1.83314e-09
1.9943e-09
2.17194e-09
2.36762e-09
2.58306e-09
2.82011e-09
3.08078e-09
3.36726e-09
3.68194e-09
4.0274e-09
4.40642e-09
4.82204e-09
5.27755e-09
5.77649e-09
6.3227e-09
6.92035e-09
7.57392e-09
8.28826e-09
9.0686e-09
9.92059e-09
1.08503e-08
1.18643e-08
1.29697e-08
1.41741e-08
1.54857e-08
1.69132e-08
1.84663e-08
2.0155e-08
2.19905e-08
2.39843e-08
2.61493e-08
2.84992e-08
3.10486e-08
3.38139e-08
3.68146e-08
4.00793e-08
4.36702e-08
8.12094e-10
8.63227e-10
9.19816e-10
9.82417e-10
1.05162e-09
1.12808e-09
1.2125e-09
1.30567e-09
1.40841e-09
1.52167e-09
1.64644e-09
1.7838e-09
1.93496e-09
2.10121e-09
2.28394e-09
2.48469e-09
2.70511e-09
2.947e-09
3.21231e-09
3.50315e-09
3.82181e-09
4.17077e-09
4.55272e-09
4.97054e-09
5.42737e-09
5.92661e-09
6.47189e-09
7.06716e-09
7.71667e-09
8.425e-09
9.19708e-09
1.00382e-08
1.09542e-08
1.1951e-08
1.30354e-08
1.42145e-08
1.54958e-08
1.68876e-08
1.83987e-08
2.00384e-08
2.1817e-08
2.37452e-08
2.58348e-08
2.80981e-08
3.05486e-08
3.32006e-08
3.60694e-08
3.91718e-08
4.2526e-08
4.61541e-08
5.00885e-08
5.43998e-08
1.05299e-09
1.12668e-09
1.20782e-09
1.29714e-09
1.39539e-09
1.50341e-09
1.62213e-09
1.75252e-09
1.89566e-09
2.05272e-09
2.22497e-09
2.41378e-09
2.62064e-09
2.84717e-09
3.09512e-09
3.36637e-09
3.66298e-09
3.98715e-09
4.34126e-09
4.72791e-09
5.14988e-09
5.61016e-09
6.11199e-09
6.65885e-09
7.25451e-09
7.903e-09
8.60867e-09
9.37618e-09
1.02105e-08
1.11172e-08
1.21018e-08
1.31707e-08
1.43306e-08
1.55884e-08
1.69519e-08
1.84293e-08
2.00294e-08
2.17615e-08
2.36356e-08
2.56626e-08
2.78538e-08
3.02216e-08
3.27792e-08
3.55405e-08
3.85205e-08
4.17353e-08
4.5202e-08
4.89392e-08
5.29674e-08
5.7311e-08
6.20066e-08
6.71341e-08
1.39495e-09
1.49899e-09
1.61303e-09
1.73797e-09
1.87481e-09
2.02459e-09
2.18847e-09
2.3677e-09
2.56363e-09
2.77771e-09
3.01152e-09
3.26677e-09
3.5453e-09
3.84909e-09
4.18029e-09
4.54121e-09
4.93434e-09
5.36236e-09
5.82815e-09
6.33482e-09
6.88572e-09
7.48442e-09
8.13478e-09
8.84093e-09
9.60733e-09
1.04387e-08
1.13402e-08
1.23172e-08
1.33757e-08
1.45218e-08
1.57623e-08
1.71044e-08
1.85557e-08
2.01243e-08
2.18191e-08
2.36494e-08
2.56251e-08
2.77568e-08
3.0056e-08
3.25347e-08
3.52058e-08
3.80831e-08
4.11811e-08
4.45157e-08
4.81034e-08
5.19619e-08
5.61103e-08
6.05691e-08
6.53608e-08
7.05124e-08
7.60651e-08
8.2108e-08
1.87147e-09
2.01563e-09
2.17298e-09
2.34466e-09
2.5319e-09
2.73603e-09
2.95848e-09
3.2008e-09
3.46464e-09
3.75182e-09
4.06427e-09
4.40406e-09
4.77344e-09
5.17483e-09
5.61081e-09
6.08417e-09
6.5979e-09
7.1552e-09
7.75951e-09
8.41453e-09
9.12421e-09
9.89278e-09
1.07248e-08
1.1625e-08
1.25987e-08
1.36514e-08
1.4789e-08
1.60178e-08
1.73446e-08
1.87766e-08
2.03214e-08
2.19872e-08
2.37827e-08
2.57173e-08
2.78007e-08
3.00436e-08
3.24572e-08
3.50533e-08
3.78446e-08
4.08447e-08
4.40678e-08
4.75293e-08
5.12453e-08
5.52331e-08
5.95111e-08
6.40986e-08
6.90167e-08
7.42876e-08
7.9936e-08
8.59918e-08
9.25002e-08
9.95606e-08
2.52416e-09
2.72051e-09
2.934e-09
3.16603e-09
3.41813e-09
3.69193e-09
3.98918e-09
4.31179e-09
4.66178e-09
5.04133e-09
5.45278e-09
5.89865e-09
6.38163e-09
6.90461e-09
7.47067e-09
8.08314e-09
8.74555e-09
9.46169e-09
1.02356e-08
1.10716e-08
1.19744e-08
1.29488e-08
1.40001e-08
1.5134e-08
1.63564e-08
1.76736e-08
1.90925e-08
2.06203e-08
2.22647e-08
2.40338e-08
2.59364e-08
2.79816e-08
3.01793e-08
3.25398e-08
3.50744e-08
3.77946e-08
4.07131e-08
4.3843e-08
4.71983e-08
5.07939e-08
5.46458e-08
5.87705e-08
6.31859e-08
6.79109e-08
7.29655e-08
7.83708e-08
8.41496e-08
9.03261e-08
9.69271e-08
1.03985e-07
1.1155e-07
1.19731e-07
3.66717e-09
3.95234e-09
4.26117e-09
4.59551e-09
4.95735e-09
5.34881e-09
5.77219e-09
6.22991e-09
6.72459e-09
7.25904e-09
7.83623e-09
8.45936e-09
9.13184e-09
9.85733e-09
1.06397e-08
1.14831e-08
1.23919e-08
1.33709e-08
1.44251e-08
1.55597e-08
1.67806e-08
1.80937e-08
1.95054e-08
2.10226e-08
2.26524e-08
2.44027e-08
2.62815e-08
2.82976e-08
3.046e-08
3.27786e-08
3.52637e-08
3.79261e-08
4.07775e-08
4.38301e-08
4.70969e-08
5.05917e-08
5.43289e-08
5.83241e-08
6.25935e-08
6.71544e-08
7.20249e-08
7.72245e-08
8.27736e-08
8.86938e-08
9.5008e-08
1.01741e-07
1.08918e-07
1.16569e-07
1.24728e-07
1.33451e-07
1.42857e-07
4.91991e-09
5.29533e-09
5.70053e-09
6.13773e-09
6.60932e-09
7.11784e-09
7.66599e-09
8.25669e-09
8.89301e-09
9.57826e-09
1.03159e-08
1.11098e-08
1.19638e-08
1.28822e-08
1.38696e-08
1.49306e-08
1.60704e-08
1.72944e-08
1.86084e-08
2.00184e-08
2.15308e-08
2.31527e-08
2.48911e-08
2.67539e-08
2.87491e-08
3.08854e-08
3.31719e-08
3.56183e-08
3.82348e-08
4.10321e-08
4.40218e-08
4.72158e-08
5.06269e-08
5.42685e-08
5.81549e-08
6.23012e-08