/*--------------------------------*- C++ -*----------------------------------*\
| =========                 |                                                 |
| \\      /  F ield         | OpenFOAM: The Open Source CFD Toolbox           |
|  \\    /   O peration     | Version:  v1706                                 |
|   \\  /    A nd           | Web:      www.OpenFOAM.com                      |
|    \\/     M anipulation  |                                                 |
\*---------------------------------------------------------------------------*/
FoamFile
{
    version     2.0;
    format      ascii;
    class       volScalarField;
    location    "3.3e-05";
    object      Tov;
}
// * * * * * * * * * * * * * * * * * * * * * * * * * * * * * * * * * * * * * //

dimensions      [0 0 0 1 0 0 0];


internalField   nonuniform List<scalar> 
30038
(
144.4
144.4
144.4
144.4
144.4
144.4
144.4
144.4
144.4
144.4
144.4
144.4
144.4
144.4
144.4
144.4
144.4
144.4
144.4
144.4
144.4
144.4
144.4
144.4
144.4
144.4
144.4
144.4
144.4
144.4
144.4
144.4
144.4
144.4
144.4
144.4
144.4
144.4
144.4
144.4
144.4
144.4
144.4
144.4
144.4
144.4
144.4
144.4
144.4
144.4
144.4
144.4
144.4
144.4
144.4
144.4
144.4
144.4
144.4
144.4
144.4
144.4
144.4
144.4
144.4
144.4
144.4
144.4
144.4
144.4
144.4
144.4
144.4
144.4
144.4
144.4
144.4
144.4
144.4
144.4
144.4
144.4
144.4
144.4
144.4
144.4
144.4
144.4
144.4
144.4
144.4
144.4
144.4
144.4
144.4
144.4
144.4
144.4
144.4
144.4
144.4
144.4
144.4
144.4
144.4
144.4
144.4
144.4
144.4
144.4
144.4
144.4
144.4
144.4
144.4
144.4
144.4
144.4
144.4
144.4
144.4
144.4
144.4
144.4
144.4
144.4
144.4
144.4
144.4
144.4
144.4
144.4
144.4
144.4
144.4
144.4
144.4
144.4
144.4
144.4
144.4
144.4
144.4
144.4
144.4
144.4
144.4
144.4
144.4
144.4
144.4
144.4
144.4
144.4
144.4
144.4
144.4
144.4
144.4
144.4
144.4
144.4
144.4
144.4
144.4
144.4
144.4
144.4
144.4
144.4
144.4
144.4
144.4
144.4
144.4
144.4
144.4
144.4
144.4
144.4
144.4
144.4
144.4
144.4
144.4
144.4
144.4
144.4
144.4
144.4
144.4
144.4
144.4
144.4
144.4
144.4
144.4
144.4
144.4
144.4
144.4
144.4
144.4
144.4
144.4
144.4
144.4
144.4
144.4
144.4
144.4
144.4
144.4
144.4
144.4
144.4
144.4
144.4
144.4
144.4
144.4
144.4
144.4
144.4
144.4
144.4
144.4
144.4
144.4
144.4
144.4
144.4
144.4
144.4
144.4
144.4
144.4
144.4
144.4
144.4
144.4
144.4
144.4
144.4
144.4
144.4
144.4
144.4
144.4
144.4
144.4
144.4
144.4
144.4
144.4
144.4
144.4
144.4
144.4
144.4
144.4
144.4
144.4
144.4
144.4
144.4
144.4
144.4
144.4
144.4
144.4
144.4
144.4
144.4
144.4
144.4
144.4
144.4
144.4
144.4
144.4
144.4
144.4
144.4
144.4
144.4
144.4
144.4
144.4
144.4
144.4
144.4
144.4
144.4
144.4
144.4
144.4
144.4
144.4
144.4
144.4
144.4
144.4
144.4
144.4
144.4
144.4
144.4
144.4
144.4
144.4
144.4
144.4
144.4
144.4
144.4
144.4
144.4
144.4
144.4
144.4
144.4
144.4
144.4
144.4
144.4
144.4
144.4
144.4
144.4
144.4
144.4
144.4
144.4
144.4
144.4
144.4
144.4
144.4
144.4
144.401
144.401
144.401
144.4
144.4
144.4
144.4
144.4
144.4
144.4
144.4
144.4
144.4
144.4
144.4
144.4
144.4
144.4
144.4
144.4
144.4
144.4
144.4
144.4
144.4
144.4
144.4
144.4
144.4
144.4
144.4
144.4
144.4
144.4
144.4
144.4
144.401
144.401
144.401
144.402
144.403
144.404
144.4
144.4
144.4
144.4
144.4
144.4
144.4
144.4
144.4
144.4
144.4
144.4
144.4
144.4
144.4
144.4
144.4
144.4
144.4
144.4
144.4
144.4
144.4
144.4
144.4
144.4
144.4
144.4
144.4
144.4
144.401
144.401
144.401
144.402
144.403
144.404
144.406
144.409
144.413
144.4
144.4
144.4
144.4
144.4
144.4
144.4
144.4
144.4
144.4
144.4
144.4
144.4
144.4
144.4
144.4
144.4
144.4
144.4
144.4
144.4
144.4
144.4
144.4
144.4
144.4
144.4
144.4
144.401
144.401
144.401
144.402
144.403
144.404
144.405
144.408
144.412
144.417
144.425
144.438
144.4
144.4
144.4
144.4
144.4
144.4
144.4
144.4
144.4
144.4
144.4
144.4
144.4
144.4
144.4
144.4
144.4
144.4
144.4
144.4
144.4
144.4
144.4
144.4
144.4
144.401
144.401
144.401
144.402
144.403
144.404
144.405
144.408
144.411
144.416
144.423
144.434
144.45
144.473
144.508
144.4
144.4
144.4
144.4
144.4
144.4
144.4
144.4
144.4
144.4
144.4
144.4
144.4
144.4
144.4
144.4
144.4
144.4
144.4
144.4
144.4
144.4
144.401
144.401
144.401
144.402
144.403
144.404
144.405
144.407
144.411
144.415
144.422
144.432
144.446
144.467
144.497
144.542
144.608
144.706
144.4
144.4
144.4
144.4
144.4
144.4
144.4
144.4
144.4
144.4
144.4
144.4
144.4
144.4
144.4
144.4
144.4
144.4
144.4
144.401
144.401
144.401
144.402
144.403
144.404
144.405
144.407
144.411
144.415
144.421
144.431
144.444
144.463
144.491
144.531
144.59
144.675
144.799
144.981
145.25
144.4
144.4
144.4
144.4
144.4
144.4
144.4
144.4
144.4
144.4
144.4
144.4
144.4
144.4
144.4
144.4
144.401
144.401
144.401
144.402
144.403
144.404
144.405
144.407
144.411
144.415
144.421
144.43
144.443
144.461
144.487
144.524
144.578
144.655
144.767
144.927
145.16
145.498
145.99
146.71
144.4
144.4
144.4
144.4
144.4
144.4
144.4
144.4
144.4
144.4
144.4
144.4
144.401
144.401
144.401
144.401
144.402
144.403
144.404
144.405
144.408
144.411
144.415
144.421
144.43
144.442
144.46
144.484
144.52
144.57
144.642
144.744
144.891
145.102
145.404
145.838
146.461
147.357
148.646
150.501
144.4
144.4
144.4
144.4
144.4
144.4
144.4
144.4
144.4
144.401
144.401
144.401
144.402
144.402
144.403
144.404
144.406
144.408
144.411
144.415
144.422
144.43
144.442
144.459
144.483
144.517
144.565
144.633
144.729
144.866
145.06
145.336
145.73
146.291
147.089
148.225
149.837
152.116
155.323
159.795
144.4
144.4
144.4
144.4
144.4
144.4
144.401
144.401
144.401
144.401
144.402
144.402
144.403
144.404
144.406
144.408
144.412
144.416
144.422
144.431
144.443
144.46
144.484
144.517
144.563
144.628
144.72
144.849
145.032
145.289
145.653
146.167
146.894
147.92
149.364
151.392
154.222
158.14
163.507
170.741
180.28
144.4
144.4
144.4
144.401
144.401
144.401
144.401
144.402
144.403
144.404
144.405
144.407
144.409
144.413
144.417
144.424
144.432
144.445
144.462
144.485
144.518
144.564
144.627
144.716
144.841
145.015
145.259
145.601
146.08
146.753
147.696
149.015
150.854
153.405
156.919
161.711
168.153
176.656
187.63
201.397
218.048
144.401
144.401
144.401
144.401
144.402
144.402
144.403
144.404
144.405
144.407
144.41
144.414
144.419
144.425
144.434
144.447
144.465
144.489
144.522
144.567
144.631
144.718
144.84
145.009
145.243
145.57
146.025
146.658
147.539
148.762
150.457
152.795
155.999
160.35
166.185
173.88
183.817
196.324
211.59
229.578
249.918
271.948
144.401
144.401
144.402
144.403
144.403
144.405
144.406
144.408
144.411
144.415
144.42
144.427
144.437
144.45
144.469
144.493
144.527
144.574
144.637
144.725
144.846
145.012
145.242
145.559
145.997
146.602
147.439
148.592
150.179
152.354
155.318
159.325
164.682
171.735
180.847
192.347
206.459
223.212
242.356
263.344
285.279
306.794
326.464
144.403
144.404
144.405
144.407
144.409
144.413
144.417
144.423
144.43
144.441
144.455
144.474
144.5
144.535
144.583
144.648
144.737
144.859
145.026
145.254
145.566
145.995
146.583
147.389
148.493
150.002
152.056
154.839
158.581
163.563
170.106
178.551
189.219
202.357
218.053
236.167
256.272
277.654
299.21
319.457
336.961
350.805
361.135
144.406
144.408
144.411
144.414
144.419
144.425
144.434
144.445
144.46
144.481
144.508
144.546
144.596
144.664
144.756
144.88
145.049
145.28
145.593
146.018
146.598
147.388
148.46
149.916
151.885
154.536
158.079
162.774
168.917
176.828
186.816
199.135
213.917
231.093
250.343
271.098
292.474
313.21
331.843
347.226
358.923
367.232
372.749
376.343
144.413
144.417
144.422
144.429
144.439
144.451
144.468
144.49
144.52
144.559
144.613
144.684
144.781
144.91
145.085
145.32
145.638
146.068
146.648
147.433
148.491
149.916
151.831
154.392
157.795
162.277
168.116
175.61
185.054
196.699
210.699
227.04
245.489
265.572
286.582
307.47
326.889
343.556
356.734
366.404
373.057
377.381
380.077
381.666
382.592
144.426
144.434
144.444
144.458
144.477
144.501
144.534
144.577
144.635
144.711
144.813
144.95
145.133
145.377
145.705
146.145
146.735
147.525
148.585
150.001
151.89
154.399
157.71
162.047
167.665
174.845
183.866
194.969
208.32
223.944
241.664
261.091
281.633
302.425
322.288
339.929
354.393
365.379
373.18
378.402
381.726
383.738
384.897
385.517
385.802
385.845
144.44
144.452
144.468
144.489
144.516
144.552
144.6
144.662
144.746
144.856
145.002
145.196
145.453
145.796
146.253
146.861
147.669
148.745
150.172
152.062
154.553
157.82
162.069
167.542
174.5
183.206
193.891
206.718
221.737
238.815
257.632
277.669
298.213
318.251
336.561
352.072
364.242
373.153
379.291
383.299
385.788
387.255
388.066
388.466
388.566
388.525
388.442
388.244
144.504
144.535
144.575
144.628
144.698
144.789
144.91
145.068
145.277
145.552
145.916
146.396
147.031
147.87
148.977
150.436
152.352
154.86
158.124
162.341
167.736
174.555
183.044
193.422
205.844
220.371
236.908
255.173
274.714
294.923
314.935
333.646
349.95
363.132
373.065
380.097
384.805
387.805
389.616
390.643
391.174
391.381
391.345
391.264
391.093
390.798
390.425
390.016
144.558
144.604
144.664
144.743
144.845
144.978
145.152
145.38
145.678
146.069
146.582
147.255
148.136
149.291
150.801
152.77
155.327
158.631
162.867
168.248
175.006
183.369
193.54
205.666
219.809
235.898
253.683
272.762
292.595
312.451
331.347
348.204
362.198
373.026
380.89
386.286
389.804
391.982
393.246
393.933
394.243
394.249
394.16
394.018
393.753
393.389
392.971
392.506
392.014
391.53
144.8
144.915
145.064
145.258
145.51
145.837
146.263
146.818
147.54
148.479
149.7
151.284
153.333
155.973
159.357
163.663
169.092
175.86
184.18
194.24
206.172
220.033
235.764
253.145
271.807
291.259
310.875
329.785
346.98
361.584
373.156
381.758
387.797
391.82
394.369
395.887
396.732
397.142
397.233
397.143
396.999
396.768
396.416
395.996
395.54
395.035
394.515
394.01
393.522
393.045
145.393
145.675
146.039
146.509
147.116
147.901
148.915
150.222
151.904
154.062
156.821
160.329
164.755
170.291
177.139
185.494
195.529
207.361
221.035
236.497
253.549
271.841
290.927
310.252
329.054
346.404
361.42
373.568
382.79
389.401
393.895
396.801
398.577
399.583
400.103
400.271
400.207
400.049
399.841
399.511
399.096
398.636
398.128
397.588
397.052
396.531
396.018
395.516
395.031
394.556
146.819
147.492
148.356
149.463
150.879
152.687
154.988
157.904
161.58
166.179
171.882
178.876
187.343
197.434
209.25
222.823
238.097
254.887
272.859
291.6
310.606
329.213
346.569
361.819
374.373
384.08
391.168
396.077
399.312
401.334
402.5
403.122
403.373
403.339
403.182
402.966
402.67
402.256
401.79
401.289
400.739
400.176
399.625
399.084
398.55
398.028
397.517
397.013
396.523
396.043
150.151
151.703
153.668
156.148
159.264
163.156
167.982
173.912
181.12
189.769
199.992
211.871
225.42
240.579
257.167
274.866
293.284
311.961
330.306
347.546
362.868
375.662
385.711
393.167
398.418
401.937
404.176
405.497
406.219
406.546
406.539
406.394
406.166
405.883
405.479
405.011
404.508
403.955
403.373
402.794
402.227
401.665
401.112
400.57
400.036
399.51
398.992
398.483
397.986
397.5
157.593
160.955
165.116
170.226
176.445
183.932
192.833
203.258
215.269
228.863
243.97
260.409
277.872
295.986
314.325
332.359
349.383
364.636
377.514
387.755
395.46
400.966
404.71
407.129
408.588
409.398
409.782
409.82
409.691
409.445
409.155
408.772
408.298
407.786
407.235
406.64
406.036
405.443
404.856
404.274
403.704
403.14
402.584
402.035
401.494
400.96
400.436
399.919
399.416
398.923
172.987
179.558
187.39
196.606
207.297
219.502
233.199
248.305
264.637
281.894
299.714
317.705
335.385
352.108
367.168
379.983
390.275
398.104
403.766
407.667
410.221
411.787
412.669
413.098
413.179
413.059
412.802
412.493
412.127
411.646
411.126
410.575
409.971
409.347
408.73
408.119
407.511
406.912
406.322
405.737
405.16
404.589
404.024
403.467
402.917
402.376
401.844
401.321
400.812
400.313
201.177
212.19
224.639
238.484
253.628
269.881
286.946
304.475
322.103
339.387
355.735
370.49
383.107
393.31
401.139
406.857
410.837
413.475
415.112
416.046
416.509
416.617
416.5
416.242
415.911
415.543
415.063
414.53
413.97
413.364
412.724
412.082
411.449
410.818
410.192
409.576
408.965
408.36
407.761
407.168
406.581
406.001
405.428
404.862
404.304
403.755
403.217
402.688
402.174
401.671
244.781
259.986
276.174
293.047
310.274
327.515
344.361
360.261
374.609
386.902
396.885
404.592
410.263
414.245
416.907
418.574
419.536
420.017
420.137
420.024
419.763
419.406
419.018
418.552
418.001
417.428
416.819
416.165
415.502
414.846
414.193
413.541
412.899
412.264
411.632
411.007
410.388
409.773
409.164
408.561
407.964
407.375
406.793
406.219
405.654
405.099
404.554
404.021
403.502
402.996
300.211
317.112
333.934
350.291
365.669
379.51
391.362
401.004
408.475
414
417.904
420.532
422.186
423.145
423.625
423.741
423.627
423.357
422.975
422.569
422.1
421.533
420.946
420.332
419.668
418.985
418.307
417.633
416.958
416.291
415.632
414.975
414.324
413.678
413.037
412.402
411.771
411.146
410.527
409.914
409.308
408.71
408.12
407.539
406.968
406.407
405.857
405.32
404.798
404.289
357.151
371.927
385.163
396.464
405.651
412.78
418.069
421.82
424.355
425.953
426.881
427.339
427.437
427.311
427.02
426.622
426.189
425.712
425.13
424.527
423.9
423.228
422.528
421.829
421.134
420.438
419.747
419.064
418.384
417.709
417.039
416.372
415.71
415.053
414.401
413.754
413.113
412.478
411.849
411.227
410.613
410.007
409.41
408.823
408.246
407.68
407.126
406.585
406.061
405.55
402.166
410.796
417.488
422.457
425.987
428.374
429.876
430.743
431.161
431.223
431.078
430.762
430.342
429.882
429.376
428.799
428.17
427.529
426.846
426.13
425.411
424.696
423.98
423.265
422.558
421.857
421.158
420.464
419.774
419.088
418.406
417.728
417.054
416.386
415.723
415.065
414.414
413.769
413.131
412.501
411.879
411.266
410.663
410.07
409.488
408.918
408.361
407.817
407.291
406.778
427.14
430.389
432.579
433.951
434.73
435.089
435.096
434.923
434.581
434.134
433.642
433.113
432.525
431.875
431.213
430.521
429.79
429.051
428.316
427.58
426.843
426.114
425.391
424.669
423.952
423.239
422.529
421.823
421.121
420.423
419.729
419.039
418.355
417.675
417.002
416.334
415.673
415.02
414.374
413.736
413.107
412.488
411.879
411.281
410.695
410.121
409.562
409.016
408.488
407.975
438.167
438.835
439.106
439.065
438.849
438.47
437.987
437.47
436.916
436.306
435.637
434.955
434.251
433.505
432.746
431.99
431.236
430.479
429.729
428.984
428.24
427.5
426.765
426.033
425.304
424.578
423.856
423.138
422.424
421.714
421.008
420.307
419.612
418.922
418.239
417.562
416.893
416.231
415.578
414.933
414.298
413.673
413.059
412.457
411.867
411.29
410.728
410.181
409.652
409.138
443.12
442.846
442.423
441.908
441.362
440.78
440.138
439.459
438.753
438.03
437.271
436.493
435.718
434.946
434.171
433.398
432.632
431.868
431.107
430.35
429.596
428.844
428.096
427.352
426.61
425.872
425.138
424.407
423.681
422.96
422.243
421.532
420.827
420.128
419.435
418.75
418.073
417.404
416.743
416.092
415.452
414.822
414.203
413.597
413.004
412.425
411.861
411.312
410.782
410.269
446.438
445.891
445.313
444.7
444.029
443.333
442.605
441.857
441.085
440.292
439.498
438.708
437.913
437.119
436.333
435.55
434.768
433.99
433.215
432.442
431.673
430.906
430.142
429.381
428.624
427.87
427.12
426.374
425.632
424.895
424.163
423.436
422.715
422
421.292
420.592
419.898
419.214
418.538
417.871
417.214
416.568
415.934
415.311
414.702
414.106
413.524
412.958
412.409
411.878
411.365
448.672
447.974
447.253
446.509
445.737
444.948
444.138
443.325
442.517
441.705
440.892
440.086
439.284
438.48
437.682
436.888
436.095
435.304
434.516
433.731
432.948
432.169
431.392
430.619
429.85
429.084
428.322
427.565
426.812
426.065
425.323
424.586
423.856
423.133
422.417
421.708
421.008
420.316
419.633
418.961
418.299
417.648
417.009
416.383
415.77
415.172
414.588
414.021
413.47
412.939
412.425
451.221
450.457
449.664
448.854
448.03
447.198
446.372
445.543
444.711
443.887
443.066
442.243
441.425
440.611
439.798
438.987
438.179
437.374
436.57
435.77
434.972
434.177
433.385
432.596
431.811
431.03
430.253
429.48
428.713
427.95
427.192
426.441
425.695
424.957
424.225
423.501
422.785
422.078
421.379
420.691
420.013
419.346
418.691
418.048
417.418
416.802
416.201
415.615
415.046
414.494
413.962
413.448
452.803
451.963
451.114
450.268
449.424
448.575
447.732
446.893
446.052
445.215
444.382
443.55
442.719
441.892
441.067
440.243
439.423
438.604
437.788
436.975
436.165
435.358
434.554
433.754
432.958
432.166
431.378
430.595
429.817
429.045
428.278
427.517
426.763
426.017
425.277
424.546
423.823
423.109
422.405
421.71
421.027
420.355
419.696
419.049
418.415
417.796
417.192
416.605
416.034
415.48
414.948
414.433
454.206
453.344
452.479
451.617
450.762
449.904
449.048
448.198
447.347
446.498
445.652
444.808
443.965
443.125
442.287
441.451
440.618
439.787
438.959
438.134
437.312
436.493
435.678
434.867
434.06
433.258
432.46
431.667
430.879
430.098
429.322
428.553
427.791
427.036
426.289
425.551
424.821
424.101
423.391
422.691
422.003
421.326
420.662
420.011
419.374
418.752
418.145
417.555
416.982
416.427
415.892
415.376
455.542
454.669
453.795
452.922
452.054
451.186
450.319
449.455
448.593
447.732
446.873
446.017
445.162
444.309
443.459
442.611
441.765
440.923
440.083
439.246
438.413
437.583
436.758
435.936
435.119
434.306
433.499
432.696
431.9
431.109
430.325
429.548
428.778
428.016
427.262
426.516
425.78
425.054
424.338
423.632
422.939
422.257
421.589
420.934
420.293
419.667
419.057
418.464
417.888
417.331
416.794
416.276
456.832
455.947
455.063
454.179
453.298
452.419
451.54
450.664
449.79
448.917
448.046
447.177
446.31
445.445
444.583
443.723
442.866
442.012
441.161
440.314
439.47
438.629
437.793
436.962
436.134
435.312
434.495
433.684
432.879
432.08
431.287
430.502
429.724
428.955
428.194
427.441
426.699
425.966
425.244
424.534
423.835
423.148
422.475
421.815
421.17
420.54
419.927
419.33
418.751
418.191
417.651
417.13
458.075
457.178
456.282
455.387
454.494
453.602
452.712
451.824
450.937
450.052
449.169
448.289
447.41
446.534
445.66
444.789
443.921
443.056
442.194
441.336
440.482
439.632
438.785
437.944
437.107
436.276
435.45
434.63
433.816
433.008
432.208
431.415
430.63
429.853
429.085
428.326
427.577
426.838
426.11
425.393
424.689
423.997
423.318
422.654
422.004
421.37
420.752
420.151
419.568
419.004
418.46
417.935
459.269
458.359
457.452
456.545
455.64
454.737
453.835
452.935
452.036
451.14
450.246
449.354
448.464
447.576
446.692
445.81
444.931
444.055
443.183
442.315
441.45
440.59
439.735
438.884
438.038
437.197
436.362
435.534
434.711
433.896
433.087
432.286
431.494
430.709
429.934
429.168
428.412
427.667
426.932
426.21
425.499
424.802
424.117
423.448
422.792
422.153
421.53
420.924
420.336
419.767
419.219
418.689
459.491
458.572
457.654
456.737
455.823
454.909
453.998
453.088
452.181
451.275
450.372
449.471
448.573
447.678
446.785
445.896
445.01
444.128
443.25
442.376
441.506
440.641
439.781
438.926
438.076
437.232
436.395
435.564
434.741
433.924
433.116
432.315
431.523
430.741
429.968
429.205
428.452
427.711
426.982
426.265
425.561
424.87
424.194
423.533
422.888
422.259
421.647
421.054
420.478
419.924
419.388
460.574
459.644
458.715
457.787
456.861
455.937
455.014
454.094
453.175
452.259
451.345
450.434
449.525
448.619
447.717
446.817
445.922
445.03
444.141
443.258
442.378
441.504
440.634
439.77
438.912
438.06
437.214
436.375
435.543
434.718
433.901
433.093
432.293
431.503
430.722
429.952
429.192
428.444
427.707
426.983
426.272
425.575
424.892
424.224
423.572
422.936
422.317
421.717
421.135
420.573
420.03
461.609
460.668
459.728
458.789
457.852
456.917
455.984
455.053
454.124
453.197
452.273
451.351
450.432
449.516
448.604
447.694
446.789
445.887
444.989
444.096
443.207
442.324
441.445
440.572
439.705
438.844
437.989
437.141
436.3
435.467
434.642
433.826
433.018
432.219
431.431
430.652
429.885
429.128
428.384
427.652
426.933
426.228
425.537
424.862
424.202
423.558
422.932
422.323
421.733
421.164
420.612
461.644
460.694
459.745
458.798
457.852
456.908
455.967
455.027
454.09
453.156
452.224
451.295
450.369
449.447
448.528
447.612
446.701
445.793
444.891
443.993
443.099
442.212
441.329
440.453
439.583
438.719
437.862
437.013
436.171
435.337
434.512
433.696
432.888
432.091
431.304
430.528
429.763
429.01
428.27
427.542
426.828
426.129
425.445
424.776
424.124
423.488
422.871
422.272
421.692
421.131
462.575
461.614
460.655
459.697
458.741
457.787
456.835
455.886
454.939
453.994
453.052
452.113
451.177
450.245
449.316
448.391
447.47
446.553
445.641
444.733
443.83
442.933
442.041
441.156
440.276
439.403
438.537
437.679
436.828
435.984
435.15
434.324
433.508
432.701
431.905
431.12
430.345
429.583
428.833
428.096
427.373
426.664
425.97
425.291
424.629
423.984
423.356
422.747
422.157
421.584
463.459
462.488
461.519
460.551
459.585
458.621
457.659
456.699
455.742
454.787
453.835
452.887
451.941
450.999
450.06
449.125
448.194
447.267
446.345
445.428
444.515
443.608
442.707
441.812
440.922
440.04
439.164
438.296
437.435
436.582
435.738
434.902
434.076
433.259
432.453
431.657
430.873
430.1
429.34
428.593
427.859
427.14
426.435
425.746
425.073
424.416
423.778
423.157
422.555
421.971
464.298
463.316
462.337
461.359
460.383
459.409
458.437
457.467
456.5
455.535
454.573
453.614
452.659
451.706
450.758
449.813
448.872
447.935
447.003
446.076
445.153
444.236
443.325
442.419
441.52
440.627
439.741
438.862
437.991
437.128
436.273
435.427
434.59
433.763
432.946
432.139
431.344
430.56
429.789
429.03
428.285
427.554
426.838
426.137
425.452
424.783
424.132
423.499
422.885
422.287
465.09
464.099
463.109
462.121
461.135
460.151
459.169
458.189
457.212
456.237
455.265
454.296
453.33
452.368
451.409
450.454
449.502
448.555
447.613
446.675
445.742
444.815
443.893
442.977
442.067
441.163
440.266
439.377
438.494
437.62
436.754
435.897
435.048
434.21
433.381
432.563
431.755
430.96
430.176
429.406
428.648
427.905
427.176
426.462
425.764
425.083
424.419
423.772
423.144
422.532
465.837
464.836
463.836
462.838
461.842
460.847
459.855
458.865
457.877
456.892
455.91
454.931
453.954
452.981
452.012
451.046
450.084
449.127
448.174
447.225
446.281
445.343
444.41
443.482
442.561
441.646
440.738
439.837
438.943
438.056
437.178
436.309
435.449
434.598
433.756
432.926
432.106
431.297
430.501
429.717
428.947
428.19
427.447
426.72
426.008
425.313
424.635
423.973
423.33
422.703
466.537
465.526
464.516
463.508
462.501
461.496
460.494
459.493
458.495
457.5
456.507
455.517
454.53
453.546
452.566
451.589
450.616
449.647
448.683
447.723
446.768
445.818
444.873
443.934
443.001
442.074
441.153
440.24
439.334
438.435
437.544
436.662
435.789
434.924
434.07
433.226
432.393
431.571
430.761
429.963
429.178
428.407
427.65
426.908
426.182
425.472
424.778
424.101
423.443
422.799
466.168
465.148
464.13
463.113
462.098
461.084
460.073
459.064
458.058
457.054
456.053
455.055
454.06
453.069
452.08
451.096
450.116
449.14
448.168
447.201
446.238
445.282
444.33
443.384
442.445
441.511
440.585
439.665
438.754
437.849
436.954
436.066
435.188
434.32
433.462
432.614
431.778
430.953
430.14
429.341
428.555
427.783
427.025
426.283
425.557
424.848
424.156
423.483
422.824
466.763
465.732
464.703
463.675
462.649
461.625
460.603
459.583
458.566
457.551
456.538
455.529
454.522
453.519
452.519
451.522
450.53
449.541
448.557
447.577
446.603
445.633
444.668
443.709
442.756
441.809
440.869
439.936
439.01
438.092
437.182
436.28
435.387
434.504
433.631
432.768
431.916
431.076
430.248
429.433
428.631
427.843
427.071
426.315
425.574
424.849
424.142
423.452
422.777
467.308
466.266
465.226
464.188
463.151
462.115
461.082
460.051
459.021
457.995
456.97
455.949
454.93
453.914
452.902
451.893
450.888
449.887
448.889
447.896
446.908
445.925
444.947
443.974
443.007
442.046
441.091
440.143
439.203
438.269
437.344
436.427
435.519
434.621
433.731
432.853
431.985
431.129
430.287
429.456
428.639
427.837
427.049
426.277
425.52
424.78
424.056
423.349
422.656
466.75
465.698
464.648
463.6
462.553
461.508
460.465
459.423
458.384
457.348
456.314
455.282
454.254
453.229
452.207
451.188
450.173
449.162
448.156
447.153
446.156
445.163
444.176
443.194
442.218
441.248
440.285
439.329
438.38
437.439
436.506
435.582
434.668
433.764
432.87
431.988
431.117
430.258
429.412
428.58
427.761
426.956
426.167
425.393
424.636
423.895
423.17
422.46
467.18
466.117
465.056
463.995
462.936
461.879
460.823
459.77
458.718
457.669
456.622
455.577
454.535
453.496
452.461
451.428
450.399
449.374
448.353
447.336
446.324
445.316
444.314
443.316
442.325
441.339
440.36
439.388
438.424
437.468
436.52
435.58
434.651
433.731
432.821
431.923
431.035
430.16
429.297
428.447
427.611
426.79
425.984
425.193
424.418
423.66
422.918
422.191
466.482
465.408
464.335
463.264
462.194
461.125
460.059
458.994
457.931
456.87
455.812
454.756
453.703
452.654
451.607
450.563
449.523
448.487
447.454
446.426
445.403
444.384
443.372
442.365
441.364
440.37
439.382
438.403
437.431
436.467
435.512
434.565
433.628
432.702
431.786
430.882
429.989
429.109
428.242
427.39
426.551
425.728
424.92
424.129
423.353
422.594
421.849
466.79
465.703
464.618
463.533
462.45
461.368
460.288
459.21
458.133
457.058
455.986
454.916
453.848
452.783
451.721
450.662
449.606
448.554
447.507
446.464
445.425
444.392
443.363
442.341
441.325
440.315
439.311
438.315
437.326
436.345
435.372
434.409
433.455
432.511
431.578
430.656
429.747
428.85
427.966
427.096
426.241
425.401
424.577
423.768
422.976
422.2
421.437
465.94
464.841
463.743
462.647
461.551
460.457
459.364
458.273
457.183
456.096
455.01
453.927
452.847
451.77
450.696
449.626
448.558
447.496
446.437
445.384
444.334
443.29
442.251
441.217
440.19
439.17
438.156
437.15
436.152
435.162
434.181
433.21
432.249
431.299
430.361
429.434
428.52
427.62
426.733
425.861
425.004
424.163
423.338
422.529
421.736
420.956
466.116
465.004
463.892
462.781
461.671
460.562
459.454
458.347
457.243
456.141
455.041
453.943
452.848
451.756
450.667
449.582
448.499
447.42
446.345
445.274
444.208
443.147
442.091
441.04
439.996
438.958
437.927
436.904
435.888
434.882
433.884
432.895
431.917
430.95
429.995
429.051
428.121
427.204
426.3
425.412
424.539
423.681
422.84
422.014
421.205
420.409
466.23
465.103
463.976
462.85
461.726
460.602
459.481
458.36
457.241
456.124
455.009
453.897
452.786
451.678
450.572
449.47
448.371
447.275
446.183
445.096
444.012
442.934
441.861
440.793
439.732
438.677
437.629
436.588
435.555
434.531
433.517
432.511
431.516
430.533
429.56
428.6
427.653
426.72
425.8
424.896
424.007
423.133
422.276
421.435
420.61
419.798
466.279
465.138
463.997
462.857
461.718
460.581
459.445
458.309
457.175
456.042
454.911
453.782
452.656
451.531
450.409
449.29
448.174
447.061
445.952
444.848
443.747
442.652
441.561
440.477
439.398
438.326
437.261
436.203
435.154
434.113
433.081
432.059
431.047
430.047
429.058
428.082
427.119
426.17
425.235
424.315
423.41
422.521
421.649
420.793
419.953
419.126
466.266
465.111
463.956
462.802
461.648
460.495
459.343
458.191
457.041
455.892
454.745
453.6
452.456
451.315
450.176
449.04
447.907
446.778
445.652
444.53
443.413
442.3
441.193
440.091
438.996
437.906
436.824
435.75
434.683
433.626
432.578
431.539
430.512
429.495
428.491
427.499
426.52
425.555
424.605
423.67
422.751
421.848
420.961
420.091
419.237
418.395
466.19
465.019
463.849
462.679
461.51
460.341
459.172
458.005
456.839
455.673
454.51
453.348
452.188
451.03
449.875
448.722
447.572
446.426
445.283
444.144
443.01
441.881
440.756
439.638
438.525
437.419
436.32
435.229
434.147
433.073
432.008
430.954
429.911
428.879
427.859
426.852
425.858
424.879
423.915
422.966
422.032
421.116
420.215
419.331
418.463
417.608
466.045
464.859
463.674
462.488
461.303
460.118
458.933
457.75
456.567
455.386
454.206
453.027
451.851
450.676
449.504
448.334
447.168
446.005
444.845
443.69
442.539
441.393
440.252
439.116
437.987
436.865
435.75
434.643
433.544
432.455
431.375
430.305
429.247
428.2
427.165
426.144
425.137
424.143
423.165
422.203
421.257
420.327
419.414
418.517
417.636
416.768
464.631
463.429
462.228
461.027
459.826
458.625
457.426
456.227
455.029
453.833
452.638
451.444
450.253
449.065
447.879
446.696
445.516
444.34
443.168
442
440.838
439.681
438.529
437.384
436.246
435.115
433.993
432.879
431.774
430.679
429.595
428.522
427.461
426.413
425.378
424.357
423.351
422.36
421.385
420.426
419.484
418.559
417.651
416.759
415.881
464.333
463.116
461.899
460.682
459.465
458.248
457.033
455.817
454.603
453.391
452.179
450.97
449.762
448.557
447.355
446.156
444.96
443.767
442.579
441.396
440.217
439.044
437.877
436.717
435.563
434.418
433.28
432.151
431.032
429.923
428.825
427.738
426.664
425.603
424.555
423.522
422.504
421.501
420.515
419.545
418.592
417.656
416.738
415.836
414.947
463.966
462.733
461.501
460.268
459.035
457.802
456.57
455.339
454.109
452.88
451.653
450.428
449.204
447.983
446.765
445.549
444.338
443.13
441.926
440.727
439.533
438.345
437.163
435.987
434.819
433.659
432.507
431.365
430.232
429.109
427.998
426.899
425.812
424.739
423.679
422.635
421.605
420.592
419.595
418.615
417.653
416.708
415.78
414.87
413.971
462.281
461.033
459.784
458.536
457.288
456.04
454.793
453.547
452.303
451.06
449.818
448.579
447.342
446.109
444.878
443.651
442.427
441.209
439.995
438.786
437.583
436.387
435.197
434.015
432.842
431.676
430.521
429.375
428.24
427.117
426.006
424.908
423.823
422.753
421.698
420.658
419.635
418.63
417.641
416.67
415.717
414.782
413.862
412.956
461.761
460.497
459.233
457.969
456.705
455.442
454.18
452.918
451.658
450.4
449.143
447.889
446.637
445.388
444.143
442.901
441.663
440.43
439.202
437.979
436.762
435.552
434.35
433.155
431.968
430.79
429.622
428.465
427.319
426.184
425.062
423.953
422.859
421.779
420.715
419.667
418.636
417.622
416.626
415.648
414.687
413.744
412.818
411.904
461.171
459.892
458.613
457.334
456.055
454.777
453.5
452.223
450.948
449.675
448.404
447.135
445.869
444.605
443.346
442.09
440.838
439.591
438.35
437.114
435.884
434.661
433.446
432.239
431.04
429.851
428.672
427.504
426.347
425.202
424.071
422.953
421.85
420.762
419.689
418.634
417.596
416.575
415.572
414.587
413.621
412.672
411.739
410.82
460.514
459.22
457.926
456.633
455.339
454.047
452.755
451.464
450.175
448.887
447.602
446.319
445.039
443.762
442.489
441.219
439.955
438.695
437.441
436.192
434.951
433.716
432.489
431.271
430.061
428.862
427.673
426.495
425.328
424.175
423.035
421.909
420.799
419.703
418.625
417.563
416.518
415.491