/*--------------------------------*- C++ -*----------------------------------*\
| =========                 |                                                 |
| \\      /  F ield         | OpenFOAM: The Open Source CFD Toolbox           |
|  \\    /   O peration     | Version:  v1706                                 |
|   \\  /    A nd           | Web:      www.OpenFOAM.com                      |
|    \\/     M anipulation  |                                                 |
\*---------------------------------------------------------------------------*/
FoamFile
{
    version     2.0;
    format      ascii;
    class       volScalarField;
    location    "3.3e-05";
    object      Tv;
}
// * * * * * * * * * * * * * * * * * * * * * * * * * * * * * * * * * * * * * //

dimensions      [0 0 0 1 0 0 0];


internalField   nonuniform List<scalar> 
30038
(
144.4
144.4
144.4
144.4
144.4
144.4
144.4
144.4
144.4
144.4
144.4
144.4
144.4
144.4
144.4
144.4
144.4
144.4
144.4
144.4
144.4
144.4
144.4
144.4
144.4
144.4
144.4
144.4
144.4
144.4
144.4
144.4
144.4
144.4
144.4
144.4
144.4
144.4
144.4
144.4
144.4
144.4
144.4
144.4
144.4
144.4
144.4
144.4
144.4
144.4
144.4
144.4
144.4
144.4
144.4
144.4
144.4
144.4
144.4
144.4
144.4
144.4
144.4
144.4
144.4
144.4
144.4
144.4
144.4
144.4
144.4
144.4
144.4
144.4
144.4
144.4
144.4
144.4
144.4
144.4
144.4
144.4
144.4
144.4
144.4
144.4
144.4
144.4
144.4
144.4
144.4
144.4
144.4
144.4
144.4
144.4
144.4
144.4
144.4
144.4
144.4
144.4
144.4
144.4
144.4
144.4
144.4
144.4
144.4
144.4
144.4
144.4
144.4
144.4
144.4
144.4
144.4
144.4
144.4
144.4
144.4
144.4
144.4
144.4
144.4
144.4
144.4
144.4
144.4
144.4
144.4
144.4
144.4
144.4
144.4
144.4
144.4
144.4
144.4
144.4
144.4
144.4
144.4
144.4
144.4
144.4
144.4
144.4
144.4
144.4
144.4
144.4
144.4
144.4
144.4
144.4
144.4
144.4
144.4
144.4
144.4
144.4
144.4
144.4
144.4
144.4
144.4
144.4
144.4
144.4
144.4
144.4
144.4
144.4
144.4
144.4
144.4
144.4
144.4
144.4
144.4
144.4
144.4
144.4
144.4
144.4
144.4
144.4
144.4
144.4
144.4
144.4
144.4
144.4
144.4
144.4
144.4
144.4
144.4
144.4
144.4
144.4
144.4
144.4
144.4
144.4
144.4
144.4
144.4
144.4
144.4
144.4
144.4
144.4
144.4
144.4
144.4
144.4
144.4
144.4
144.4
144.4
144.4
144.4
144.4
144.4
144.4
144.4
144.4
144.4
144.4
144.4
144.4
144.4
144.4
144.4
144.4
144.4
144.4
144.4
144.4
144.4
144.4
144.4
144.4
144.4
144.4
144.4
144.4
144.4
144.4
144.4
144.4
144.4
144.4
144.4
144.4
144.4
144.4
144.4
144.4
144.4
144.4
144.4
144.4
144.4
144.4
144.4
144.4
144.4
144.4
144.4
144.4
144.4
144.4
144.4
144.4
144.4
144.4
144.4
144.4
144.4
144.4
144.4
144.4
144.4
144.4
144.4
144.4
144.4
144.4
144.4
144.4
144.4
144.4
144.4
144.4
144.4
144.4
144.4
144.4
144.4
144.4
144.4
144.4
144.4
144.4
144.4
144.4
144.4
144.4
144.4
144.4
144.4
144.4
144.4
144.4
144.4
144.4
144.4
144.4
144.4
144.4
144.4
144.4
144.4
144.4
144.4
144.4
144.4
144.4
144.4
144.4
144.4
144.4
144.4
144.4
144.4
144.4
144.4
144.4
144.4
144.4
144.4
144.4
144.4
144.4
144.4
144.4
144.4
144.4
144.4
144.4
144.4
144.4
144.4
144.4
144.4
144.4
144.4
144.4
144.4
144.4
144.4
144.4
144.4
144.4
144.4
144.4
144.4
144.4
144.4
144.4
144.4
144.4
144.4
144.4
144.4
144.4
144.4
144.4
144.4
144.4
144.4
144.4
144.4
144.4
144.4
144.4
144.4
144.4
144.4
144.4
144.4
144.4
144.4
144.4
144.4
144.4
144.4
144.4
144.4
144.4
144.4
144.4
144.4
144.4
144.4
144.4
144.4
144.4
144.4
144.4
144.4
144.4
144.4
144.4
144.4
144.4
144.4
144.4
144.4
144.4
144.4
144.4
144.4
144.4
144.4
144.4
144.4
144.4
144.4
144.4
144.4
144.4
144.4
144.4
144.4
144.4
144.4
144.4
144.4
144.4
144.4
144.4
144.4
144.4
144.4
144.4
144.4
144.4
144.4
144.4
144.4
144.4
144.4
144.4
144.4
144.4
144.4
144.4
144.4
144.4
144.4
144.4
144.4
144.4
144.4
144.4
144.4
144.4
144.4
144.4
144.4
144.4
144.4
144.4
144.4
144.4
144.4
144.4
144.4
144.4
144.4
144.4
144.4
144.4
144.4
144.4
144.4
144.4
144.4
144.4
144.4
144.4
144.4
144.4
144.4
144.4
144.4
144.4
144.4
144.4
144.4
144.4
144.4
144.4
144.4
144.4
144.4
144.4
144.4
144.4
144.4
144.4
144.4
144.4
144.4
144.4
144.4
144.4
144.4
144.4
144.4
144.4
144.4
144.4
144.4
144.4
144.4
144.4
144.4
144.4
144.4
144.4
144.4
144.4
144.4
144.4
144.4
144.4
144.4
144.4
144.4
144.4
144.4
144.4
144.4
144.4
144.4
144.4
144.4
144.4
144.4
144.4
144.4
144.4
144.4
144.4
144.4
144.4
144.4
144.4
144.4
144.4
144.4
144.4
144.4
144.4
144.4
144.4
144.4
144.4
144.4
144.4
144.4
144.4
144.4
144.4
144.4
144.4
144.4
144.4
144.4
144.4
144.4
144.4
144.4
144.4
144.4
144.4
144.4
144.4
144.4
144.4
144.4
144.4
144.4
144.4
144.4
144.4
144.4
144.4
144.4
144.4
144.4
144.4
144.4
144.4
144.4
144.4
144.4
144.4
144.4
144.4
144.4
144.4
144.4
144.4
144.4
144.4
144.4
144.4
144.4
144.4
144.4
144.4
144.4
144.4
144.4
144.4
144.4
144.4
144.4
144.4
144.4
144.4
144.4
144.4
144.4
144.4
144.4
144.4
144.4
144.4
144.4
144.4
144.4
144.4
144.4
144.4
144.4
144.4
144.4
144.4
144.4
144.4
144.4
144.4
144.4
144.4
144.4
144.4
144.4
144.4
144.4
144.4
144.4
144.4
144.4
144.4
144.4
144.4
144.4
144.4
144.4
144.4
144.4
144.4
144.4
144.4
144.4
144.4
144.4
144.4
144.4
144.4
144.4
144.4
144.4
144.4
144.4
144.4
144.4
144.4
144.4
144.4
144.4
144.4
144.4
144.4
144.4
144.4
144.4
144.4
144.4
144.4
144.4
144.4
144.4
144.4
144.4
144.4
144.4
144.4
144.4
144.4
144.4
144.4
144.4
144.4
144.4
144.4
144.4
144.4
144.4
144.4
144.4
144.4
144.4
144.4
144.4
144.4
144.4
144.4
144.4
144.4
144.4
144.4
144.4
144.4
144.401
144.4
144.4
144.4
144.4
144.4
144.4
144.4
144.4
144.4
144.4
144.4
144.4
144.4
144.4
144.4
144.4
144.4
144.4
144.4
144.4
144.4
144.4
144.4
144.4
144.4
144.4
144.4
144.4
144.4
144.4
144.4
144.4
144.4
144.4
144.4
144.4
144.4
144.4
144.401
144.401
144.402
144.4
144.4
144.4
144.4
144.4
144.4
144.4
144.4
144.4
144.4
144.4
144.4
144.4
144.4
144.4
144.4
144.4
144.4
144.4
144.4
144.4
144.4
144.4
144.4
144.4
144.4
144.4
144.4
144.4
144.4
144.4
144.4
144.4
144.4
144.4
144.4
144.401
144.401
144.402
144.403
144.404
144.405
144.4
144.4
144.4
144.4
144.4
144.4
144.4
144.4
144.4
144.4
144.4
144.4
144.4
144.4
144.4
144.4
144.4
144.4
144.4
144.4
144.4
144.4
144.4
144.4
144.4
144.4
144.4
144.4
144.4
144.4
144.4
144.4
144.4
144.4
144.401
144.401
144.402
144.403
144.404
144.405
144.407
144.41
144.414
144.4
144.4
144.4
144.4
144.4
144.4
144.4
144.4
144.4
144.4
144.4
144.4
144.4
144.4
144.4
144.4
144.4
144.4
144.4
144.4
144.4
144.4
144.4
144.4
144.4
144.4
144.4
144.4
144.4
144.4
144.401
144.401
144.401
144.402
144.403
144.404
144.405
144.407
144.41
144.413
144.418
144.423
144.431
144.4
144.4
144.4
144.4
144.4
144.4
144.4
144.4
144.4
144.4
144.4
144.4
144.4
144.4
144.4
144.4
144.4
144.4
144.4
144.4
144.4
144.4
144.4
144.4
144.4
144.4
144.4
144.4
144.401
144.401
144.401
144.402
144.403
144.404
144.405
144.407
144.41
144.413
144.418
144.423
144.43
144.439
144.45
144.465
144.4
144.4
144.4
144.4
144.4
144.4
144.4
144.4
144.4
144.4
144.4
144.4
144.4
144.4
144.4
144.4
144.4
144.4
144.4
144.4
144.4
144.4
144.4
144.4
144.4
144.4
144.401
144.401
144.401
144.402
144.403
144.404
144.405
144.407
144.41
144.414
144.418
144.424
144.431
144.439
144.45
144.464
144.481
144.503
144.53
144.4
144.4
144.4
144.4
144.4
144.4
144.4
144.4
144.4
144.4
144.4
144.4
144.4
144.4
144.4
144.4
144.4
144.4
144.4
144.4
144.4
144.4
144.4
144.4
144.401
144.401
144.401
144.402
144.403
144.404
144.406
144.408
144.411
144.414
144.419
144.424
144.431
144.44
144.451
144.465
144.482
144.503
144.528
144.56
144.599
144.649
144.4
144.4
144.4
144.4
144.4
144.4
144.4
144.4
144.4
144.4
144.4
144.4
144.4
144.4
144.4
144.4
144.4
144.4
144.4
144.4
144.4
144.4
144.4
144.401
144.401
144.401
144.402
144.403
144.404
144.406
144.408
144.411
144.415
144.419
144.425
144.433
144.442
144.453
144.466
144.483
144.504
144.529
144.561
144.599
144.645
144.702
144.771
144.857
144.4
144.4
144.4
144.4
144.4
144.4
144.4
144.4
144.4
144.4
144.4
144.4
144.4
144.4
144.4
144.4
144.4
144.4
144.4
144.401
144.401
144.401
144.402
144.402
144.403
144.405
144.406
144.409
144.412
144.416
144.421
144.427
144.434
144.443
144.455
144.469
144.486
144.507
144.532
144.563
144.601
144.647
144.702
144.769
144.85
144.946
145.062
145.205
144.4
144.4
144.4
144.4
144.4
144.4
144.4
144.4
144.4
144.4
144.4
144.4
144.4
144.4
144.4
144.4
144.4
144.4
144.401
144.401
144.401
144.402
144.403
144.404
144.405
144.407
144.41
144.413
144.417
144.422
144.428
144.436
144.446
144.458
144.472
144.489
144.51
144.536
144.567
144.605
144.651
144.706
144.772
144.851
144.946
145.058
145.191
145.348
145.534
145.758
144.4
144.4
144.4
144.4
144.4
144.4
144.4
144.4
144.4
144.4
144.4
144.4
144.4
144.4
144.401
144.401
144.401
144.402
144.402
144.403
144.404
144.406
144.408
144.411
144.414
144.418
144.424
144.431
144.439
144.449
144.461
144.476
144.494
144.516
144.542
144.574
144.612
144.658
144.713
144.779
144.858
144.951
145.061
145.192
145.345
145.525
145.734
145.976
146.257
146.587
144.4
144.4
144.4
144.4
144.4
144.4
144.4
144.4
144.4
144.4
144.4
144.401
144.401
144.401
144.402
144.403
144.404
144.405
144.407
144.409
144.412
144.416
144.42
144.426
144.433
144.442
144.453
144.466
144.481
144.5
144.522
144.55
144.582
144.621
144.668
144.723
144.79
144.868
144.961
145.071
145.2
145.351
145.528
145.732
145.968
146.238
146.547
146.898
147.294
147.751
144.4
144.4
144.4
144.4
144.4
144.4
144.4
144.401
144.401
144.401
144.402
144.402
144.403
144.404
144.406
144.408
144.41
144.414
144.418
144.423
144.429
144.437
144.446
144.458
144.471
144.488
144.507
144.531
144.559
144.593
144.633
144.681
144.737
144.804
144.884
144.977
145.087
145.216
145.366
145.54
145.742
145.973
146.238
146.54
146.88
147.263
147.689
148.163
148.686
149.274
144.4
144.4
144.4
144.401
144.401
144.401
144.401
144.402
144.403
144.404
144.405
144.407
144.409
144.412
144.416
144.42
144.426
144.433
144.441
144.452
144.464
144.478
144.496
144.517
144.541
144.571
144.606
144.647
144.697
144.755
144.824
144.904
144.999
145.11
145.239
145.389
145.563
145.763
145.992
146.253
146.549
146.883
147.256
147.672
148.132
148.637
149.188
149.785
150.431
151.141
144.401
144.401
144.401
144.402
144.402
144.403
144.405
144.406
144.408
144.411
144.414
144.418
144.423
144.43
144.438
144.447
144.458
144.471
144.487
144.506
144.528
144.554
144.585
144.622
144.666
144.717
144.777
144.848
144.931
145.027
145.14
145.271
145.422
145.596
145.796
146.024
146.283
146.575
146.904
147.271
147.679
148.128
148.621
149.157
149.737
150.361
151.027
151.737
152.49
153.302
144.402
144.403
144.404
144.406
144.408
144.41
144.413
144.417
144.422
144.427
144.435
144.443
144.454
144.466
144.48
144.497
144.518
144.542
144.57
144.603
144.642
144.687
144.741
144.804
144.877
144.963
145.062
145.178
145.311
145.464
145.64
145.841
146.069
146.327
146.618
146.944
147.307
147.708
148.149
148.632
149.156
149.723
150.331
150.98
151.669
152.397
153.161
153.963
154.801
155.692
144.407
144.409
144.412
144.416
144.42
144.426
144.433
144.441
144.45
144.462
144.475
144.491
144.51
144.532
144.558
144.588
144.624
144.665
144.714
144.771
144.837
144.913
145.002
145.105
145.224
145.36
145.517
145.695
145.899
146.129
146.388
146.678
147.003
147.363
147.76
148.195
148.67
149.185
149.74
150.335
150.969
151.641
152.351
153.095
153.874
154.684
155.526
156.397
157.299
158.247
144.42
144.425
144.431
144.439
144.448
144.459
144.472
144.487
144.505
144.526
144.55
144.578
144.611
144.649
144.694
144.746
144.806
144.876
144.956
145.049
145.156
145.28
145.42
145.581
145.763
145.97
146.203
146.465
146.757
147.081
147.44
147.835
148.266
148.736
149.243
149.789
150.373
150.994
151.652
152.345
153.071
153.831
154.621
155.44
156.287
157.16
158.057
158.978
159.926
160.914
144.447
144.458
144.47
144.485
144.502
144.522
144.545
144.572
144.602
144.638
144.68
144.728
144.784
144.848
144.922
145.007
145.105
145.218
145.346
145.492
145.658
145.845
146.057
146.294
146.559
146.854
147.18
147.539
147.933
148.363
148.828
149.33
149.868
150.443
151.053
151.699
152.377
153.088
153.83
154.602
155.401
156.227
157.078
157.952
158.848
159.765
160.701
161.657
162.635
163.65
144.501
144.52
144.542
144.568
144.598
144.632
144.671
144.717
144.769
144.829
144.898
144.978
145.068
145.172
145.29
145.425
145.577
145.749
145.942
146.16
146.402
146.672
146.971
147.3
147.662
148.056
148.485
148.948
149.446
149.979
150.546
151.147
151.782
152.448
153.145
153.872
154.626
155.408
156.214
157.045
157.897
158.771
159.665
160.578
161.508
162.455
163.418
164.397
165.394
166.426
144.596
144.63
144.667
144.711
144.761
144.818
144.883
144.958
145.043
145.14
145.251
145.376
145.517
145.677
145.856
146.057
146.281
146.53
146.806
147.11
147.444
147.808
148.205
148.634
149.096
149.592
150.121
150.682
151.276
151.901
152.556
153.241
153.954
154.693
155.458
156.247
157.058
157.891
158.744
159.617
160.507
161.414
162.337
163.275
164.228
165.195
166.175
167.168
168.179
169.22
144.759
144.814
144.877
144.948
145.029
145.121
145.225
145.343
145.476
145.626
145.793
145.981
146.19
146.422
146.679
146.962
147.272
147.611
147.981
148.38
148.811
149.274
149.768
150.294
150.851
151.439
152.056
152.702
153.375
154.076
154.801
155.551
156.323
157.117
157.932
158.766
159.618
160.487
161.372
162.273
163.188
164.118
165.06
166.015
166.982
167.961
168.951
169.954
170.971
172.016
145.025
145.114
145.213
145.326
145.452
145.594
145.753
145.93
146.127
146.345
146.586
146.851
147.142
147.46
147.806
148.181
148.585
149.019
149.483
149.977
150.501
151.054
151.637
152.247
152.885
153.549
154.238
154.95
155.686
156.443
157.221
158.018
158.834
159.667
160.516
161.381
162.261
163.154
164.061
164.981
165.912
166.856
167.81
168.775
169.751
170.736
171.732
172.738
173.758
174.805
145.444
145.58
145.732
145.901
146.088
146.295
146.524
146.775
147.05
147.35
147.676
148.03
148.41
148.82
149.257
149.724
150.219
150.742
151.293
151.871
152.476
153.106
153.761
154.439
155.14
155.863
156.606
157.369
158.15
158.948
159.763
160.593
161.439
162.298
163.171
164.057
164.954
165.864
166.784
167.715
168.657
169.608
170.569
171.539
172.519
173.507
174.505
175.512
176.532
177.577
145.893
146.073
146.272
146.49
146.73
146.992
147.278
147.588
147.923
148.284
148.672
149.087
149.529
149.999
150.495
151.018
151.567
152.142
152.741
153.365
154.012
154.681
155.371
156.082
156.812
157.56
158.325
159.107
159.905
160.718
161.544
162.385
163.238
164.103
164.979
165.867
166.766
167.675
168.593
169.522
170.459
171.406
172.361
173.325
174.297
175.277
176.265
177.262
178.268
179.285
180.327
146.715
146.967
147.241
147.537
147.858
148.203
148.573
148.969
149.39
149.837
150.309
150.808
151.331
151.879
152.451
153.046
153.664
154.303
154.963
155.643
156.342
157.059
157.794
158.545
159.311
160.093
160.888
161.697
162.519
163.353
164.198
165.055
165.922
166.8
167.687
168.584
169.49
170.405
171.328
172.26
173.2
174.148
175.104
176.068
177.039
178.018
179.004
179.998
181
182.013
183.049
147.524
147.832
148.164
148.519
148.898
149.302
149.73
150.182
150.658
151.159
151.682
152.229
152.799
153.39
154.002
154.634
155.286
155.956
156.645
157.35
158.071
158.808
159.56
160.325
161.104
161.896
162.7
163.515
164.342
165.179
166.027
166.884
167.75
168.626
169.511
170.404
171.305
172.215
173.132
174.057
174.99
175.929
176.876
177.831
178.792
179.76
180.736
181.718
182.707
183.704
184.712
185.741
148.875
149.263
149.675
150.109
150.567
151.047
151.549
152.074
152.62
153.187
153.774
154.381
155.006
155.65
156.311
156.989
157.682
158.391
159.115
159.852
160.602
161.365
162.141
162.927
163.725
164.533
165.352
166.18
167.017
167.864
168.719
169.583
170.455
171.335
172.223
173.118
174.021
174.931
175.848
176.771
177.702
178.64
179.584
180.535
181.492
182.456
183.426
184.403
185.386
186.377
187.378
188.4
150.531
150.993
151.477
151.982
152.507
153.052
153.616
154.2
154.801
155.42
156.056
156.708
157.375
158.058
158.754
159.465
160.188
160.924
161.671
162.43
163.2
163.98
164.771
165.571
166.381
167.199
168.026
168.862
169.705
170.557
171.416
172.283
173.157
174.038
174.926
175.821
176.722
177.63
178.545
179.466
180.393
181.326
182.266
183.212
184.164
185.122
186.086
187.056
188.032
189.016
190.009
191.023
152.457
152.983
153.527
154.089
154.668
155.264
155.876
156.504
157.147
157.805
158.476
159.161
159.858
160.567
161.289
162.021
162.764
163.518
164.282
165.055
165.837
166.628
167.428
168.236
169.052
169.877
170.708
171.547
172.393
173.247
174.107
174.973
175.847
176.726
177.612
178.505
179.403
180.308
181.218
182.135
183.057
183.985
184.919
185.859
186.804
187.755
188.712
189.675
190.643
191.619
192.604
193.608
154.605
155.18
155.77
156.376
156.996
157.63
158.277
158.937
159.61
160.295
160.991
161.698
162.415
163.143
163.881
164.628
165.384
166.149
166.922
167.704
168.494
169.291
170.096
170.908
171.727
172.553
173.386
174.226
175.072
175.924
176.783
177.648
178.518
179.395
180.278
181.166
182.06
182.959
183.865
184.775
185.691
186.613
187.54
188.473
189.411
190.354
191.303
192.257
193.217
194.184
195.159
196.153
156.919
157.531
158.156
158.793
159.442
160.103
160.775
161.457
162.15
162.853
163.566
164.288
165.019
165.758
166.506
167.262
168.026
168.797
169.576
170.362
171.155
171.955
172.762
173.575
174.395
175.22
176.052
176.89
177.734
178.584
179.44
180.301
181.167
182.039
182.917
183.8
184.688
185.582
186.48
187.384
188.293
189.208
190.127
191.052
191.981
192.916
193.856
194.802
195.752
196.709
197.675
198.658
159.352
159.99
160.639
161.298
161.968
162.647
163.335
164.033
164.739
165.454
166.177
166.908
167.646
168.393
169.146
169.907
170.675
171.449
172.23
173.018
173.812
174.612
175.418
176.23
177.048
177.871
178.7
179.535
180.375
181.221
182.072
182.928
183.789
184.656
185.527
186.404
187.285
188.172
189.063
189.96
190.861
191.767
192.678
193.594
194.515
195.44
196.371
197.306
198.247
199.194
200.149
201.121
162.522
163.187
163.861
164.543
165.234
165.933
166.64
167.354
168.076
168.805
169.541
170.284
171.033
171.789
172.552
173.32
174.095
174.876
175.663
176.455
177.253
178.057
178.866
179.681
180.5
181.325
182.156
182.991
183.831
184.676
185.526
186.381
187.241
188.106
188.975
189.849
190.728
191.611
192.499
193.392
194.289
195.191
196.097
197.009
197.924
198.845
199.77
200.701
201.637
202.581
203.541
165.097
165.773
166.456
167.146
167.844
168.549
169.261
169.98
170.705
171.437
172.175
172.919
173.669
174.425
175.187
175.955
176.728
177.507
178.291
179.08
179.875
180.675
181.48
182.289
183.104
183.924
184.748
185.578
186.412
187.25
188.094
188.941
189.794
190.65
191.512
192.378
193.248
194.122
195.001
195.885
196.773
197.665
198.561
199.462
200.368
201.278
202.192
203.112
204.037
204.969
205.918
167.697
168.378
169.067
169.761
170.463
171.171
171.885
172.605
173.331
174.063
174.801
175.544
176.293
177.047
177.807
178.572
179.342
180.117
180.897
181.682
182.472
183.267
184.066
184.871
185.68
186.493
187.311
188.133
188.96
189.791
190.627
191.467
192.311
193.16
194.012
194.869
195.73
196.595
197.465
198.338
199.216
200.098
200.984
201.875
202.77
203.669
204.572
205.48
206.393
207.314
208.25
170.99
171.68
172.377
173.079
173.787
174.501
175.221
175.946
176.676
177.412
178.153
178.899
179.65
180.406
181.166
181.932
182.703
183.478
184.258
185.042
185.831
186.624
187.422
188.224
189.03
189.841
190.656
191.475
192.298
193.125
193.957
194.792
195.631
196.475
197.322
198.174
199.029
199.888
200.752
201.619
202.49
203.366
204.245
205.129
206.016
206.908
207.804
208.706
209.614
210.537
173.597
174.288
174.984
175.685
176.392
177.104
177.821
178.544
179.271
180.003
180.74
181.482
182.229
182.98
183.736
184.496
185.261
186.03
186.804
187.582
188.364
189.15
189.941
190.735
191.534
192.336
193.143
193.954
194.768
195.587
196.409
197.235
198.065
198.899
199.736
200.577
201.422
202.271
203.124
203.98
204.841
205.705
206.573
207.445
208.321
209.2
210.085
210.974
211.87
212.78
176.193
176.882
177.576
178.275
178.979
179.688
180.401
181.12
181.843
182.571
183.303
184.04
184.781
185.527
186.277
187.031
187.789
188.552
189.318
190.089
190.864
191.642
192.425
193.212
194.002
194.796
195.594
196.396
197.201
198.01
198.823
199.639
200.459
201.282
202.11
202.94
203.775
204.613
205.454
206.299
207.148
208.001
208.857
209.717
210.581
211.448
212.32
213.197
214.08
214.976
178.772
179.458
180.149
180.844
181.544
182.249
182.958
183.671
184.389
185.112
185.838
186.569
187.304
188.043
188.787
189.534
190.285
191.041
191.8
192.563
193.329
194.1
194.874
195.652
196.433
197.218
198.007
198.799
199.595
200.394
201.197
202.003
202.813
203.626
204.442
205.262
206.085
206.912
207.742
208.576
209.413
210.253
211.098
211.945
212.797
213.652
214.511
215.375
216.245
217.128
181.33
182.012
182.698
183.389
184.084
184.783
185.487
186.195
186.907
187.623
188.344
189.068
189.796
190.528
191.264
192.004
192.748
193.495
194.246
195.001
195.759
196.521
197.286
198.055
198.827
199.602
200.381
201.164
201.949
202.738
203.531
204.326
205.125
205.927
206.733
207.541
208.353
209.168
209.987
210.808
211.634
212.462
213.294
214.129
214.968
215.81
216.657
217.507
218.364
219.233
183.863
184.54
185.221
185.906
186.596
187.289
187.987
188.688
189.394
190.103
190.817
191.534
192.255
192.979
193.708
194.439
195.175
195.914
196.656
197.402
198.151
198.904
199.66
200.419
201.182
201.947
202.716
203.488
204.264
205.042
205.824
206.608
207.396
208.187
208.981
209.778
210.578
211.382
212.188
212.998
213.811
214.627
215.446
216.269
217.095
217.924
218.757
219.595
220.438
221.294
186.369
187.04
187.715
188.394
189.077
189.764
190.455
191.15
191.849
192.551
193.257
193.966
194.679
195.395
196.115
196.839
197.566
198.296
199.029
199.766
200.506
201.249
201.995
202.744
203.497
204.252
205.011
205.772
206.537
207.304
208.075
208.848
209.625
210.404
211.187
211.972
212.76
213.552
214.346
215.143
215.944
216.747
217.554
218.363
219.177
219.993
220.813
221.637
222.467
223.308
189.509
190.178
190.851
191.527
192.207
192.891
193.578
194.269
194.963
195.661
196.363
197.067
197.775
198.486
199.201
199.919
200.64
201.364
202.091
202.821
203.554
204.29
205.029
205.772
206.516
207.264
208.015
208.769
209.525
210.284
211.046
211.811
212.579
213.349
214.123
214.899
215.678
216.46
217.245
218.032
218.823
219.617
220.414
221.214
222.017
222.824
223.634
224.451
225.278
191.947
192.609
193.274
193.943
194.616
195.292
195.971
196.654
197.34
198.03
198.723
199.419
200.118
200.82
201.525
202.234
202.945
203.659
204.376
205.097
205.82
206.545
207.274
208.006
208.74
209.477
210.216
210.959
211.704
212.451
213.202
213.955
214.711
215.469
216.23
216.994
217.761
218.53
219.302
220.077
220.855
221.636
222.42
223.206
223.996
224.789
225.587
226.389
227.202
194.352
195.006
195.664
196.325
196.99
197.658
198.329
199.003
199.681
200.362
201.045
201.732
202.422
203.115
203.811
204.509
205.211
205.915
206.622
207.332
208.045
208.76
209.478
210.198
210.921
211.647
212.376
213.106
213.84
214.576
215.315
216.056
216.799
217.546
218.294
219.046
219.8
220.557
221.316
222.078
222.843
223.611
224.381
225.155
225.931
226.711
227.494
228.283
229.082
197.368
198.018
198.671
199.327
199.987
200.649
201.315
201.984
202.655
203.33
204.007
204.688
205.371
206.057
206.745
207.437
208.131
208.828
209.527
210.229
210.933
211.64
212.349
213.061
213.776
214.493
215.212
215.934
216.658
217.384
218.113
218.845
219.579
220.315
221.054
221.796
222.539
223.286
224.035
224.787
225.541
226.299
227.059
227.822
228.588
229.358
230.133
230.917
199.694
200.335
200.98
201.628
202.278
202.932
203.589
204.248
204.91
205.575
206.243
206.914
207.587
208.263
208.941
209.622
210.306
210.992
211.681
212.372
213.065
213.761
214.459
215.159
215.862
216.568
217.275
217.985
218.697
219.412
220.128
220.848
221.569
222.293
223.019
223.748
224.479
225.212
225.948
226.687
227.428
228.172
228.919
229.668
230.421
231.177
231.938
232.709
202.615
203.251
203.89
204.532
205.176
205.824
206.474
207.126
207.782
208.44
209.1
209.763
210.429
211.097
211.767
212.44
213.116
213.793
214.473
215.155
215.84
216.526
217.215
217.907
218.6
219.296
219.994
220.694
221.396
222.1
222.807
223.516
224.227
224.941
225.657
226.375
227.095
227.818
228.544
229.272
230.003
230.736
231.472
232.211
232.953
233.7
234.457
204.858
205.485
206.114
206.747
207.382
208.019
208.66
209.303
209.948
210.596
211.246
211.899
212.554
213.212
213.871
214.533
215.198
215.864
216.533
217.204
217.877
218.552
219.229
219.909
220.59
221.274
221.96
222.648
223.338
224.03
224.724
225.42
226.119
226.82
227.523
228.228
228.935
229.645
230.358
231.072
231.79
232.51
233.232
233.957
234.686
235.42
236.162
207.679
208.299
208.922
209.548
210.176
210.806
211.439
212.074
212.712
213.352
213.994
214.639
215.285
215.934
216.585
217.239
217.894
218.551
219.211
219.872
220.536
221.201
221.869
222.539
223.21
223.884
224.559
225.237
225.917
226.598
227.282
227.968
228.656
229.346
230.038
230.733
231.43
232.129
232.83
233.534
234.241
234.95
235.662
236.377
237.096
237.824
209.835
210.445
211.059
211.674
212.292
212.913
213.535
214.16
214.788
215.417
216.049
216.682
217.318
217.956
218.596
219.238
219.882
220.528
221.176
221.826
222.478
223.131
223.787
224.445
225.104
225.766
226.429
227.094
227.761
228.431
229.102
229.775
230.45
231.127
231.807
232.488
233.172
233.858
234.546
235.237
235.93
236.626
237.324
238.025
238.731
239.445
211.951
212.552
213.155
213.761
214.369
214.979
215.591
216.206
216.823
217.441
218.062
218.685
219.31
219.937
220.565
221.196
221.829
222.463
223.1
223.738
224.378
225.02
225.664
226.309
226.956
227.606
228.257
228.91
229.564
230.221
230.879
231.54
232.202
232.867
233.533
234.202
234.872
235.545
236.22
236.898
237.578
238.26
238.945
239.633
240.325
241.025
214.027
214.618
215.211
215.807
216.405
217.005
217.607
218.211
218.817
219.425
220.035
220.647
221.261
221.876
222.494
223.113
223.734
224.357
224.982
225.608
226.237
226.867
227.498
228.132
228.767
229.404
230.043
230.683
231.326
231.97
232.616
233.264
233.913
234.565
235.218
235.874
236.532
237.192
237.854
238.518
239.184
239.853
240.525
241.199
241.878
242.564
216.063
216.645
217.228
217.813
218.401
218.99
219.582
220.175
220.77
221.368
221.967
222.568
223.17
223.775
224.381
224.989
225.599
226.21
226.823
227.438
228.054
228.673
229.292
229.914
230.537
231.162
231.788
232.416
233.046
233.678
234.311
234.946
235.583
236.222
236.863
237.506
238.151
238.797
239.446
240.097
240.751
241.407
242.065
242.726
243.391
244.063
218.06
218.631
219.204
219.779
220.356
220.935
221.516
222.099
222.684
223.27
223.858
224.448
225.039
225.633
226.228
226.824
227.422
228.022
228.624
229.227
229.831
230.438
231.045
231.655
232.266
232.878
233.492
234.108
234.726
235.345
235.966
236.589
237.213
237.839
238.467
239.097
239.729
240.363
240.999
241.637
242.278
242.92
243.565
244.213
244.865
245.523
220.016
220.577
221.14
221.705
222.272
222.84
223.411
223.983
224.556
225.132
225.709
226.288
226.868
227.45
228.034
228.619
229.206
229.794
230.384
230.975
231.568
232.162
232.758
233.355
233.954
234.555
235.157
235.76
236.366
236.972
237.581
238.191
238.803
239.417
240.032
240.649
241.268
241.89
242.513
243.138
243.765
244.395
245.027
245.661
246.3
246.945
222.484
223.037
223.591
224.147
224.705
225.265
225.826
226.389
226.953
227.52
228.087
228.657
229.227
229.8
230.373
230.949
231.525
232.103
232.683
233.264
233.847
234.431
235.016
235.603
236.192
236.781
237.373
237.966
238.56
239.156
239.754
240.354
240.955
241.558
242.162
242.769
243.377
243.988
244.6
245.214
245.831
246.45
247.072
247.697
248.328
224.351
224.893
225.437
225.983
226.53
227.079
227.629
228.182
228.735
229.29
229.847
230.405
230.965
231.526
232.088
232.652
233.217
233.784
234.352
234.921
235.492
236.064
236.638
237.213
237.789
238.367
238.946
239.527
240.109
240.693
241.279
241.866
242.454
243.045
243.637
244.231
244.827
245.425
246.024
246.626
247.23
247.836
248.444
249.057
249.675
226.178
226.71
227.244
227.779
228.315
228.854
229.393
229.935
230.477
231.022
231.567
232.114
232.663
233.212
233.763
234.316
234.87
235.425
235.981
236.539
237.098
237.659
238.22
238.783
239.348
239.914
240.481
241.05
241.62
242.192
242.765
243.34
243.916
244.494
245.074
245.656
246.239
246.824
247.411
248
248.592
249.185
249.781
250.38
250.985
228.488
229.011
229.535
230.061
230.589
231.118
231.649
232.181
232.714
233.248
233.784
234.322
234.86
235.4
235.941
236.483
237.027
237.572
238.118
238.666
239.215
239.765
240.316
240.869
241.423
241.978
242.535
243.093
243.653
244.214
244.777
245.341
245.907
246.474
247.044
247.615
248.187
248.762
249.339
249.917
250.498
251.081
251.668
252.26
230.226
230.739
231.253
231.769
232.286
232.804
233.324
233.845
234.367
234.891
235.416
235.942
236.469
236.998
237.528
238.059
238.591
239.125
239.66
240.196
240.733
241.271
241.811
242.352
242.894
243.438
243.983
244.529
245.077
245.626
246.177
246.729
247.283
247.838
248.395
248.954
249.515
250.077
250.641
251.207
251.776
252.346
252.92
253.5
231.926
232.428
232.932
233.437
233.944
234.452
234.961
235.471
235.982
236.495
237.009
237.524
238.041
238.558
239.077
239.597
240.118
240.64
241.164
241.688
242.214
242.741
243.269
243.798
244.329
244.861
245.394
245.929
246.465
247.002
247.541
248.081
248.623
249.166
249.711
250.258
250.807
251.357
251.909
252.463
253.019
253.577
254.138
254.705
233.588
234.08
234.573
235.068
235.564
236.061
236.559
237.059
237.56
238.062
238.565
239.069
239.575
240.081
240.589
241.098
241.608
242.119
242.631
243.144
243.658
244.174
244.691
245.209
245.728
246.248
246.77
247.293
247.817
248.343
248.87
249.398
249.928
250.46
250.993
251.528
252.064
252.602
253.142
253.684
254.228
254.774
255.323
255.877
235.694
236.177
236.661
237.146
237.633
238.121
238.61
239.1
239.591
240.084
240.577
241.072
241.567
242.064
242.562
243.061
243.561
244.062
244.564
245.067
245.571
246.076
246.583
247.091
247.6
248.11
248.621
249.134
249.648
250.164
250.681
251.199
251.719
252.24
252.763
253.288
253.814
254.342
254.872
255.404
255.938
256.475
257.017
237.27
237.743
238.217
238.692
239.168
239.646
240.124
240.604
241.084
241.566
242.049
242.533
243.017
243.503
243.99
244.478
244.967
245.457
245.948
246.44
246.933
247.427
247.923
248.419
248.917
249.416
249.916
250.417
250.92
251.424
251.929
252.436
252.945
253.454
253.966
254.479
254.993
255.51
256.028
256.548
257.07
257.595
258.125
238.809
239.272
239.736
240.201
240.667
241.134
241.602
242.071
242.541
243.012
243.484
243.958
244.432
244.907
245.383
245.86
246.338
246.817
247.297
247.778
248.26
248.744
249.228
249.713
250.2
250.688
251.177