/*--------------------------------*- C++ -*----------------------------------*\
| =========                 |                                                 |
| \\      /  F ield         | OpenFOAM: The Open Source CFD Toolbox           |
|  \\    /   O peration     | Version:  v1706                                 |
|   \\  /    A nd           | Web:      www.OpenFOAM.com                      |
|    \\/     M anipulation  |                                                 |
\*---------------------------------------------------------------------------*/
FoamFile
{
    version     2.0;
    format      ascii;
    class       volVectorField;
    location    "3.3e-05";
    object      U;
}
// * * * * * * * * * * * * * * * * * * * * * * * * * * * * * * * * * * * * * //

dimensions      [0 1 -1 0 0 0 0];


internalField   nonuniform List<vector> 
30038
(
(978.58 -1.13865e-10 5.38149e-15)
(978.58 -1.15446e-10 3.76953e-15)
(978.58 -1.1715e-10 7.55014e-15)
(978.58 -1.19483e-10 3.36757e-15)
(978.58 -1.21344e-10 4.54098e-15)
(978.58 -1.23382e-10 5.85391e-15)
(978.58 -1.2495e-10 8.99279e-15)
(978.58 -1.28259e-10 8.20015e-15)
(978.58 -1.30255e-10 4.80772e-15)
(978.58 -1.32311e-10 5.86918e-15)
(978.58 -1.34983e-10 1.01408e-14)
(978.58 -1.37305e-10 6.65304e-15)
(978.58 -1.39172e-10 4.86505e-15)
(978.58 -1.40496e-10 3.48058e-15)
(978.58 -1.42317e-10 6.80327e-15)
(978.58 -1.43631e-10 8.97316e-15)
(978.58 -1.43461e-10 5.77865e-15)
(978.58 -1.40962e-10 2.8648e-15)
(978.58 -1.33882e-10 5.59107e-15)
(978.58 -1.24517e-10 7.65032e-15)
(978.58 -1.14384e-10 7.22169e-15)
(978.58 -9.72593e-11 4.33231e-15)
(978.58 -6.55512e-11 3.32783e-15)
(978.58 -1.73428e-11 7.27699e-15)
(978.58 6.71848e-11 5.46008e-15)
(978.58 2.16861e-10 3.47111e-15)
(978.58 4.63245e-10 5.40998e-15)
(978.58 8.388e-10 9.26258e-15)
(978.58 1.36744e-09 1.0501e-14)
(978.58 2.12163e-09 8.48426e-15)
(978.58 3.23741e-09 8.16954e-15)
(978.58 4.92139e-09 9.85726e-15)
(978.58 7.48941e-09 7.98723e-15)
(978.58 1.14311e-08 8.16979e-15)
(978.58 1.75148e-08 1.00116e-14)
(978.58 2.69615e-08 5.85342e-15)
(978.58 4.28045e-08 3.46075e-15)
(978.58 6.74989e-08 8.08778e-15)
(978.58 -3.27472e-10 1.7798e-14)
(978.58 -3.32841e-10 2.00369e-14)
(978.58 -3.38648e-10 1.88118e-14)
(978.58 -3.44019e-10 1.82625e-14)
(978.58 -3.48203e-10 2.19618e-14)
(978.58 -3.55419e-10 2.14701e-14)
(978.58 -3.60267e-10 2.23497e-14)
(978.58 -3.65946e-10 2.09297e-14)
(978.58 -3.71755e-10 1.68568e-14)
(978.58 -3.77284e-10 2.1187e-14)
(978.58 -3.81881e-10 1.93955e-14)
(978.58 -3.85786e-10 1.56334e-14)
(978.58 -3.91201e-10 1.84247e-14)
(978.58 -3.93495e-10 1.92568e-14)
(978.58 -3.91234e-10 2.08319e-14)
(978.58 -3.83286e-10 2.02274e-14)
(978.58 -3.75424e-10 1.98145e-14)
(978.58 -3.61174e-10 1.82944e-14)
(978.58 -3.36762e-10 1.79288e-14)
(978.58 -2.99386e-10 1.89296e-14)
(978.58 -2.38889e-10 1.87286e-14)
(978.58 -1.3245e-10 1.97673e-14)
(978.58 5.51206e-11 2.07492e-14)
(978.58 3.93903e-10 1.97811e-14)
(978.58 9.52017e-10 1.94824e-14)
(978.58 1.83087e-09 2.07389e-14)
(978.58 3.08295e-09 2.10381e-14)
(978.58 4.849e-09 2.06376e-14)
(978.58 7.45194e-09 2.35294e-14)
(978.58 1.13711e-08 2.12839e-14)
(978.58 1.73054e-08 2.02839e-14)
(978.58 2.6313e-08 2.75252e-14)
(978.58 4.00178e-08 2.62162e-14)
(978.58 6.09245e-08 2.44494e-14)
(978.58 9.30122e-08 2.45277e-14)
(978.58 1.42032e-07 2.07493e-14)
(978.58 2.21981e-07 2.13634e-14)
(978.58 3.49605e-07 2.39018e-14)
(978.58 -5.31921e-10 3.21457e-14)
(978.58 -5.38501e-10 3.3882e-14)
(978.58 -5.46151e-10 3.09793e-14)
(978.58 -5.54661e-10 2.89966e-14)
(978.58 -5.62529e-10 3.19141e-14)
(978.58 -5.70418e-10 3.36363e-14)
(978.58 -5.77413e-10 3.23566e-14)
(978.58 -5.84915e-10 2.67233e-14)
(978.58 -5.92632e-10 2.80754e-14)
(978.58 -5.99962e-10 2.85187e-14)
(978.58 -6.03482e-10 2.70947e-14)
(978.58 -5.99301e-10 2.95137e-14)
(978.58 -5.97115e-10 3.20244e-14)
(978.58 -5.90706e-10 3.22471e-14)
(978.58 -5.783e-10 3.14961e-14)
(978.58 -5.49905e-10 3.33259e-14)
(978.58 -5.07804e-10 3.23743e-14)
(978.58 -4.36115e-10 3.15188e-14)
(978.58 -3.11161e-10 3.17116e-14)
(978.58 -8.44574e-11 3.12842e-14)
(978.58 3.05969e-10 3.17472e-14)
(978.58 9.35942e-10 3.30027e-14)
(978.58 1.89378e-09 3.14953e-14)
(978.58 3.22179e-09 3.38121e-14)
(978.58 5.06455e-09 3.64153e-14)
(978.58 7.71852e-09 3.45845e-14)
(978.58 1.17006e-08 3.20088e-14)
(978.58 1.77043e-08 3.08813e-14)
(978.58 2.67547e-08 3.46634e-14)
(978.58 4.04016e-08 3.5091e-14)
(978.58 6.10022e-08 3.54817e-14)
(978.58 9.21447e-08 3.71046e-14)
(978.58 1.39342e-07 3.60147e-14)
(978.58 2.10936e-07 3.66136e-14)
(978.58 3.20447e-07 3.76238e-14)
(978.58 4.8627e-07 3.65806e-14)
(978.58 7.5733e-07 3.41158e-14)
(978.58 1.17795e-06 3.67622e-14)
(978.58 -7.27892e-10 4.55662e-14)
(978.58 -7.35304e-10 4.49482e-14)
(978.58 -7.445e-10 4.25992e-14)
(978.58 -7.53481e-10 4.25836e-14)
(978.58 -7.62513e-10 4.58891e-14)
(978.58 -7.70728e-10 4.22791e-14)
(978.58 -7.76676e-10 4.12642e-14)
(978.58 -7.77615e-10 4.15685e-14)
(978.58 -7.75823e-10 4.32324e-14)
(978.58 -7.75865e-10 4.14093e-14)
(978.58 -7.69803e-10 4.44493e-14)
(978.58 -7.55983e-10 4.44403e-14)
(978.58 -7.22337e-10 4.3501e-14)
(978.58 -6.77188e-10 3.97704e-14)
(978.58 -5.91358e-10 4.21461e-14)
(978.58 -4.34981e-10 4.30071e-14)
(978.58 -1.59729e-10 4.35666e-14)
(978.58 2.94433e-10 4.78575e-14)
(978.58 1.00911e-09 4.80272e-14)
(978.58 2.03292e-09 4.63351e-14)
(978.58 3.42221e-09 4.55971e-14)
(978.58 5.3511e-09 4.48901e-14)
(978.58 8.16855e-09 4.80766e-14)
(978.58 1.23968e-08 4.87944e-14)
(978.58 1.87048e-08 4.73095e-14)
(978.58 2.80899e-08 4.74405e-14)
(978.58 4.20922e-08 4.61718e-14)
(978.58 6.30264e-08 4.49604e-14)
(978.58 9.43768e-08 4.74009e-14)
(978.58 1.41417e-07 4.80184e-14)
(978.58 2.12137e-07 4.7085e-14)
(978.58 3.18653e-07 4.86443e-14)
(978.58 4.79488e-07 4.82326e-14)
(978.58 7.2255e-07 4.83561e-14)
(978.58 1.09306e-06 5.07118e-14)
(978.58 1.65205e-06 5.16541e-14)
(978.58 2.56124e-06 5.07243e-14)
(978.58 3.96446e-06 5.11806e-14)
(978.58 -9.11927e-10 5.4443e-14)
(978.58 -9.18731e-10 5.66925e-14)
(978.58 -9.25678e-10 5.6665e-14)
(978.58 -9.29892e-10 5.55983e-14)
(978.58 -9.31127e-10 5.36358e-14)
(978.58 -9.33184e-10 5.48013e-14)
(978.58 -9.31035e-10 5.6537e-14)
(978.58 -9.24239e-10 5.7422e-14)
(978.58 -8.95489e-10 5.72167e-14)
(978.58 -8.61881e-10 5.68005e-14)
(978.58 -8.03383e-10 5.59038e-14)
(978.58 -6.95018e-10 5.57397e-14)
(978.58 -4.95673e-10 5.45294e-14)
(978.58 -1.60645e-10 5.62465e-14)
(978.58 3.70222e-10 5.93431e-14)
(978.58 1.17517e-09 6.09746e-14)
(978.58 2.27096e-09 6.32429e-14)
(978.58 3.75791e-09 6.05398e-14)
(978.58 5.84363e-09 5.88338e-14)
(978.58 8.91734e-09 6.0522e-14)
(978.58 1.34835e-08 5.70419e-14)
(978.58 2.02202e-08 5.72428e-14)
(978.58 3.0149e-08 6.23563e-14)
(978.58 4.48299e-08 6.08245e-14)
(978.58 6.65821e-08 6.09963e-14)
(978.58 9.88654e-08 6.21187e-14)
(978.58 1.46874e-07 6.08333e-14)
(978.58 2.18398e-07 5.50906e-14)
(978.58 3.25148e-07 5.47792e-14)
(978.58 4.84767e-07 5.65515e-14)
(978.58 7.23908e-07 6.1737e-14)
(978.58 1.08283e-06 6.49378e-14)
(978.58 1.62292e-06 6.17727e-14)
(978.58 2.4363e-06 6.03972e-14)
(978.58 3.67147e-06 6.15142e-14)
(978.58 5.52823e-06 6.3147e-14)
(978.58 8.53036e-06 6.44574e-14)
(978.58 1.31375e-05 6.45659e-14)
(978.58 -1.06577e-09 7.05034e-14)
(978.58 -1.06751e-09 7.02302e-14)
(978.58 -1.06716e-09 6.52196e-14)
(978.58 -1.06314e-09 6.17572e-14)
(978.58 -1.04635e-09 6.46831e-14)
(978.58 -1.01609e-09 6.50059e-14)
(978.58 -9.72709e-10 6.5645e-14)
(978.58 -8.93927e-10 7.31398e-14)
(978.58 -7.43471e-10 7.29263e-14)
(978.58 -4.8853e-10 7.04427e-14)
(978.58 -8.12636e-11 7.08456e-14)
(978.58 5.50562e-10 6.99278e-14)
(978.58 1.44381e-09 6.96997e-14)
(978.58 2.63615e-09 7.09491e-14)
(978.58 4.26248e-09 7.05451e-14)
(978.58 6.58115e-09 7.19183e-14)
(978.58 9.99567e-09 7.40405e-14)
(978.58 1.50066e-08 7.05974e-14)
(978.58 2.23208e-08 6.97024e-14)
(978.58 3.30151e-08 7.27915e-14)
(978.58 4.86912e-08 7.25785e-14)
(978.58 7.17085e-08 7.41993e-14)
(978.58 1.05573e-07 7.27635e-14)
(978.58 1.55502e-07 7.0552e-14)
(978.58 2.29245e-07 7.09249e-14)
(978.58 3.38342e-07 7.65277e-14)
(978.58 5.00024e-07 7.65243e-14)
(978.58 7.40073e-07 7.02039e-14)
(978.58 1.09714e-06 7.26029e-14)
(978.58 1.62927e-06 7.30255e-14)
(978.58 2.42379e-06 7.14744e-14)
(978.58 3.61224e-06 7.26718e-14)
(978.58 5.39445e-06 7.40745e-14)
(978.58 8.06917e-06 7.73728e-14)
(978.58 1.21154e-05 7.54565e-14)
(978.58 1.81767e-05 7.22047e-14)
(978.58 2.79191e-05 7.41891e-14)
(978.58 4.27876e-05 7.54359e-14)
(978.58 -1.17809e-09 7.86596e-14)
(978.58 -1.14911e-09 7.88923e-14)
(978.58 -1.11274e-09 8.0992e-14)
(978.58 -1.05024e-09 8.2236e-14)
(978.58 -9.34189e-10 8.0498e-14)
(978.58 -7.3308e-10 7.92464e-14)
(978.58 -4.07607e-10 8.29792e-14)
(978.58 9.92369e-11 8.47947e-14)
(978.58 8.4275e-10 8.14374e-14)
(978.58 1.83345e-09 8.55657e-14)
(978.58 3.15386e-09 8.42915e-14)
(978.58 4.98314e-09 8.21284e-14)
(978.58 7.63221e-09 8.11786e-14)
(978.58 1.14883e-08 8.07049e-14)
(978.58 1.70707e-08 8.10216e-14)
(978.58 2.51416e-08 8.41597e-14)
(978.58 3.68538e-08 8.50449e-14)
(978.58 5.38827e-08 8.56743e-14)
(978.58 7.86718e-08 8.40374e-14)
(978.58 1.14831e-07 8.61348e-14)
(978.58 1.67678e-07 8.45289e-14)
(978.58 2.45054e-07 8.37278e-14)
(978.58 3.58539e-07 8.33662e-14)
(978.58 5.25277e-07 8.48379e-14)
(978.58 7.70696e-07 8.36668e-14)
(978.58 1.13257e-06 8.72266e-14)
(978.58 1.66714e-06 8.58817e-14)
(978.58 2.45827e-06 7.9892e-14)
(978.58 3.63127e-06 8.15967e-14)
(978.58 5.37363e-06 8.47136e-14)
(978.58 7.96663e-06 8.52979e-14)
(978.58 1.18323e-05 8.58313e-14)
(978.58 1.76095e-05 8.88135e-14)
(978.58 2.625e-05 9.07616e-14)
(978.58 3.9271e-05 9.03904e-14)
(978.58 5.87079e-05 8.75199e-14)
(978.58 8.97653e-05 8.81603e-14)
(978.58 0.000136906 8.8809e-14)
(978.58 -1.08609e-09 9.40425e-14)
(978.58 -9.2028e-10 9.61122e-14)
(978.58 -6.51268e-10 9.80672e-14)
(978.58 -2.32545e-10 9.96453e-14)
(978.58 3.96087e-10 9.71524e-14)
(978.58 1.24199e-09 9.48921e-14)
(978.58 2.35253e-09 9.70224e-14)
(978.58 3.85815e-09 9.78024e-14)
(978.58 5.98965e-09 9.82943e-14)
(978.58 9.06563e-09 9.56178e-14)
(978.58 1.34793e-08 9.41826e-14)
(978.58 1.9797e-08 9.40991e-14)
(978.58 2.88633e-08 9.36099e-14)
(978.58 4.19104e-08 9.51299e-14)
(978.58 6.07154e-08 9.58318e-14)
(978.58 8.7862e-08 9.87115e-14)
(978.58 1.27131e-07 9.95945e-14)
(978.58 1.84034e-07 9.68133e-14)
(978.58 2.66625e-07 9.65917e-14)
(978.58 3.86717e-07 9.6777e-14)
(978.58 5.61656e-07 9.51286e-14)
(978.58 8.16955e-07 9.69114e-14)
(978.58 1.1902e-06 9.41248e-14)
(978.58 1.73686e-06 9.45569e-14)
(978.58 2.53896e-06 9.52306e-14)
(978.58 3.71802e-06 9.95828e-14)
(978.58 5.4543e-06 9.61774e-14)
(978.58 8.01571e-06 9.64327e-14)
(978.58 1.18011e-05 9.96201e-14)
(978.58 1.74052e-05 1.01033e-13)
(978.58 2.57175e-05 1.01222e-13)
(978.58 3.80678e-05 1.00399e-13)
(978.58 5.64616e-05 1.01182e-13)
(978.58 8.38768e-05 9.98838e-14)
(978.58 0.000125035 1.02587e-13)
(978.58 0.000186257 1.03909e-13)
(978.58 0.000283518 9.9088e-14)
(978.579 0.000430358 9.59736e-14)
(978.58 -4.73913e-10 1.10109e-13)
(978.58 6.72638e-11 1.10646e-13)
(978.58 8.10224e-10 1.13095e-13)
(978.58 1.77608e-09 1.12414e-13)
(978.58 3.06167e-09 1.11557e-13)
(978.58 4.83813e-09 1.11629e-13)
(978.58 7.37447e-09 1.12468e-13)
(978.58 1.09901e-08 1.0948e-13)
(978.58 1.6116e-08 1.09452e-13)
(978.58 2.33866e-08 1.06793e-13)
(978.58 3.37385e-08 1.05377e-13)
(978.58 4.85078e-08 1.08098e-13)
(978.58 6.96148e-08 1.04022e-13)
(978.58 9.98372e-08 1.09539e-13)
(978.58 1.4319e-07 1.09344e-13)
(978.58 2.05474e-07 1.10163e-13)
(978.58 2.95106e-07 1.08517e-13)
(978.58 4.24338e-07 1.06846e-13)
(978.58 6.11013e-07 1.06953e-13)
(978.58 8.81156e-07 1.08435e-13)
(978.58 1.27279e-06 1.07857e-13)
(978.58 1.84155e-06 1.07967e-13)
(978.58 2.66903e-06 1.06027e-13)
(978.58 3.87507e-06 1.0616e-13)
(978.58 5.63598e-06 1.09017e-13)
(978.58 8.21159e-06 1.1087e-13)
(978.58 1.19855e-05 1.11609e-13)
(978.58 1.75248e-05 1.08966e-13)
(978.58 2.567e-05 1.09711e-13)
(978.58 3.76682e-05 1.10761e-13)
(978.58 5.53736e-05 1.12341e-13)
(978.58 8.15485e-05 1.12525e-13)
(978.58 0.00012031 1.12708e-13)
(978.58 0.000177841 1.12402e-13)
(978.58 0.000263293 1.15807e-13)
(978.58 0.000391095 1.1459e-13)
(978.579 0.000580535 1.11357e-13)
(978.579 0.000879757 1.10108e-13)
(978.578 0.00132913 1.09846e-13)
(978.58 2.50468e-09 1.22801e-13)
(978.58 4.04162e-09 1.2155e-13)
(978.58 6.20296e-09 1.23148e-13)
(978.58 9.26093e-09 1.25894e-13)
(978.58 1.35606e-08 1.23983e-13)
(978.58 1.95934e-08 1.24322e-13)
(978.58 2.80953e-08 1.22632e-13)
(978.58 4.01051e-08 1.19008e-13)
(978.58 5.70925e-08 1.18327e-13)
(978.58 8.11658e-08 1.18483e-13)
(978.58 1.15351e-07 1.20881e-13)
(978.58 1.63976e-07 1.17239e-13)
(978.58 2.33255e-07 1.17897e-13)
(978.58 3.32135e-07 1.22537e-13)
(978.58 4.73526e-07 1.21906e-13)
(978.58 6.76066e-07 1.21253e-13)
(978.58 9.66718e-07 1.19063e-13)
(978.58 1.38457e-06 1.22062e-13)
(978.58 1.98636e-06 1.21067e-13)
(978.58 2.85456e-06 1.2067e-13)
(978.58 4.10931e-06 1.19046e-13)
(978.58 5.92589e-06 1.18978e-13)
(978.58 8.56059e-06 1.19152e-13)
(978.58 1.23886e-05 1.21691e-13)
(978.58 1.79604e-05 1.23529e-13)
(978.58 2.60844e-05 1.23393e-13)
(978.58 3.79506e-05 1.22732e-13)
(978.58 5.53131e-05 1.19363e-13)
(978.58 8.07621e-05 1.21184e-13)
(978.58 0.000118128 1.2569e-13)
(978.58 0.000173087 1.25552e-13)
(978.58 0.000254064 1.25144e-13)
(978.58 0.000373574 1.24646e-13)
(978.579 0.000550347 1.24729e-13)
(978.579 0.000812006 1.25615e-13)
(978.578 0.00120187 1.23253e-13)
(978.578 0.00177771 1.2212e-13)
(978.577 0.0026821 1.25417e-13)
(978.575 0.00403321 1.25566e-13)
(978.58 1.18084e-08 1.38987e-13)
(978.58 1.69846e-08 1.36958e-13)
(978.58 2.42027e-08 1.35519e-13)
(978.58 3.43002e-08 1.35773e-13)
(978.58 4.84422e-08 1.33487e-13)
(978.58 6.82807e-08 1.35204e-13)
(978.58 9.6171e-08 1.36794e-13)
(978.58 1.35449e-07 1.34263e-13)
(978.58 1.90856e-07 1.31271e-13)
(978.58 2.69151e-07 1.33129e-13)
(978.58 3.79992e-07 1.32504e-13)
(978.58 5.37191e-07 1.32297e-13)
(978.58 7.60525e-07 1.30522e-13)
(978.58 1.07837e-06 1.31052e-13)
(978.58 1.53152e-06 1.37133e-13)
(978.58 2.17871e-06 1.3761e-13)
(978.58 3.10468e-06 1.37118e-13)
(978.58 4.43183e-06 1.3375e-13)
(978.58 6.33736e-06 1.31037e-13)
(978.58 9.07822e-06 1.31365e-13)
(978.58 1.30276e-05 1.33618e-13)
(978.58 1.87283e-05 1.32916e-13)
(978.58 2.69714e-05 1.31191e-13)
(978.58 3.89113e-05 1.3216e-13)
(978.58 5.62359e-05 1.34407e-13)
(978.58 8.14167e-05 1.35565e-13)
(978.58 0.000118079 1.30798e-13)
(978.58 0.000171551 1.32564e-13)
(978.58 0.000249671 1.37308e-13)
(978.58 0.000363998 1.39074e-13)
(978.579 0.000531597 1.37443e-13)
(978.579 0.000777724 1.34927e-13)
(978.579 0.00113976 1.35116e-13)
(978.578 0.00167342 1.36251e-13)
(978.577 0.0024606 1.37068e-13)
(978.575 0.00362902 1.36926e-13)
(978.573 0.00534872 1.38433e-13)
(978.57 0.00803428 1.38418e-13)
(978.565 0.0120254 1.36319e-13)
(978.58 3.03365e-08 1.51826e-13)
(978.58 4.25086e-08 1.4919e-13)
(978.58 5.94157e-08 1.48764e-13)
(978.58 8.29452e-08 1.4995e-13)
(978.58 1.15753e-07 1.4961e-13)
(978.58 1.61574e-07 1.49949e-13)
(978.58 2.25684e-07 1.50116e-13)
(978.58 3.15552e-07 1.49788e-13)
(978.58 4.4175e-07 1.47562e-13)
(978.58 6.19266e-07 1.48868e-13)
(978.58 8.69398e-07 1.46641e-13)
(978.58 1.22247e-06 1.45845e-13)
(978.58 1.72174e-06 1.42995e-13)
(978.58 2.42897e-06 1.41909e-13)
(978.58 3.43258e-06 1.4671e-13)
(978.58 4.8593e-06 1.47787e-13)
(978.58 6.89113e-06 1.456e-13)
(978.58 9.78984e-06 1.44637e-13)
(978.58 1.39325e-05 1.44513e-13)
(978.58 1.98631e-05 1.42662e-13)
(978.58 2.8368e-05 1.40439e-13)
(978.58 4.05855e-05 1.42978e-13)
(978.58 5.81662e-05 1.43492e-13)
(978.58 8.35083e-05 1.42831e-13)
(978.58 0.000120101 1.45338e-13)
(978.58 0.00017303 1.4891e-13)
(978.58 0.000249718 1.4466e-13)
(978.58 0.000361021 1.42823e-13)
(978.579 0.000522834 1.47054e-13)
(978.579 0.000758475 1.48083e-13)
(978.579 0.00110221 1.49058e-13)
(978.578 0.00160444 1.47063e-13)
(978.577 0.00233952 1.47628e-13)
(978.576 0.00341708 1.49346e-13)
(978.574 0.00499993 1.51664e-13)
(978.571 0.00732658 1.50342e-13)
(978.566 0.010767 1.49023e-13)
(978.56 0.0158124 1.49338e-13)
(978.55 0.0236465 1.47699e-13)
(978.537 0.0352273 1.48548e-13)
(978.58 1.02277e-07 1.65225e-13)
(978.58 1.41444e-07 1.64566e-13)
(978.58 1.95698e-07 1.63383e-13)
(978.58 2.71e-07 1.61357e-13)
(978.58 3.75708e-07 1.62093e-13)
(978.58 5.2156e-07 1.63295e-13)
(978.58 7.25073e-07 1.63934e-13)
(978.58 1.00954e-06 1.61932e-13)
(978.58 1.40785e-06 1.61742e-13)
(978.58 1.96655e-06 1.62407e-13)
(978.58 2.75164e-06 1.57068e-13)
(978.58 3.8568e-06 1.57868e-13)
(978.58 5.41526e-06 1.57207e-13)
(978.58 7.61678e-06 1.57055e-13)
(978.58 1.07321e-05 1.58467e-13)
(978.58 1.51481e-05 1.57746e-13)
(978.58 2.14185e-05 1.54863e-13)
(978.58 3.03373e-05 1.53316e-13)
(978.58 4.30449e-05 1.55263e-13)
(978.58 6.11819e-05 1.54151e-13)
(978.58 8.7113e-05 1.57421e-13)
(978.58 0.000124251 1.59497e-13)
(978.58 0.000177532 1.59997e-13)
(978.58 0.000254102 1.57516e-13)
(978.58 0.000364322 1.56639e-13)
(978.579 0.000523249 1.57511e-13)
(978.579 0.000752786 1.56595e-13)
(978.579 0.00108486 1.56117e-13)
(978.578 0.00156607 1.57671e-13)
(978.577 0.00226455 1.60176e-13)
(978.576 0.00328005 1.60166e-13)
(978.574 0.00475886 1.59737e-13)
(978.571 0.00691592 1.5953e-13)
(978.567 0.0100672 1.61453e-13)
(978.561 0.0146799 1.62087e-13)
(978.553 0.021436 1.57846e-13)
(978.54 0.0313872 1.59846e-13)
(978.522 0.0459268 1.61191e-13)
(978.495 0.0683722 1.61316e-13)
(978.456 0.101368 1.60998e-13)
(978.58 3.30309e-07 1.77097e-13)
(978.58 4.54119e-07 1.75033e-13)
(978.58 6.25204e-07 1.7577e-13)
(978.58 8.62032e-07 1.76596e-13)
(978.58 1.19045e-06 1.77156e-13)
(978.58 1.64667e-06 1.77608e-13)
(978.58 2.28155e-06 1.73759e-13)
(978.58 3.16659e-06 1.71779e-13)
(978.58 4.40251e-06 1.75665e-13)
(978.58 6.1314e-06 1.74767e-13)
(978.58 8.55406e-06 1.71137e-13)
(978.58 1.19547e-05 1.74785e-13)
(978.58 1.67363e-05 1.73032e-13)
(978.58 2.34712e-05 1.70059e-13)
(978.58 3.29738e-05 1.69571e-13)
(978.58 4.64048e-05 1.66005e-13)
(978.58 6.54207e-05 1.6506e-13)
(978.58 9.23902e-05 1.67439e-13)
(978.58 0.000130705 1.68923e-13)
(978.58 0.00018523 1.71286e-13)
(978.58 0.000262954 1.75597e-13)
(978.579 0.000373931 1.71441e-13)
(978.579 0.00053265 1.70097e-13)
(978.579 0.000760028 1.70136e-13)
(978.579 0.00108631 1.69625e-13)
(978.578 0.00155528 1.69703e-13)
(978.577 0.00223047 1.68458e-13)
(978.576 0.00320414 1.68136e-13)
(978.574 0.0046105 1.75165e-13)
(978.571 0.00664508 1.71877e-13)
(978.568 0.00959321 1.68374e-13)
(978.562 0.0138719 1.68233e-13)
(978.554 0.0200913 1.69106e-13)
(978.543 0.0291452 1.72504e-13)
(978.526 0.0423494 1.74271e-13)
(978.502 0.061618 1.73131e-13)
(978.467 0.0898855 1.71778e-13)
(978.416 0.131023 1.73172e-13)
(978.339 0.194144 1.77298e-13)
(978.23 0.286373 1.7478e-13)
(978.58 1.04033e-06 1.90222e-13)
(978.58 1.4251e-06 1.90423e-13)
(978.58 1.95541e-06 1.89544e-13)
(978.58 2.6876e-06 1.87496e-13)
(978.58 3.70023e-06 1.88049e-13)
(978.58 5.10313e-06 1.8947e-13)
(978.58 7.05004e-06 1.87021e-13)
(978.58 9.75654e-06 1.82659e-13)
(978.58 1.35255e-05 1.86869e-13)
(978.58 1.87831e-05 1.86872e-13)
(978.58 2.613e-05 1.84426e-13)
(978.58 3.64145e-05 1.87416e-13)
(978.58 5.08356e-05 1.82707e-13)
(978.58 7.10916e-05 1.80195e-13)
(978.58 9.95912e-05 1.81812e-13)
(978.58 0.000139756 1.80307e-13)
(978.58 0.000196457 1.78355e-13)
(978.58 0.000276634 1.81605e-13)
(978.579 0.000390195 1.83447e-13)
(978.579 0.000551311 1.86115e-13)
(978.579 0.000780275 1.85046e-13)
(978.578 0.0011062 1.81452e-13)
(978.578 0.00157091 1.83836e-13)
(978.577 0.0022346 1.82271e-13)
(978.576 0.00318399 1.8014e-13)
(978.574 0.00454426 1.82787e-13)
(978.571 0.00649631 1.78899e-13)
(978.568 0.00930203 1.81675e-13)
(978.563 0.0133411 1.82076e-13)
(978.555 0.0191649 1.79899e-13)
(978.544 0.0275745 1.82483e-13)
(978.529 0.0397364 1.84022e-13)
(978.507 0.0573514 1.82354e-13)
(978.475 0.0828993 1.82082e-13)
(978.428 0.120016 1.85598e-13)
(978.361 0.173959 1.85682e-13)
(978.263 0.252751 1.86281e-13)
(978.122 0.366918 1.86667e-13)
(977.909 0.540916 1.85871e-13)
(977.61 0.793331 1.8531e-13)
(978.58 3.21308e-06 2.03939e-13)
(978.58 4.38858e-06 2.0329e-13)
(978.58 6.00443e-06 2.01726e-13)
(978.58 8.22941e-06 2.0028e-13)
(978.58 1.12984e-05 1.9889e-13)
(978.58 1.55389e-05 1.98474e-13)
(978.58 2.14082e-05 1.99702e-13)
(978.58 2.95461e-05 1.98758e-13)
(978.58 4.08485e-05 1.99697e-13)
(978.58 5.65726e-05 1.98408e-13)
(978.58 7.84844e-05 1.97909e-13)
(978.58 0.00010907 1.98361e-13)
(978.58 0.000151832 1.94151e-13)
(978.58 0.000211722 1.94296e-13)
(978.58 0.000295739 1.96343e-13)
(978.579 0.000413802 1.94916e-13)
(978.579 0.000579983 1.94341e-13)
(978.579 0.00081428 1.94829e-13)
(978.578 0.00114516 1.94249e-13)
(978.578 0.00161319 1.95733e-13)
(978.577 0.00227631 1.95164e-13)
(978.576 0.00321735 1.93348e-13)
(978.574 0.00455492 1.93624e-13)
(978.571 0.00645912 1.93337e-13)
(978.568 0.00917427 1.93314e-13)
(978.563 0.0130518 1.9313e-13)
(978.555 0.0185981 1.94012e-13)
(978.545 0.0265432 1.94309e-13)
(978.531 0.0379419 1.9207e-13)
(978.51 0.054319 1.95138e-13)
(978.48 0.077883 1.95686e-13)
(978.437 0.111835 1.97646e-13)
(978.375 0.160816 1.93559e-13)
(978.286 0.231567 1.94266e-13)
(978.158 0.33391 1.97121e-13)
(977.974 0.481985 1.99351e-13)
(977.706 0.697126 1.98399e-13)
(977.322 1.0072 1.96444e-13)
(976.749 1.476 1.9642e-13)
(975.947 2.1497 1.99395e-13)
(978.58 9.74987e-06 2.17416e-13)
(978.58 1.32812e-05 2.16301e-13)
(978.58 1.81229e-05 2.15454e-13)
(978.58 2.47724e-05 2.12145e-13)
(978.58 3.39204e-05 2.12399e-13)
(978.58 4.65267e-05 2.15542e-13)
(978.58 6.39277e-05 2.1428e-13)
(978.58 8.7987e-05 2.11077e-13)
(978.58 0.000121307 2.12591e-13)
(978.58 0.000167532 2.12706e-13)
(978.58 0.000231766 2.11303e-13)
(978.58 0.000321179 2.10866e-13)
(978.579 0.000445846 2.07258e-13)
(978.579 0.000619956 2.08935e-13)
(978.579 0.000863512 2.10904e-13)
(978.578 0.00120477 2.07744e-13)
(978.578 0.00168369 2.09353e-13)
(978.577 0.00235689 2.11154e-13)
(978.575 0.00330471 2.08753e-13)
(978.574 0.00464133 2.07667e-13)
(978.571 0.00652922 2.06426e-13)
(978.568 0.00919993 2.04773e-13)
(978.563 0.012984 2.08705e-13)
(978.555 0.0183539 2.09304e-13)
(978.545 0.0259858 2.09744e-13)
(978.531 0.0368487 2.07279e-13)
(978.511 0.052333 2.04842e-13)
(978.483 0.0744365 2.04641e-13)
(978.442 0.106033 2.04482e-13)
(978.384 0.151257 2.06716e-13)
(978.302 0.216069 2.05973e-13)
(978.184 0.309062 2.05745e-13)
(978.016 0.442639 2.0726e-13)
(977.775 0.634642 2.07316e-13)
(977.429 0.91091 2.05323e-13)
(976.932 1.30825 2.07721e-13)
(976.218 1.88184 2.08255e-13)
(975.198 2.70205 2.06765e-13)
(973.695 3.92847 2.08588e-13)
(971.615 5.66652 2.10685e-13)
(978.58 2.9089e-05 2.33612e-13)
(978.58 3.95205e-05 2.31358e-13)
(978.58 5.3785e-05 2.28317e-13)
(978.58 7.33236e-05 2.26811e-13)
(978.58 0.000100131 2.26985e-13)
(978.58 0.000136975 2.25925e-13)
(978.58 0.000187695 2.26177e-13)
(978.58 0.000257637 2.25638e-13)
(978.579 0.000354245 2.2674e-13)
(978.579 0.000487905 2.23118e-13)
(978.579 0.000673126 2.21019e-13)
(978.579 0.000930212 2.21692e-13)
(978.578 0.00128762 2.20999e-13)
(978.577 0.00178532 2.22925e-13)
(978.576 0.00247947 2.22903e-13)
(978.575 0.0034492 2.2511e-13)
(978.573 0.00480612 2.24887e-13)
(978.571 0.00670779 2.21666e-13)
(978.567 0.00937708 2.22227e-13)
(978.562 0.0131297 2.22243e-13)
(978.555 0.0184133 2.17894e-13)
(978.545 0.0258641 2.18304e-13)
(978.531 0.0363865 2.19237e-13)
(978.512 0.0512682 2.17912e-13)
(978.484 0.0723458 2.1962e-13)
(978.445 0.102241 2.17439e-13)
(978.39 0.144698 2.18045e-13)
(978.312 0.20507 2.17672e-13)
(978.202 0.291021 2.16362e-13)
(978.045 0.413523 2.19021e-13)
(977.823 0.588277 2.20216e-13)
(977.507 0.837727 2.20758e-13)
(977.057 1.19399 2.21403e-13)
(976.416 1.70295 2.17919e-13)
(975.502 2.4299 2.1879e-13)
(974.202 3.46647 2.21807e-13)
(972.35 4.94673 2.22378e-13)
(969.739 7.03951 2.21434e-13)
(965.965 10.1126 2.22489e-13)
(960.866 14.3628 2.24632e-13)
(978.58 6.30889e-05 2.47597e-13)
(978.58 8.53461e-05 2.4821e-13)
(978.58 0.000115653 2.43712e-13)
(978.58 0.00015699 2.42975e-13)
(978.58 0.000213464 2.43378e-13)
(978.58 0.000290747 2.39105e-13)
(978.579 0.000396676 2.41048e-13)
(978.579 0.000542105 2.37882e-13)
(978.579 0.000742084 2.36584e-13)
(978.579 0.00101752 2.3812e-13)
(978.578 0.00139752 2.35445e-13)
(978.577 0.00192261 2.33089e-13)
(978.576 0.00264937 2.33702e-13)
(978.575 0.00365689 2.35209e-13)
(978.573 0.00505586 2.34371e-13)
(978.57 0.0070014 2.34771e-13)
(978.566 0.00971124 2.36991e-13)
(978.561 0.0134914 2.33144e-13)
(978.554 0.0187728 2.31157e-13)
(978.544 0.0261628 2.3203e-13)
(978.53 0.036519 2.31641e-13)
(978.511 0.0510525 2.30112e-13)
(978.484 0.0714779 2.31119e-13)
(978.446 0.100225 2.28724e-13)
(978.392 0.140737 2.28338e-13)
(978.318 0.1979 2.32891e-13)
(978.213 0.278654 2.30888e-13)
(978.065 0.392868 2.29437e-13)
(977.856 0.55456 2.29607e-13)
(977.562 0.783624 2.32191e-13)
(977.147 1.1083 2.31838e-13)
(976.559 1.56868 2.27943e-13)
(975.729 2.22144 2.3308e-13)
(974.556 3.14615 2.34992e-13)
(972.901 4.45397 2.31471e-13)
(970.571 6.30102 2.33354e-13)
(967.305 8.89737 2.35952e-13)
(962.744 12.5382 2.35182e-13)
(956.493 17.56 2.34277e-13)
(947.755 24.7162 2.35608e-13)
(936.441 34.2089 2.3538e-13)
(978.58 0.000182566 2.63806e-13)
(978.58 0.00024634 2.60708e-13)
(978.579 0.000332952 2.54984e-13)
(978.579 0.000450769 2.56621e-13)
(978.579 0.000611293 2.55729e-13)
(978.579 0.000830361 2.52498e-13)
(978.578 0.00112982 2.51818e-13)
(978.578 0.00153984 2.50818e-13)
(978.577 0.00210215 2.52651e-13)
(978.576 0.00287454 2.52919e-13)
(978.574 0.00393717 2.48296e-13)
(978.572 0.00540142 2.47578e-13)
(978.569 0.00742224 2.48956e-13)
(978.565 0.0102154 2.4839e-13)
(978.56 0.0140821 2.46807e-13)
(978.553 0.0194431 2.48109e-13)
(978.543 0.0268873 2.47998e-13)
(978.528 0.03724 2.45315e-13)
(978.509 0.0516577 2.44416e-13)
(978.482 0.0717655 2.44195e-13)
(978.444 0.0998487 2.43789e-13)
(978.392 0.139124 2.45206e-13)
(978.319 0.19412 2.40177e-13)
(978.217 0.271219 2.3715e-13)
(978.075 0.379431 2.43756e-13)
(977.876 0.531471 2.4552e-13)
(977.598 0.745249 2.41296e-13)
(977.208 1.04598 2.4137e-13)
(976.661 1.46925 2.41692e-13)
(975.893 2.06503 2.42964e-13)
(974.817 2.90314 2.41632e-13)
(973.309 4.08042 2.44013e-13)
(971.201 5.73127 2.47138e-13)
(968.263 8.03999 2.45858e-13)
(964.193 11.2518 2.47488e-13)
(958.602 15.687 2.46181e-13)
(951.004 21.7564 2.45221e-13)
(940.793 29.9846 2.48513e-13)
(927.421 40.8628 2.5101e-13)
(909.852 55.4538 2.46969e-13)
(888.498 73.6294 2.46854e-13)
(978.579 0.000386774 2.76417e-13)
(978.579 0.000519669 2.74787e-13)
(978.579 0.000699391 2.67294e-13)
(978.579 0.000942836 2.68862e-13)
(978.578 0.00127314 2.7089e-13)
(978.577 0.00172202 2.67328e-13)
(978.577 0.00233301 2.67123e-13)
(978.575 0.00316595 2.67772e-13)
(978.574 0.00430323 2.65763e-13)
(978.571 0.00585848 2.67756e-13)
(978.568 0.0079887 2.66394e-13)
(978.564 0.0109109 2.60622e-13)
(978.559 0.0149257 2.60993e-13)
(978.551 0.0204502 2.61114e-13)
(978.54 0.0280637 2.60619e-13)
(978.526 0.0385718 2.61876e-13)
(978.506 0.0530956 2.62136e-13)
(978.478 0.0731979 2.57101e-13)
(978.44 0.101061 2.54182e-13)
(978.388 0.139733 2.54775e-13)
(978.316 0.193476 2.56157e-13)
(978.216 0.26825 2.5665e-13)
(978.077 0.372403 2.54665e-13)
(977.884 0.517641 2.53951e-13)
(977.617 0.720335 2.5661e-13)
(977.244 1.00336 2.57483e-13)
(976.727 1.39873 2.5597e-13)
(976.005 1.9512 2.54714e-13)
(975.001 2.72291 2.5403e-13)
(973.604 3.79945 2.53496e-13)
(971.665 5.29873 2.56719e-13)
(968.981 7.382 2.59608e-13)
(965.282 10.265 2.54446e-13)
(960.223 14.2269 2.51677e-13)
(953.377 19.6261 2.5445e-13)
(944.215 26.9113 2.56189e-13)
(932.148 36.596 2.57026e-13)
(916.623 49.1778 2.57943e-13)
(897.05 65.2282 2.61462e-13)
(873.104 85.1301 2.60324e-13)
(843.583 110.15 2.57381e-13)
(810.534 138.468 2.57296e-13)
(978.579 0.000811722 2.87959e-13)
(978.578 0.00108606 2.86211e-13)
(978.578 0.00145552 2.84001e-13)
(978.577 0.00195389 2.84064e-13)
(978.576 0.0026272 2.84711e-13)
(978.575 0.00353822 2.82664e-13)
(978.573 0.00477283 2.8129e-13)
(978.57 0.00644862 2.82189e-13)
(978.567 0.0087269 2.80975e-13)
(978.563 0.0118291 2.80001e-13)
(978.557 0.0160595 2.80182e-13)
(978.548 0.0218371 2.75762e-13)
(978.537 0.0297402 2.73275e-13)
(978.522 0.0405664 2.74316e-13)
(978.501 0.0554177 2.74238e-13)
(978.473 0.0758188 2.73547e-13)
(978.434 0.103884 2.7347e-13)
(978.381 0.142545 2.70073e-13)
(978.308 0.195872 2.68023e-13)
(978.208 0.269512 2.67206e-13)
(978.07 0.371316 2.69759e-13)
(977.881 0.512219 2.71078e-13)
(977.619 0.707406 2.68304e-13)
(977.259 0.977944 2.66137e-13)
(976.76 1.35306 2.68856e-13)
(976.072 1.87338 2.68433e-13)
(975.12 2.59501 2.66654e-13)
(973.805 3.5948 2.65345e-13)
(971.994 4.9775 2.65416e-13)
(969.502 6.88593 2.64408e-13)
(966.089 9.51152 2.66405e-13)
(961.445 13.1018 2.69216e-13)
(955.186 17.9715 2.6701e-13)
(946.842 24.5154 2.64095e-13)
(935.866 33.2027 2.67263e-13)
(921.705 44.5169 2.68161e-13)
(903.874 58.9154 2.68562e-13)
(881.882 76.8995 2.70189e-13)
(855.345 98.8782 2.69413e-13)
(824.253 124.911 2.69785e-13)
(789.475 154.199 2.70323e-13)
(751.265 186.802 2.66753e-13)
(713.085 219.537 2.67485e-13)
(978.576 0.00224843 3.00909e-13)
(978.575 0.00300067 3.02152e-13)
(978.574 0.00401103 3.01284e-13)
(978.572 0.00537021 2.98341e-13)
(978.569 0.00720162 2.95728e-13)
(978.565 0.00967326 2.94552e-13)
(978.561 0.013014 2.95173e-13)
(978.554 0.0175362 2.94026e-13)
(978.545 0.0236665 2.91852e-13)
(978.533 0.0319897 2.91689e-13)
(978.517 0.0433069 2.89956e-13)
(978.495 0.0587168 2.87343e-13)
(978.465 0.0797279 2.8853e-13)
(978.425 0.108417 2.87236e-13)
(978.37 0.147647 2.86509e-13)
(978.296 0.201358 2.86454e-13)
(978.194 0.274977 2.84219e-13)
(978.056 0.375997 2.85793e-13)
(977.866 0.514774 2.8417e-13)
(977.607 0.705605 2.82788e-13)
(977.252 0.968164 2.86014e-13)
(976.765 1.32954 2.84798e-13)
(976.097 1.8271 2.8048e-13)
(975.18 2.51223 2.79472e-13)
(973.924 3.45487 2.81406e-13)
(972.204 4.74949 2.81891e-13)
(969.857 6.52415 2.78909e-13)
(966.661 8.95005 2.76747e-13)
(962.336 12.2498 2.77988e-13)
(956.534 16.7025 2.8093e-13)