/*--------------------------------*- C++ -*----------------------------------*\
| =========                 |                                                 |
| \\      /  F ield         | OpenFOAM: The Open Source CFD Toolbox           |
|  \\    /   O peration     | Version:  v1706                                 |
|   \\  /    A nd           | Web:      www.OpenFOAM.com                      |
|    \\/     M anipulation  |                                                 |
\*---------------------------------------------------------------------------*/
FoamFile
{
    version     2.0;
    format      ascii;
    class       volScalarField;
    location    "3.3e-05";
    object      wallHeatFlux;
}
// * * * * * * * * * * * * * * * * * * * * * * * * * * * * * * * * * * * * * //

dimensions      [1 0 -3 0 0 0 0];


internalField   uniform 0;

boundaryField
{
    cone
    {
        type            calculated;
        value           nonuniform List<scalar> 
153
(
10749.7
10623
10496.9
10371.5
10246.6
10122.2
9998.31
9874.96
9752.14
9629.87
9508.15
9387
9266.45
9146.51
9027.21
8908.55
8790.56
8673.26
8556.66
8440.77
8325.62
8211.21
8097.56
7984.67
7872.56
7761.23
7650.68
7540.92
7431.93
7323.73
7216.29
7109.6
7003.65
6898.41
6793.86
6689.96
6586.67
6483.95
6381.75
6279.99
6178.61
6077.49
5976.52
5875.52
5774.25
5672.35
5569.39
5462.87
5353.35
5245.27
5138.59
5034.02
4931.36
4830.39
4730.94
4632.88
4536.13
4440.61
4346.3
4253.17
4161.19
4070.37
3980.7
3892.21
3804.89
3718.76
3633.85
3550.18
3467.76
3386.63
3306.81
3228.32
3151.2
3075.48
3001.17
2928.31
2856.93
2787.05
2718.7
2651.91
2586.7
2523.1
2461.13
2400.81
2342.15
2285.18
2229.91
2176.34
2124.47
2074.3
2025.83
1979.03
1933.88
1890.34
1848.38
1807.94
1768.95
1731.35
1695.03
1659.92
1625.87
1592.78
1560.53
1528.98
1498
1467.45
1437.19
1407.07
1376.96
1346.74
1316.3
1285.57
1254.46
1222.95
1191.02
1158.71
1126.09
1093.25
1060.35
1027.57
995.123
963.284
932.343
902.624
874.53
848.39
824.498
803.355
785.569
771.607
761.902
756.777
756.041
759.717
768.453
782.657
802.375
827.574
858.145
893.905
934.592
979.842
1029.19
1082.08
1137.87
1195.81
1255.14
1314.99
1374.35
1432.43
1488.52
1541.48
1589.98
)
;
    }
    inlet
    {
        type            calculated;
        value           uniform 0;
    }
    rWedge
    {
        type            wedge;
    }
    lWedge
    {
        type            wedge;
    }
    outlet
    {
        type            calculated;
        value           nonuniform 0();
    }
    procBoundary2to0
    {
        type            processor;
        value           uniform 0;
    }
    procBoundary2to1
    {
        type            processor;
        value           uniform 0;
    }
    procBoundary2to3
    {
        type            processor;
        value           uniform 0;
    }
}


// ************************************************************************* //
