/*--------------------------------*- C++ -*----------------------------------*\
| =========                 |                                                 |
| \\      /  F ield         | OpenFOAM: The Open Source CFD Toolbox           |
|  \\    /   O peration     | Version:  v1706                                 |
|   \\  /    A nd           | Web:      www.OpenFOAM.com                      |
|    \\/     M anipulation  |                                                 |
\*---------------------------------------------------------------------------*/
FoamFile
{
    version     2.0;
    format      ascii;
    class       volVectorField;
    location    "1.5e-05";
    object      U;
}
// * * * * * * * * * * * * * * * * * * * * * * * * * * * * * * * * * * * * * //

dimensions      [0 1 -1 0 0 0 0];


internalField   nonuniform List<vector> 
30104
(
(2764.5 -4.62989e-11 2.4837e-15)
(2764.5 -4.4021e-11 4.78021e-15)
(2764.5 -4.31317e-11 4.02667e-15)
(2764.5 -4.2881e-11 3.53715e-15)
(2764.5 -4.38107e-11 5.47031e-15)
(2764.5 -4.55534e-11 4.0716e-15)
(2764.5 -4.6434e-11 9.7263e-16)
(2764.5 -4.60339e-11 1.59714e-15)
(2764.5 -4.50732e-11 3.80981e-15)
(2764.5 -4.47802e-11 4.06207e-15)
(2764.5 -4.42304e-11 3.51101e-15)
(2764.5 -4.28704e-11 3.64524e-15)
(2764.5 -4.07788e-11 1.64411e-15)
(2764.5 -3.96904e-11 2.98957e-15)
(2764.5 -3.93319e-11 4.46479e-15)
(2764.5 -3.9331e-11 4.95627e-15)
(2764.5 -3.99105e-11 4.67277e-15)
(2764.5 -1.55063e-10 1.76509e-15)
(2764.5 -1.47463e-10 4.27706e-15)
(2764.5 -1.39312e-10 3.84649e-15)
(2764.5 -1.28498e-10 3.26366e-15)
(2764.5 -1.1487e-10 2.8514e-15)
(2764.5 -1.07359e-10 3.1335e-15)
(2764.5 -9.94026e-11 2.30137e-15)
(2764.5 -9.41675e-11 3.31602e-15)
(2764.5 -8.70457e-11 3.65535e-15)
(2764.5 -8.15448e-11 2.26448e-15)
(2764.5 -7.86232e-11 3.02775e-15)
(2764.5 -7.81316e-11 2.09289e-15)
(2764.5 -7.59695e-11 4.40423e-15)
(2764.5 -7.69225e-11 4.2169e-15)
(2764.5 -8.52173e-11 1.23301e-15)
(2764.5 -9.51708e-11 2.48819e-15)
(2764.5 -1.03969e-10 2.52207e-15)
(2764.5 -1.15785e-10 2.97545e-15)
(2764.5 -1.25851e-10 5.01106e-15)
(2764.5 -1.37716e-10 1.99581e-15)
(2764.5 -1.51493e-10 3.91274e-15)
(2764.5 -1.62842e-10 5.07362e-15)
(2764.5 -1.69305e-10 1.65105e-15)
(2764.5 -1.75362e-10 1.84358e-15)
(2764.5 -1.76479e-10 1.93187e-15)
(2764.5 -1.74519e-10 1.80268e-15)
(2764.5 -1.73497e-10 1.5132e-15)
(2764.5 -1.67158e-10 1.83713e-15)
(2764.5 -1.58379e-10 1.67098e-15)
(2764.5 -1.48634e-10 2.46575e-15)
(2764.5 -1.36917e-10 3.36779e-16)
(2764.5 -1.1921e-10 2.23236e-15)
(2764.5 -1.01809e-10 3.81368e-15)
(2764.5 -7.68233e-11 1.96677e-15)
(2764.5 -4.83928e-11 1.02012e-15)
(2764.5 -2.34499e-11 6.37698e-16)
(2764.5 -2.28731e-12 3.25877e-15)
(2764.5 2.25497e-11 6.25356e-16)
(2764.5 3.55341e-11 1.31317e-15)
(2764.5 4.28953e-11 3.21476e-15)
(2764.5 4.46314e-11 1.56232e-15)
(2764.5 4.30537e-11 2.31807e-15)
(2764.5 3.55256e-11 2.15104e-15)
(2764.5 1.81489e-11 3.13851e-15)
(2764.5 -1.78548e-12 4.5943e-15)
(2764.5 -2.39435e-11 2.76502e-15)
(2764.5 -4.35498e-11 2.64168e-15)
(2764.5 -5.84974e-11 2.41217e-15)
(2764.5 -7.3476e-11 2.90131e-15)
(2764.5 -8.32522e-11 1.27236e-15)
(2764.5 -8.07712e-11 3.92085e-15)
(2764.5 -7.53834e-11 2.43807e-15)
(2764.5 -6.39981e-11 3.73764e-16)
(2764.5 -4.48887e-11 1.17348e-15)
(2764.5 -2.82162e-11 2.37945e-15)
(2764.5 -1.97082e-11 2.59364e-16)
(2764.5 -1.83766e-11 2.33505e-15)
(2764.5 -1.98314e-11 2.62122e-15)
(2764.5 -2.34183e-11 1.85583e-15)
(2764.5 -2.8681e-11 1.41928e-15)
(2764.5 -4.31529e-11 1.10296e-15)
(2764.5 -5.50146e-11 2.83546e-15)
(2764.5 -5.59438e-11 2.83634e-15)
(2764.5 -5.41702e-11 1.01696e-15)
(2764.5 -5.12729e-11 4.64131e-15)
(2764.5 -4.43755e-11 2.95882e-15)
(2764.5 -3.64323e-11 2.41333e-15)
(2764.5 -3.57237e-11 3.19819e-15)
(2764.5 -3.7305e-11 2.65263e-15)
(2764.5 -3.90321e-11 2.47361e-15)
(2764.5 -4.07652e-11 2.11495e-15)
(2764.5 -4.29907e-11 1.84688e-15)
(2764.5 -4.27213e-11 1.66811e-15)
(2764.5 -4.18453e-11 -8.52485e-16)
(2764.5 -4.21879e-11 2.7396e-15)
(2764.5 -4.26299e-11 3.41653e-15)
(2764.5 -4.24863e-11 2.60041e-15)
(2764.5 -4.40124e-11 6.88981e-16)
(2764.5 -4.32578e-11 2.06788e-16)
(2764.5 -4.23517e-11 1.9911e-15)
(2764.5 -4.47452e-11 7.7365e-16)
(2764.5 -4.50851e-11 1.6796e-15)
(2764.5 -4.10191e-11 1.5959e-16)
(2764.5 -3.68048e-11 5.53804e-16)
(2764.5 -3.53562e-11 3.72211e-15)
(2764.5 -3.46493e-11 4.10808e-15)
(2764.5 -4.0019e-11 2.23129e-15)
(2764.5 -4.58327e-11 1.29788e-15)
(2764.5 -4.99306e-11 1.57901e-15)
(2764.5 -5.59407e-11 2.43437e-15)
(2764.5 -5.37172e-11 1.97375e-15)
(2764.5 -5.25036e-11 1.96066e-15)
(2764.5 -5.09898e-11 2.54036e-15)
(2764.5 -5.03347e-11 2.02751e-15)
(2764.5 -4.40496e-11 1.04914e-15)
(2764.5 -4.08336e-11 1.9008e-15)
(2764.5 -3.50627e-11 6.59167e-16)
(2764.5 -2.95209e-11 4.23891e-16)
(2764.5 -2.94398e-11 1.93042e-15)
(2764.5 -3.30652e-11 2.03942e-15)
(2764.5 -3.92033e-11 2.2269e-15)
(2764.5 -3.76566e-11 2.13982e-15)
(2764.5 -3.74241e-11 1.90886e-15)
(2764.5 -3.92673e-11 1.71551e-15)
(2764.5 -3.96087e-11 1.49653e-15)
(2764.5 -4.12219e-11 1.55567e-15)
(2764.5 -4.59638e-11 4.89446e-16)
(2764.5 -4.90734e-11 2.75386e-16)
(2764.5 -4.81489e-11 2.0072e-15)
(2764.5 -4.28151e-11 2.95785e-15)
(2764.5 -4.14986e-11 2.04575e-15)
(2764.5 -4.12761e-11 2.09132e-15)
(2764.5 -3.98969e-11 1.56631e-15)
(2764.5 -4.14565e-11 1.08325e-15)
(2764.5 -4.3957e-11 5.3202e-16)
(2764.5 -4.5928e-11 9.44982e-16)
(2764.5 -3.85956e-11 1.36437e-15)
(2764.5 -3.39275e-11 1.4229e-15)
(2764.5 -2.62728e-11 1.42215e-15)
(2764.5 -2.25839e-11 9.69706e-16)
(2764.5 -2.21138e-11 1.84518e-15)
(2764.5 -2.28148e-11 7.11554e-16)
(2764.5 -2.9752e-11 2.77985e-15)
(2764.5 -3.53747e-11 2.94182e-15)
(2764.5 -3.93045e-11 2.32173e-18)
(2764.5 -4.34104e-11 -1.32021e-16)
(2764.5 -4.42281e-11 5.76664e-16)
(2764.5 -4.13426e-11 1.00809e-15)
(2764.5 -4.2765e-11 1.48851e-15)
(2764.5 -4.23459e-11 9.24986e-16)
(2764.5 -3.85706e-11 1.26911e-15)
(2764.5 -3.76514e-11 1.66124e-15)
(2764.5 -4.04828e-11 1.36314e-15)
(2764.5 -4.08338e-11 1.76525e-15)
(2764.5 -4.02366e-11 1.4489e-15)
(2764.5 -4.20321e-11 1.68859e-15)
(2764.5 -4.58127e-11 9.5133e-16)
(2764.5 -4.62341e-11 1.73841e-15)
(2764.5 -4.15152e-11 1.67383e-15)
(2764.5 -3.00304e-11 1.22105e-15)
(2764.5 -2.56052e-11 1.92897e-15)
(2764.5 -2.21752e-11 2.87987e-15)
(2764.5 -2.63394e-11 2.47874e-15)
(2764.5 -3.39504e-11 2.22913e-15)
(2764.5 -3.54908e-11 9.74948e-16)
(2764.5 -3.72078e-11 1.43522e-15)
(2764.5 -3.16369e-11 2.87872e-15)
(2764.5 -2.66799e-11 1.6809e-15)
(2764.5 -2.81188e-11 7.96075e-16)
(2764.5 -3.65663e-11 1.24244e-15)
(2764.5 -3.74193e-11 1.80217e-15)
(2764.5 -4.03745e-11 9.56444e-16)
(2764.5 -4.18089e-11 1.4414e-15)
(2764.5 -3.63252e-11 9.27753e-16)
(2764.5 -3.61981e-11 1.18374e-15)
(2764.5 -2.46016e-11 1.6393e-15)
(2764.5 -2.43302e-11 1.60741e-15)
(2764.5 -2.63005e-11 1.97721e-15)
(2764.5 -3.20146e-11 1.5339e-15)
(2764.5 -2.74454e-11 1.21475e-15)
(2764.5 -2.83464e-11 1.27427e-15)
(2764.5 -3.16455e-11 1.56223e-15)
(2764.5 -3.53563e-11 5.4423e-16)
(2764.5 -4.40159e-11 1.57967e-15)
(2764.5 -4.58274e-11 1.49076e-15)
(2764.5 -4.51827e-11 8.42378e-16)
(2764.5 -4.23123e-11 2.81859e-15)
(2764.5 -4.11365e-11 1.56813e-15)
(2764.5 -4.25398e-11 1.23465e-15)
(2764.5 -4.29133e-11 -4.01382e-16)
(2764.5 -3.53156e-11 1.44897e-15)
(2764.5 -3.36398e-11 1.5652e-15)
(2764.5 -3.59737e-11 1.65777e-15)
(2764.5 -3.2459e-11 1.31959e-15)
(2764.5 -3.11812e-11 8.9337e-16)
(2764.5 -3.09164e-11 3.10743e-16)
(2764.5 -4.03221e-11 1.57797e-15)
(2764.5 -5.01492e-11 1.5294e-15)
(2764.5 -5.57111e-11 8.15174e-16)
(2764.5 -6.24487e-11 7.87261e-16)
(2764.5 -5.18702e-11 2.73647e-16)
(2764.5 -2.66537e-11 1.18159e-15)
(2764.5 -2.4501e-11 2.07755e-15)
(2764.5 -2.35309e-11 4.91035e-16)
(2764.5 -2.57418e-11 1.08614e-15)
(2764.5 -3.07029e-11 1.8989e-15)
(2764.5 -4.09217e-11 1.84786e-15)
(2764.5 -4.49766e-11 1.4254e-15)
(2764.5 -4.90834e-11 1.56695e-15)
(2764.5 -5.46128e-11 1.33358e-15)
(2764.5 -6.0915e-11 9.1198e-16)
(2764.5 -6.54128e-11 9.07417e-16)
(2764.5 -6.68675e-11 8.45195e-16)
(2764.5 -1.28463e-10 1.42585e-14)
(2764.5 -1.30786e-10 1.33793e-14)
(2764.5 -1.30215e-10 1.17703e-14)
(2764.5 -1.30228e-10 1.16628e-14)
(2764.5 -1.27941e-10 1.19245e-14)
(2764.5 -1.27488e-10 9.3238e-15)
(2764.5 -1.27801e-10 9.29031e-15)
(2764.5 -1.29568e-10 1.18161e-14)
(2764.5 -1.29642e-10 1.37359e-14)
(2764.5 -1.28928e-10 1.11016e-14)
(2764.5 -1.28249e-10 1.10762e-14)
(2764.5 -1.29036e-10 1.32033e-14)
(2764.5 -1.30124e-10 1.62544e-14)
(2764.5 -1.2965e-10 1.45841e-14)
(2764.5 -1.28355e-10 1.37569e-14)
(2764.5 -1.26273e-10 1.34395e-14)
(2764.5 -1.24975e-10 1.08529e-14)
(2764.5 1.08894e-10 4.58055e-15)
(2764.5 1.00236e-10 6.2297e-15)
(2764.5 9.35939e-11 8.63345e-15)
(2764.5 7.71601e-11 8.50521e-15)
(2764.5 6.41639e-11 8.09669e-15)
(2764.5 6.25946e-11 8.12756e-15)
(2764.5 5.92222e-11 7.29191e-15)
(2764.5 5.1624e-11 7.85817e-15)
(2764.5 3.80181e-11 9.73167e-15)
(2764.5 3.22854e-11 7.847e-15)
(2764.5 3.03725e-11 4.11234e-15)
(2764.5 3.16051e-11 6.90128e-15)
(2764.5 3.55057e-11 6.85502e-15)
(2764.5 4.48259e-11 5.86792e-15)
(2764.5 6.51518e-11 3.71884e-15)
(2764.5 7.94361e-11 4.29302e-15)
(2764.5 9.60928e-11 6.07978e-15)
(2764.5 1.15294e-10 4.57137e-15)
(2764.5 1.39775e-10 8.70155e-15)
(2764.5 1.61137e-10 8.29768e-15)
(2764.5 1.73307e-10 8.92839e-15)
(2764.5 1.81316e-10 9.5771e-15)
(2764.5 1.75478e-10 9.24691e-15)
(2764.5 1.75249e-10 9.2082e-15)
(2764.5 1.56422e-10 8.72573e-15)
(2764.5 1.41015e-10 8.61737e-15)
(2764.5 1.20712e-10 8.25621e-15)
(2764.5 9.78619e-11 8.17622e-15)
(2764.5 7.33076e-11 7.59058e-15)
(2764.5 4.88213e-11 8.43661e-15)
(2764.5 2.005e-11 6.47948e-15)
(2764.5 -2.35168e-11 9.6744e-15)
(2764.5 -7.71834e-11 9.36241e-15)
(2764.5 -1.28088e-10 8.12556e-15)
(2764.5 -1.83938e-10 6.98887e-15)
(2764.5 -2.2913e-10 6.30823e-15)
(2764.5 -2.65046e-10 1.06672e-14)
(2764.5 -2.93924e-10 6.9565e-15)
(2764.5 -2.94072e-10 6.58499e-15)
(2764.5 -2.91563e-10 8.2745e-15)
(2764.5 -2.68203e-10 8.66212e-15)
(2764.5 -2.48485e-10 9.24601e-15)
(2764.5 -2.17235e-10 7.95986e-15)
(2764.5 -1.68366e-10 6.10261e-15)
(2764.5 -1.10976e-10 9.15298e-15)
(2764.5 -6.08877e-11 8.47069e-15)
(2764.5 -2.5839e-11 5.89289e-15)
(2764.5 -1.07219e-11 3.43268e-15)
(2764.5 7.3188e-12 8.30455e-15)
(2764.5 5.92037e-12 5.19535e-15)
(2764.5 -1.00126e-11 6.68752e-15)
(2764.5 -3.10916e-11 7.64301e-15)
(2764.5 -7.47457e-11 6.77924e-15)
(2764.5 -1.14343e-10 8.04479e-15)
(2764.5 -1.3625e-10 6.33466e-15)
(2764.5 -1.53582e-10 4.28166e-15)
(2764.5 -1.58531e-10 6.41632e-15)
(2764.5 -1.52728e-10 5.91855e-15)
(2764.5 -1.38569e-10 9.28198e-15)
(2764.5 -1.12688e-10 7.65898e-15)
(2764.5 -8.44408e-11 5.45169e-15)
(2764.5 -7.33815e-11 6.07282e-15)
(2764.5 -8.293e-11 6.43926e-15)
(2764.5 -9.53107e-11 5.08517e-15)
(2764.5 -1.11186e-10 7.76555e-15)
(2764.5 -1.3294e-10 8.33084e-15)
(2764.5 -1.43264e-10 6.95682e-15)
(2764.5 -1.41552e-10 4.94717e-15)
(2764.5 -1.37673e-10 7.47451e-15)
(2764.5 -1.30861e-10 7.30452e-15)
(2764.5 -1.20365e-10 6.96737e-15)
(2764.5 -1.14216e-10 6.49787e-15)
(2764.5 -1.14573e-10 5.83317e-15)
(2764.5 -1.12184e-10 4.1113e-15)
(2764.5 -1.08095e-10 8.47678e-15)
(2764.5 -1.10202e-10 1.09611e-14)
(2764.5 -1.14039e-10 4.76786e-15)
(2764.5 -1.10372e-10 3.74704e-15)
(2764.5 -1.14141e-10 5.10787e-15)
(2764.5 -1.13548e-10 4.95424e-15)
(2764.5 -1.12337e-10 2.18823e-15)
(2764.5 -1.18164e-10 3.5501e-15)
(2764.5 -1.20803e-10 4.26659e-15)
(2764.5 -1.23679e-10 6.9801e-15)
(2764.5 -1.19423e-10 7.92771e-15)
(2764.5 -1.07658e-10 7.09705e-15)
(2764.5 -9.80811e-11 5.13315e-15)
(2764.5 -8.82743e-11 5.27134e-15)
(2764.5 -8.52931e-11 6.22895e-15)
(2764.5 -8.41444e-11 6.48687e-15)
(2764.5 -9.41587e-11 7.72327e-15)
(2764.5 -1.03458e-10 8.41962e-15)
(2764.5 -1.09958e-10 6.89657e-15)
(2764.5 -1.12825e-10 3.71717e-15)
(2764.5 -1.18319e-10 2.67212e-15)
(2764.5 -1.1853e-10 5.32579e-15)
(2764.5 -1.24641e-10 2.9853e-15)
(2764.5 -1.20654e-10 4.35113e-15)
(2764.5 -1.09442e-10 7.98359e-15)
(2764.5 -9.28554e-11 4.01603e-15)
(2764.5 -8.77841e-11 5.1079e-15)
(2764.5 -9.2469e-11 4.52382e-15)
(2764.5 -9.73362e-11 3.53171e-15)
(2764.5 -9.53547e-11 5.81933e-15)
(2764.5 -9.82515e-11 6.79154e-15)
(2764.5 -9.20469e-11 5.22084e-15)
(2764.5 -9.04183e-11 5.10266e-15)
(2764.5 -9.37236e-11 6.1052e-15)
(2764.5 -9.6411e-11 5.76047e-15)
(2764.5 -1.02534e-10 4.0918e-15)
(2764.5 -1.04181e-10 8.62386e-15)
(2764.5 -1.09428e-10 8.29269e-15)
(2764.5 -1.1323e-10 5.68448e-15)
(2764.5 -1.11995e-10 5.84985e-15)
(2764.5 -1.10828e-10 5.59683e-15)
(2764.5 -1.1279e-10 4.83159e-15)
(2764.5 -1.21441e-10 6.2379e-15)
(2764.5 -1.26482e-10 7.76186e-15)
(2764.5 -1.33853e-10 6.06661e-15)
(2764.5 -1.30013e-10 6.28273e-15)
(2764.5 -1.2503e-10 3.93302e-15)
(2764.5 -1.13367e-10 3.24483e-15)
(2764.5 -1.08292e-10 6.18901e-15)
(2764.5 -9.67947e-11 6.96894e-15)
(2764.5 -1.02133e-10 4.78539e-15)
(2764.5 -9.84336e-11 4.17722e-15)
(2764.5 -1.05131e-10 3.93345e-15)
(2764.5 -1.06755e-10 3.97833e-15)
(2764.5 -1.01295e-10 3.58168e-15)
(2764.5 -1.03997e-10 4.32161e-15)
(2764.5 -1.05501e-10 5.75778e-15)
(2764.5 -1.03184e-10 3.55642e-15)
(2764.5 -1.01787e-10 3.96491e-15)
(2764.5 -1.10565e-10 3.64385e-15)
(2764.5 -1.14256e-10 4.81699e-15)
(2764.5 -1.12414e-10 5.28315e-15)
(2764.5 -1.11688e-10 4.18735e-15)
(2764.5 -1.17119e-10 3.78474e-15)
(2764.5 -1.19383e-10 3.3537e-15)
(2764.5 -1.21412e-10 5.15903e-15)
(2764.5 -1.16282e-10 5.63396e-15)
(2764.5 -1.08747e-10 5.80827e-15)
(2764.5 -9.23221e-11 5.98741e-15)
(2764.5 -8.9144e-11 5.10196e-15)
(2764.5 -9.27325e-11 6.31729e-15)
(2764.5 -9.34182e-11 6.4482e-15)
(2764.5 -1.00593e-10 5.02268e-15)
(2764.5 -1.04998e-10 5.6802e-15)
(2764.5 -9.98611e-11 4.54466e-15)
(2764.5 -9.73882e-11 3.81889e-15)
(2764.5 -1.04982e-10 4.12614e-15)
(2764.5 -1.10052e-10 4.79425e-15)
(2764.5 -1.18093e-10 5.72213e-15)
(2764.5 -1.22944e-10 5.65273e-15)
(2764.5 -1.19504e-10 5.54693e-15)
(2764.5 -1.21349e-10 5.42795e-15)
(2764.5 -1.09495e-10 4.84628e-15)
(2764.5 -1.06195e-10 5.26796e-15)
(2764.5 -9.54792e-11 4.99283e-15)
(2764.5 -1.08657e-10 2.31958e-15)
(2764.5 -1.15795e-10 4.99381e-15)
(2764.5 -1.1858e-10 4.20216e-15)
(2764.5 -1.14739e-10 4.55258e-15)
(2764.5 -1.1323e-10 4.64075e-15)
(2764.5 -1.17165e-10 3.80688e-15)
(2764.5 -1.22697e-10 2.9578e-15)
(2764.5 -1.2062e-10 5.37561e-15)
(2764.5 -1.21451e-10 6.16465e-15)
(2764.5 -1.14844e-10 5.58924e-15)
(2764.5 -1.16845e-10 5.25199e-15)
(2764.5 -1.22389e-10 4.57536e-15)
(2764.5 -1.21874e-10 3.23671e-15)
(2764.5 -1.20095e-10 4.41028e-15)
(2764.5 -1.22227e-10 4.41422e-15)
(2764.5 -1.17817e-10 3.74013e-15)
(2764.5 -1.13038e-10 4.20738e-15)
(2764.5 -1.00131e-10 4.21665e-15)
(2764.5 -9.78355e-11 4.20723e-15)
(2764.5 -1.01545e-10 3.73821e-15)
(2764.5 -1.05786e-10 4.29698e-15)
(2764.5 -1.28633e-10 4.25168e-15)
(2764.5 -1.40826e-10 4.5463e-15)
(2764.5 -1.33885e-10 4.76979e-15)
(2764.5 -1.27053e-10 4.78344e-15)
(2764.5 -1.16803e-10 3.29335e-15)
(2764.5 -1.11198e-10 -1.05077e-16)
(2764.5 -1.05398e-10 5.56133e-15)
(2764.5 -1.08769e-10 7.11732e-15)
(2764.5 -1.04779e-10 3.77546e-15)
(2764.5 -1.02343e-10 5.51745e-15)
(2764.5 -1.07272e-10 6.00036e-15)
(2764.5 -1.12368e-10 5.33635e-15)
(2764.5 -1.3362e-10 4.3507e-15)
(2764.5 -2.07181e-10 1.90343e-14)
(2764.5 -2.10809e-10 2.11854e-14)
(2764.5 -2.08927e-10 2.06194e-14)
(2764.5 -2.07709e-10 2.09155e-14)
(2764.5 -2.03988e-10 2.21603e-14)
(2764.5 -2.02276e-10 1.97896e-14)
(2764.5 -1.99369e-10 1.98586e-14)
(2764.5 -2.00348e-10 2.0944e-14)
(2764.5 -2.01418e-10 2.06785e-14)
(2764.5 -2.05608e-10 1.94208e-14)
(2764.5 -2.0562e-10 2.0897e-14)
(2764.5 -2.05426e-10 2.39898e-14)
(2764.5 -2.05672e-10 1.79727e-14)
(2764.5 -2.07295e-10 1.38134e-14)
(2764.5 -2.11162e-10 2.0798e-14)
(2764.5 -2.13579e-10 1.97525e-14)
(2764.5 -4.38821e-10 1.31629e-14)
(2764.5 -4.38146e-10 1.3723e-14)
(2764.5 -4.38579e-10 1.39072e-14)
(2764.5 -4.39771e-10 1.45708e-14)
(2764.5 -4.42544e-10 1.47837e-14)
(2764.5 -4.44857e-10 1.4227e-14)
(2764.5 -4.46055e-10 1.22091e-14)
(2764.5 -4.47015e-10 1.66843e-14)
(2764.5 -4.47482e-10 1.34682e-14)
(2764.5 -4.48033e-10 1.2295e-14)
(2764.5 -4.47715e-10 1.44239e-14)
(2764.5 -4.46616e-10 1.40124e-14)
(2764.5 -4.4832e-10 1.49694e-14)
(2764.5 -4.51526e-10 1.43986e-14)
(2764.5 -4.50043e-10 1.16332e-14)
(2764.5 -4.51272e-10 1.153e-14)
(2764.5 -4.54723e-10 1.02451e-14)
(2764.5 -4.68464e-10 1.19303e-14)
(2764.5 -4.83706e-10 1.30257e-14)
(2764.5 -4.83008e-10 1.14538e-14)
(2764.5 -4.77478e-10 1.30274e-14)
(2764.5 -4.71531e-10 1.33644e-14)
(2764.5 -4.65127e-10 1.19603e-14)
(2764.5 -4.5283e-10 1.17231e-14)
(2764.5 -4.35044e-10 1.27462e-14)
(2764.5 -4.15481e-10 1.22634e-14)
(2764.5 -3.96269e-10 1.24785e-14)
(2764.5 -3.68733e-10 1.22923e-14)
(2764.5 -3.46009e-10 1.15015e-14)
(2764.5 -3.06286e-10 1.22905e-14)
(2764.5 -2.52638e-10 1.11463e-14)
(2764.5 -1.95011e-10 1.17233e-14)
(2764.5 -1.05893e-10 1.0984e-14)
(2764.5 -5.47537e-11 1.18544e-14)
(2764.5 1.26571e-12 1.00476e-14)
(2764.5 3.75086e-11 1.56399e-14)
(2764.5 4.33315e-11 1.10026e-14)
(2764.5 2.17811e-11 1.18855e-14)
(2764.5 -6.69288e-12 1.32023e-14)
(2764.5 -4.06605e-11 1.27657e-14)
(2764.5 -7.43014e-11 1.28305e-14)
(2764.5 -1.18805e-10 1.52036e-14)
(2764.5 -1.61487e-10 1.15395e-14)
(2764.5 -2.29492e-10 1.44027e-14)
(2764.5 -2.86651e-10 1.18041e-14)
(2764.5 -3.16775e-10 1.00094e-14)
(2764.5 -3.18568e-10 1.37762e-14)
(2764.5 -3.13936e-10 1.43716e-14)
(2764.5 -2.96548e-10 1.24088e-14)
(2764.5 -2.81656e-10 1.0661e-14)
(2764.5 -2.42761e-10 9.9927e-15)
(2764.5 -1.83188e-10 1.04055e-14)
(2764.5 -1.27503e-10 9.59097e-15)
(2764.5 -1.01117e-10 8.06361e-15)
(2764.5 -9.03912e-11 8.99929e-15)
(2764.5 -9.16506e-11 1.31171e-14)
(2764.5 -1.08931e-10 1.09428e-14)
(2764.5 -1.35617e-10 1.11144e-14)
(2764.5 -1.81382e-10 1.26659e-14)
(2764.5 -2.22139e-10 1.16815e-14)
(2764.5 -2.31118e-10 1.18381e-14)
(2764.5 -2.25677e-10 1.08936e-14)
(2764.5 -2.11403e-10 1.22018e-14)
(2764.5 -1.87122e-10 1.20527e-14)
(2764.5 -1.58827e-10 9.41841e-15)
(2764.5 -1.51713e-10 8.44652e-15)
(2764.5 -1.60361e-10 1.22037e-14)
(2764.5 -1.74682e-10 1.095e-14)
(2764.5 -1.84175e-10 9.51691e-15)
(2764.5 -2.03999e-10 1.18643e-14)
(2764.5 -2.13065e-10 1.10375e-14)
(2764.5 -2.14586e-10 9.93812e-15)
(2764.5 -2.04213e-10 1.2455e-14)
(2764.5 -1.97959e-10 1.25939e-14)
(2764.5 -1.94312e-10 9.28641e-15)
(2764.5 -1.82183e-10 8.50556e-15)
(2764.5 -1.78287e-10 1.07524e-14)
(2764.5 -1.7825e-10 9.9024e-15)
(2764.5 -1.80565e-10 9.34268e-15)
(2764.5 -1.84316e-10 8.827e-15)
(2764.5 -1.84481e-10 8.11247e-15)
(2764.5 -1.84256e-10 9.12993e-15)
(2764.5 -1.88178e-10 1.07591e-14)
(2764.5 -1.92706e-10 1.01311e-14)
(2764.5 -1.99979e-10 9.91788e-15)
(2764.5 -2.03613e-10 9.81472e-15)
(2764.5 -2.00451e-10 8.37025e-15)
(2764.5 -1.87769e-10 7.18841e-15)
(2764.5 -1.82734e-10 7.11696e-15)
(2764.5 -1.76699e-10 6.92823e-15)
(2764.5 -1.79198e-10 1.13968e-14)
(2764.5 -1.72107e-10 1.01675e-14)
(2764.5 -1.7814e-10 9.11215e-15)
(2764.5 -1.83625e-10 1.07531e-14)
(2764.5 -1.86021e-10 8.01049e-15)
(2764.5 -1.95052e-10 8.31335e-15)
(2764.5 -1.98178e-10 8.27529e-15)
(2764.5 -2.0558e-10 1.13328e-14)
(2764.5 -2.07827e-10 1.20573e-14)
(2764.5 -2.08554e-10 7.89027e-15)
(2764.5 -2.0039e-10 7.77228e-15)
(2764.5 -1.85104e-10 8.51159e-15)
(2764.5 -1.76873e-10 7.94223e-15)
(2764.5 -1.68136e-10 9.00735e-15)
(2764.5 -1.70666e-10 9.49721e-15)
(2764.5 -1.68369e-10 8.31647e-15)
(2764.5 -1.65425e-10 5.54474e-15)
(2764.5 -1.64787e-10 1.01575e-14)
(2764.5 -1.69512e-10 8.34126e-15)
(2764.5 -1.6837e-10 1.06259e-14)
(2764.5 -1.65353e-10 1.18266e-14)
(2764.5 -1.63042e-10 1.18199e-14)
(2764.5 -1.64902e-10 8.36516e-15)
(2764.5 -1.67857e-10 9.86948e-15)
(2764.5 -1.6858e-10 9.48808e-15)
(2764.5 -1.67945e-10 9.69058e-15)
(2764.5 -1.69907e-10 9.97302e-15)
(2764.5 -1.70808e-10 1.04026e-14)
(2764.5 -1.76556e-10 9.93152e-15)
(2764.5 -1.8105e-10 1.00467e-14)
(2764.5 -1.8768e-10 9.35361e-15)
(2764.5 -1.88968e-10 8.81893e-15)
(2764.5 -1.88762e-10 8.80101e-15)
(2764.5 -1.77353e-10 8.50859e-15)
(2764.5 -1.80316e-10 8.87524e-15)
(2764.5 -1.74363e-10 7.71055e-15)
(2764.5 -1.73732e-10 7.30368e-15)
(2764.5 -1.85527e-10 7.66321e-15)
(2764.5 -1.80952e-10 6.12577e-15)
(2764.5 -1.78083e-10 6.6061e-15)
(2764.5 -1.73691e-10 6.42083e-15)
(2764.5 -1.6745e-10 5.84678e-15)
(2764.5 -1.54928e-10 9.53845e-15)
(2764.5 -1.48975e-10 9.23277e-15)
(2764.5 -1.50665e-10 8.50863e-15)
(2764.5 -1.63125e-10 8.6196e-15)
(2764.5 -1.65361e-10 8.54521e-15)
(2764.5 -1.69766e-10 9.19247e-15)
(2764.5 -1.85607e-10 1.05236e-14)
(2764.5 -1.95192e-10 9.5145e-15)
(2764.5 -2.07947e-10 8.90963e-15)
(2764.5 -2.16897e-10 8.19334e-15)
(2764.5 -2.14419e-10 8.71943e-15)
(2764.5 -1.97755e-10 8.41145e-15)
(2764.5 -1.95733e-10 8.09953e-15)
(2764.5 -1.89589e-10 7.61525e-15)
(2764.5 -1.89296e-10 8.50988e-15)
(2764.5 -1.81855e-10 9.63045e-15)
(2764.5 -1.64766e-10 8.96226e-15)
(2764.5 -1.53655e-10 8.16371e-15)
(2764.5 -1.55899e-10 9.06822e-15)
(2764.5 -1.49929e-10 8.72271e-15)
(2764.5 -1.48753e-10 9.24702e-15)
(2764.5 -1.65111e-10 8.13561e-15)
(2764.5 -1.81619e-10 7.04927e-15)
(2764.5 -1.99858e-10 8.83934e-15)
(2764.5 -2.00026e-10 9.53228e-15)
(2764.5 -1.97475e-10 1.07982e-14)
(2764.5 -1.79717e-10 7.77114e-15)
(2764.5 -1.6106e-10 8.04534e-15)
(2764.5 -1.55295e-10 8.33937e-15)
(2764.5 -1.57477e-10 5.95523e-15)
(2764.5 -1.62456e-10 4.27731e-15)
(2764.5 -1.59609e-10 6.1068e-15)
(2764.5 -1.60888e-10 6.89084e-15)
(2764.5 -1.66929e-10 7.41901e-15)
(2764.5 -1.83559e-10 6.82544e-15)
(2764.5 -1.92382e-10 6.87269e-15)
(2764.5 -1.88623e-10 9.04181e-15)
(2764.5 -1.89474e-10 9.418e-15)
(2764.5 -1.75173e-10 4.39382e-15)
(2764.5 -1.7343e-10 9.16858e-15)
(2764.5 -1.70022e-10 8.8622e-15)
(2764.5 -1.77221e-10 7.73146e-15)
(2764.5 -1.87827e-10 6.47929e-15)
(2764.5 -1.90442e-10 6.34357e-15)
(2764.5 -1.87598e-10 7.09757e-15)
(2764.5 -1.78893e-10 7.13347e-15)
(2764.5 -1.76073e-10 6.03895e-15)
(2764.5 -1.68758e-10 4.76944e-15)
(2764.5 -1.64036e-10 5.61628e-15)
(2764.5 -1.71078e-10 5.59209e-15)
(2764.5 -1.7777e-10 6.73164e-15)
(2764.5 -1.77768e-10 6.96941e-15)
(2764.5 -1.67071e-10 6.68572e-15)
(2764.5 -1.62758e-10 7.5338e-15)
(2764.5 -1.4582e-10 6.55099e-15)
(2764.5 -1.44801e-10 5.51563e-15)
(2764.5 -1.59997e-10 6.53616e-15)
(2764.5 -1.48396e-10 6.20481e-15)
(2764.5 -1.46558e-10 6.75744e-15)
(2764.5 -1.33971e-10 7.66495e-15)
(2764.5 -1.32739e-10 7.47797e-15)
(2764.5 -2.84295e-10 2.86882e-14)
(2764.5 -2.87347e-10 2.79818e-14)
(2764.5 -2.91047e-10 2.44296e-14)
(2764.5 -2.91346e-10 2.80637e-14)
(2764.5 -2.9068e-10 2.85369e-14)
(2764.5 -2.8835e-10 2.28247e-14)
(2764.5 -2.87347e-10 2.60926e-14)
(2764.5 -2.84401e-10 2.84081e-14)
(2764.5 -2.8094e-10 2.49739e-14)
(2764.5 -2.81236e-10 2.54808e-14)
(2764.5 -2.81618e-10 3.19647e-14)
(2764.5 -2.8032e-10 3.05455e-14)
(2764.5 -2.79268e-10 2.68767e-14)
(2764.5 -2.80058e-10 2.55352e-14)
(2764.5 -2.82907e-10 2.71042e-14)
(2764.5 -2.85519e-10 2.60775e-14)
(2764.5 2.27891e-10 1.92938e-14)
(2764.5 2.19179e-10 1.81409e-14)
(2764.5 2.09026e-10 1.84957e-14)
(2764.5 1.86197e-10 1.79392e-14)
(2764.5 1.53488e-10 2.00259e-14)
(2764.5 1.39576e-10 2.05295e-14)
(2764.5 1.44268e-10 1.86959e-14)
(2764.5 1.57436e-10 1.87034e-14)
(2764.5 1.89194e-10 2.07506e-14)
(2764.5 2.10876e-10 1.99999e-14)
(2764.5 2.17198e-10 1.77268e-14)
(2764.5 2.08165e-10 1.9442e-14)
(2764.5 2.06113e-10 1.68365e-14)
(2764.5 2.14186e-10 1.71371e-14)
(2764.5 2.18768e-10 1.89142e-14)
(2764.5 2.36696e-10 1.76705e-14)
(2764.5 2.63446e-10 1.7884e-14)
(2764.5 2.99317e-10 1.6137e-14)
(2764.5 3.07134e-10 1.3989e-14)
(2764.5 3.03625e-10 1.56832e-14)
(2764.5 2.98722e-10 1.80042e-14)
(2764.5 2.87988e-10 1.99309e-14)
(2764.5 2.7311e-10 2.00103e-14)
(2764.5 2.35641e-10 1.88388e-14)
(2764.5 2.02608e-10 1.69765e-14)
(2764.5 1.54796e-10 1.72164e-14)
(2764.5 1.08048e-10 1.80112e-14)
(2764.5 5.61785e-11 1.66164e-14)
(2764.5 -4.17933e-11 2.01145e-14)
(2764.5 -1.22497e-10 1.98468e-14)
(2764.5 -2.28667e-10 1.58614e-14)
(2764.5 -3.68243e-10 1.88e-14)
(2764.5 -4.65548e-10 1.67187e-14)
(2764.5 -5.19359e-10 1.64272e-14)
(2764.5 -5.67919e-10 1.69518e-14)
(2764.5 -5.81489e-10 1.62138e-14)
(2764.5 -5.72381e-10 1.67517e-14)
(2764.5 -5.56976e-10 1.82368e-14)
(2764.5 -5.29256e-10 1.70638e-14)
(2764.5 -4.79908e-10 1.48783e-14)
(2764.5 -4.49844e-10 1.73461e-14)
(2764.5 -3.65359e-10 1.59105e-14)
(2764.5 -2.4672e-10 1.46037e-14)
(2764.5 -1.51876e-10 1.75041e-14)
(2764.5 -1.06946e-10 1.77003e-14)
(2764.5 -7.71083e-11 1.79527e-14)
(2764.5 -7.93673e-11 1.78527e-14)
(2764.5 -8.35258e-11 1.73121e-14)
(2764.5 -1.07741e-10 1.7751e-14)
(2764.5 -1.48414e-10 1.60997e-14)
(2764.5 -2.42562e-10 1.32021e-14)
(2764.5 -3.19723e-10 1.74422e-14)
(2764.5 -3.64652e-10 1.66669e-14)
(2764.5 -3.79299e-10 1.56105e-14)
(2764.5 -3.6918e-10 1.64755e-14)
(2764.5 -3.44778e-10 1.64595e-14)
(2764.5 -3.05239e-10 1.49385e-14)
(2764.5 -2.38295e-10 1.45373e-14)
(2764.5 -1.87812e-10 1.50885e-14)
(2764.5 -1.71033e-10 1.55755e-14)
(2764.5 -1.64023e-10 1.72011e-14)
(2764.5 -1.83278e-10 1.67176e-14)
(2764.5 -2.13202e-10 1.54358e-14)
(2764.5 -2.37958e-10 1.76042e-14)
(2764.5 -2.62119e-10 1.29223e-14)
(2764.5 -2.73863e-10 1.3859e-14)
(2764.5 -2.71803e-10 1.58917e-14)
(2764.5 -2.61674e-10 1.52389e-14)
(2764.5 -2.54125e-10 1.51763e-14)
(2764.5 -2.44519e-10 1.49525e-14)
(2764.5 -2.48854e-10 1.53363e-14)
(2764.5 -2.65489e-10 1.51651e-14)
(2764.5 -2.80833e-10 1.53931e-14)
(2764.5 -2.86038e-10 1.47094e-14)
(2764.5 -2.95165e-10 1.48815e-14)
(2764.5 -2.98402e-10 1.46897e-14)
(2764.5 -2.87533e-10 1.53596e-14)
(2764.5 -2.68842e-10 1.46436e-14)
(2764.5 -2.46534e-10 1.48246e-14)
(2764.5 -2.3489e-10 1.47099e-14)
(2764.5 -2.25786e-10 1.70324e-14)
(2764.5 -2.26802e-10 1.48016e-14)
(2764.5 -2.28343e-10 1.3618e-14)
(2764.5 -2.39054e-10 1.33048e-14)
(2764.5 -2.44679e-10 1.54292e-14)
(2764.5 -2.64642e-10 1.46494e-14)
(2764.5 -2.65405e-10 1.40786e-14)
(2764.5 -2.64542e-10 1.3536e-14)
(2764.5 -2.57586e-10 1.11183e-14)
(2764.5 -2.47907e-10 1.29827e-14)
(2764.5 -2.36085e-10 1.48649e-14)
(2764.5 -2.2331e-10 1.34581e-14)
(2764.5 -2.19411e-10 1.41167e-14)
(2764.5 -2.26855e-10 1.47078e-14)
(2764.5 -2.35733e-10 1.32708e-14)
(2764.5 -2.4023e-10 1.18334e-14)
(2764.5 -2.64549e-10 1.29223e-14)
(2764.5 -2.70706e-10 1.45935e-14)
(2764.5 -2.79103e-10 1.45325e-14)
(2764.5 -2.84414e-10 1.20856e-14)
(2764.5 -2.84785e-10 1.3197e-14)
(2764.5 -2.83162e-10 1.24936e-14)
(2764.5 -2.73089e-10 1.34353e-14)
(2764.5 -2.62293e-10 1.39927e-14)
(2764.5 -2.56927e-10 1.33364e-14)
(2764.5 -2.55532e-10 1.22691e-14)
(2764.5 -2.48171e-10 1.49529e-14)
(2764.5 -2.46618e-10 1.62234e-14)
(2764.5 -2.42167e-10 1.31901e-14)
(2764.5 -2.45098e-10 1.09004e-14)
(2764.5 -2.4135e-10 1.35989e-14)
(2764.5 -2.38731e-10 1.51854e-14)
(2764.5 -2.38635e-10 1.24628e-14)
(2764.5 -2.43078e-10 1.18638e-14)
(2764.5 -2.43796e-10 1.34543e-14)
(2764.5 -2.40763e-10 1.12127e-14)
(2764.5 -2.42427e-10 1.20025e-14)
(2764.5 -2.46268e-10 1.18587e-14)
(2764.5 -2.47158e-10 1.26133e-14)
(2764.5 -2.42743e-10 1.62734e-14)
(2764.5 -2.43931e-10 1.33334e-14)
(2764.5 -2.50455e-10 1.24274e-14)
(2764.5 -2.50508e-10 1.3322e-14)
(2764.5 -2.48223e-10 1.34009e-14)
(2764.5 -2.39106e-10 1.29115e-14)
(2764.5 -2.29247e-10 1.27266e-14)
(2764.5 -2.236e-10 1.13869e-14)
(2764.5 -2.25994e-10 1.02233e-14)
(2764.5 -2.41416e-10 1.25768e-14)
(2764.5 -2.43472e-10 1.23492e-14)
(2764.5 -2.53884e-10 1.15699e-14)
(2764.5 -2.51868e-10 1.07256e-14)
(2764.5 -2.50762e-10 1.02418e-14)
(2764.5 -2.38619e-10 1.00812e-14)
(2764.5 -2.23278e-10 1.01829e-14)
(2764.5 -2.13172e-10 1.01264e-14)
(2764.5 -2.23968e-10 1.12068e-14)
(2764.5 -2.13868e-10 1.28173e-14)
(2764.5 -2.13834e-10 1.27333e-14)
(2764.5 -2.20833e-10 1.09539e-14)
(2764.5 -2.39806e-10 9.62104e-15)
(2764.5 -2.51026e-10 9.88217e-15)
(2764.5 -2.68165e-10 1.03607e-14)
(2764.5 -2.73985e-10 1.05913e-14)
(2764.5 -2.67481e-10 8.67959e-15)
(2764.5 -2.73721e-10 1.2404e-14)
(2764.5 -2.77005e-10 1.17945e-14)
(2764.5 -2.85188e-10 1.12457e-14)
(2764.5 -2.78425e-10 1.10719e-14)
(2764.5 -2.59732e-10 1.08744e-14)
(2764.5 -2.46957e-10 1.21142e-14)
(2764.5 -2.27992e-10 9.67523e-15)
(2764.5 -2.12761e-10 1.00528e-14)
(2764.5 -2.0393e-10 8.89194e-15)
(2764.5 -1.96874e-10 1.01228e-14)
(2764.5 -2.12756e-10 8.87093e-15)
(2764.5 -2.26837e-10 9.77943e-15)
(2764.5 -2.53556e-10 1.13513e-14)
(2764.5 -2.55262e-10 1.13804e-14)
(2764.5 -2.54776e-10 1.05154e-14)
(2764.5 -2.41277e-10 1.13555e-14)
(2764.5 -2.16921e-10 1.07154e-14)
(2764.5 -2.05361e-10 1.13918e-14)
(2764.5 -2.10319e-10 8.63087e-15)
(2764.5 -2.10519e-10 9.63507e-15)
(2764.5 -2.10995e-10 1.01748e-14)
(2764.5 -2.125e-10 9.72984e-15)
(2764.5 -2.30221e-10 9.25922e-15)
(2764.5 -2.39501e-10 8.89378e-15)
(2764.5 -2.5986e-10 8.10457e-15)
(2764.5 -2.61843e-10 1.27519e-14)
(2764.5 -2.74018e-10 9.3166e-15)
(2764.5 -2.66208e-10 9.85372e-15)
(2764.5 -2.48881e-10 1.17757e-14)
(2764.5 -2.46549e-10 1.11417e-14)
(2764.5 -2.4481e-10 1.03974e-14)
(2764.5 -2.42648e-10 1.10034e-14)
(2764.5 -2.42864e-10 1.00767e-14)
(2764.5 -2.42152e-10 9.46057e-15)
(2764.5 -2.51916e-10 9.15902e-15)
(2764.5 -2.58829e-10 9.76887e-15)
(2764.5 -2.68447e-10 9.14234e-15)
(2764.5 -2.6252e-10 9.11468e-15)
(2764.5 -2.73784e-10 1.01775e-14)
(2764.5 -2.78094e-10 1.00133e-14)
(2764.5 -2.67758e-10 1.03911e-14)
(2764.5 -2.65105e-10 7.89821e-15)
(2764.5 -2.43372e-10 8.02209e-15)
(2764.5 -2.32891e-10 8.80376e-15)
(2764.5 -2.37644e-10 9.72947e-15)
(2764.5 -2.20815e-10 1.00941e-14)
(2764.5 -2.17745e-10 9.81045e-15)
(2764.5 -1.93562e-10 9.29491e-15)
(2764.5 -3.58468e-10 3.43139e-14)
(2764.5 -3.59444e-10 3.54321e-14)
(2764.5 -3.61359e-10 3.76436e-14)
(2764.5 -3.65316e-10 4.06613e-14)
(2764.5 -3.72362e-10 3.53083e-14)
(2764.5 -3.72796e-10 3.53435e-14)
(2764.5 -3.72318e-10 3.62891e-14)
(2764.5 -3.70154e-10 3.665e-14)
(2764.5 -3.65307e-10 3.43015e-14)
(2764.5 -3.62312e-10 3.65753e-14)
(2764.5 -3.64187e-10 4.20965e-14)
(2764.5 -3.65449e-10 3.36517e-14)
(2764.5 -3.64832e-10 3.61898e-14)
(2764.5 -3.64609e-10 3.24835e-14)
(2764.5 -3.66051e-10 3.11943e-14)
(2764.5 -1.19531e-09 2.58567e-14)
(2764.5 -1.16036e-09 2.45163e-14)
(2764.5 -1.12426e-09 2.24786e-14)
(2764.5 -1.12112e-09 2.16429e-14)
(2764.5 -1.12216e-09 2.3636e-14)
(2764.5 -1.10809e-09 2.23617e-14)
(2764.5 -1.08234e-09 2.15682e-14)
(2764.5 -1.07714e-09 2.41537e-14)
(2764.5 -1.08362e-09 2.40018e-14)
(2764.5 -1.09919e-09 2.42277e-14)
(2764.5 -1.13776e-09 2.39341e-14)