# Cp ()      
# Time       	patch        	min          	max          	average      
2e-05        	cone	9.765390e-02	1.755798e+00	9.398058e-01
