/*--------------------------------*- C++ -*----------------------------------*\
| =========                 |                                                 |
| \\      /  F ield         | OpenFOAM: The Open Source CFD Toolbox           |
|  \\    /   O peration     | Version:  v1706                                 |
|   \\  /    A nd           | Web:      www.OpenFOAM.com                      |
|    \\/     M anipulation  |                                                 |
\*---------------------------------------------------------------------------*/
FoamFile
{
    version     2.0;
    format      ascii;
    class       volScalarField;
    location    "4e-05";
    object      alpha;
}
// * * * * * * * * * * * * * * * * * * * * * * * * * * * * * * * * * * * * * //

dimensions      [1 -1 -1 0 0 0 0];


internalField   nonuniform List<scalar> 
29871
(
1.4071e-05
1.40744e-05
1.40782e-05
1.40826e-05
1.40876e-05
1.40933e-05
1.40998e-05
1.41072e-05
1.41156e-05
1.41251e-05
1.41361e-05
1.41486e-05
1.41629e-05
1.4179e-05
1.41969e-05
1.42169e-05
1.42389e-05
1.42634e-05
1.4291e-05
1.43225e-05
1.43587e-05
1.43998e-05
1.44461e-05
1.44973e-05
1.45531e-05
1.46133e-05
1.46779e-05
1.47484e-05
1.48274e-05
1.4916e-05
1.50135e-05
1.51182e-05
1.52287e-05
1.53439e-05
1.54626e-05
1.55831e-05
1.5704e-05
1.58238e-05
1.59417e-05
1.60586e-05
1.61835e-05
1.63446e-05
1.65334e-05
1.67368e-05
1.69439e-05
1.71468e-05
1.73402e-05
1.75213e-05
1.76884e-05
1.78415e-05
1.79808e-05
1.81072e-05
1.82212e-05
1.83231e-05
1.8413e-05
1.84908e-05
1.85563e-05
1.86097e-05
1.8652e-05
1.86841e-05
1.87069e-05
1.87218e-05
1.87301e-05
1.87304e-05
1.87274e-05
1.87216e-05
1.87137e-05
1.87029e-05
1.869e-05
1.86774e-05
1.86632e-05
1.86468e-05
1.86282e-05
1.86076e-05
1.85849e-05
1.85605e-05
1.85343e-05
1.85054e-05
1.84744e-05
1.84418e-05
1.84071e-05
1.83703e-05
1.83326e-05
1.82942e-05
1.82542e-05
1.82128e-05
1.81704e-05
1.81266e-05
1.80814e-05
1.80351e-05
1.7988e-05
1.79401e-05
1.78912e-05
1.78417e-05
1.77916e-05
1.77407e-05
1.76892e-05
1.76371e-05
1.75844e-05
1.75313e-05
1.74776e-05
1.74235e-05
1.73691e-05
1.73141e-05
1.72588e-05
1.41922e-05
1.42131e-05
1.4237e-05
1.42644e-05
1.42956e-05
1.4331e-05
1.43708e-05
1.44155e-05
1.44656e-05
1.45223e-05
1.45867e-05
1.466e-05
1.47433e-05
1.48369e-05
1.49412e-05
1.5056e-05
1.51817e-05
1.53197e-05
1.54732e-05
1.56449e-05
1.58355e-05
1.6044e-05
1.62682e-05
1.65055e-05
1.67534e-05
1.70091e-05
1.72718e-05
1.75453e-05
1.78538e-05
1.82018e-05
1.85794e-05
1.89741e-05
1.93734e-05
1.97664e-05
2.01439e-05
2.04992e-05
2.08276e-05
2.11266e-05
2.13955e-05
2.16348e-05
2.18443e-05
2.20199e-05
2.21636e-05
2.22783e-05
2.23671e-05
2.24332e-05
2.24794e-05
2.25094e-05
2.2528e-05
2.254e-05
2.25491e-05
2.25572e-05
2.2565e-05
2.25725e-05
2.25792e-05
2.2585e-05
2.25875e-05
2.25859e-05
2.25817e-05
2.25745e-05
2.25634e-05
2.25483e-05
2.25296e-05
2.25077e-05
2.24836e-05
2.24575e-05
2.24304e-05
2.24032e-05
2.23772e-05
2.23518e-05
2.23258e-05
2.22997e-05
2.22741e-05
2.22489e-05
2.22236e-05
2.21982e-05
2.21727e-05
2.21461e-05
2.21185e-05
2.20902e-05
2.20611e-05
2.20314e-05
2.20021e-05
2.19722e-05
2.19414e-05
2.19109e-05
2.18801e-05
2.18481e-05
2.18158e-05
2.17835e-05
2.1751e-05
2.17181e-05
2.16851e-05
2.16523e-05
2.16195e-05
2.15869e-05
2.15545e-05
2.15222e-05
2.14901e-05
2.14583e-05
2.14269e-05
2.13958e-05
2.1365e-05
2.13347e-05
2.13048e-05
1.4503e-05
1.45668e-05
1.46392e-05
1.47217e-05
1.48155e-05
1.49216e-05
1.50408e-05
1.51733e-05
1.53197e-05
1.54814e-05
1.56612e-05
1.58625e-05
1.60864e-05
1.63325e-05
1.65989e-05
1.68833e-05
1.71829e-05
1.74958e-05
1.78234e-05
1.81797e-05
1.8578e-05
1.90114e-05
1.94675e-05
1.99324e-05
2.03927e-05
2.0837e-05
2.12568e-05
2.1646e-05
2.20002e-05
2.23124e-05
2.25829e-05
2.28155e-05
2.30147e-05
2.3185e-05
2.33306e-05
2.34543e-05
2.35579e-05
2.3642e-05
2.37066e-05
2.37526e-05
2.37834e-05
2.38033e-05
2.38154e-05
2.38207e-05
2.38193e-05
2.38142e-05
2.38034e-05
2.37854e-05
2.37593e-05
2.37255e-05
2.36871e-05
2.36465e-05
2.36054e-05
2.35652e-05
2.35267e-05
2.34905e-05
2.34571e-05
2.34262e-05
2.33972e-05
2.33697e-05
2.33432e-05
2.33167e-05
2.32897e-05
2.32614e-05
2.32314e-05
2.31996e-05
2.3166e-05
2.31306e-05
2.30938e-05
2.30562e-05
2.30184e-05
2.29802e-05
2.2942e-05
2.29042e-05
2.2867e-05
2.28309e-05
2.27938e-05
2.27584e-05
2.27264e-05
2.26898e-05
2.26554e-05
2.26243e-05
2.25945e-05
2.25589e-05
2.25245e-05
2.24949e-05
2.24645e-05
2.24313e-05
2.23992e-05
2.23691e-05
2.23387e-05
2.23079e-05
2.22775e-05
2.22477e-05
2.2218e-05
2.21884e-05
2.21591e-05
2.21302e-05
2.21018e-05
2.20738e-05
2.20463e-05
2.20193e-05
2.19927e-05
2.19666e-05
2.19408e-05
2.19154e-05
1.54717e-05
1.56555e-05
1.58607e-05
1.60899e-05
1.63436e-05
1.66207e-05
1.69191e-05
1.72362e-05
1.75699e-05
1.79202e-05
1.82961e-05
1.87131e-05
1.91665e-05
1.96451e-05
2.01355e-05
2.06236e-05
2.10975e-05
2.15476e-05
2.19661e-05
2.23451e-05
2.26797e-05
2.29715e-05
2.32232e-05
2.34384e-05
2.36212e-05
2.37753e-05
2.39041e-05
2.40102e-05
2.40958e-05
2.41626e-05
2.42122e-05
2.42469e-05
2.42699e-05
2.42858e-05
2.42983e-05
2.43099e-05
2.43213e-05
2.43318e-05
2.43392e-05
2.43384e-05
2.43326e-05
2.43213e-05
2.43059e-05
2.42874e-05
2.42668e-05
2.42456e-05
2.42252e-05
2.42063e-05
2.41878e-05
2.4167e-05
2.41413e-05
2.41101e-05
2.40746e-05
2.40363e-05
2.39968e-05
2.39572e-05
2.39184e-05
2.38812e-05
2.38458e-05
2.38122e-05
2.37803e-05
2.37494e-05
2.37188e-05
2.36877e-05
2.36553e-05
2.3621e-05
2.35845e-05
2.35454e-05
2.35039e-05
2.34601e-05
2.34149e-05
2.33683e-05
2.33206e-05
2.3273e-05
2.32255e-05
2.31791e-05
2.31315e-05
2.30853e-05
2.3043e-05
2.29966e-05
2.29525e-05
2.29121e-05
2.28731e-05
2.28286e-05
2.27853e-05
2.27471e-05
2.27084e-05
2.26668e-05
2.26263e-05
2.25884e-05
2.25505e-05
2.25122e-05
2.24747e-05
2.2438e-05
2.24016e-05
2.23654e-05
2.23297e-05
2.22947e-05
2.22604e-05
2.22268e-05
2.21939e-05
2.21617e-05
2.21303e-05
2.20996e-05
2.20696e-05
2.20403e-05
1.74409e-05
1.7796e-05
1.81698e-05
1.85767e-05
1.90224e-05
1.94998e-05
1.99968e-05
2.04999e-05
2.09956e-05
2.14724e-05
2.19209e-05
2.2332e-05
2.26984e-05
2.30201e-05
2.3299e-05
2.35387e-05
2.3743e-05
2.3916e-05
2.40617e-05
2.41833e-05
2.42835e-05
2.43649e-05
2.44298e-05
2.44805e-05
2.45188e-05
2.4547e-05
2.45686e-05
2.45862e-05
2.46013e-05
2.46142e-05
2.46243e-05
2.4631e-05
2.46307e-05
2.46265e-05
2.46179e-05
2.46065e-05
2.45945e-05
2.45835e-05
2.45754e-05
2.45714e-05
2.45714e-05
2.45709e-05
2.45671e-05
2.45579e-05
2.45432e-05
2.45243e-05
2.4503e-05
2.4481e-05
2.44602e-05
2.4442e-05
2.44252e-05
2.44067e-05
2.43842e-05
2.43571e-05
2.43259e-05
2.42915e-05
2.42549e-05
2.42173e-05
2.41795e-05
2.41421e-05
2.41057e-05
2.40702e-05
2.40357e-05
2.40018e-05
2.39679e-05
2.39335e-05
2.3898e-05
2.38608e-05
2.38216e-05
2.37801e-05
2.37363e-05
2.36904e-05
2.36425e-05
2.3593e-05
2.35422e-05
2.34906e-05
2.34394e-05
2.33873e-05
2.33348e-05
2.32844e-05
2.32331e-05
2.31833e-05
2.31357e-05
2.30905e-05
2.30372e-05
2.29885e-05
2.29439e-05
2.28998e-05
2.28506e-05
2.28035e-05
2.27607e-05
2.27176e-05
2.26729e-05
2.26299e-05
2.25888e-05
2.25478e-05
2.25066e-05
2.2466e-05
2.24267e-05
2.23885e-05
2.23508e-05
2.23137e-05
2.22775e-05
2.22422e-05
2.22076e-05
2.21737e-05
2.21405e-05
2.11701e-05
2.16515e-05
2.21029e-05
2.25136e-05
2.28789e-05
2.3199e-05
2.34762e-05
2.37137e-05
2.39157e-05
2.40863e-05
2.42295e-05
2.43484e-05
2.44463e-05
2.45258e-05
2.45895e-05
2.46396e-05
2.46781e-05
2.47078e-05
2.47319e-05
2.47527e-05
2.47711e-05
2.4787e-05
2.48002e-05
2.48103e-05
2.48166e-05
2.48171e-05
2.48153e-05
2.48116e-05
2.48069e-05
2.48018e-05
2.47976e-05
2.47939e-05
2.47911e-05
2.47885e-05
2.47839e-05
2.4776e-05
2.47647e-05
2.47518e-05
2.47393e-05
2.47292e-05
2.47236e-05
2.47215e-05
2.47193e-05
2.47144e-05
2.47054e-05
2.46922e-05
2.46753e-05
2.4656e-05
2.46358e-05
2.46159e-05
2.45976e-05
2.45811e-05
2.45644e-05
2.4546e-05
2.45247e-05
2.45005e-05
2.44736e-05
2.44444e-05
2.44137e-05
2.43822e-05
2.43502e-05
2.43182e-05
2.42864e-05
2.42547e-05
2.42229e-05
2.41908e-05
2.41578e-05
2.41235e-05
2.40873e-05
2.4049e-05
2.40083e-05
2.39649e-05
2.39191e-05
2.3871e-05
2.38206e-05
2.37683e-05
2.37147e-05
2.36604e-05
2.36051e-05
2.35495e-05
2.34938e-05
2.34387e-05
2.33852e-05
2.33319e-05
2.32752e-05
2.3222e-05
2.31711e-05
2.31225e-05
2.30643e-05
2.30096e-05
2.29601e-05
2.29126e-05
2.28604e-05
2.28097e-05
2.27629e-05
2.2717e-05
2.26689e-05
2.26206e-05
2.25761e-05
2.25328e-05
2.2489e-05
2.24452e-05
2.24029e-05
2.2362e-05
2.2322e-05
2.22823e-05
2.22433e-05
2.32756e-05
2.35619e-05
2.38071e-05
2.40153e-05
2.41907e-05
2.43375e-05
2.44592e-05
2.45593e-05
2.46408e-05
2.47062e-05
2.47578e-05
2.47979e-05
2.48295e-05
2.48559e-05
2.48788e-05
2.4899e-05
2.49163e-05
2.49307e-05
2.49418e-05
2.49488e-05
2.49519e-05
2.49517e-05
2.49507e-05
2.49493e-05
2.49478e-05
2.49468e-05
2.49463e-05
2.49471e-05
2.49482e-05
2.49474e-05
2.4944e-05
2.49383e-05
2.49306e-05
2.49227e-05
2.4915e-05
2.49089e-05
2.49042e-05
2.49001e-05
2.48947e-05
2.48867e-05
2.48766e-05
2.48649e-05
2.48533e-05
2.48433e-05
2.48362e-05
2.48324e-05
2.48295e-05
2.48254e-05
2.48188e-05
2.48092e-05
2.47966e-05
2.47818e-05
2.47657e-05
2.47494e-05
2.47342e-05
2.472e-05
2.47059e-05
2.46909e-05
2.46743e-05
2.46554e-05
2.46341e-05
2.46108e-05
2.45858e-05
2.45595e-05
2.45325e-05
2.4505e-05
2.44771e-05
2.44491e-05
2.44207e-05
2.43917e-05
2.43616e-05
2.433e-05
2.42966e-05
2.42609e-05
2.42225e-05
2.41814e-05
2.41376e-05
2.40911e-05
2.40418e-05
2.39899e-05
2.39365e-05
2.38821e-05
2.38257e-05
2.37681e-05
2.3711e-05
2.36549e-05
2.35973e-05
2.35388e-05
2.34827e-05
2.34277e-05
2.3377e-05
2.33134e-05
2.32531e-05
2.31983e-05
2.31476e-05
2.30898e-05
2.30321e-05
2.29797e-05
2.29305e-05
2.2876e-05
2.2821e-05
2.27712e-05
2.2724e-05
2.26745e-05
2.2623e-05
2.25754e-05
2.25306e-05
2.24852e-05
2.24391e-05
2.23946e-05
2.47331e-05
2.48036e-05
2.48594e-05
2.49029e-05
2.49372e-05
2.49657e-05
2.49903e-05
2.50118e-05
2.50302e-05
2.50456e-05
2.50573e-05
2.50649e-05
2.50688e-05
2.50702e-05
2.50705e-05
2.50705e-05
2.50707e-05
2.50713e-05
2.50726e-05
2.5075e-05
2.50776e-05
2.50773e-05
2.50748e-05
2.5071e-05
2.50655e-05
2.50598e-05
2.50545e-05
2.5051e-05
2.50495e-05
2.50482e-05
2.50456e-05
2.50415e-05
2.50351e-05
2.50275e-05
2.50192e-05
2.50112e-05
2.5004e-05
2.49982e-05
2.49932e-05
2.49877e-05
2.49809e-05
2.49727e-05
2.49637e-05
2.49547e-05
2.49471e-05
2.49411e-05
2.49375e-05
2.4935e-05
2.4932e-05
2.49274e-05
2.49205e-05
2.49113e-05
2.48998e-05
2.48869e-05
2.48736e-05
2.48609e-05
2.48485e-05
2.4836e-05
2.48233e-05
2.48097e-05
2.4794e-05
2.47766e-05
2.47575e-05
2.47366e-05
2.47145e-05
2.46919e-05
2.46682e-05
2.4644e-05
2.46199e-05
2.45951e-05
2.45696e-05
2.45431e-05
2.4515e-05
2.44851e-05
2.44529e-05
2.4418e-05
2.43804e-05
2.43401e-05
2.42966e-05
2.42496e-05
2.42002e-05
2.41498e-05
2.40967e-05
2.40402e-05
2.39843e-05
2.39297e-05
2.38722e-05
2.38125e-05
2.37555e-05
2.36995e-05
2.3649e-05
2.35833e-05
2.35202e-05
2.34624e-05
2.3409e-05
2.33504e-05
2.32881e-05
2.3232e-05
2.318e-05
2.31203e-05
2.30601e-05
2.30063e-05
2.29558e-05
2.29015e-05
2.28436e-05
2.27917e-05
2.27434e-05
2.26936e-05
2.26404e-05
2.25913e-05
2.51418e-05
2.51582e-05
2.5171e-05
2.51793e-05
2.5184e-05
2.51859e-05
2.51869e-05
2.51874e-05
2.51881e-05
2.51893e-05
2.51913e-05
2.51947e-05
2.51976e-05
2.51975e-05
2.51956e-05
2.51922e-05
2.51878e-05
2.51831e-05
2.51792e-05
2.51775e-05
2.51771e-05
2.51764e-05
2.51745e-05
2.51709e-05
2.51659e-05
2.51598e-05
2.51535e-05
2.51476e-05
2.51428e-05
2.51396e-05
2.5137e-05
2.51342e-05
2.51304e-05
2.51253e-05
2.51193e-05
2.51126e-05
2.51057e-05
2.50996e-05
2.50944e-05
2.50895e-05
2.50845e-05
2.50789e-05
2.50723e-05
2.50652e-05
2.5058e-05
2.50518e-05
2.50469e-05
2.50431e-05
2.50404e-05
2.50377e-05
2.50339e-05
2.50287e-05
2.50214e-05
2.50123e-05
2.50017e-05
2.49911e-05
2.49805e-05
2.49692e-05
2.4958e-05
2.49473e-05
2.4935e-05
2.49212e-05
2.49067e-05
2.48905e-05
2.48724e-05
2.4854e-05
2.48345e-05
2.48137e-05
2.47932e-05
2.47722e-05
2.47505e-05
2.47283e-05
2.47049e-05
2.46803e-05
2.46542e-05
2.46256e-05
2.45944e-05
2.45611e-05
2.45247e-05
2.44845e-05
2.44412e-05
2.43966e-05
2.43506e-05
2.42978e-05
2.42456e-05
2.41948e-05
2.41419e-05
2.40824e-05
2.40266e-05
2.3972e-05
2.39229e-05
2.38589e-05
2.37959e-05
2.37382e-05
2.36837e-05
2.36262e-05
2.35625e-05
2.3505e-05
2.34518e-05
2.33898e-05
2.33266e-05
2.32705e-05
2.32179e-05
2.31602e-05
2.30984e-05
2.30441e-05
2.29933e-05
2.29399e-05
2.28813e-05
2.28287e-05
2.53092e-05
2.53101e-05
2.53119e-05
2.53152e-05
2.53182e-05
2.53181e-05
2.53164e-05
2.53131e-05
2.53088e-05
2.53043e-05
2.53007e-05
2.52995e-05
2.52993e-05
2.52986e-05
2.52968e-05
2.52933e-05
2.52886e-05
2.52833e-05
2.52779e-05
2.52732e-05
2.52699e-05
2.5268e-05
2.52665e-05
2.52645e-05
2.52616e-05
2.52578e-05
2.52532e-05
2.52482e-05
2.52433e-05
2.52393e-05
2.52362e-05
2.52337e-05
2.52312e-05
2.5228e-05
2.52239e-05
2.5219e-05
2.52134e-05
2.52076e-05
2.52021e-05
2.5197e-05
2.51923e-05
2.51874e-05
2.51822e-05
2.51764e-05
2.51703e-05
2.51641e-05
2.51586e-05
2.5154e-05
2.51504e-05
2.51474e-05
2.51443e-05
2.51408e-05
2.51364e-05
2.51306e-05
2.51226e-05
2.51141e-05
2.51062e-05
2.50958e-05
2.50856e-05
2.50761e-05
2.50661e-05
2.50541e-05
2.50423e-05
2.50302e-05
2.50151e-05
2.49996e-05
2.49842e-05
2.49664e-05
2.49484e-05
2.49308e-05
2.49117e-05
2.48929e-05
2.48735e-05
2.48527e-05
2.48315e-05
2.48086e-05
2.4783e-05
2.47561e-05
2.47268e-05
2.46943e-05
2.46578e-05
2.46196e-05
2.45821e-05
2.45356e-05
2.44883e-05
2.44422e-05
2.43975e-05
2.43406e-05
2.42876e-05
2.42365e-05
2.41897e-05
2.41295e-05
2.40691e-05
2.40141e-05
2.39612e-05
2.39046e-05
2.38421e-05
2.37858e-05
2.37333e-05
2.36707e-05
2.36075e-05
2.35508e-05
2.34978e-05
2.34383e-05
2.33757e-05
2.33205e-05
2.32688e-05
2.32127e-05
2.31515e-05
2.30972e-05
2.54354e-05
2.54303e-05
2.54261e-05
2.54241e-05
2.54232e-05
2.54221e-05
2.54198e-05
2.54161e-05
2.54113e-05
2.5406e-05
2.54006e-05
2.53962e-05
2.53935e-05
2.53921e-05
2.53909e-05
2.53893e-05
2.53869e-05
2.53837e-05
2.53799e-05
2.53759e-05
2.53724e-05
2.53698e-05
2.5368e-05
2.53666e-05
2.53651e-05
2.5363e-05
2.53601e-05
2.53566e-05
2.53527e-05
2.53487e-05
2.53452e-05
2.53422e-05
2.53396e-05
2.5337e-05
2.5334e-05
2.53304e-05
2.5326e-05
2.53211e-05
2.5316e-05
2.53109e-05
2.5306e-05
2.53012e-05
2.52963e-05
2.52913e-05
2.52858e-05
2.52802e-05
2.52746e-05
2.52694e-05
2.52648e-05
2.52611e-05
2.52576e-05
2.52544e-05
2.52512e-05
2.5247e-05
2.52409e-05
2.52347e-05
2.52289e-05
2.52197e-05
2.52107e-05
2.52025e-05
2.51937e-05
2.51826e-05
2.51725e-05
2.51634e-05
2.51499e-05
2.5137e-05
2.51252e-05
2.51093e-05
2.50936e-05
2.5079e-05
2.50621e-05
2.50454e-05
2.5029e-05
2.5011e-05
2.49933e-05
2.49749e-05
2.49539e-05
2.49318e-05
2.49093e-05
2.48839e-05
2.48535e-05
2.4822e-05
2.47924e-05
2.47534e-05
2.47121e-05
2.4672e-05
2.46344e-05
2.45835e-05
2.45348e-05
2.44887e-05
2.44454e-05
2.43891e-05
2.43335e-05
2.42829e-05
2.4234e-05
2.41778e-05
2.41185e-05
2.40652e-05
2.40148e-05
2.3953e-05
2.38922e-05
2.38369e-05
2.37853e-05
2.37243e-05
2.36637e-05
2.36094e-05
2.35583e-05
2.35006e-05
2.34394e-05
2.33849e-05
2.55445e-05
2.55392e-05
2.55333e-05
2.55274e-05
2.55224e-05
2.55191e-05
2.55173e-05
2.55159e-05
2.55142e-05
2.55118e-05
2.55088e-05
2.55052e-05
2.55015e-05
2.54985e-05
2.54965e-05
2.54954e-05
2.54946e-05
2.54936e-05
2.54921e-05
2.54901e-05
2.54875e-05
2.54846e-05
2.5482e-05
2.54798e-05
2.54782e-05
2.54769e-05
2.54754e-05
2.54737e-05
2.54714e-05
2.54686e-05
2.54654e-05
2.54621e-05
2.5459e-05
2.54562e-05
2.54535e-05
2.54509e-05
2.54479e-05
2.54445e-05
2.54405e-05
2.5436e-05
2.54313e-05
2.54264e-05
2.54216e-05
2.54168e-05
2.54119e-05
2.54068e-05
2.54015e-05
2.5396e-05
2.53906e-05
2.53855e-05
2.53811e-05
2.5377e-05
2.53732e-05
2.53701e-05
2.53664e-05
2.53616e-05
2.5357e-05
2.53526e-05
2.53447e-05
2.53368e-05
2.53301e-05
2.53222e-05
2.53119e-05
2.53032e-05
2.52956e-05
2.52838e-05
2.52726e-05
2.52631e-05
2.52496e-05
2.52354e-05
2.52234e-05
2.52086e-05
2.51934e-05
2.51796e-05
2.51637e-05
2.51483e-05
2.51336e-05
2.51154e-05
2.50973e-05
2.50802e-05
2.50599e-05
2.5035e-05
2.501e-05
2.49873e-05
2.49547e-05
2.49204e-05
2.4887e-05
2.48557e-05
2.48107e-05
2.47684e-05
2.47281e-05
2.4689e-05
2.46365e-05
2.45874e-05
2.45418e-05
2.44976e-05
2.44419e-05
2.43877e-05
2.43379e-05
2.42903e-05
2.42309e-05
2.41741e-05
2.41214e-05
2.40718e-05
2.4011e-05
2.39542e-05
2.39018e-05
2.38525e-05
2.37934e-05
2.37344e-05
2.36812e-05
2.56432e-05
2.56405e-05
2.56372e-05
2.56334e-05
2.56295e-05
2.56262e-05
2.5624e-05
2.56228e-05
2.56219e-05
2.5621e-05
2.56197e-05
2.5618e-05
2.56158e-05
2.56134e-05
2.56114e-05
2.561e-05
2.56091e-05
2.56085e-05
2.56078e-05
2.56069e-05
2.56055e-05
2.56037e-05
2.56018e-05
2.55999e-05
2.55982e-05
2.55968e-05
2.55956e-05
2.55943e-05
2.55928e-05
2.55909e-05
2.55886e-05
2.55859e-05
2.55832e-05
2.55804e-05
2.55778e-05
2.55752e-05
2.55725e-05
2.55695e-05
2.55662e-05
2.55624e-05
2.55582e-05
2.55537e-05
2.55491e-05
2.55443e-05
2.55395e-05
2.55346e-05
2.55295e-05
2.55242e-05
2.55188e-05
2.55135e-05
2.55086e-05
2.55039e-05
2.54994e-05
2.5496e-05
2.54923e-05
2.54879e-05
2.5484e-05
2.54804e-05
2.5474e-05
2.54673e-05
2.54618e-05
2.5455e-05
2.54457e-05
2.54378e-05
2.54312e-05
2.54212e-05
2.54111e-05
2.54032e-05
2.53923e-05
2.53794e-05
2.53692e-05
2.53569e-05
2.53427e-05
2.53311e-05
2.53171e-05
2.53031e-05
2.52911e-05
2.52753e-05
2.52603e-05
2.52474e-05
2.52296e-05
2.52097e-05
2.51904e-05
2.51733e-05
2.51452e-05
2.51182e-05
2.50916e-05
2.50654e-05
2.50259e-05
2.49911e-05
2.4957e-05
2.49214e-05
2.48736e-05
2.48315e-05
2.47908e-05
2.47503e-05
2.46975e-05
2.4649e-05
2.4603e-05
2.45579e-05
2.45019e-05
2.44496e-05
2.44e-05
2.43521e-05
2.42943e-05
2.42416e-05
2.41915e-05
2.41435e-05
2.40847e-05
2.40295e-05
2.39779e-05
2.39279e-05
2.38745e-05
2.5752e-05
2.57507e-05
2.57492e-05
2.57474e-05
2.57452e-05
2.57429e-05
2.57409e-05
2.57395e-05
2.57387e-05
2.57382e-05
2.57378e-05
2.57372e-05
2.57362e-05
2.5735e-05
2.57337e-05
2.57325e-05
2.57317e-05
2.57311e-05
2.57308e-05
2.57304e-05
2.57298e-05
2.5729e-05
2.57279e-05
2.57267e-05
2.57254e-05
2.57242e-05
2.57231e-05
2.5722e-05
2.5721e-05
2.57197e-05
2.57181e-05
2.57162e-05
2.5714e-05
2.57116e-05
2.57092e-05
2.57068e-05
2.57043e-05
2.57017e-05
2.56988e-05
2.56956e-05
2.56919e-05
2.5688e-05
2.56837e-05
2.56792e-05
2.56746e-05
2.56698e-05
2.56649e-05
2.56598e-05
2.56546e-05
2.56494e-05
2.56443e-05
2.56392e-05
2.56345e-05
2.56305e-05
2.56266e-05
2.56222e-05
2.56187e-05
2.56153e-05
2.56102e-05
2.56044e-05
2.56e-05
2.55943e-05
2.55863e-05
2.55794e-05
2.55737e-05
2.55653e-05
2.5556e-05
2.55493e-05
2.55406e-05
2.55292e-05
2.55205e-05
2.55105e-05
2.54977e-05
2.54876e-05
2.54758e-05
2.54627e-05
2.54524e-05
2.54391e-05
2.54259e-05
2.54155e-05
2.54002e-05
2.53844e-05
2.53697e-05
2.53557e-05
2.53316e-05
2.5311e-05
2.52913e-05
2.52673e-05
2.52342e-05
2.52064e-05
2.51789e-05
2.51446e-05
2.51031e-05
2.50677e-05
2.50326e-05
2.49934e-05
2.49452e-05
2.49026e-05
2.4861e-05
2.48175e-05
2.47653e-05
2.47177e-05
2.4672e-05
2.46249e-05
2.45712e-05
2.45221e-05
2.44746e-05
2.44263e-05
2.43716e-05
2.43198e-05
2.42695e-05
2.42198e-05
2.41673e-05
2.58733e-05
2.58713e-05
2.58699e-05
2.5869e-05
2.58684e-05
2.58677e-05
2.58668e-05
2.58658e-05
2.58646e-05
2.58636e-05
2.5863e-05
2.58627e-05
2.58626e-05
2.58626e-05
2.58626e-05
2.58623e-05
2.58618e-05
2.58613e-05
2.58609e-05
2.58605e-05
2.58604e-05
2.58604e-05
2.58604e-05
2.58602e-05
2.58599e-05
2.58594e-05
2.58587e-05
2.58579e-05
2.58572e-05
2.58565e-05
2.58557e-05
2.58549e-05
2.58539e-05
2.58527e-05
2.58511e-05
2.58493e-05
2.58474e-05
2.58453e-05
2.58431e-05
2.58408e-05
2.58383e-05
2.58356e-05
2.58325e-05
2.58291e-05
2.58254e-05
2.58214e-05
2.58171e-05
2.58127e-05
2.58081e-05
2.58033e-05
2.57984e-05
2.57934e-05
2.57884e-05
2.57834e-05
2.57786e-05
2.57743e-05
2.57702e-05
2.57658e-05
2.57624e-05
2.57592e-05
2.57549e-05
2.57501e-05
2.57466e-05
2.5742e-05
2.57353e-05
2.57294e-05
2.57248e-05
2.57178e-05
2.57096e-05
2.5704e-05
2.5697e-05
2.56872e-05
2.56799e-05
2.56718e-05
2.56606e-05
2.56519e-05
2.56423e-05
2.56301e-05
2.5621e-05
2.56101e-05
2.55977e-05
2.55886e-05
2.55763e-05
2.55628e-05
2.55515e-05
2.55388e-05
2.55195e-05
2.55033e-05
2.5489e-05
2.5466e-05
2.54399e-05
2.54174e-05
2.53955e-05
2.53625e-05
2.53283e-05
2.52981e-05
2.52683e-05
2.52293e-05
2.51872e-05
2.51496e-05
2.51127e-05
2.50694e-05
2.50219e-05
2.49786e-05
2.49369e-05
2.48901e-05
2.48404e-05
2.47944e-05
2.47498e-05
2.47011e-05
2.46506e-05
2.46021e-05
2.45534e-05
2.45036e-05
2.44535e-05
2.5997e-05
2.59958e-05
2.59948e-05
2.59942e-05
2.5994e-05
2.5994e-05
2.59939e-05
2.59938e-05
2.59936e-05
2.59934e-05
2.59932e-05
2.59933e-05
2.59936e-05
2.59939e-05
2.59944e-05
2.59948e-05
2.59951e-05
2.59953e-05
2.59955e-05
2.59957e-05
2.59959e-05
2.59963e-05
2.59967e-05
2.59971e-05
2.59974e-05
2.59975e-05
2.59975e-05
2.59974e-05
2.59972e-05
2.59969e-05
2.59966e-05
2.59962e-05
2.59958e-05
2.59951e-05
2.59942e-05
2.59931e-05
2.59918e-05
2.59902e-05
2.59885e-05
2.59867e-05
2.59846e-05
2.59824e-05
2.59799e-05
2.59772e-05
2.59741e-05
2.59707e-05
2.5967e-05
2.5963e-05
2.59589e-05
2.59546e-05
2.59502e-05
2.59456e-05
2.5941e-05
2.59363e-05
2.59317e-05
2.59275e-05
2.59233e-05
2.59193e-05
2.59159e-05
2.59128e-05
2.59091e-05
2.59052e-05
2.59025e-05
2.58989e-05
2.58936e-05
2.58889e-05
2.58853e-05
2.58797e-05
2.58727e-05
2.58684e-05
2.58627e-05
2.58544e-05
2.58486e-05
2.58421e-05
2.58325e-05
2.58252e-05
2.58175e-05
2.58066e-05
2.57984e-05
2.57896e-05
2.57779e-05
2.57694e-05
2.57597e-05
2.57472e-05
2.57375e-05
2.57269e-05
2.57111e-05
2.56976e-05
2.56865e-05
2.56656e-05
2.56453e-05
2.56266e-05
2.56084e-05
2.55777e-05
2.55501e-05
2.55242e-05
2.5498e-05
2.54602e-05
2.54242e-05
2.53908e-05
2.53575e-05
2.53149e-05
2.52721e-05
2.52325e-05
2.5194e-05
2.51479e-05
2.51017e-05
2.50584e-05
2.50162e-05
2.4968e-05
2.49204e-05
2.48747e-05
2.48283e-05
2.47791e-05
2.47308e-05
2.46833e-05
2.61316e-05
2.61298e-05
2.61283e-05
2.61274e-05
2.61268e-05
2.61263e-05
2.6126e-05
2.61256e-05
2.61252e-05
2.6125e-05
2.6125e-05
2.61251e-05
2.61255e-05
2.61261e-05
2.61267e-05
2.61272e-05
2.61277e-05
2.61282e-05
2.61288e-05
2.61295e-05
2.61303e-05
2.61312e-05
2.61322e-05
2.61331e-05
2.6134e-05
2.61348e-05
2.61356e-05
2.61364e-05
2.61373e-05
2.61381e-05
2.6139e-05
2.61399e-05
2.61407e-05
2.61413e-05
2.61419e-05
2.61423e-05
2.61427e-05
2.61429e-05
2.61431e-05
2.61432e-05
2.61432e-05
2.6143e-05
2.61426e-05
2.61419e-05
2.61411e-05
2.614e-05
2.61388e-05
2.61373e-05
2.61357e-05
2.61339e-05
2.61318e-05
2.61295e-05
2.61268e-05
2.61239e-05
2.61206e-05
2.61172e-05
2.61136e-05
2.61098e-05
2.61058e-05
2.61018e-05
2.60977e-05
2.60936e-05
2.60897e-05
2.60858e-05
2.60822e-05
2.60791e-05
2.60762e-05
2.60731e-05
2.60701e-05
2.60679e-05
2.60652e-05
2.60612e-05
2.60579e-05
2.60553e-05
2.60509e-05
2.60454e-05
2.60422e-05
2.60378e-05
2.60309e-05
2.60265e-05
2.60213e-05
2.60132e-05
2.60073e-05
2.60011e-05
2.59916e-05
2.59843e-05
2.59771e-05
2.59664e-05
2.5958e-05
2.59502e-05
2.59386e-05
2.5929e-05
2.59203e-05
2.59069e-05
2.58946e-05
2.58849e-05
2.58674e-05
2.58504e-05
2.5835e-05
2.58183e-05
2.57909e-05
2.57685e-05
2.57466e-05
2.57219e-05
2.56862e-05
2.56557e-05
2.56261e-05
2.55952e-05
2.55537e-05
2.55152e-05
2.54789e-05
2.54427e-05
2.53975e-05
2.53543e-05
2.53135e-05
2.52732e-05
2.52257e-05
2.51802e-05
2.51367e-05
2.50926e-05
2.50439e-05
2.49971e-05
2.49515e-05
2.62592e-05
2.62583e-05
2.62577e-05
2.62573e-05
2.62574e-05
2.62575e-05
2.62579e-05
2.62583e-05
2.62588e-05
2.62593e-05
2.62599e-05
2.62606e-05
2.62615e-05
2.62625e-05
2.62637e-05
2.62648e-05
2.6266e-05
2.62672e-05
2.62684e-05
2.62696e-05
2.62709e-05
2.62723e-05
2.62738e-05
2.62753e-05
2.62768e-05
2.62783e-05
2.62797e-05
2.62812e-05
2.62826e-05
2.6284e-05
2.62855e-05
2.6287e-05
2.62884e-05
2.62897e-05
2.6291e-05
2.62922e-05
2.62932e-05
2.62942e-05
2.6295e-05
2.62958e-05
2.62965e-05
2.6297e-05
2.62973e-05
2.62975e-05
2.62974e-05
2.62971e-05
2.62966e-05
2.6296e-05
2.62951e-05
2.6294e-05
2.62927e-05
2.62912e-05
2.62894e-05
2.62873e-05
2.6285e-05
2.62824e-05
2.62797e-05
2.62767e-05
2.62735e-05
2.62703e-05
2.62669e-05
2.62636e-05
2.62603e-05
2.6257e-05
2.6254e-05
2.62513e-05
2.62488e-05
2.62463e-05
2.62441e-05
2.62424e-05
2.62404e-05
2.62377e-05
2.62356e-05
2.62338e-05
2.62306e-05
2.62267e-05
2.62245e-05
2.62211e-05
2.62157e-05
2.62124e-05
2.62083e-05
2.62016e-05
2.61969e-05
2.61919e-05
2.61836e-05
2.6177e-05
2.6171e-05
2.61614e-05
2.61529e-05
2.61461e-05
2.61357e-05
2.61253e-05
2.61177e-05
2.6106e-05
2.60936e-05
2.60843e-05
2.60701e-05
2.60542e-05
2.60407e-05
2.60253e-05
2.60016e-05
2.5982e-05
2.59634e-05
2.5939e-05
2.59067e-05
2.58803e-05
2.5854e-05
2.58243e-05
2.57842e-05
2.57493e-05
2.5716e-05
2.56815e-05
2.56375e-05
2.55966e-05
2.5558e-05
2.55194e-05
2.54727e-05
2.54286e-05
2.53865e-05
2.53445e-05
2.52964e-05
2.52505e-05
2.52063e-05
2.63905e-05
2.63906e-05
2.63908e-05
2.63912e-05
2.63918e-05
2.63926e-05
2.63935e-05
2.63946e-05
2.63957e-05
2.63969e-05
2.63982e-05
2.63995e-05
2.6401e-05
2.64025e-05
2.64042e-05
2.64059e-05
2.64077e-05
2.64095e-05
2.64113e-05
2.64131e-05
2.6415e-05
2.6417e-05
2.6419e-05
2.64211e-05
2.64232e-05
2.64253e-05
2.64274e-05
2.64295e-05
2.64316e-05
2.64338e-05
2.64359e-05
2.6438e-05
2.64401e-05
2.64422e-05
2.64442e-05
2.64461e-05
2.6448e-05
2.64497e-05
2.64513e-05
2.64529e-05
2.64543e-05
2.64557e-05
2.64568e-05
2.64578e-05
2.64586e-05
2.64593e-05
2.64597e-05
2.64599e-05
2.64599e-05
2.64597e-05
2.64594e-05
2.64588e-05
2.64579e-05
2.64569e-05
2.64555e-05
2.6454e-05
2.64522e-05
2.64502e-05
2.6448e-05
2.64457e-05
2.64433e-05
2.64408e-05
2.64383e-05
2.64358e-05
2.64335e-05
2.64313e-05
2.64294e-05
2.64275e-05
2.6426e-05
2.64248e-05
2.64234e-05
2.64218e-05
2.64206e-05
2.64195e-05
2.64173e-05
2.64149e-05
2.64134e-05
2.64107e-05
2.64067e-05
2.64044e-05
2.6401e-05
2.63953e-05
2.63915e-05
2.63872e-05
2.63799e-05
2.63738e-05
2.63686e-05
2.63599e-05
2.63511e-05
2.63448e-05
2.63352e-05
2.6324e-05
2.63163e-05
2.63059e-05
2.62927e-05
2.62828e-05
2.6271e-05
2.62551e-05
2.62415e-05
2.6228e-05
2.62071e-05
2.61883e-05
2.61715e-05
2.61484e-05
2.61191e-05
2.60952e-05
2.60715e-05
2.60427e-05
2.60045e-05
2.5972e-05
2.59409e-05
2.59083e-05
2.58656e-05
2.58262e-05
2.57893e-05
2.57527e-05
2.57071e-05
2.56635e-05
2.56222e-05
2.55819e-05
2.55346e-05
2.54895e-05
2.54463e-05
2.65251e-05
2.65259e-05
2.65269e-05
2.6528e-05
2.65292e-05
2.65306e-05
2.65321e-05
2.65338e-05
2.65355e-05
2.65373e-05
2.65392e-05
2.65412e-05
2.65432e-05
2.65453e-05
2.65475e-05
2.65497e-05
2.65521e-05
2.65545e-05
2.65569e-05
2.65594e-05
2.65619e-05
2.65645e-05
2.65671e-05
2.65698e-05
2.65726e-05
2.65754e-05
2.65782e-05
2.6581e-05
2.65838e-05
2.65867e-05
2.65895e-05
2.65924e-05
2.65952e-05
2.65981e-05
2.66009e-05
2.66037e-05
2.66064e-05
2.6609e-05
2.66115e-05
2.66139e-05
2.66162e-05
2.66184e-05
2.66205e-05
2.66225e-05
2.66243e-05
2.66259e-05
2.66273e-05
2.66285e-05
2.66295e-05
2.66303e-05
2.6631e-05
2.66314e-05
2.66317e-05
2.66316e-05
2.66314e-05
2.66309e-05
2.66302e-05
2.66293e-05
2.66282e-05
2.66269e-05
2.66255e-05
2.6624e-05
2.66224e-05
2.66208e-05
2.66192e-05
2.66177e-05
2.66163e-05
2.66151e-05
2.66141e-05
2.66133e-05
2.66125e-05
2.66115e-05
2.6611e-05
2.66103e-05
2.66089e-05
2.66075e-05
2.66064e-05
2.66043e-05
2.66013e-05
2.65994e-05
2.65964e-05
2.65915e-05
2.65882e-05
2.65841e-05
2.65774e-05
2.65715e-05
2.65664e-05
2.65581e-05
2.65489e-05
2.65425e-05
2.65332e-05
2.65213e-05
2.65126e-05
2.65027e-05
2.64888e-05
2.64773e-05
2.64665e-05
2.64505e-05
2.64356e-05
2.64228e-05
2.64039e-05
2.63847e-05
2.6368e-05
2.63474e-05
2.632e-05
2.62971e-05
2.62746e-05
2.62481e-05
2.62115e-05
2.618e-05
2.61503e-05
2.61202e-05
2.60792e-05
2.60402e-05
2.60045e-05
2.59701e-05
2.59263e-05
2.58823e-05
2.58411e-05
2.58019e-05
2.57566e-05
2.57123e-05
2.567e-05
2.56279e-05
2.55852e-05
2.66621e-05
2.66636e-05
2.66652e-05
2.6667e-05
2.66689e-05
2.66709e-05
2.6673e-05
2.66752e-05
2.66775e-05
2.66799e-05
2.66823e-05
2.66849e-05
2.66875e-05
2.66902e-05
2.66929e-05
2.66958e-05
2.66987e-05
2.67017e-05
2.67047e-05
2.67079e-05
2.6711e-05
2.67143e-05
2.67176e-05
2.67209e-05
2.67244e-05
2.67279e-05
2.67314e-05
2.6735e-05
2.67386e-05
2.67422e-05
2.67459e-05
2.67496e-05
2.67532e-05
2.67569e-05
2.67606e-05
2.67642e-05
2.67678e-05
2.67714e-05
2.67748e-05
2.67782e-05
2.67815e-05
2.67847e-05
2.67878e-05
2.67907e-05
2.67935e-05
2.67962e-05
2.67987e-05
2.6801e-05
2.68031e-05
2.6805e-05
2.68067e-05
2.68083e-05
2.68096e-05
2.68107e-05
2.68116e-05
2.68122e-05
2.68127e-05
2.68129e-05
2.68128e-05
2.68126e-05
2.68122e-05
2.68116e-05
2.68109e-05
2.68101e-05
2.68093e-05
2.68084e-05
2.68076e-05
2.68068e-05
2.68062e-05
2.68057e-05
2.68051e-05
2.68046e-05
2.68042e-05
2.68037e-05
2.68027e-05
2.68017e-05
2.68007e-05
2.67987e-05
2.67963e-05
2.67943e-05
2.67911e-05
2.67866e-05
2.67832e-05
2.67789e-05
2.67722e-05
2.67661e-05
2.67605e-05
2.67521e-05
2.67423e-05
2.67351e-05
2.67255e-05
2.67127e-05
2.67026e-05
2.66922e-05
2.66776e-05
2.66641e-05
2.66528e-05
2.66367e-05
2.662e-05
2.66062e-05
2.65886e-05
2.65682e-05
2.65504e-05
2.6532e-05
2.65058e-05
2.64828e-05
2.64604e-05
2.64369e-05
2.64017e-05
2.637e-05
2.63413e-05
2.63134e-05
2.6275e-05
2.62355e-05
2.62011e-05
2.61678e-05
2.61275e-05
2.60826e-05
2.60412e-05
2.60019e-05
2.59602e-05
2.59171e-05
2.58754e-05
2.58341e-05
2.57927e-05
2.68009e-05
2.6803e-05
2.68053e-05
2.68077e-05
2.68101e-05
2.68127e-05
2.68154e-05
2.68181e-05
2.6821e-05
2.6824e-05
2.6827e-05
2.68301e-05
2.68333e-05
2.68366e-05
2.68399e-05
2.68434e-05
2.68469e-05
2.68505e-05
2.68542e-05
2.6858e-05
2.68619e-05
2.68658e-05
2.68698e-05
2.68739e-05
2.6878e-05
2.68823e-05
2.68866e-05
2.6891e-05
2.68954e-05
2.68999e-05
2.69044e-05
2.69089e-05
2.69135e-05
2.6918e-05
2.69226e-05
2.69272e-05
2.69318e-05
2.69363e-05
2.69407e-05
2.69451e-05
2.69494e-05
2.69537e-05
2.69578e-05
2.69618e-05
2.69657e-05
2.69695e-05
2.6973e-05
2.69764e-05
2.69797e-05
2.69827e-05
2.69855e-05
2.69882e-05
2.69906e-05
2.69928e-05
2.69948e-05
2.69965e-05
2.6998e-05
2.69993e-05
2.70002e-05
2.7001e-05
2.70015e-05
2.70018e-05
2.70019e-05
2.70018e-05
2.70015e-05
2.70012e-05
2.70007e-05
2.70003e-05
2.69998e-05
2.69993e-05
2.69987e-05
2.69981e-05
2.69975e-05
2.69967e-05
2.69956e-05
2.69944e-05