/*--------------------------------*- C++ -*----------------------------------*\
| =========                 |                                                 |
| \\      /  F ield         | OpenFOAM: The Open Source CFD Toolbox           |
|  \\    /   O peration     | Version:  v1706                                 |
|   \\  /    A nd           | Web:      www.OpenFOAM.com                      |
|    \\/     M anipulation  |                                                 |
\*---------------------------------------------------------------------------*/
FoamFile
{
    version     2.0;
    format      ascii;
    class       volScalarField;
    location    "4e-05";
    object      kappave;
}
// * * * * * * * * * * * * * * * * * * * * * * * * * * * * * * * * * * * * * //

dimensions      [1 1 -3 -1 0 0 0];


internalField   nonuniform List<scalar> 
29871
(
1.46279e-10
1.46314e-10
1.46354e-10
1.464e-10
1.46452e-10
1.46511e-10
1.46579e-10
1.46655e-10
1.46742e-10
1.46842e-10
1.46955e-10
1.47086e-10
1.47234e-10
1.47401e-10
1.47588e-10
1.47795e-10
1.48024e-10
1.48279e-10
1.48566e-10
1.48894e-10
1.49269e-10
1.49697e-10
1.50178e-10
1.5071e-10
1.51291e-10
1.51916e-10
1.52588e-10
1.53321e-10
1.54143e-10
1.55064e-10
1.56077e-10
1.57165e-10
1.58315e-10
1.59512e-10
1.60745e-10
1.61999e-10
1.63256e-10
1.64501e-10
1.65726e-10
1.66942e-10
1.6824e-10
1.69915e-10
1.71878e-10
1.73993e-10
1.76146e-10
1.78255e-10
1.80266e-10
1.82148e-10
1.83886e-10
1.85477e-10
1.86925e-10
1.88239e-10
1.89424e-10
1.90483e-10
1.91418e-10
1.92227e-10
1.92908e-10
1.93464e-10
1.93904e-10
1.94237e-10
1.94474e-10
1.94629e-10
1.94715e-10
1.94719e-10
1.94688e-10
1.94627e-10
1.94545e-10
1.94433e-10
1.94298e-10
1.94168e-10
1.9402e-10
1.9385e-10
1.93657e-10
1.93442e-10
1.93206e-10
1.92953e-10
1.92681e-10
1.9238e-10
1.92057e-10
1.91718e-10
1.91358e-10
1.90975e-10
1.90584e-10
1.90184e-10
1.89768e-10
1.89338e-10
1.88897e-10
1.88442e-10
1.87972e-10
1.87491e-10
1.87001e-10
1.86502e-10
1.85995e-10
1.8548e-10
1.84958e-10
1.8443e-10
1.83895e-10
1.83353e-10
1.82805e-10
1.82252e-10
1.81694e-10
1.81132e-10
1.80566e-10
1.79995e-10
1.7942e-10
1.47539e-10
1.47756e-10
1.48005e-10
1.4829e-10
1.48614e-10
1.48982e-10
1.49396e-10
1.4986e-10
1.50381e-10
1.5097e-10
1.5164e-10
1.52403e-10
1.53268e-10
1.54241e-10
1.55325e-10
1.56519e-10
1.57825e-10
1.5926e-10
1.60856e-10
1.62641e-10
1.64623e-10
1.6679e-10
1.6912e-10
1.71588e-10
1.74165e-10
1.76823e-10
1.79555e-10
1.82398e-10
1.85605e-10
1.89223e-10
1.93148e-10
1.97251e-10
2.01403e-10
2.05488e-10
2.09413e-10
2.13106e-10
2.16521e-10
2.19629e-10
2.22425e-10
2.24914e-10
2.27091e-10
2.28917e-10
2.30412e-10
2.31604e-10
2.32528e-10
2.33215e-10
2.33696e-10
2.34009e-10
2.34202e-10
2.34327e-10
2.34423e-10
2.34507e-10
2.34589e-10
2.34667e-10
2.34737e-10
2.34798e-10
2.34824e-10
2.34808e-10
2.34765e-10
2.34691e-10
2.34576e-10
2.34419e-10
2.34225e-10
2.33998e-10
2.33748e-10
2.33477e-10
2.33195e-10
2.32914e-10
2.32643e-10
2.3238e-10
2.3211e-10
2.31838e-10
2.31573e-10
2.31312e-10
2.31049e-10
2.30785e-10
2.3052e-10
2.30243e-10
2.29957e-10
2.29663e-10
2.2936e-10
2.29051e-10
2.28746e-10
2.28435e-10
2.28115e-10
2.27798e-10
2.27478e-10
2.27145e-10
2.26808e-10
2.26473e-10
2.26134e-10
2.25792e-10
2.25449e-10
2.25106e-10
2.24766e-10
2.24426e-10
2.24088e-10
2.23752e-10
2.23418e-10
2.23087e-10
2.2276e-10
2.22436e-10
2.22116e-10
2.218e-10
2.21489e-10
1.5077e-10
1.51433e-10
1.52186e-10
1.53043e-10
1.54019e-10
1.55122e-10
1.56361e-10
1.57739e-10
1.59261e-10
1.60941e-10
1.62811e-10
1.64903e-10
1.67231e-10
1.69789e-10
1.72559e-10
1.75515e-10
1.7863e-10
1.81883e-10
1.85289e-10
1.88993e-10
1.93133e-10
1.97639e-10
2.02382e-10
2.07215e-10
2.12e-10
2.16619e-10
2.20983e-10
2.2503e-10
2.28712e-10
2.31959e-10
2.34772e-10
2.3719e-10
2.39261e-10
2.41032e-10
2.42546e-10
2.43833e-10
2.44911e-10
2.45786e-10
2.46459e-10
2.46938e-10
2.47259e-10
2.47467e-10
2.47594e-10
2.4765e-10
2.47637e-10
2.47585e-10
2.47474e-10
2.47289e-10
2.47019e-10
2.46669e-10
2.46272e-10
2.45851e-10
2.45427e-10
2.4501e-10
2.44612e-10
2.44238e-10
2.43892e-10
2.43573e-10
2.43274e-10
2.4299e-10
2.42717e-10
2.42444e-10
2.42165e-10
2.41872e-10
2.41563e-10
2.41234e-10
2.40887e-10
2.40521e-10
2.4014e-10
2.3975e-10
2.39359e-10
2.38964e-10
2.38567e-10
2.38176e-10
2.3779e-10
2.37416e-10
2.37032e-10
2.36664e-10
2.36332e-10
2.35952e-10
2.35594e-10
2.35271e-10
2.34961e-10
2.34591e-10
2.34233e-10
2.33924e-10
2.33607e-10
2.33261e-10
2.32926e-10
2.32612e-10
2.32295e-10
2.31973e-10
2.31656e-10
2.31344e-10
2.31034e-10
2.30724e-10
2.30417e-10
2.30115e-10
2.29817e-10
2.29524e-10
2.29236e-10
2.28952e-10
2.28674e-10
2.284e-10
2.28131e-10
2.27864e-10
1.60841e-10
1.62751e-10
1.64885e-10
1.67267e-10
1.69905e-10
1.72785e-10
1.75888e-10
1.79184e-10
1.82654e-10
1.86295e-10
1.90203e-10
1.94538e-10
1.99252e-10
2.04229e-10
2.09326e-10
2.14401e-10
2.19328e-10
2.24007e-10
2.28359e-10
2.32299e-10
2.35779e-10
2.38812e-10
2.4143e-10
2.43669e-10
2.4557e-10
2.47172e-10
2.48512e-10
2.49617e-10
2.50508e-10
2.51203e-10
2.51721e-10
2.52083e-10
2.52325e-10
2.52491e-10
2.52624e-10
2.52747e-10
2.52868e-10
2.5298e-10
2.5306e-10
2.53055e-10
2.52998e-10
2.52884e-10
2.52727e-10
2.5254e-10
2.5233e-10
2.52114e-10
2.51907e-10
2.51716e-10
2.51529e-10
2.51319e-10
2.51058e-10
2.5074e-10
2.50378e-10
2.49987e-10
2.49583e-10
2.49178e-10
2.48783e-10
2.48404e-10
2.48044e-10
2.47703e-10
2.47379e-10
2.47066e-10
2.46756e-10
2.4644e-10
2.46111e-10
2.45762e-10
2.4539e-10
2.4499e-10
2.44565e-10
2.44116e-10
2.43652e-10
2.43172e-10
2.42682e-10
2.42191e-10
2.41702e-10
2.41222e-10
2.40731e-10
2.40253e-10
2.39815e-10
2.39334e-10
2.38875e-10
2.38455e-10
2.38049e-10
2.37586e-10
2.37133e-10
2.36734e-10
2.36328e-10
2.35892e-10
2.35467e-10
2.35068e-10
2.34669e-10
2.34265e-10
2.33869e-10
2.33481e-10
2.33096e-10
2.32712e-10
2.32334e-10
2.31962e-10
2.31598e-10
2.31241e-10
2.30891e-10
2.30549e-10
2.30214e-10
2.29887e-10
2.29568e-10
2.29255e-10
1.81313e-10
1.85005e-10
1.88891e-10
1.93121e-10
1.97755e-10
2.02718e-10
2.07886e-10
2.13116e-10
2.1827e-10
2.23227e-10
2.2789e-10
2.32164e-10
2.35974e-10
2.39319e-10
2.42221e-10
2.44714e-10
2.46838e-10
2.48638e-10
2.50154e-10
2.5142e-10
2.52464e-10
2.53312e-10
2.53989e-10
2.54519e-10
2.54919e-10
2.55216e-10
2.55443e-10
2.55629e-10
2.5579e-10
2.55928e-10
2.56038e-10
2.56112e-10
2.56114e-10
2.56077e-10
2.55992e-10
2.55881e-10
2.55763e-10
2.55657e-10
2.55581e-10
2.5555e-10
2.55559e-10
2.55565e-10
2.55537e-10
2.55453e-10
2.55314e-10
2.55132e-10
2.54925e-10
2.54712e-10
2.54513e-10
2.54342e-10
2.54187e-10
2.54014e-10
2.53801e-10
2.53542e-10
2.5324e-10
2.52906e-10
2.5255e-10
2.52184e-10
2.51817e-10
2.51455e-10
2.51103e-10
2.50762e-10
2.50431e-10
2.50105e-10
2.49781e-10
2.4945e-10
2.49106e-10
2.48745e-10
2.48362e-10
2.47953e-10
2.47519e-10
2.47062e-10
2.46583e-10
2.46085e-10
2.45572e-10
2.45049e-10
2.44528e-10
2.43997e-10
2.43459e-10
2.4294e-10
2.42411e-10
2.41895e-10
2.414e-10
2.40927e-10
2.40368e-10
2.39854e-10
2.39382e-10
2.38913e-10
2.38389e-10
2.37883e-10
2.37422e-10
2.36956e-10
2.36472e-10
2.36005e-10
2.35556e-10
2.35106e-10
2.34654e-10
2.34207e-10
2.33772e-10
2.3335e-10
2.32933e-10
2.32521e-10
2.32118e-10
2.31724e-10
2.31339e-10
2.30962e-10
2.30591e-10
2.20086e-10
2.25091e-10
2.29784e-10
2.34055e-10
2.37854e-10
2.41183e-10
2.44066e-10
2.46537e-10
2.48639e-10
2.50414e-10
2.51905e-10
2.53144e-10
2.54163e-10
2.54993e-10
2.55659e-10
2.56183e-10
2.56587e-10
2.56899e-10
2.57154e-10
2.57376e-10
2.57572e-10
2.57743e-10
2.57887e-10
2.57998e-10
2.58072e-10
2.58085e-10
2.58076e-10
2.58047e-10
2.58008e-10
2.57967e-10
2.57937e-10
2.57912e-10
2.57899e-10
2.57887e-10
2.57858e-10
2.57795e-10
2.57699e-10
2.57588e-10
2.57483e-10
2.57405e-10
2.57376e-10
2.57387e-10
2.57398e-10
2.57383e-10
2.57329e-10
2.57233e-10
2.57102e-10
2.56949e-10
2.56789e-10
2.56635e-10
2.56503e-10
2.56391e-10
2.56282e-10
2.56156e-10
2.56005e-10
2.55825e-10
2.5562e-10
2.55394e-10
2.55155e-10
2.54908e-10
2.5466e-10
2.54413e-10
2.54169e-10
2.53926e-10
2.53682e-10
2.53434e-10
2.53175e-10
2.529e-10
2.52603e-10
2.5228e-10
2.51927e-10
2.51543e-10
2.51128e-10
2.50684e-10
2.50211e-10
2.49711e-10
2.49192e-10
2.4866e-10
2.4811e-10
2.47551e-10
2.46985e-10
2.46419e-10
2.4586e-10
2.45297e-10
2.44692e-10
2.44117e-10
2.4356e-10
2.43019e-10
2.42372e-10
2.41756e-10
2.4119e-10
2.40639e-10
2.40035e-10
2.39441e-10
2.38886e-10
2.38335e-10
2.3776e-10
2.3718e-10
2.36639e-10
2.36107e-10
2.35572e-10
2.35035e-10
2.34513e-10
2.34007e-10
2.33511e-10
2.33019e-10
2.32536e-10
2.41984e-10
2.44962e-10
2.47513e-10
2.4968e-10
2.51507e-10
2.53036e-10
2.54304e-10
2.55348e-10
2.56199e-10
2.56884e-10
2.57425e-10
2.57846e-10
2.5818e-10
2.58461e-10
2.58706e-10
2.58922e-10
2.5911e-10
2.59269e-10
2.59393e-10
2.59476e-10
2.5952e-10
2.5953e-10
2.59533e-10
2.59534e-10
2.59534e-10
2.59541e-10
2.59555e-10
2.59584e-10
2.59618e-10
2.59635e-10
2.59627e-10
2.59598e-10
2.5955e-10
2.59503e-10
2.59462e-10
2.5944e-10
2.59438e-10
2.59445e-10
2.59443e-10
2.59418e-10
2.59377e-10
2.59325e-10
2.59279e-10
2.59256e-10
2.59271e-10
2.59325e-10
2.59397e-10
2.59464e-10
2.59512e-10
2.59535e-10
2.59537e-10
2.59524e-10
2.59506e-10
2.59496e-10
2.59506e-10
2.59537e-10
2.59578e-10
2.59618e-10
2.5965e-10
2.59666e-10
2.59665e-10
2.5965e-10
2.59625e-10
2.59592e-10
2.59557e-10
2.59521e-10
2.59483e-10
2.59445e-10
2.59402e-10
2.5935e-10
2.59281e-10
2.59191e-10
2.59071e-10
2.58916e-10
2.58721e-10
2.58483e-10
2.58202e-10
2.57875e-10
2.57502e-10
2.57081e-10
2.56628e-10
2.56145e-10
2.55619e-10
2.55061e-10
2.54493e-10
2.5391e-10
2.53287e-10
2.52635e-10
2.51992e-10
2.51341e-10
2.50713e-10
2.49928e-10
2.49164e-10
2.48443e-10
2.4775e-10
2.46967e-10
2.46176e-10
2.4543e-10
2.44707e-10
2.4392e-10
2.43121e-10
2.42372e-10
2.41647e-10
2.40895e-10
2.40121e-10
2.39389e-10
2.38688e-10
2.37983e-10
2.37273e-10
2.36586e-10
2.57172e-10
2.5791e-10
2.58497e-10
2.58955e-10
2.59319e-10
2.59624e-10
2.59888e-10
2.60121e-10
2.60323e-10
2.60494e-10
2.60628e-10
2.6072e-10
2.60776e-10
2.60806e-10
2.60827e-10
2.60847e-10
2.6087e-10
2.60899e-10
2.60937e-10
2.6099e-10
2.61047e-10
2.61076e-10
2.61086e-10
2.61085e-10
2.61071e-10
2.61058e-10
2.61055e-10
2.61074e-10
2.61119e-10
2.61172e-10
2.61217e-10
2.61253e-10
2.61272e-10
2.61286e-10
2.61303e-10
2.6133e-10
2.61376e-10
2.61447e-10
2.61539e-10
2.61636e-10
2.61733e-10
2.61829e-10
2.61932e-10
2.62052e-10
2.62203e-10
2.62389e-10
2.62619e-10
2.6288e-10
2.63155e-10
2.63435e-10
2.63712e-10
2.63986e-10
2.64261e-10
2.64544e-10
2.64848e-10
2.65184e-10
2.65548e-10
2.65934e-10
2.66343e-10
2.66765e-10
2.67186e-10
2.6761e-10
2.68035e-10
2.68458e-10
2.68884e-10
2.69316e-10
2.69747e-10
2.70177e-10
2.70609e-10
2.71031e-10
2.71436e-10
2.71815e-10
2.72157e-10
2.72455e-10
2.72696e-10
2.72872e-10
2.72978e-10
2.73012e-10
2.72964e-10
2.72827e-10
2.72615e-10
2.72338e-10
2.71975e-10
2.71517e-10
2.71023e-10
2.70484e-10
2.69832e-10
2.69109e-10
2.68369e-10
2.67586e-10
2.66801e-10
2.65796e-10
2.64777e-10
2.63774e-10
2.62772e-10
2.61675e-10
2.60509e-10
2.59388e-10
2.58277e-10
2.57059e-10
2.55819e-10
2.54634e-10
2.53472e-10
2.52261e-10
2.51011e-10
2.49828e-10
2.48685e-10
2.47531e-10
2.46352e-10
2.45229e-10
2.61517e-10
2.61703e-10
2.61851e-10
2.61955e-10
2.62022e-10
2.62063e-10
2.62096e-10
2.62125e-10
2.6216e-10
2.62201e-10
2.62254e-10
2.62324e-10
2.62393e-10
2.62433e-10
2.62458e-10
2.62472e-10
2.6248e-10
2.62491e-10
2.62514e-10
2.62568e-10
2.6264e-10
2.62716e-10
2.62789e-10
2.62851e-10
2.62907e-10
2.62963e-10
2.63027e-10
2.63106e-10
2.63212e-10
2.63347e-10
2.63503e-10
2.63674e-10
2.63852e-10
2.64036e-10
2.6423e-10
2.64439e-10
2.64673e-10
2.64939e-10
2.65244e-10
2.65582e-10
2.65952e-10
2.66348e-10
2.66772e-10
2.67229e-10
2.67728e-10
2.68281e-10
2.68895e-10
2.69569e-10
2.70305e-10
2.71093e-10
2.71922e-10
2.7279e-10
2.73693e-10
2.74634e-10
2.75619e-10
2.76664e-10
2.77771e-10
2.7893e-10
2.80151e-10
2.81436e-10
2.82757e-10
2.84112e-10
2.85508e-10
2.86929e-10
2.88367e-10
2.89835e-10
2.91316e-10
2.92799e-10
2.94296e-10
2.95784e-10
2.97246e-10
2.98677e-10
3.00052e-10
3.01356e-10
3.02575e-10
3.03681e-10
3.04662e-10
3.05515e-10
3.06216e-10
3.06745e-10
3.07112e-10
3.07338e-10
3.07398e-10
3.07226e-10
3.06951e-10
3.06569e-10
3.05932e-10
3.05095e-10
3.0419e-10
3.03167e-10
3.02054e-10
3.00623e-10
2.99091e-10
2.97516e-10
2.95852e-10
2.94043e-10
2.92093e-10
2.90159e-10
2.8819e-10
2.86049e-10
2.8385e-10
2.817e-10
2.79547e-10
2.77315e-10
2.75035e-10
2.72848e-10
2.70697e-10
2.68524e-10
2.66319e-10
2.64216e-10
2.635e-10
2.63547e-10
2.63606e-10
2.63683e-10
2.63762e-10
2.63812e-10
2.6385e-10
2.63876e-10
2.63898e-10
2.63924e-10
2.63966e-10
2.64041e-10
2.64133e-10
2.64229e-10
2.64321e-10
2.64407e-10
2.64492e-10
2.64582e-10
2.64684e-10
2.64808e-10
2.64964e-10
2.6515e-10
2.65359e-10
2.65583e-10
2.6582e-10
2.66071e-10
2.6634e-10
2.66633e-10
2.66959e-10
2.67327e-10
2.67742e-10
2.68201e-10
2.68702e-10
2.69242e-10
2.69822e-10
2.70445e-10
2.71119e-10
2.71853e-10
2.72656e-10
2.73535e-10
2.74493e-10
2.7553e-10
2.76649e-10
2.77853e-10
2.79149e-10
2.80549e-10
2.82062e-10
2.83698e-10
2.85463e-10
2.87354e-10
2.89367e-10
2.91503e-10
2.93757e-10
2.96126e-10
2.98603e-10
3.01214e-10
3.03968e-10
3.06829e-10
3.09829e-10
3.12971e-10
3.16229e-10
3.19579e-10
3.23045e-10
3.26606e-10
3.30213e-10
3.33895e-10
3.37637e-10
3.41385e-10
3.45161e-10
3.4894e-10
3.5267e-10
3.56354e-10
3.59944e-10
3.63402e-10
3.66714e-10
3.69817e-10
3.72676e-10
3.75296e-10
3.77625e-10
3.79613e-10
3.81253e-10
3.82591e-10
3.83597e-10
3.84114e-10
3.84343e-10
3.84324e-10
3.83804e-10
3.82802e-10
3.81589e-10
3.80102e-10
3.78323e-10
3.76026e-10
3.7346e-10
3.70712e-10
3.67684e-10
3.64334e-10
3.60736e-10
3.57089e-10
3.53288e-10
3.49174e-10
3.44943e-10
3.40715e-10
3.36422e-10
3.3198e-10
3.27498e-10
3.23128e-10
3.18772e-10
3.14365e-10
3.09949e-10
3.05702e-10
2.65398e-10
2.65433e-10
2.65485e-10
2.65569e-10
2.65673e-10
2.65785e-10
2.65896e-10
2.66004e-10
2.66113e-10
2.66231e-10
2.66365e-10
2.66526e-10
2.66723e-10
2.66954e-10
2.6721e-10
2.67484e-10
2.67776e-10
2.68088e-10
2.68425e-10
2.68793e-10
2.69203e-10
2.69663e-10
2.70176e-10
2.7074e-10
2.71353e-10
2.72014e-10
2.72729e-10
2.73501e-10
2.74339e-10
2.75254e-10
2.76256e-10
2.77354e-10
2.78552e-10
2.79854e-10
2.81262e-10
2.82782e-10
2.84422e-10
2.86195e-10
2.88112e-10
2.90187e-10
2.92432e-10
2.94857e-10
2.97471e-10
3.00281e-10
3.03298e-10
3.06534e-10
3.10004e-10
3.13723e-10
3.17703e-10
3.21954e-10
3.26475e-10
3.31271e-10
3.36345e-10
3.41684e-10
3.47279e-10
3.53162e-10
3.59334e-10
3.65743e-10
3.72437e-10
3.79417e-10
3.86644e-10
3.94077e-10
4.01761e-10
4.09658e-10
4.17658e-10
4.25825e-10
4.34129e-10
4.4244e-10
4.50808e-10
4.59195e-10
4.67478e-10
4.75669e-10
4.83699e-10
4.91467e-10
4.98962e-10
5.06075e-10
5.12705e-10
5.18871e-10
5.24503e-10
5.29446e-10
5.33674e-10
5.37298e-10
5.40233e-10
5.42209e-10
5.43519e-10
5.44277e-10
5.44046e-10
5.4279e-10
5.41044e-10
5.38689e-10
5.35627e-10
5.31634e-10
5.27089e-10
5.22059e-10
5.1637e-10
5.0996e-10
5.03129e-10
4.96077e-10
4.8861e-10
4.80542e-10
4.72252e-10
4.63856e-10
4.55251e-10
4.46326e-10
4.37406e-10
4.28593e-10
4.19733e-10
4.10745e-10
4.01815e-10
3.93151e-10
2.67696e-10
2.67829e-10
2.67972e-10
2.68132e-10
2.68322e-10
2.68552e-10
2.6882e-10
2.69117e-10
2.69439e-10
2.69783e-10
2.70152e-10
2.70551e-10
2.70988e-10
2.71474e-10
2.72018e-10
2.7262e-10
2.73279e-10
2.73995e-10
2.7477e-10
2.75607e-10
2.76514e-10
2.775e-10
2.78578e-10
2.79758e-10
2.81049e-10
2.82455e-10
2.83983e-10
2.85638e-10
2.87431e-10
2.89372e-10
2.91476e-10
2.93758e-10
2.96237e-10
2.98927e-10
3.01841e-10
3.04994e-10
3.08398e-10
3.12069e-10
3.16024e-10
3.20284e-10
3.24871e-10
3.29807e-10
3.35115e-10
3.40816e-10
3.46927e-10
3.53469e-10
3.60462e-10
3.67926e-10
3.75885e-10
3.8436e-10
3.93369e-10
4.02922e-10
4.13024e-10
4.23689e-10
4.34898e-10
4.46643e-10
4.58944e-10
4.71799e-10
4.85141e-10
4.99015e-10
5.13418e-10
5.28296e-10
5.4358e-10
5.59321e-10
5.75456e-10
5.91821e-10
6.08474e-10
6.25358e-10
6.42284e-10
6.59257e-10
6.76259e-10
6.9306e-10
7.09642e-10
7.25941e-10
7.41721e-10
7.56974e-10
7.71544e-10
7.85172e-10
7.97949e-10
8.09729e-10
8.20178e-10
8.29288e-10
8.37227e-10
8.4379e-10
8.48543e-10
8.51975e-10
8.54231e-10
8.54588e-10
8.52878e-10
8.50237e-10
8.46306e-10
8.40903e-10
8.33787e-10
8.25649e-10
8.16388e-10
8.05792e-10
7.9376e-10
7.81012e-10
7.67612e-10
7.53295e-10
7.37873e-10
7.22036e-10
7.05839e-10
6.89143e-10
6.71826e-10
6.54573e-10
6.37348e-10
6.19938e-10
6.02228e-10
5.84738e-10
5.67629e-10
2.7149e-10
2.71884e-10
2.72309e-10
2.72768e-10
2.73269e-10
2.73824e-10
2.74441e-10
2.75124e-10
2.75872e-10
2.76685e-10
2.77564e-10
2.78515e-10
2.79546e-10
2.80667e-10
2.81891e-10
2.8323e-10
2.84692e-10
2.86283e-10
2.88011e-10
2.89885e-10
2.91915e-10
2.94115e-10
2.96502e-10
2.99095e-10
3.01912e-10
3.04971e-10
3.08289e-10
3.11884e-10
3.15773e-10
3.19979e-10
3.24524e-10
3.29435e-10
3.34743e-10
3.40476e-10
3.46665e-10
3.53339e-10
3.60527e-10
3.68259e-10
3.76567e-10
3.85485e-10
3.95049e-10
4.05299e-10
4.16273e-10
4.28009e-10
4.40543e-10
4.53911e-10
4.68144e-10
4.83278e-10
4.99346e-10
5.16379e-10
5.34408e-10
5.53453e-10
5.73517e-10
5.94624e-10
6.16759e-10
6.39891e-10
6.64033e-10
6.89172e-10
7.15229e-10
7.42199e-10
7.70084e-10
7.98808e-10
8.28251e-10
8.5844e-10
8.8929e-10
9.20583e-10
9.52283e-10
9.84333e-10
1.01648e-09
1.04858e-09
1.08065e-09
1.11236e-09
1.14355e-09
1.1742e-09
1.20389e-09
1.23254e-09
1.26e-09
1.28576e-09
1.30994e-09
1.33232e-09
1.35225e-09
1.36988e-09
1.38529e-09
1.39812e-09
1.40769e-09
1.41491e-09
1.41976e-09
1.42104e-09
1.41852e-09
1.41437e-09
1.40763e-09
1.39808e-09
1.38551e-09
1.37111e-09
1.35434e-09
1.33513e-09
1.31341e-09
1.29037e-09
1.26578e-09
1.23941e-09
1.21114e-09
1.18211e-09
1.15221e-09
1.12129e-09
1.08932e-09
1.05739e-09
1.02525e-09
9.92649e-10
9.59537e-10
9.26903e-10
8.94708e-10
8.62662e-10
8.30907e-10
2.78554e-10
2.79458e-10
2.80437e-10
2.81497e-10
2.82644e-10
2.8389e-10
2.85247e-10
2.86729e-10
2.88345e-10
2.90102e-10
2.92009e-10
2.94076e-10
2.96314e-10
2.9874e-10
3.01371e-10
3.04227e-10
3.07329e-10
3.10697e-10
3.14349e-10
3.18305e-10
3.22589e-10
3.27223e-10
3.32238e-10
3.37663e-10
3.43533e-10
3.49883e-10
3.56749e-10
3.64167e-10
3.72173e-10
3.80809e-10
3.90117e-10
4.00142e-10
4.10934e-10
4.22545e-10
4.3503e-10
4.48442e-10
4.62836e-10
4.78266e-10
4.94788e-10
5.12458e-10
5.31337e-10
5.51484e-10
5.72964e-10
5.95839e-10
6.20168e-10
6.46008e-10
6.73413e-10
7.02434e-10
7.33117e-10
7.65508e-10
7.99651e-10
8.35573e-10
8.7328e-10
9.12792e-10
9.54106e-10
9.97151e-10
1.04192e-09
1.08838e-09
1.13643e-09
1.18596e-09
1.23697e-09
1.28936e-09
1.34293e-09
1.3976e-09
1.45329e-09
1.50971e-09
1.56663e-09
1.624e-09
1.68147e-09
1.73867e-09
1.79563e-09
1.85191e-09
1.90706e-09
1.96112e-09
2.01351e-09
2.06387e-09
2.11216e-09
2.15759e-09
2.20009e-09
2.23945e-09
2.2747e-09
2.30603e-09
2.33333e-09
2.3561e-09
2.37337e-09
2.38666e-09
2.39559e-09
2.39769e-09
2.39384e-09
2.38702e-09
2.37543e-09
2.35859e-09
2.33698e-09
2.31199e-09
2.28257e-09
2.2488e-09
2.21102e-09
2.17086e-09
2.12754e-09
2.081e-09
2.03143e-09
1.98053e-09
1.92784e-09
1.87318e-09
1.81693e-09
1.76054e-09
1.70346e-09
1.6454e-09
1.58681e-09
1.52887e-09
1.47127e-09
1.41376e-09
1.35678e-09
2.88673e-10
2.90286e-10
2.92042e-10
2.93951e-10
2.96021e-10
2.98264e-10
3.0069e-10
3.03317e-10
3.06162e-10
3.09247e-10
3.12593e-10
3.16222e-10
3.20153e-10
3.2441e-10
3.29015e-10
3.33996e-10
3.39384e-10
3.45212e-10
3.51518e-10
3.58339e-10
3.65715e-10
3.73686e-10
3.82297e-10
3.91591e-10
4.0162e-10
4.12437e-10
4.241e-10
4.36671e-10
4.50215e-10
4.64797e-10
4.80487e-10
4.97354e-10
5.15473e-10
5.34922e-10
5.55781e-10
5.78139e-10
6.02082e-10
6.27703e-10
6.55093e-10
6.84343e-10
7.15545e-10
7.48789e-10
7.84167e-10
8.21775e-10
8.61706e-10
9.04054e-10
9.48909e-10
9.96358e-10
1.04648e-09
1.09934e-09
1.15502e-09
1.21355e-09
1.27501e-09
1.33941e-09
1.40677e-09
1.47709e-09
1.55036e-09
1.62648e-09
1.70535e-09
1.78696e-09
1.87112e-09
1.95757e-09
2.04629e-09
2.13711e-09
2.2297e-09
2.3238e-09
2.41931e-09
2.51585e-09
2.61289e-09
2.71036e-09
2.8078e-09
2.90446e-09
3.00034e-09
3.0949e-09
3.18723e-09
3.27741e-09
3.36471e-09
3.44829e-09
3.52822e-09
3.60351e-09
3.67354e-09
3.73837e-09
3.79669e-09
3.84826e-09
3.89311e-09
3.93036e-09
3.95901e-09
3.98081e-09
3.99529e-09
3.99711e-09
3.99107e-09
3.97927e-09
3.95936e-09
3.93031e-09
3.89417e-09
3.85175e-09
3.80186e-09
3.74443e-09
3.68119e-09
3.61352e-09
3.54025e-09
3.46136e-09
3.37816e-09
3.29253e-09
3.20364e-09
3.11119e-09
3.01658e-09
2.92135e-09
2.82469e-09
2.72618e-09
2.62734e-09
2.52922e-09
2.43115e-09
2.33304e-09
2.23601e-09
3.10911e-10
3.14199e-10
3.17759e-10
3.21615e-10
3.25787e-10
3.30298e-10
3.35175e-10
3.40444e-10
3.46136e-10
3.52287e-10
3.58935e-10
3.6612e-10
3.73883e-10
3.82267e-10
3.91318e-10
4.01086e-10
4.11624e-10
4.22989e-10
4.35244e-10
4.48458e-10
4.627e-10
4.78044e-10
4.94568e-10
5.12352e-10
5.31481e-10
5.52047e-10
5.74146e-10
5.97883e-10
6.23363e-10
6.50699e-10
6.80006e-10
7.11404e-10
7.45013e-10
7.80961e-10
8.19378e-10
8.604e-10
9.04165e-10
9.50818e-10
1.0005e-09
1.05336e-09
1.10953e-09
1.16916e-09
1.23237e-09
1.29932e-09
1.37012e-09
1.44492e-09
1.52384e-09
1.607e-09
1.69449e-09
1.78642e-09
1.88287e-09
1.98388e-09
2.08952e-09
2.19981e-09
2.31472e-09
2.43425e-09
2.55835e-09
2.68684e-09
2.81955e-09
2.95638e-09
3.09707e-09
3.24113e-09
3.38842e-09
3.5387e-09
3.69141e-09
3.846e-09
4.00231e-09
4.15982e-09
4.31758e-09
4.47545e-09
4.63274e-09
4.78829e-09
4.94195e-09
5.09301e-09
5.24001e-09
5.38291e-09
5.52092e-09
5.65246e-09
5.77769e-09
5.89552e-09
6.00446e-09
6.10487e-09
6.19534e-09
6.27459e-09
6.34322e-09
6.40004e-09
6.44354e-09
6.47582e-09
6.49609e-09
6.4951e-09
6.48493e-09
6.46385e-09
6.42985e-09
6.38115e-09
6.32212e-09
6.25195e-09
6.17005e-09
6.07597e-09
5.97374e-09
5.86353e-09
5.74428e-09
5.61591e-09
5.48172e-09
5.3431e-09
5.19904e-09
5.04914e-09
4.89642e-09
4.7422e-09
4.58549e-09
4.42573e-09
4.26592e-09
4.10689e-09
3.94748e-09
3.78777e-09
3.62996e-09
3.47494e-09
3.19085e-10
3.22836e-10
3.26891e-10
3.31272e-10
3.36006e-10
3.41115e-10
3.46628e-10
3.52577e-10
3.58994e-10
3.65919e-10
3.73394e-10
3.81458e-10
3.90157e-10
3.99539e-10
4.09652e-10
4.20552e-10
4.32297e-10
4.44952e-10
4.58586e-10
4.73272e-10
4.89087e-10
5.06111e-10
5.24431e-10
5.44137e-10
5.65328e-10
5.88107e-10
6.12587e-10
6.38885e-10
6.67125e-10
6.97437e-10
7.29955e-10
7.64822e-10
8.02186e-10
8.42203e-10
8.85037e-10
9.3086e-10
9.79849e-10
1.03219e-09
1.08807e-09
1.14768e-09
1.21122e-09
1.27889e-09
1.35089e-09
1.42744e-09
1.50874e-09
1.595e-09
1.68645e-09
1.78328e-09
1.88569e-09
1.99388e-09
2.10803e-09
2.22832e-09
2.35493e-09
2.488e-09
2.62768e-09
2.77409e-09
2.92734e-09
3.08751e-09
3.25463e-09
3.42874e-09
3.6098e-09
3.79776e-09
3.99253e-09
4.19397e-09
4.4018e-09
4.61573e-09
4.83553e-09
5.06072e-09
5.29058e-09
5.52473e-09
5.76279e-09
6.00383e-09
6.24691e-09
6.4917e-09
6.73748e-09
6.98271e-09
7.22707e-09
7.46962e-09
7.70857e-09
7.9436e-09
8.17372e-09
8.39678e-09
8.61252e-09
8.82001e-09
9.01691e-09
9.20314e-09
9.37773e-09
9.53822e-09
9.68491e-09
9.81671e-09
9.93106e-09
1.00289e-08
1.01093e-08
1.01697e-08
1.02128e-08
1.0235e-08
1.02283e-08
1.02086e-08
1.01711e-08
1.01138e-08
1.00345e-08
9.93995e-09
9.82742e-09
9.69705e-09
9.54842e-09
9.38855e-09
9.21521e-09
9.0282e-09
8.82724e-09
8.61859e-09
8.40232e-09
8.17763e-09
7.94398e-09
7.70673e-09
7.46661e-09
7.22255e-09
6.97387e-09
6.72547e-09
6.47783e-09
6.2294e-09
5.9802e-09
5.73406e-09
5.4918e-09
3.65352e-10
3.72506e-10
3.80213e-10
3.88517e-10
3.97463e-10
4.07095e-10
4.17466e-10
4.28628e-10
4.4064e-10
4.53566e-10
4.67474e-10
4.82437e-10
4.98531e-10
5.1584e-10
5.34448e-10
5.54449e-10
5.75941e-10
5.99029e-10
6.23828e-10
6.50458e-10
6.79048e-10
7.09731e-10
7.42651e-10
7.77957e-10
8.15808e-10
8.56372e-10
8.99828e-10
9.46364e-10
9.96178e-10
1.04948e-09
1.10648e-09
1.16741e-09
1.23249e-09
1.30198e-09
1.37612e-09
1.45518e-09
1.53943e-09
1.62914e-09
1.7246e-09
1.82611e-09
1.93395e-09
2.04842e-09
2.16981e-09
2.29842e-09
2.43455e-09
2.5785e-09
2.73055e-09
2.89099e-09
3.06009e-09
3.23809e-09
3.42523e-09
3.62172e-09
3.82777e-09
4.04354e-09
4.26917e-09
4.50479e-09
4.75047e-09
5.00625e-09
5.27212e-09
5.54801e-09
5.83382e-09
6.12935e-09
6.4344e-09
6.74864e-09
7.07162e-09
7.40286e-09
7.74185e-09
8.08784e-09
8.43981e-09
8.79701e-09
9.15875e-09
9.52358e-09
9.8901e-09
1.02576e-08
1.06251e-08
1.09903e-08
1.13524e-08
1.17104e-08
1.20614e-08
1.24051e-08
1.27399e-08
1.3063e-08
1.33737e-08
1.36709e-08
1.39515e-08
1.42148e-08
1.44601e-08
1.46842e-08
1.48865e-08
1.50669e-08
1.5222e-08
1.53515e-08
1.54562e-08
1.55328e-08
1.55825e-08
1.55959e-08
1.558e-08
1.55405e-08
1.54746e-08
1.53801e-08
1.52544e-08
1.51057e-08
1.4931e-08
1.47299e-08
1.45034e-08
1.42608e-08
1.39976e-08
1.37144e-08
1.34111e-08
1.30976e-08
1.27721e-08
1.24342e-08
1.20833e-08
1.17277e-08
1.13673e-08
1.10013e-08
1.06286e-08
1.02563e-08
9.88467e-09
9.51214e-09
9.13816e-09
8.76872e-09
8.40441e-09
4.48119e-10
4.61225e-10
4.75304e-10
4.90429e-10
5.06677e-10
5.24126e-10
5.42862e-10
5.62975e-10
5.84563e-10
6.07729e-10
6.32584e-10
6.59247e-10
6.87845e-10
7.18512e-10
7.5139e-10
7.86628e-10
8.24387e-10
8.64836e-10
9.08156e-10
9.54539e-10
1.00419e-09
1.05732e-09
1.11416e-09
1.17494e-09
1.23992e-09
1.30935e-09
1.38351e-09
1.4627e-09
1.54721e-09
1.63737e-09
1.73351e-09
1.83596e-09
1.94507e-09
2.06122e-09
2.18477e-09
2.31612e-09
2.45565e-09
2.60377e-09
2.76089e-09
2.92742e-09
3.10378e-09
3.29038e-09
3.48762e-09
3.6959e-09
3.91563e-09
4.14718e-09
4.39093e-09
4.64722e-09
4.91639e-09
5.19873e-09
5.49451e-09
5.80395e-09
6.12723e-09
6.4645e-09
6.81587e-09
7.18137e-09
7.56099e-09
7.95467e-09
8.36225e-09
8.78351e-09
9.21814e-09
9.66576e-09
1.01259e-08
1.05979e-08
1.10811e-08
1.15746e-08
1.20776e-08
1.25888e-08
1.31069e-08
1.36306e-08
1.41586e-08
1.4689e-08
1.52196e-08
1.57494e-08
1.62765e-08
1.6798e-08
1.73126e-08
1.78186e-08
1.83125e-08
1.87934e-08
1.92593e-08
1.97063e-08
2.01334e-08
2.05393e-08
2.092e-08
2.1274e-08
2.1601e-08
2.18972e-08
2.21606e-08
2.23923e-08
2.25886e-08
2.27473e-08
2.28711e-08
2.29573e-08
2.29992e-08
2.29915e-08
2.2956e-08
2.28798e-08
2.27664e-08
2.2615e-08
2.24204e-08
2.21917e-08
2.19285e-08
2.16288e-08
2.12944e-08
2.09366e-08
2.05502e-08
2.01358e-08
1.96939e-08
1.92376e-08
1.87641e-08
1.82736e-08
1.77648e-08
1.72491e-08
1.67267e-08
1.61969e-08
1.56577e-08
1.51183e-08
1.45795e-08
1.40403e-08
1.3499e-08
1.29639e-08
1.24353e-08
5.91505e-10
6.14595e-10
6.39336e-10
6.65844e-10
6.94239e-10
7.24652e-10
7.57221e-10
7.92092e-10
8.29419e-10
8.69368e-10
9.12115e-10
9.57847e-10
1.00676e-09
1.05907e-09
1.115e-09
1.17479e-09
1.23868e-09
1.30694e-09
1.37984e-09
1.45769e-09
1.54079e-09
1.62947e-09
1.72409e-09
1.82499e-09
1.93256e-09
2.0472e-09
2.16932e-09
2.29934e-09
2.43772e-09
2.58493e-09
2.74145e-09
2.90777e-09
3.08441e-09
3.27189e-09
3.47074e-09
3.68151e-09
3.90474e-09
4.141e-09
4.39084e-09
4.65482e-09
4.9335e-09
5.22741e-09
5.53708e-09
5.86301e-09
6.20571e-09
6.56562e-09
6.94319e-09
7.33879e-09
7.7528e-09
8.18549e-09
8.63712e-09
9.10787e-09
9.59784e-09
1.0107e-08
1.06355e-08
1.1183e-08
1.17494e-08
1.23344e-08
1.29376e-08
1.35584e-08
1.41962e-08
1.48503e-08
1.55197e-08
1.62034e-08
1.69003e-08
1.7609e-08
1.83279e-08
1.90555e-08
1.97897e-08
2.05285e-08
2.127e-08
2.20113e-08
2.27498e-08
2.34834e-08
2.42095e-08
2.49244e-08
2.56261e-08
2.6312e-08
2.69779e-08
2.7622e-08
2.82422e-08
2.88332e-08
2.93937e-08
2.99221e-08
3.04135e-08
3.08657e-08
3.12786e-08
3.16483e-08
3.19708e-08
3.22489e-08
3.24787e-08
3.26558e-08
3.27851e-08
3.28633e-08
3.28686e-08
3.28334e-08
3.27534e-08
3.26153e-08
3.24263e-08
3.2189e-08
3.18954e-08
3.15534e-08
3.11677e-08
3.07354e-08
3.02552e-08
2.97425e-08
2.91926e-08
2.86066e-08
2.79828e-08
2.73386e-08
2.66717e-08
2.59831e-08
2.52694e-08
2.45444e-08
2.38114e-08
2.30697e-08
2.2315e-08
2.15576e-08
2.08013e-08
2.0046e-08
1.92888e-08
1.85388e-08
1.77971e-08
1.70625e-08
1.63364e-08
8.31645e-10
8.70863e-10
9.1278e-10
9.57576e-10
1.00544e-09
1.05657e-09
1.11119e-09
1.16951e-09
1.23179e-09
1.29828e-09
1.36924e-09
1.44497e-09
1.52576e-09
1.61194e-09
1.70384e-09
1.80184e-09
1.90629e-09
2.0176e-09
2.13619e-09
2.2625e-09
2.39699e-09
2.54014e-09
2.69247e-09
2.85451e-09
3.0268e-09
3.20992e-09
3.40448e-09
3.61108e-09
3.83037e-09
4.06302e-09
4.30969e-09
4.57109e-09
4.84792e-09
5.1409e-09
5.45075e-09
5.77822e-09
6.12403e-09
6.4889e-09
6.87358e-09
7.27875e-09
7.70512e-09
8.15336e-09
8.62409e-09
9.11791e-09
9.63537e-09
1.0177e-08
1.07431e-08
1.13342e-08
1.19506e-08
1.25923e-08
1.32597e-08
1.39527e-08
1.46712e-08
1.54149e-08
1.61837e-08
1.69769e-08
1.77942e-08
1.86346e-08
1.94975e-08
2.03817e-08
2.12861e-08
2.22094e-08
2.31501e-08
2.41065e-08
2.50766e-08
2.60585e-08
2.705e-08
2.80484e-08
2.90511e-08
3.00552e-08
3.10578e-08
3.20551e-08
3.30438e-08
3.40207e-08
3.49819e-08
3.59232e-08
3.68416e-08
3.77334e-08
3.85937e-08
3.942e-08
4.02094e-08
4.09559e-08
4.16575e-08
4.23125e-08
4.29151e-08
4.34624e-08
4.39547e-08
4.43879e-08
4.47565e-08
4.50645e-08
4.53086e-08
4.54826e-08
4.55906e-08
4.5621e-08
4.55784e-08
4.54822e-08
4.53223e-08
4.50878e-08
4.47856e-08
4.44233e-08
4.39922e-08
4.34953e-08
4.29446e-08
4.23382e-08
4.16677e-08
4.09535e-08
4.01932e-08
3.93895e-08
3.85347e-08
3.76508e-08
3.67403e-08
3.58026e-08
3.48317e-08
3.38425e-08
3.28454e-08
3.18373e-08
3.08141e-08
2.97818e-08
2.87522e-08
2.7725e-08
2.66992e-08
2.56796e-08
2.46703e-08
2.36709e-08
2.26831e-08
1.22079e-09
1.28519e-09
1.35386e-09
1.42707e-09
1.50511e-09
1.58828e-09
1.6769e-09
1.77132e-09
1.8719e-09
1.97902e-09
2.09307e-09
2.2145e-09
2.34374e-09
2.48126e-09
2.62758e-09
2.78321e-09
2.9487e-09
3.12463e-09
3.31161e-09
3.51027e-09
3.72128e-09
3.94532e-09
4.18313e-09
4.43545e-09
4.70306e-09
4.98677e-09
5.2874e-09
5.60582e-09
5.9429e-09
6.29953e-09
6.67664e-09
7.07516e-09
7.49602e-09
7.94016e-09
8.40854e-09
8.90208e-09
9.4217e-09
9.96832e-09
1.05428e-08
1.1146e-08
1.17788e-08
1.24418e-08
1.31357e-08
1.38613e-08
1.46189e-08
1.54091e-08
1.62322e-08
1.70885e-08
1.79779e-08
1.89006e-08
1.98563e-08
2.08448e-08
2.18655e-08
2.29179e-08
2.40011e-08
2.51141e-08
2.62558e-08
2.74248e-08
2.86195e-08
2.98382e-08
3.10789e-08
3.23395e-08
3.36176e-08
3.49106e-08
3.62158e-08
3.753e-08
3.88501e-08
4.01725e-08
4.14936e-08
4.28094e-08
4.41158e-08
4.54083e-08
4.66823e-08
4.79335e-08
4.9157e-08
5.03476e-08