/*--------------------------------*- C++ -*----------------------------------*\
| =========                 |                                                 |
| \\      /  F ield         | OpenFOAM: The Open Source CFD Toolbox           |
|  \\    /   O peration     | Version:  v1706                                 |
|   \\  /    A nd           | Web:      www.OpenFOAM.com                      |
|    \\/     M anipulation  |                                                 |
\*---------------------------------------------------------------------------*/
FoamFile
{
    version     2.0;
    format      ascii;
    class       volScalarField;
    location    "4e-05";
    object      kappatr;
}
// * * * * * * * * * * * * * * * * * * * * * * * * * * * * * * * * * * * * * //

dimensions      [1 1 -3 -1 0 0 0];


internalField   nonuniform List<scalar> 
29871
(
0.0146172
0.0146207
0.0146246
0.0146292
0.0146344
0.0146403
0.0146471
0.0146547
0.0146634
0.0146733
0.0146847
0.0146977
0.0147126
0.0147293
0.014748
0.0147686
0.0147915
0.0148169
0.0148456
0.0148784
0.0149159
0.0149587
0.0150067
0.0150599
0.0151179
0.0151804
0.0152475
0.0153208
0.0154029
0.0154949
0.0155962
0.0157049
0.0158198
0.0159395
0.0160627
0.0161879
0.0163135
0.016438
0.0165604
0.0166819
0.0168116
0.0169789
0.0171751
0.0173864
0.0176015
0.0178123
0.0180132
0.0182013
0.018375
0.0185339
0.0186787
0.0188099
0.0189284
0.0190342
0.0191276
0.0192084
0.0192765
0.019332
0.019376
0.0194093
0.019433
0.0194484
0.019457
0.0194574
0.0194543
0.0194482
0.01944
0.0194288
0.0194153
0.0194023
0.0193876
0.0193705
0.0193512
0.0193298
0.0193062
0.0192809
0.0192537
0.0192236
0.0191914
0.0191575
0.0191215
0.0190833
0.0190441
0.0190042
0.0189627
0.0189196
0.0188756
0.0188301
0.0187831
0.0187351
0.0186862
0.0186363
0.0185856
0.0185342
0.0184821
0.0184293
0.0183758
0.0183216
0.0182669
0.0182117
0.018156
0.0180998
0.0180432
0.0179861
0.0179286
0.014743
0.0147647
0.0147896
0.014818
0.0148505
0.0148872
0.0149286
0.014975
0.0150271
0.0150859
0.0151528
0.015229
0.0153155
0.0154128
0.015521
0.0156403
0.0157709
0.0159143
0.0160737
0.0162521
0.0164501
0.0166667
0.0168995
0.0171461
0.0174036
0.0176692
0.0179422
0.0182263
0.0185468
0.0189082
0.0193005
0.0197105
0.0201253
0.0205335
0.0209257
0.0212948
0.021636
0.0219465
0.0222259
0.0224745
0.0226921
0.0228745
0.0230238
0.0231429
0.0232352
0.0233039
0.0233519
0.0233831
0.0234023
0.0234148
0.0234243
0.0234327
0.0234408
0.0234486
0.0234556
0.0234616
0.0234642
0.0234625
0.0234581
0.0234507
0.0234391
0.0234234
0.023404
0.0233813
0.0233562
0.0233291
0.0233009
0.0232727
0.0232457
0.0232193
0.0231923
0.0231651
0.0231385
0.0231125
0.0230862
0.0230597
0.0230333
0.0230056
0.022977
0.0229476
0.0229173
0.0228864
0.022856
0.0228249
0.022793
0.0227613
0.0227293
0.0226961
0.0226625
0.022629
0.0225952
0.022561
0.0225268
0.0224926
0.0224586
0.0224248
0.022391
0.0223575
0.0223242
0.0222911
0.0222585
0.0222262
0.0221943
0.0221628
0.0221317
0.0150659
0.0151322
0.0152074
0.015293
0.0153905
0.0155008
0.0156246
0.0157622
0.0159143
0.0160822
0.0162691
0.0164781
0.0167108
0.0169664
0.0172432
0.0175386
0.0178498
0.0181749
0.0185151
0.0188853
0.019299
0.0197493
0.0202231
0.020706
0.0211841
0.0216457
0.0220818
0.0224862
0.022854
0.0231784
0.0234594
0.023701
0.0239079
0.0240848
0.0242361
0.0243646
0.0244723
0.0245596
0.0246267
0.0246745
0.0247065
0.0247271
0.0247397
0.0247452
0.0247438
0.0247385
0.0247272
0.0247086
0.0246814
0.0246464
0.0246064
0.0245642
0.0245216
0.0244798
0.0244398
0.0244022
0.0243675
0.0243354
0.0243053
0.0242767
0.0242492
0.0242217
0.0241936
0.0241642
0.024133
0.0241
0.0240651
0.0240283
0.0239901
0.023951
0.0239117
0.0238721
0.0238324
0.0237931
0.0237545
0.023717
0.0236785
0.0236417
0.0236084
0.0235704
0.0235347
0.0235023
0.0234714
0.0234345
0.0233988
0.023368
0.0233364
0.0233019
0.0232685
0.0232373
0.0232057
0.0231737
0.0231422
0.0231112
0.0230803
0.0230496
0.0230191
0.0229891
0.0229596
0.0229305
0.0229019
0.0228739
0.0228463
0.0228191
0.0227924
0.022766
0.0160722
0.0162631
0.0164763
0.0167144
0.0169779
0.0172657
0.0175757
0.0179052
0.0182518
0.0186157
0.0190062
0.0194394
0.0199103
0.0204076
0.020917
0.0214241
0.0219163
0.0223839
0.0228186
0.0232123
0.02356
0.023863
0.0241245
0.0243481
0.024538
0.024698
0.0248318
0.0249421
0.025031
0.0251003
0.025152
0.0251879
0.0252119
0.0252283
0.0252414
0.0252534
0.0252653
0.0252762
0.0252838
0.025283
0.025277
0.0252652
0.0252492
0.02523
0.0252086
0.0251866
0.0251654
0.0251458
0.0251265
0.025105
0.0250782
0.0250458
0.025009
0.0249692
0.0249282
0.024887
0.0248467
0.024808
0.0247713
0.0247364
0.0247032
0.0246711
0.0246393
0.024607
0.0245734
0.0245378
0.0244998
0.0244593
0.0244161
0.0243706
0.0243236
0.0242752
0.0242257
0.0241763
0.0241269
0.0240787
0.0240293
0.0239813
0.0239374
0.0238892
0.0238433
0.0238013
0.0237608
0.0237147
0.0236696
0.0236299
0.0235897
0.0235465
0.0235045
0.0234651
0.0234257
0.023386
0.023347
0.0233089
0.023271
0.0232334
0.0231963
0.02316
0.0231244
0.0230895
0.0230553
0.0230218
0.0229892
0.0229573
0.0229261
0.0228957
0.0181178
0.0184867
0.018875
0.0192976
0.0197607
0.0202566
0.020773
0.0212956
0.0218105
0.0223058
0.0227717
0.0231987
0.0235793
0.0239135
0.0242033
0.0244523
0.0246645
0.0248442
0.0249955
0.0251219
0.025226
0.0253105
0.025378
0.0254307
0.0254704
0.0254997
0.0255222
0.0255404
0.0255562
0.0255695
0.0255801
0.025587
0.0255867
0.0255823
0.0255733
0.0255615
0.025549
0.0255376
0.0255292
0.0255251
0.025525
0.0255246
0.0255206
0.025511
0.0254957
0.0254762
0.025454
0.0254311
0.0254095
0.0253906
0.0253732
0.0253539
0.0253306
0.0253025
0.0252701
0.0252343
0.0251963
0.0251572
0.0251179
0.0250791
0.0250412
0.0250044
0.0249686
0.0249333
0.0248981
0.0248624
0.0248255
0.0247869
0.0247462
0.0247031
0.0246576
0.0246098
0.0245601
0.0245087
0.0244559
0.0244023
0.0243491
0.024295
0.0242405
0.0241881
0.0241348
0.024083
0.0240337
0.0239867
0.0239313
0.0238807
0.0238343
0.0237886
0.0237375
0.0236885
0.0236441
0.0235993
0.0235528
0.0235082
0.0234656
0.0234229
0.0233802
0.0233379
0.0232971
0.0232574
0.0232183
0.0231798
0.0231421
0.0231054
0.0230695
0.0230343
0.0229998
0.0219917
0.0224919
0.0229607
0.0233874
0.0237669
0.0240994
0.0243873
0.0246341
0.0248439
0.0250211
0.0251698
0.0252934
0.0253951
0.0254777
0.0255439
0.0255959
0.0256359
0.0256667
0.0256918
0.0257134
0.0257325
0.025749
0.0257627
0.0257732
0.0257798
0.0257803
0.0257784
0.0257746
0.0257697
0.0257644
0.02576
0.0257562
0.0257533
0.0257505
0.0257458
0.0257376
0.0257258
0.0257125
0.0256995
0.0256889
0.0256831
0.025681
0.0256787
0.0256736
0.0256643
0.0256505
0.025633
0.025613
0.0255919
0.0255712
0.0255523
0.0255351
0.0255178
0.0254986
0.0254766
0.0254514
0.0254234
0.0253931
0.0253613
0.0253285
0.0252952
0.0252621
0.025229
0.025196
0.0251631
0.0251297
0.0250954
0.0250597
0.0250222
0.0249824
0.02494
0.024895
0.0248475
0.0247975
0.0247452
0.0246908
0.0246351
0.0245787
0.0245212
0.0244634
0.0244056
0.0243484
0.0242928
0.0242375
0.0241785
0.0241233
0.0240704
0.0240199
0.0239594
0.0239026
0.0238512
0.0238019
0.0237477
0.023695
0.0236464
0.0235986
0.0235487
0.0234985
0.0234523
0.0234073
0.0233619
0.0233164
0.0232723
0.0232299
0.0231883
0.0231471
0.0231066
0.024179
0.0244764
0.0247311
0.0249473
0.0251296
0.0252821
0.0254085
0.0255125
0.0255971
0.0256651
0.0257187
0.0257603
0.0257932
0.0258206
0.0258444
0.0258653
0.0258834
0.0258983
0.0259098
0.0259171
0.0259203
0.0259201
0.0259191
0.0259177
0.0259161
0.025915
0.0259145
0.0259153
0.0259164
0.0259156
0.0259121
0.0259062
0.0258982
0.02589
0.025882
0.0258756
0.0258708
0.0258666
0.0258609
0.0258526
0.0258421
0.0258299
0.0258179
0.0258075
0.0258002
0.0257962
0.0257931
0.0257889
0.0257821
0.025772
0.025759
0.0257436
0.0257269
0.02571
0.0256941
0.0256794
0.0256648
0.0256492
0.0256319
0.0256123
0.0255902
0.025566
0.02554
0.0255127
0.0254846
0.0254561
0.0254271
0.025398
0.0253685
0.0253383
0.0253071
0.0252743
0.0252396
0.0252025
0.0251626
0.0251199
0.0250744
0.0250261
0.0249749
0.0249209
0.0248655
0.024809
0.0247504
0.0246905
0.0246313
0.024573
0.0245132
0.0244524
0.0243941
0.024337
0.0242843
0.0242183
0.0241555
0.0240987
0.024046
0.0239859
0.023926
0.0238716
0.0238204
0.0237638
0.0237067
0.023655
0.0236059
0.0235545
0.023501
0.0234515
0.023405
0.0233579
0.02331
0.0232637
0.025693
0.0257663
0.0258243
0.0258694
0.025905
0.0259347
0.0259603
0.0259825
0.0260017
0.0260176
0.0260298
0.0260377
0.0260418
0.0260432
0.0260435
0.0260436
0.0260438
0.0260444
0.0260457
0.0260482
0.0260509
0.0260506
0.026048
0.026044
0.0260383
0.0260324
0.026027
0.0260233
0.0260217
0.0260203
0.0260177
0.0260134
0.0260067
0.0259988
0.0259903
0.0259819
0.0259745
0.0259684
0.0259633
0.0259575
0.0259504
0.0259419
0.0259325
0.0259232
0.0259153
0.0259092
0.0259054
0.0259027
0.0258996
0.0258948
0.0258877
0.0258781
0.0258662
0.0258528
0.025839
0.0258258
0.0258129
0.0257999
0.0257868
0.0257726
0.0257563
0.0257382
0.0257184
0.0256967
0.0256738
0.0256502
0.0256256
0.0256005
0.0255754
0.0255497
0.0255232
0.0254956
0.0254664
0.0254354
0.025402
0.0253657
0.0253266
0.0252848
0.0252396
0.0251908
0.0251395
0.025087
0.025032
0.0249733
0.0249152
0.0248585
0.0247987
0.0247367
0.0246775
0.0246194
0.0245668
0.0244986
0.024433
0.024373
0.0243175
0.0242566
0.0241919
0.0241337
0.0240796
0.0240176
0.0239551
0.0238992
0.0238468
0.0237904
0.0237302
0.0236763
0.0236261
0.0235743
0.0235192
0.0234681
0.0261176
0.0261347
0.0261479
0.0261566
0.0261614
0.0261634
0.0261644
0.026165
0.0261657
0.0261669
0.026169
0.0261726
0.0261756
0.0261754
0.0261735
0.02617
0.0261653
0.0261605
0.0261564
0.0261547
0.0261542
0.0261535
0.0261516
0.0261478
0.0261426
0.0261363
0.0261298
0.0261236
0.0261187
0.0261153
0.0261126
0.0261097
0.0261057
0.0261005
0.0260942
0.0260872
0.0260801
0.0260738
0.0260683
0.0260633
0.0260581
0.0260522
0.0260454
0.026038
0.0260306
0.0260241
0.026019
0.026015
0.0260122
0.0260094
0.0260055
0.0260001
0.0259925
0.025983
0.0259721
0.025961
0.02595
0.0259382
0.0259266
0.0259155
0.0259028
0.0258885
0.0258734
0.0258565
0.0258377
0.0258186
0.0257983
0.0257767
0.0257554
0.0257337
0.0257111
0.025688
0.0256638
0.0256381
0.025611
0.0255813
0.025549
0.0255143
0.0254765
0.0254348
0.0253898
0.0253435
0.0252957
0.0252408
0.0251866
0.0251338
0.0250789
0.025017
0.0249591
0.0249024
0.0248513
0.0247849
0.0247195
0.0246595
0.0246029
0.0245431
0.024477
0.0244173
0.024362
0.0242975
0.024232
0.0241736
0.024119
0.0240591
0.0239949
0.0239384
0.0238857
0.0238302
0.0237694
0.0237147
0.0262915
0.0262925
0.0262943
0.0262977
0.0263009
0.0263008
0.026299
0.0262955
0.0262911
0.0262864
0.0262827
0.0262815
0.0262812
0.0262805
0.0262786
0.026275
0.0262701
0.0262646
0.0262589
0.0262541
0.0262507
0.0262487
0.0262471
0.026245
0.0262421
0.0262381
0.0262333
0.0262281
0.0262231
0.0262189
0.0262157
0.0262131
0.0262104
0.0262071
0.0262029
0.0261978
0.026192
0.026186
0.0261802
0.026175
0.02617
0.026165
0.0261596
0.0261536
0.0261472
0.0261408
0.0261351
0.0261303
0.0261265
0.0261234
0.0261202
0.0261166
0.026112
0.026106
0.0260976
0.0260889
0.0260806
0.0260698
0.0260592
0.0260493
0.026039
0.0260265
0.0260142
0.0260016
0.025986
0.0259699
0.0259539
0.0259353
0.0259167
0.0258984
0.0258785
0.0258591
0.0258389
0.0258172
0.0257953
0.0257714
0.0257449
0.0257169
0.0256865
0.0256527
0.0256148
0.0255751
0.0255361
0.0254879
0.0254387
0.0253908
0.0253444
0.0252853
0.0252302
0.0251771
0.0251285
0.025066
0.0250033
0.0249461
0.0248911
0.0248324
0.0247675
0.024709
0.0246544
0.0245894
0.0245238
0.0244648
0.0244098
0.0243479
0.0242829
0.0242257
0.0241719
0.0241137
0.0240501
0.0239937
0.0264226
0.0264173
0.0264129
0.0264108
0.0264099
0.0264087
0.0264064
0.0264025
0.0263975
0.026392
0.0263865
0.0263819
0.0263791
0.0263776
0.0263764
0.0263747
0.0263722
0.0263689
0.026365
0.0263608
0.0263571
0.0263544
0.0263526
0.0263512
0.0263495
0.0263473
0.0263444
0.0263408
0.0263367
0.0263326
0.0263289
0.0263258
0.0263231
0.0263204
0.0263173
0.0263135
0.026309
0.0263039
0.0262985
0.0262932
0.0262881
0.0262831
0.0262781
0.0262729
0.0262672
0.0262613
0.0262555
0.0262501
0.0262454
0.0262415
0.0262379
0.0262346
0.0262312
0.0262269
0.0262206
0.0262141
0.0262081
0.0261985
0.0261891
0.0261807
0.0261716
0.02616
0.0261495
0.02614
0.026126
0.0261126
0.0261003
0.0260838
0.0260675
0.0260524
0.0260348
0.0260175
0.0260004
0.0259818
0.0259633
0.0259442
0.0259224
0.0258994
0.0258761
0.0258497
0.0258181
0.0257854
0.0257546
0.0257141
0.0256713
0.0256295
0.0255905
0.0255376
0.0254871
0.0254391
0.0253942
0.0253357
0.0252779
0.0252254
0.0251746
0.0251162
0.0250546
0.0249992
0.0249468
0.0248827
0.0248195
0.0247621
0.0247085
0.0246451
0.0245822
0.0245257
0.0244727
0.0244127
0.0243491
0.0242926
0.0265359
0.0265305
0.0265243
0.0265182
0.026513
0.0265095
0.0265076
0.0265062
0.0265044
0.026502
0.0264988
0.0264951
0.0264913
0.0264881
0.0264861
0.0264849
0.0264841
0.0264831
0.0264815
0.0264794
0.0264767
0.0264737
0.026471
0.0264687
0.0264671
0.0264657
0.0264642
0.0264623
0.02646
0.026457
0.0264537
0.0264503
0.0264471
0.0264442
0.0264414
0.0264387
0.0264356
0.026432
0.0264279
0.0264232
0.0264183
0.0264132
0.0264082
0.0264032
0.0263982
0.0263929
0.0263873
0.0263817
0.0263761
0.0263708
0.0263662
0.0263619
0.0263579
0.0263547
0.0263509
0.0263459
0.0263411
0.0263365
0.0263283
0.0263202
0.0263132
0.026305
0.0262943
0.0262852
0.0262773
0.0262651
0.0262535
0.0262436
0.0262296
0.0262149
0.0262024
0.026187
0.0261712
0.0261569
0.0261404
0.0261243
0.0261091
0.0260902
0.0260713
0.0260536
0.0260325
0.0260066
0.0259806
0.0259571
0.0259232
0.0258876
0.0258529
0.0258204
0.0257737
0.0257297
0.0256879
0.0256472
0.0255927
0.0255417
0.0254943
0.0254484
0.0253905
0.0253342
0.0252825
0.025233
0.0251714
0.0251123
0.0250576
0.025006
0.0249429
0.0248839
0.0248295
0.0247783
0.0247168
0.0246556
0.0246003
0.0266384
0.0266356
0.0266322
0.0266283
0.0266243
0.0266208
0.0266185
0.0266172
0.0266163
0.0266154
0.0266141
0.0266122
0.0266099
0.0266075
0.0266054
0.026604
0.026603
0.0266024
0.0266017
0.0266007
0.0265993
0.0265975
0.0265954
0.0265934
0.0265917
0.0265903
0.026589
0.0265876
0.0265861
0.0265841
0.0265817
0.026579
0.0265761
0.0265732
0.0265705
0.0265678
0.026565
0.0265619
0.0265585
0.0265545
0.0265502
0.0265455
0.0265407
0.0265357
0.0265307
0.0265256
0.0265203
0.0265148
0.0265092
0.0265038
0.0264986
0.0264937
0.0264891
0.0264856
0.0264817
0.0264771
0.0264731
0.0264693
0.0264627
0.0264557
0.02645
0.0264429
0.0264332
0.0264251
0.0264183
0.0264079
0.0263974
0.0263891
0.0263778
0.0263644
0.0263538
0.026341
0.0263263
0.0263142
0.0262997
0.0262851
0.0262726
0.0262563
0.0262407
0.0262273
0.0262088
0.0261882
0.026168
0.0261503
0.0261212
0.0260931
0.0260655
0.0260383
0.0259972
0.025961
0.0259256
0.0258887
0.025839
0.0257953
0.0257529
0.0257109
0.0256561
0.0256056
0.0255579
0.0255111
0.0254528
0.0253985
0.0253471
0.0252972
0.0252372
0.0251825
0.0251304
0.0250805
0.0250195
0.0249621
0.0249085
0.0248566
0.0248011
0.0267515
0.0267501
0.0267486
0.0267467
0.0267444
0.026742
0.0267399
0.0267385
0.0267376
0.0267371
0.0267367
0.0267361
0.0267351
0.0267338
0.0267325
0.0267312
0.0267304
0.0267298
0.0267294
0.026729
0.0267285
0.0267276
0.0267265
0.0267252
0.0267238
0.0267225
0.0267214
0.0267204
0.0267192
0.0267179
0.0267162
0.0267143
0.026712
0.0267095
0.026707
0.0267045
0.0267019
0.0266992
0.0266962
0.0266928
0.0266891
0.026685
0.0266805
0.0266758
0.026671
0.0266661
0.026661
0.0266557
0.0266503
0.0266449
0.0266396
0.0266343
0.0266294
0.0266253
0.0266212
0.0266166
0.026613
0.0266095
0.0266042
0.0265982
0.0265936
0.0265877
0.0265793
0.0265721
0.0265662
0.0265575
0.0265479
0.0265409
0.0265319
0.0265201
0.026511
0.0265006
0.0264873
0.0264768
0.0264645
0.0264509
0.0264403
0.0264265
0.0264128
0.0264019
0.026386
0.0263696
0.0263543
0.0263398
0.0263148
0.0262934
0.0262728
0.026248
0.0262136
0.0261847
0.0261562
0.0261205
0.0260774
0.0260406
0.0260041
0.0259634
0.0259134
0.0258691
0.0258259
0.0257807
0.0257265
0.025677
0.0256296
0.0255806
0.0255248
0.0254738
0.0254245
0.0253743
0.0253175
0.0252637
0.0252114
0.0251598
0.0251053
0.0268775
0.0268754
0.0268739
0.026873
0.0268724
0.0268717
0.0268708
0.0268696
0.0268685
0.0268674
0.0268668
0.0268665
0.0268664
0.0268664
0.0268663
0.0268661
0.0268656
0.026865
0.0268646
0.0268642
0.0268641
0.0268641
0.0268641
0.0268639
0.0268636
0.026863
0.0268623
0.0268615
0.0268607
0.02686
0.0268592
0.0268584
0.0268573
0.026856
0.0268544
0.0268526
0.0268506
0.0268484
0.0268461
0.0268437
0.0268411
0.0268383
0.0268351
0.0268316
0.0268277
0.0268235
0.0268191
0.0268145
0.0268097
0.0268048
0.0267997
0.0267945
0.0267893
0.0267841
0.0267791
0.0267747
0.0267703
0.0267659
0.0267623
0.026759
0.0267545
0.0267495
0.0267459
0.0267411
0.0267342
0.026728
0.0267232
0.026716
0.0267074
0.0267016
0.0266943
0.0266841
0.0266766
0.0266682
0.0266565
0.0266475
0.0266375
0.0266249
0.0266154
0.0266041
0.0265912
0.0265817
0.026569
0.026555
0.0265432
0.02653
0.0265099
0.0264931
0.0264783
0.0264543
0.0264273
0.0264039
0.0263812
0.0263468
0.0263113
0.02628
0.026249
0.0262085
0.0261647
0.0261257
0.0260873
0.0260424
0.025993
0.0259481
0.0259047
0.0258562
0.0258045
0.0257567
0.0257104
0.0256598
0.0256073
0.025557
0.0255064
0.0254547
0.0254026
0.027006
0.0270047
0.0270037
0.0270031
0.0270029
0.0270028
0.0270028
0.0270027
0.0270025
0.0270022
0.0270021
0.0270021
0.0270024
0.0270028
0.0270033
0.0270037
0.0270041
0.0270043
0.0270044
0.0270046
0.0270049
0.0270052
0.0270056
0.027006
0.0270064
0.0270065
0.0270065
0.0270064
0.0270061
0.0270059
0.0270056
0.0270052
0.0270047
0.027004
0.0270031
0.027002
0.0270006
0.0269989
0.0269972
0.0269952
0.0269931
0.0269908
0.0269883
0.0269854
0.0269822
0.0269786
0.0269748
0.0269707
0.0269664
0.026962
0.0269573
0.0269526
0.0269478
0.0269429
0.0269382
0.0269338
0.0269294
0.0269252
0.0269218
0.0269186
0.0269147
0.0269107
0.0269078
0.0269041
0.0268986
0.0268937
0.02689
0.0268841
0.0268769
0.0268723
0.0268665
0.0268579
0.0268518
0.0268451
0.0268351
0.0268276
0.0268195
0.0268082
0.0267997
0.0267906
0.0267784
0.0267695
0.0267595
0.0267465
0.0267364
0.0267254
0.026709
0.026695
0.0266834
0.0266617
0.0266406
0.0266212
0.0266023
0.0265704
0.0265417
0.0265148
0.0264876
0.0264484
0.0264109
0.0263762
0.0263417
0.0262975
0.0262529
0.0262119
0.0261718
0.0261239
0.026076
0.026031
0.0259871
0.0259371
0.0258876
0.0258402
0.025792
0.0257408
0.0256906
0.0256413
0.0271458
0.0271439
0.0271424
0.0271414
0.0271408
0.0271403
0.02714
0.0271396
0.0271392
0.0271389
0.0271389
0.0271391
0.0271395
0.0271401
0.0271407
0.0271413
0.0271418
0.0271423
0.0271429
0.0271436
0.0271445
0.0271454
0.0271464
0.0271474
0.0271483
0.0271492
0.02715
0.0271508
0.0271517
0.0271526
0.0271535
0.0271544
0.0271552
0.0271559
0.0271565
0.027157
0.0271573
0.0271576
0.0271578
0.0271579
0.0271579
0.0271577
0.0271572
0.0271566
0.0271557
0.0271545
0.0271533
0.0271518
0.0271501
0.0271482
0.027146
0.0271436
0.0271408
0.0271378
0.0271344
0.0271309
0.0271271
0.0271231
0.027119
0.0271148
0.0271106
0.0271063
0.0271023
0.0270983
0.0270945
0.0270913
0.0270883
0.027085
0.0270819
0.0270797
0.0270768
0.0270727
0.0270693
0.0270665
0.027062
0.0270563
0.027053
0.0270483
0.0270412
0.0270366
0.0270313
0.0270229
0.0270167
0.0270103
0.0270004
0.0269928
0.0269854
0.0269742
0.0269655
0.0269574
0.0269453
0.0269353
0.0269263
0.0269124
0.0268996
0.0268896
0.0268714
0.0268537
0.0268377
0.0268204
0.0267919
0.0267686
0.0267458
0.0267202
0.0266831
0.0266515
0.0266207
0.0265886
0.0265455
0.0265055
0.0264678
0.0264301
0.0263832
0.0263384
0.0262959
0.0262541
0.0262048
0.0261575
0.0261122
0.0260665
0.0260159
0.0259672
0.0259199
0.0272783
0.0272775
0.0272768
0.0272764
0.0272764
0.0272766
0.027277
0.0272774
0.0272779
0.0272784
0.0272791
0.0272798
0.0272808
0.0272818
0.027283
0.0272842
0.0272854
0.0272867
0.0272879
0.0272892
0.0272906
0.027292
0.0272935
0.0272951
0.0272967
0.0272982
0.0272997
0.0273012
0.0273027
0.0273042
0.0273057
0.0273072
0.0273087
0.0273101
0.0273114
0.0273126
0.0273137
0.0273147
0.0273156
0.0273164
0.0273171
0.0273176
0.027318
0.0273181
0.027318
0.0273177
0.0273172
0.0273165
0.0273156
0.0273145
0.0273132
0.0273116
0.0273097
0.0273076
0.0273052
0.0273025
0.0272996
0.0272965
0.0272933
0.0272899
0.0272864
0.0272829
0.0272795
0.0272761
0.0272729
0.0272701
0.0272675
0.0272649
0.0272627
0.0272609
0.0272589
0.027256
0.0272539
0.027252
0.0272487
0.0272446
0.0272424
0.0272387
0.0272331
0.0272298
0.0272255
0.0272185
0.0272136
0.0272084
0.0271998
0.0271929
0.0271867
0.0271768
0.0271679
0.0271609
0.02715
0.0271393
0.0271314
0.0271192
0.0271063
0.0270967
0.0270819
0.0270654
0.0270514
0.0270354
0.0270108
0.0269904
0.0269711
0.0269457
0.0269122
0.0268847
0.0268575
0.0268265
0.026785
0.0267487
0.0267141
0.0266782
0.0266325
0.0265901
0.0265499
0.0265098
0.0264614
0.0264155
0.0263718
0.0263282
0.0262782
0.0262305
0.0261845
0.0274148
0.0274149
0.0274151
0.0274155
0.0274161
0.0274169
0.0274179
0.027419
0.0274202
0.0274214
0.0274228
0.0274241
0.0274256
0.0274272
0.027429
0.0274307
0.0274326
0.0274344
0.0274363
0.0274383
0.0274402
0.0274423
0.0274444
0.0274465
0.0274487
0.0274509
0.0274531
0.0274553
0.0274575
0.0274597
0.0274619
0.0274641
0.0274663
0.0274684
0.0274705
0.0274725
0.0274744
0.0274763
0.027478
0.0274796
0.0274811
0.0274824
0.0274837
0.0274847
0.0274855
0.0274862
0.0274866
0.0274868
0.0274868
0.0274867
0.0274863
0.0274857
0.0274848
0.0274837
0.0274823
0.0274807
0.0274788
0.0274768
0.0274745
0.0274721
0.0274696
0.027467
0.0274644
0.0274618
0.0274594
0.0274572
0.0274551
0.0274532
0.0274516
0.0274504
0.027449
0.0274472
0.0274461
0.0274449
0.0274426
0.0274401
0.0274386
0.0274358
0.0274316
0.0274291
0.0274256
0.0274198
0.0274158
0.0274114
0.0274038
0.0273975
0.027392
0.027383
0.0273738
0.0273673
0.0273573
0.0273457
0.0273377
0.0273269
0.0273132
0.0273028
0.0272906
0.0272741
0.02726
0.0272459
0.0272242
0.0272047
0.0271873
0.0271633
0.0271328
0.027108
0.0270834
0.0270535
0.0270137
0.02698
0.0269477
0.0269139
0.0268695
0.0268286
0.0267902
0.0267522
0.0267048
0.0266596
0.0266166
0.0265748
0.0265256
0.0264788
0.0264339
0.0275545
0.0275554
0.0275564
0.0275576
0.0275589
0.0275603
0.0275619
0.0275636
0.0275654
0.0275673
0.0275693
0.0275713
0.0275734
0.0275755
0.0275778
0.0275802
0.0275826
0.0275851
0.0275876
0.0275902
0.0275928
0.0275955
0.0275982
0.027601
0.0276039
0.0276068
0.0276097
0.0276127
0.0276156
0.0276185
0.0276215
0.0276245
0.0276274
0.0276304
0.0276333
0.0276362
0.027639
0.0276417
0.0276443
0.0276468
0.0276492
0.0276516
0.0276537
0.0276557
0.0276576
0.0276592
0.0276607
0.027662
0.027663
0.0276639
0.0276646
0.027665
0.0276653
0.0276652
0.027665
0.0276645
0.0276638
0.0276628
0.0276617
0.0276604
0.0276589
0.0276573
0.0276557
0.027654
0.0276523
0.0276508
0.0276493
0.0276481
0.027647
0.0276462
0.0276453
0.0276444
0.0276438
0.0276431
0.0276416
0.0276402
0.0276391
0.0276368
0.0276337
0.0276318
0.0276286
0.0276235
0.0276201
0.0276159
0.0276089
0.0276028
0.0275975
0.0275889
0.0275794
0.0275726
0.027563
0.0275506
0.0275416
0.0275313
0.0275168
0.0275049
0.0274937
0.0274771
0.0274616
0.0274484
0.0274287
0.0274087
0.0273914
0.02737
0.0273415
0.0273177
0.0272943
0.0272669
0.0272288
0.0271961
0.0271652
0.027134
0.0270914
0.0270509
0.0270137
0.0269781
0.0269325
0.0268868
0.0268441
0.0268034
0.0267563
0.0267103
0.0266663
0.0266226
0.0265782
0.0276969
0.0276984
0.0277002
0.027702
0.0277039
0.027706
0.0277082
0.0277105
0.0277129
0.0277154
0.0277179
0.0277206
0.0277233
0.0277261
0.0277289
0.0277319
0.0277349
0.027738
0.0277412
0.0277444
0.0277477
0.0277511
0.0277545
0.027758
0.0277616
0.0277652
0.0277689
0.0277726
0.0277764
0.0277801
0.0277839
0.0277877
0.0277916
0.0277954
0.0277992
0.027803
0.0278067
0.0278104
0.027814
0.0278175
0.0278209
0.0278243
0.0278275
0.0278305
0.0278334
0.0278362
0.0278388
0.0278412
0.0278434
0.0278453
0.0278471
0.0278487
0.0278501
0.0278513
0.0278522
0.0278529
0.0278533
0.0278535
0.0278534
0.0278532
0.0278528
0.0278522
0.0278515
0.0278507
0.0278498
0.0278489
0.027848
0.0278473
0.0278466
0.0278461
0.0278455
0.0278449
0.0278446
0.027844
0.0278429
0.0278419
0.0278409
0.0278388
0.0278363
0.0278342
0.027831
0.0278263
0.0278227
0.0278182
0.0278112
0.0278049
0.0277992
0.0277904
0.0277802
0.0277728
0.0277627
0.0277494
0.027739
0.0277282
0.027713
0.0276989
0.0276872
0.0276706
0.0276531
0.0276389
0.0276206
0.0275994
0.0275809
0.0275618
0.0275345
0.0275107
0.0274874
0.0274629
0.0274264
0.0273935
0.0273637
0.0273347
0.0272947
0.0272538
0.027218
0.0271834
0.0271416
0.0270949
0.0270519
0.027011
0.0269678
0.026923
0.0268796
0.0268368
0.0267937
0.0278411
0.0278433
0.0278456
0.0278481
0.0278507
0.0278534
0.0278561
0.027859
0.027862
0.027865
0.0278682
0.0278714
0.0278748
0.0278782
0.0278816
0.0278852
0.0278889
0.0278926
0.0278965
0.0279004
0.0279044
0.0279085
0.0279127
0.0279169
0.0279212
0.0279256
0.0279301
0.0279347
0.0279392
0.0279439
0.0279486
0.0279533
0.027958
0.0279628
0.0279675
0.0279723
0.027977
0.0279817
0.0279863
0.0279909
0.0279954
0.0279998
0.0280041
0.0280083
0.0280123
0.0280162
0.0280199
0.0280234
0.0280268
0.02803
0.0280329
0.0280356
0.0280382
0.0280405
0.0280425
0.0280443
0.0280459
0.0280472
0.0280482
0.0280489
0.0280495
0.0280498
0.0280499
0.0280498
0.0280495
0.0280491
0.0280487
0.0280482
0.0280477
0.0280472
0.0280466
0.028046
0.0280454
0.0280445
0.0280434
0.0280421
0.0280406
0.0280382
0.0280356
0.0280328
0.028029
0.028024
0.0280197
0.0280143
0.0280068
0.0279997
0.0279928
0.0279832
0.027972
0.0279632
0.0279522
0.0279377
0.0279253
0.0279133
0.0278971
0.0278807
0.0278673
0.02785
0.0278305
0.0278142
0.0277963
0.0277736
0.0277534
0.0277348
0.0277084
0.0276838
0.0276604
0.0276378
0.027603
0.0275694
0.0275403
0.0275119
0.0274767
0.0274349
0.0273995
0.0273649
0.0273287
0.0272819
0.0272381
0.0271974
0.0271567
0.0271142
0.0270716
0.0270297
0.0269878
0.0279838
0.0279865
0.0279893
0.0279923
0.0279953
0.0279985
0.0280018
0.0280051
0.0280086
0.0280121
0.0280158
0.0280195
0.0280234
0.0280273
0.0280313
0.0280354
0.0280396
0.028044
0.0280484
0.0280529
0.0280576
0.0280623
0.0280671
0.0280721
0.0280771
0.0280822
0.0280874
0.0280928
0.0280982
0.0281036
0.0281092
0.0281148
0.0281204
0.0281261
0.0281319
0.0281376
0.0281434
0.0281491
0.0281549
0.0281606
0.0281662
0.0281718
0.0281773
0.0281827
0.028188
0.0281932
0.0281982
0.028203
0.0282077
0.0282122
0.0282165
0.0282206
0.0282244
0.028228
0.0282314
0.0282345
0.0282373
0.0282398
0.028242
0.0282439
0.0282455
0.0282468
0.0282478
0.0282485
0.0282489
0.028249
0.0282488
0.0282485
0.028248
0.0282473
0.0282464
0.0282454
0.0282443
0.028243
0.0282414
0.0282395
0.0282374
0.0282348
0.0282315
0.0282279
0.028224
0.0282189
0.028213
0.0282072
0.0282003
0.0281915
0.028183
0.0281745
0.0281633
0.0281507
0.02814
0.0281272
0.0281111
0.0280965
0.0280827
0.0280649
0.028046
0.0280303
0.0280118
0.0279901
0.0279711
0.0279525
0.0279284
0.0279062
0.0278865
0.0278606
0.0278347
0.0278109
0.0277889
0.0277557
0.0277217
0.0276929
0.0276642
0.0276335
0.0275919
0.0275566
0.0275225
0.0274896
0.0274449
0.0274008
0.027361
0.0273218
0.0272815
0.0272405
0.0271997
0.0271591
0.0281293
0.0281326
0.028136
0.0281395
0.0281431
0.0281469
0.0281507
0.0281546
0.0281586
0.0281628
0.028167
0.0281713
0.0281758
0.0281803
0.028185
0.0281898
0.0281946
0.0281996
0.0282048
0.02821
0.0282154
0.0282208
0.0282265
0.0282322
0.028238
0.028244
0.02825
0.0282562
0.0282625
0.0282689
0.0282754
0.0282819
0.0282885
0.0282952
0.0283019
0.0283087
0.0283155
0.0283223
0.0283291
0.0283358
0.0283425
0.0283492
0.0283558
0.0283623
0.0283687
0.0283749
0.028381
0.028387
0.0283927
0.0283982
0.0284036
0.0284086
0.0284135
0.028418
0.0284223
0.0284262
0.0284298
0.0284331
0.028436
0.0284386
0.0284407
0.0284425
0.0284438
0.0284448
0.0284453
0.0284454
0.0284452
0.0284446
0.0284436
0.0284423
0.0284407
0.0284388
0.0284366
0.0284341
0.0284312
0.0284279
0.0284242
0.02842
0.0284152
0.0284099
0.028404
0.0283971
0.0283894
0.0283816
0.0283725
0.0283619
0.0283513
0.0283404
0.0283271
0.0283124
0.0282993
0.0282843
0.0282661
0.0282489
0.0282328
0.0282129
0.0281914
0.0281731
0.0281528
0.0281287
0.028107
0.0280868
0.0280612
0.0280367
0.0280151
0.0279893
0.0279618
0.0279372
0.0279147
0.0278828
0.027849
0.0278203
0.0277914
0.0277634
0.0277231
0.027688
0.027655
0.0276234
0.027582
0.0275391
0.0275005
0.0274628
0.0274244
0.0273853
0.0273461
0.027307
0.0272681
0.0272293
0.0282749
0.0282788
0.0282827
0.0282868
0.0282909
0.0282952
0.0282996
0.0283041
0.0283087
0.0283134
0.0283182
0.0283231
0.0283282
0.0283334
0.0283387
0.0283441
0.0283497
0.0283554
0.0283612
0.0283672
0.0283733
0.0283795
0.0283859
0.0283924
0.0283991
0.0284059
0.0284128
0.0284199
0.0284271
0.0284344
0.0284418
0.0284493
0.0284568
0.0284645
0.0284722
0.0284799
0.0284877
0.0284955
0.0285033
0.0285111
0.0285189
0.0285266
0.0285342
0.0285417
0.0285491
0.0285563
0.0285634
0.0285703
0.028577
0.0285834
0.0285896
0.0285955
0.0286011
0.0286064
0.0286113
0.0286158
0.02862
0.0286238
0.0286271
0.0286299
0.0286322
0.0286341
0.0286354
0.0286362
0.0286364
0.0286361
0.0286353
0.0286339
0.0286321
0.0286297
0.0286268
0.0286235
0.0286196
0.0286153
0.0286105
0.0286052
0.0285994
0.0285929
0.0285858
0.0285781
0.0285697
0.0285603
0.0285501
0.0285395
0.0285278
0.0285146
0.0285013
0.0284874
0.0284715
0.0284543
0.0284383
0.0284205
0.0283998
0.0283798
0.0283609
0.0283386
0.0283144
0.0282932
0.0282707
0.0282442
0.0282197
0.0281974
0.0281703
0.0281433
0.0281194
0.0280934
0.0280642
0.0280385
0.028015
0.0279841
0.0279507
0.0279222
0.0278934
0.0278666
0.027828
0.0277939
0.0277621
0.027731
0.0276928
0.0276525
0.0276156
0.0275796
0.0275432
0.0275062
0.027469
0.0274318
0.0273947
0.0273578
0.0284202
0.0284246
0.028429
0.0284336
0.0284383
0.0284432
0.0284481
0.0284531
0.0284583
0.0284636
0.028469
0.0284745
0.0284802
0.028486
0.0284919
0.028498
0.0285042
0.0285106
0.0285172
0.0285239
0.0285307
0.0285377
0.0285449
0.0285522
0.0285597
0.0285674
0.0285751
0.0285831
0.0285911
0.0285993
0.0286076
0.028616
0.0286245
0.0286331
0.0286418
0.0286505
0.0286592
0.028668
0.0286767
0.0286854
0.0286941
0.0287027
0.0287112
0.0287196
0.0287279
0.028736
0.0287438
0.0287515
0.0287589
0.028766
0.0287729
0.0287793
0.0287854
0.0287912
0.0287964
0.0288013
0.0288056
0.0288095
0.0288127
0.0288155
0.0288176
0.028819
0.0288199
0.0288199
0.0288194
0.0288183
0.0288163
0.0288137