/*--------------------------------*- C++ -*----------------------------------*\
| =========                 |                                                 |
| \\      /  F ield         | OpenFOAM: The Open Source CFD Toolbox           |
|  \\    /   O peration     | Version:  v1706                                 |
|   \\  /    A nd           | Web:      www.OpenFOAM.com                      |
|    \\/     M anipulation  |                                                 |
\*---------------------------------------------------------------------------*/
FoamFile
{
    version     2.0;
    format      ascii;
    class       volScalarField;
    location    "4e-05";
    object      rho;
}
// * * * * * * * * * * * * * * * * * * * * * * * * * * * * * * * * * * * * * //

dimensions      [1 -3 0 0 0 0 0];


internalField   nonuniform List<scalar> 
29871
(
0.000511884
0.000511965
0.000512054
0.000512152
0.000512262
0.000512389
0.000512541
0.000512721
0.000512936
0.000513193
0.000513498
0.00051385
0.000514246
0.000514678
0.000515134
0.000515604
0.000516091
0.000516599
0.000517153
0.00051781
0.000518637
0.000519693
0.000521013
0.000522608
0.000524466
0.000526554
0.000528833
0.000531336
0.000533987
0.000536658
0.000539224
0.000541615
0.000543887
0.000546214
0.000548769
0.000551653
0.00055489
0.000558452
0.000562305
0.000566336
0.00057083
0.000577944
0.000588019
0.000600694
0.000615356
0.000631386
0.000648248
0.000665509
0.000682817
0.000699869
0.000716415
0.000732254
0.000747217
0.000761156
0.000773936
0.000785441
0.000795582
0.000804315
0.000811656
0.000817661
0.00082242
0.000826094
0.000828796
0.000830707
0.00083201
0.000832772
0.000833139
0.000833061
0.000832542
0.000832173
0.000831613
0.000830766
0.000829621
0.000828187
0.000826468
0.00082454
0.000822399
0.000819926
0.000817223
0.000814392
0.000811345
0.00080803
0.000804593
0.000801098
0.000797454
0.000793656
0.000789766
0.000785769
0.000781644
0.000777412
0.000773096
0.000768702
0.000764236
0.000759704
0.00075511
0.000750451
0.000745729
0.000740951
0.000736121
0.000731245
0.000726327
0.000721371
0.000716382
0.000711362
0.00070631
0.000514344
0.000514814
0.000515361
0.000515989
0.000516698
0.000517489
0.000518362
0.000519324
0.00052039
0.000521585
0.000522963
0.000524596
0.000526555
0.000528896
0.000531648
0.000534823
0.0005384
0.000542426
0.00054691
0.000551795
0.00055702
0.000562588
0.000568596
0.000575228
0.000582684
0.000591136
0.000600755
0.000611456
0.000625602
0.000644671
0.000668956
0.000698193
0.000731819
0.000769149
0.000809527
0.000852374
0.000897175
0.000943439
0.000990725
0.00103869
0.0010867
0.00113176
0.0011735
0.00121227
0.00124846
0.00128226
0.00131371
0.00134291
0.00137015
0.00139595
0.00142079
0.00144494
0.00146845
0.00149126
0.0015132
0.00153402
0.00155349
0.00157136
0.00158739
0.00160138
0.00161321
0.00162288
0.00163048
0.00163609
0.00163999
0.00164272
0.00164383
0.00164345
0.00164285
0.00164203
0.00164071
0.00163882
0.00163659
0.00163408
0.00163119
0.00162798
0.00162452
0.00162046
0.00161596
0.00161102
0.00160551
0.00159959
0.00159377
0.00158761
0.00158096
0.00157426
0.00156745
0.00156015
0.0015526
0.00154503
0.0015373
0.00152936
0.00152129
0.00151317
0.001505
0.00149677
0.00148847
0.0014801
0.00147168
0.00146321
0.00145469
0.00144612
0.00143752
0.00142887
0.00142019
0.00052069
0.000522003
0.000523491
0.000525217
0.000527255
0.000529679
0.000532546
0.000535896
0.000539737
0.000544124
0.000549111
0.000554677
0.000560776
0.000567404
0.000574652
0.0005827
0.000591748
0.000602086
0.000613703
0.000628026
0.000647236
0.000672186
0.000703
0.000739391
0.000780901
0.000826991
0.00087712
0.000930736
0.000987405
0.00104422
0.0010994
0.00115243
0.00120322
0.00125173
0.00129782
0.00134134
0.0013821
0.00141983
0.00145424
0.00148511
0.00151271
0.00153773
0.00156051
0.00158139
0.00160071
0.00161871
0.0016355
0.00165092
0.00166443
0.00167548
0.00168466
0.00169265
0.00169995
0.00170686
0.00171363
0.00172045
0.00172746
0.00173473
0.00174225
0.00174994
0.00175767
0.00176525
0.00177247
0.00177919
0.00178522
0.00179046
0.00179498
0.00179859
0.00180136
0.00180328
0.00180462
0.0018057
0.00180594
0.00180578
0.00180545
0.00180511
0.00180409
0.00180291
0.00180273
0.00180094
0.00179854
0.00179777
0.00179756
0.00179528
0.00179206
0.00179053
0.00178883
0.00178583
0.00178273
0.00178022
0.00177746
0.00177421
0.00177083
0.00176745
0.00176396
0.00176024
0.00175632
0.00175226
0.00174808
0.00174378
0.00173934
0.00173476
0.00173001
0.00172507
0.00171991
0.00171449
0.000542444
0.000547356
0.000552952
0.000559209
0.000566098
0.000573641
0.000581958
0.000591225
0.000601744
0.000613627
0.000627806
0.000646612
0.000671184
0.000701945
0.000738825
0.000781473
0.000829401
0.000882055
0.000938938
0.000998156
0.00105706
0.00111448
0.00116981
0.00122265
0.00127264
0.00131955
0.00136319
0.00140351
0.00144059
0.00147403
0.0015035
0.00152888
0.00155036
0.00156871
0.00158493
0.00159989
0.00161418
0.00162793
0.00164094
0.00165246
0.00166161
0.00166879
0.00167461
0.00167948
0.00168376
0.00168786
0.00169229
0.00169766
0.00170422
0.00171157
0.00171876
0.00172528
0.00173111
0.00173642
0.00174144
0.00174636
0.00175135
0.00175654
0.00176203
0.00176788
0.00177408
0.00178058
0.00178723
0.00179387
0.00180028
0.00180626
0.00181163
0.00181626
0.00182006
0.00182292
0.00182502
0.00182657
0.0018271
0.00182697
0.00182653
0.00182603
0.00182467
0.00182309
0.00182258
0.00182021
0.00181724
0.001816
0.00181536
0.00181253
0.00180868
0.00180651
0.0018042
0.00180055
0.0017967
0.00179344
0.00178993
0.0017859
0.00178172
0.0017776
0.00177336
0.00176891
0.00176431
0.00175965
0.00175497
0.00175027
0.00174556
0.00174087
0.0017362
0.00173159
0.00172702
0.0017225
0.000596176
0.000607583
0.000620394
0.000636448
0.000657618
0.000684813
0.00071836
0.000758191
0.00080396
0.000855171
0.000911282
0.000970899
0.00103123
0.00109079
0.00114867
0.00120428
0.00125712
0.00130681
0.00135309
0.00139593
0.00143509
0.00147017
0.00150098
0.00152759
0.00155015
0.001569
0.00158478
0.00159827
0.00161028
0.00162114
0.00163101
0.00163993
0.00164765
0.0016537
0.0016579
0.00166074
0.00166277
0.00166445
0.00166641
0.00166931
0.00167361
0.00167909
0.00168469
0.00168954
0.00169335
0.00169617
0.00169825
0.00169996
0.00170167
0.00170409
0.00170801
0.00171281
0.00171766
0.0017221
0.00172604
0.00172955
0.00173284
0.00173609
0.00173948
0.00174315
0.0017472
0.00175166
0.00175652
0.00176169
0.00176707
0.00177251
0.00177781
0.00178283
0.0017874
0.00179141
0.00179475
0.00179741
0.00179949
0.00180089
0.00180163
0.00180176
0.00180174
0.0018013
0.00180028
0.00179962
0.00179819
0.00179619
0.0017956
0.00179568
0.00179263
0.00178939
0.00178798
0.00178687
0.00178368
0.00178025
0.00177807
0.00177548
0.00177185
0.00176842
0.00176537
0.00176206
0.00175836
0.0017544
0.00175047
0.00174662
0.00174272
0.0017387
0.00173464
0.00173057
0.00172649
0.00172238
0.00171824
0.000809805
0.000862179
0.000919723
0.000980188
0.0010413
0.00110174
0.00116059
0.00121714
0.0012708
0.00132114
0.00136794
0.00141095
0.00144973
0.00148402
0.00151383
0.0015393
0.00156071
0.00157842
0.00159327
0.00160604
0.00161731
0.00162731
0.00163618
0.00164394
0.00165046
0.00165537
0.00165864
0.00166082
0.00166204
0.00166262
0.00166329
0.00166402
0.00166515
0.00166688
0.00166888
0.00167057
0.00167155
0.00167184
0.00167197
0.00167229
0.00167336
0.0016759
0.00167944
0.00168313
0.00168633
0.00168875
0.00169041
0.00169151
0.00169237
0.00169321
0.00169427
0.00169608
0.00169859
0.00170144
0.00170431
0.00170702
0.00170951
0.00171187
0.00171425
0.00171674
0.00171948
0.00172256
0.00172601
0.00172981
0.00173396
0.00173836
0.00174288
0.00174739
0.00175175
0.00175581
0.00175945
0.00176255
0.00176513
0.00176714
0.00176858
0.00176944
0.0017697
0.00176963
0.00176918
0.00176846
0.00176745
0.00176611
0.00176553
0.00176493
0.0017625
0.00176011
0.00175939
0.0017595
0.00175634
0.00175247
0.00175067
0.00174947
0.00174633
0.00174279
0.00174052
0.00173841
0.00173519
0.00173114
0.00172806
0.00172517
0.00172193
0.00171823
0.00171451
0.00171097
0.00170744
0.00170374
0.00169987
0.00109385
0.00115411
0.00121222
0.00126749
0.0013194
0.00136766
0.00141186
0.00145154
0.00148654
0.00151688
0.00154278
0.00156444
0.00158239
0.00159748
0.00161048
0.00162184
0.00163177
0.0016404
0.00164778
0.00165367
0.00165787
0.00166057
0.00166213
0.00166311
0.00166352
0.00166388
0.00166414
0.00166476
0.00166597
0.00166741
0.00166855
0.00166881
0.00166848
0.00166802
0.00166737
0.00166662
0.0016666
0.00166703
0.00166779
0.00166828
0.00166826
0.00166799
0.00166761
0.00166743
0.00166762
0.00166859
0.00167037
0.00167256
0.00167466
0.00167638
0.00167761
0.00167844
0.00167894
0.00167931
0.00167992
0.00168099
0.00168246
0.00168424
0.00168622
0.00168814
0.0016899
0.0016916
0.00169326
0.00169491
0.00169677
0.00169889
0.00170126
0.00170397
0.00170703
0.00171035
0.00171385
0.00171743
0.00172095
0.00172432
0.00172735
0.00172999
0.00173221
0.00173395
0.00173522
0.00173579
0.00173581
0.00173572
0.00173517
0.0017341
0.00173307
0.00173241
0.00173121
0.00172909
0.00172731
0.00172706
0.00172796
0.00172477
0.00172046
0.0017186
0.00171876
0.00171662
0.00171272
0.0017105
0.00170968
0.00170704
0.00170295
0.00170031
0.00169873
0.00169626
0.0016923
0.00168909
0.00168671
0.00168396
0.00168048
0.00167695
0.00147904
0.00151128
0.00153888
0.00156201
0.00158119
0.00159727
0.00161103
0.00162295
0.00163325
0.00164212
0.00164959
0.00165538
0.00165939
0.00166186
0.00166339
0.0016642
0.00166463
0.00166489
0.00166518
0.00166585
0.00166704
0.00166823
0.00166879
0.00166879
0.00166838
0.00166765
0.0016667
0.00166553
0.00166536
0.00166562
0.00166597
0.00166597
0.00166557
0.00166487
0.00166396
0.00166293
0.00166194
0.00166103
0.00166068
0.00166046
0.00166019
0.00165975
0.00165922
0.00165865
0.00165816
0.00165814
0.00165853
0.00165951
0.00166088
0.00166232
0.00166357
0.00166457
0.00166514
0.00166532
0.00166547
0.00166583
0.00166636
0.00166703
0.00166807
0.00166933
0.00167046
0.00167159
0.00167271
0.00167362
0.00167455
0.00167571
0.00167693
0.00167834
0.00168014
0.00168221
0.00168453
0.00168706
0.00168967
0.00169235
0.00169493
0.00169721
0.00169925
0.00170099
0.00170234
0.001703
0.00170306
0.00170312
0.00170281
0.00170145
0.00170019
0.00169974
0.00169855
0.00169606
0.00169416
0.00169398
0.00169524
0.00169198
0.00168755
0.0016855
0.001686
0.00168489
0.00168088
0.00167852
0.00167851
0.00167632
0.00167201
0.00166944
0.00166888
0.00166721
0.00166309
0.0016601
0.00165871
0.00165679
0.00165307
0.00164996
0.0016318
0.0016413
0.00164928
0.00165544
0.0016597
0.00166231
0.00166395
0.00166475
0.00166521
0.00166545
0.00166578
0.00166662
0.00166784
0.00166893
0.0016694
0.00166927
0.00166879
0.00166795
0.00166689
0.00166584
0.00166573
0.00166589
0.00166591
0.00166565
0.00166506
0.00166418
0.00166309
0.00166182
0.00166062
0.00165972
0.00165913
0.00165871
0.00165826
0.00165765
0.00165687
0.00165594
0.00165485
0.00165376
0.00165287
0.00165215
0.00165161
0.00165109
0.00165053
0.00164988
0.00164917
0.00164858
0.00164829
0.00164836
0.00164875
0.00164947
0.00165027
0.0016511
0.00165175
0.00165186
0.00165176
0.00165181
0.00165197
0.00165193
0.00165205
0.00165265
0.00165316
0.00165357
0.00165426
0.00165469
0.00165487
0.00165537
0.00165587
0.00165622
0.00165696
0.00165798
0.00165914
0.0016606
0.00166217
0.00166388
0.00166577
0.00166745
0.00166895
0.00167044
0.00167169
0.0016722
0.00167209
0.00167216
0.00167222
0.0016706
0.00166872
0.00166844
0.00166792
0.00166486
0.00166222
0.00166164
0.00166283
0.00165986
0.00165537
0.00165302
0.00165331
0.00165272
0.00164876
0.00164625
0.00164649
0.00164445
0.00163998
0.00163742
0.00163745
0.00163621
0.00163197
0.00162908
0.00162852
0.00162735
0.00162348
0.00162059
0.00166556
0.00166582
0.00166608
0.00166688
0.0016681
0.0016692
0.00166973
0.00166957
0.00166904
0.00166813
0.00166695
0.00166606
0.00166583
0.0016659
0.0016658
0.00166539
0.00166466
0.00166364
0.00166243
0.00166109
0.00165986
0.00165895
0.00165835
0.00165783
0.00165726
0.00165655
0.00165568
0.00165467
0.00165353
0.00165242
0.00165149
0.00165078
0.00165022
0.00164965
0.001649
0.00164821
0.00164727
0.00164622
0.00164515
0.00164416
0.00164329
0.00164251
0.00164177
0.00164099
0.00164017
0.00163931
0.00163857
0.00163801
0.00163772
0.00163776
0.00163787
0.00163812
0.00163858
0.0016387
0.00163832
0.00163813
0.00163831
0.00163779
0.00163719
0.00163728
0.00163735
0.00163695
0.00163701
0.00163725
0.00163679
0.00163666
0.00163681
0.00163641
0.00163635
0.0016366
0.0016367
0.00163717
0.00163784
0.00163849
0.00163956
0.0016406
0.00164132
0.00164226
0.00164332
0.00164358
0.00164317
0.00164298
0.00164349
0.0016419
0.00163941
0.00163876
0.00163908
0.00163586
0.00163232
0.00163112
0.00163203
0.00162934
0.00162469
0.00162205
0.00162213
0.00162139
0.00161725
0.0016146
0.00161483
0.00161261
0.00160805
0.00160555
0.00160582
0.0016044
0.00160015
0.00159749
0.00159746
0.00159649
0.00159254
0.00158982
0.00166944
0.0016685
0.00166722
0.00166619
0.00166572
0.00166562
0.00166537
0.00166479
0.00166391
0.00166277
0.00166143
0.00165994
0.00165863
0.00165766
0.001657
0.00165642
0.00165577
0.001655
0.0016541
0.00165305
0.00165192
0.00165086
0.00165001
0.00164934
0.00164877
0.00164818
0.00164751
0.00164673
0.00164581
0.00164481
0.00164381
0.00164291
0.00164212
0.00164142
0.00164072
0.00163996
0.0016391
0.00163811
0.00163704
0.00163593
0.00163484
0.00163381
0.00163284
0.00163187
0.00163088
0.00162986
0.00162886
0.00162789
0.00162708
0.00162655
0.00162603
0.00162568
0.00162574
0.00162564
0.00162492
0.00162458
0.00162474
0.0016239
0.00162273
0.00162257
0.00162233
0.00162106
0.00162057
0.00162075
0.00161966
0.0016188
0.00161893
0.00161794
0.00161702
0.00161693
0.00161623
0.00161583
0.00161576
0.00161542
0.00161561
0.00161609
0.00161598
0.00161608
0.00161682
0.00161698
0.0016161
0.00161558
0.00161632
0.00161483
0.001612
0.00161101
0.0016116
0.00160852
0.00160444
0.00160284
0.00160339
0.00160045
0.00159567
0.001593
0.00159312
0.00159151
0.00158694
0.00158427
0.00158436
0.00158165
0.00157705
0.0015747
0.00157505
0.0015729
0.00156867
0.00156632
0.0015666
0.00156531
0.00156137
0.00155883
0.00166432
0.00166329
0.001662
0.00166051
0.00165885
0.0016573
0.00165611
0.00165525
0.00165451
0.00165374
0.00165287
0.00165189
0.00165076
0.00164957
0.00164849
0.00164763
0.00164695
0.00164635
0.00164575
0.00164508
0.00164432
0.00164344
0.00164252
0.00164164
0.00164085
0.00164017
0.00163954
0.00163891
0.00163822
0.00163745
0.00163658
0.00163565
0.0016347
0.00163378
0.00163292
0.0016321
0.00163127
0.00163039
0.00162942
0.00162835
0.00162719
0.00162599
0.00162479
0.00162359
0.00162241
0.00162123
0.00162002
0.0016188
0.00161756
0.0016164
0.00161542
0.00161441
0.00161349
0.0016131
0.00161253
0.00161149
0.00161102
0.00161096
0.00160982
0.00160834
0.00160797
0.00160738
0.00160558
0.00160462
0.00160449
0.001603
0.0016015
0.0016014
0.00160019
0.00159842
0.00159805
0.00159689
0.00159558
0.00159504
0.00159383
0.00159324
0.00159323
0.00159223
0.00159156
0.00159202
0.00159184
0.00159033
0.00158966
0.00159044
0.00158875
0.00158584
0.00158489
0.0015854
0.00158212
0.001578
0.0015765
0.00157663
0.00157298
0.00156826
0.00156595
0.00156601
0.00156306
0.00155827
0.00155575
0.00155546
0.00155211
0.0015476
0.00154547
0.00154551
0.00154242
0.0015383
0.00153635
0.00153677
0.00153469
0.0015308
0.00152853
0.00165267
0.00165169
0.00165067
0.00164956
0.00164831
0.00164699
0.00164577
0.00164475
0.00164394
0.00164323
0.00164254
0.00164181
0.001641
0.00164011
0.00163919
0.00163833
0.00163757
0.00163692
0.00163633
0.00163575
0.00163513
0.00163444
0.00163368
0.00163288
0.0016321
0.00163135
0.00163065
0.00162998
0.0016293
0.00162858
0.00162778
0.00162691
0.00162598
0.00162501
0.00162405
0.0016231
0.00162215
0.00162118
0.00162015
0.00161904
0.00161785
0.00161658
0.00161525
0.00161389
0.00161252
0.00161113
0.00160972
0.0016083
0.00160683
0.00160539
0.00160404
0.00160265
0.00160129
0.00160041
0.00159941
0.00159803
0.00159725
0.00159679
0.00159539
0.00159374
0.00159312
0.00159221
0.00159011
0.00158873
0.00158818
0.00158644
0.00158443
0.00158389
0.00158254
0.00158021
0.00157938
0.00157801
0.0015759
0.00157499
0.0015733
0.00157182
0.00157133
0.00156959
0.00156823
0.00156853
0.00156757
0.00156544
0.00156484
0.00156548
0.00156319
0.00156042
0.00155988
0.00156002
0.00155618
0.0015525
0.00155154
0.00155104
0.00154652
0.00154229
0.00154056
0.00154006
0.00153589
0.00153129
0.00152906
0.00152823
0.00152422
0.00151994
0.001518
0.00151727
0.0015135
0.00150969
0.00150814
0.00150815
0.0015052
0.00150154
0.00149952
0.00149966
0.00149902
0.00164092
0.00163998
0.00163912
0.00163827
0.00163736
0.00163639
0.00163539
0.00163445
0.00163361
0.00163289
0.00163224
0.00163162
0.00163098
0.00163029
0.00162956
0.00162881
0.00162809
0.00162742
0.0016268
0.00162622
0.00162564
0.00162504
0.00162439
0.00162368
0.00162294
0.00162219
0.00162145
0.00162073
0.00162
0.00161926
0.00161847
0.00161761
0.00161669
0.00161571
0.00161468
0.00161364
0.00161257
0.00161148
0.00161036
0.00160917
0.00160791
0.00160656
0.00160513
0.00160364
0.0016021
0.00160053
0.00159893
0.00159729
0.00159561
0.00159393
0.00159226
0.00159055
0.00158888
0.00158751
0.00158608
0.00158435
0.00158317
0.00158225
0.00158062
0.00157874
0.00157783
0.00157664
0.00157434
0.00157256
0.00157163
0.00156971
0.00156725
0.00156623
0.00156469
0.001562
0.00156069
0.00155913
0.00155647
0.00155512
0.00155323
0.00155092
0.00154991
0.00154784
0.00154579
0.00154553
0.00154386
0.00154135
0.0015409
0.00154095
0.00153791
0.00153553
0.00153556
0.00153478
0.00153052
0.00152766
0.00152738
0.0015258
0.00152085
0.00151739
0.00151633
0.00151476
0.0015098
0.00150579
0.00150401
0.00150239
0.00149782
0.0014939
0.00149217
0.00149049
0.0014864
0.00148301
0.00148164
0.00148053
0.00147732
0.00147424
0.00147225
0.00147151
0.00147015
0.00163171
0.00163059
0.00162957
0.00162866
0.00162786
0.00162712
0.00162639
0.00162564
0.00162486
0.00162408
0.00162333
0.00162263
0.00162199
0.0016214
0.00162083
0.00162025
0.00161964
0.001619
0.00161835
0.00161771
0.00161709
0.00161649
0.00161591
0.00161532
0.0016147
0.00161405
0.00161335
0.00161262
0.00161186
0.0016111
0.00161032
0.00160953
0.0016087
0.00160782
0.00160688
0.00160587
0.0016048
0.00160368
0.00160251
0.00160131
0.00160007
0.00159877
0.00159741
0.00159596
0.00159443
0.00159282
0.00159114
0.0015894
0.0015876
0.00158576
0.00158388
0.00158196
0.00158002
0.00157803
0.00157608
0.00157427
0.00157242
0.0015704
0.00156879
0.00156739
0.00156546
0.00156334
0.00156209
0.00156058
0.00155809
0.00155599
0.00155471
0.00155259
0.00154977
0.00154831
0.00154652
0.00154355
0.00154181
0.00154001
0.00153698
0.00153519
0.00153318
0.00153023
0.00152867
0.00152654
0.00152381
0.00152278
0.00152081
0.00151799
0.00151736
0.00151649
0.00151309
0.00151115
0.00151143
0.00150943
0.00150527
0.0015033
0.00150335
0.00150056
0.00149581
0.00149323
0.00149263
0.00148979
0.00148476
0.00148146
0.00148016
0.00147751
0.00147273
0.00146929
0.00146777
0.00146517
0.001461
0.00145798
0.00145659
0.00145436
0.00145121
0.00144869
0.00144666
0.00144475
0.00144295
0.00162017
0.00161927
0.0016184
0.00161759
0.00161684
0.00161616
0.00161551
0.00161488
0.00161424
0.00161359
0.00161294
0.00161231
0.0016117
0.00161113
0.00161058
0.00161004
0.00160949
0.00160892
0.00160833
0.00160773
0.00160712
0.00160652
0.00160592
0.00160532
0.0016047
0.00160406
0.00160337
0.00160265
0.00160188
0.00160109
0.00160026
0.00159941
0.00159852
0.00159759
0.0015966
0.00159555
0.00159442
0.00159323
0.00159198
0.00159067
0.00158931
0.00158788
0.0015864
0.00158483
0.00158318
0.00158145
0.00157963
0.00157773
0.00157576
0.00157372
0.00157163
0.0015695
0.00156731
0.00156507
0.00156284
0.00156065
0.00155841
0.00155612
0.0015541
0.00155219
0.00154992
0.00154759
0.00154592
0.00154405
0.00154135
0.001539
0.00153738
0.00153499
0.00153191
0.00153008
0.00152799
0.00152476
0.00152266
0.00152059
0.00151729
0.00151509
0.00151295
0.00150959
0.00150748
0.00150534
0.00150207
0.00150028
0.00149831
0.00149517
0.00149383
0.00149241
0.00148903
0.00148719
0.00148712
0.00148428
0.00148051
0.00147931
0.00147917
0.00147539
0.00147126
0.00146959
0.00146902
0.00146514
0.00146053
0.00145803
0.00145697
0.00145343
0.00144878
0.00144589
0.00144451
0.00144118
0.00143704
0.00143438
0.00143293
0.00142997
0.00142675
0.00142458
0.00142269
0.00142012
0.00141787
0.00141629
0.00161505
0.00161396
0.00161293
0.00161197
0.00161109
0.00161028
0.00160951
0.00160877
0.00160803
0.0016073
0.0016066
0.00160593
0.0016053
0.0016047
0.00160413
0.00160357
0.00160301
0.00160244
0.00160187
0.0016013
0.00160075
0.00160022
0.00159969
0.00159917
0.00159863
0.00159807
0.0015975
0.00159691
0.0015963
0.00159569
0.00159506
0.00159442
0.00159376
0.00159306
0.00159232
0.00159154
0.00159071
0.00158984
0.00158892
0.00158797
0.00158697
0.00158591
0.00158479
0.0015836
0.00158233
0.00158099
0.00157958
0.0015781
0.00157655
0.00157493
0.00157323
0.00157145
0.00156958
0.00156761
0.00156556
0.00156342
0.0015612
0.00155891
0.00155656
0.00155414
0.00155166
0.00154916
0.00154665
0.00154408
0.00154152
0.00153909
0.00153669
0.0015341
0.00153155
0.00152942
0.00152712
0.00152421
0.00152167
0.00151966
0.00151696
0.00151371
0.00151157
0.00150912
0.00150567
0.00150329
0.00150092
0.00149738
0.00149486
0.00149253
0.00148893
0.00148633
0.00148412
0.00148057
0.00147805
0.00147611
0.00147276
0.0014705
0.00146894
0.00146573
0.00146348
0.0014628
0.0014598
0.00145639
0.00145558
0.00145485
0.00145059
0.00144722
0.00144639
0.00144544
0.00144085
0.00143698
0.00143534
0.00143427
0.00143005
0.00142576
0.00142351
0.00142219
0.00141837
0.00141436
0.00141208
0.00141064
0.00140721
0.00140386
0.00140194
0.00140033
0.00139741
0.00139479
0.00139317
0.00160292
0.00160203
0.00160116
0.00160033
0.00159956
0.00159884
0.00159816
0.00159751
0.00159688
0.00159626
0.00159565
0.00159505
0.00159448
0.00159393
0.00159339
0.00159288
0.00159236
0.00159184
0.00159132
0.00159079
0.00159026
0.00158974
0.00158922
0.0015887
0.00158817
0.00158762
0.00158705
0.00158646
0.00158585
0.00158522
0.00158457
0.0015839
0.0015832
0.00158246
0.00158169
0.00158087
0.00158
0.00157908
0.00157811
0.00157708
0.001576
0.00157487
0.00157366
0.00157238
0.00157103
0.00156959
0.00156808
0.00156648
0.0015648
0.00156305
0.00156121
0.00155928
0.00155726
0.00155515
0.00155294
0.00155064
0.00154824
0.00154576
0.0015432
0.00154056
0.00153786
0.00153511
0.00153231
0.00152945
0.0015266
0.0015238
0.00152099
0.00151808
0.00151527
0.00151268
0.00150994
0.00150685
0.0015041
0.00150167
0.00149862
0.0014953
0.00149285
0.00149003
0.00148642
0.00148381
0.00148113
0.00147738
0.00147461
0.00147208
0.00146831
0.00146533
0.001463
0.00145935
0.00145622
0.00145418
0.00145087
0.00144771
0.00144605
0.00144316
0.00144014
0.00143893
0.00143636
0.001433
0.00143199
0.00143078
0.00142671
0.00142384
0.0014235
0.00142202
0.00141732
0.00141412
0.00141325
0.00141207
0.0014075
0.00140361
0.00140198
0.00140075
0.0013967
0.00139283
0.00139094
0.00138962
0.00138599
0.00138253
0.00138078
0.00137952
0.00137642
0.00137351
0.00137175
0.0015911
0.00159034
0.00158961
0.0015889
0.00158822
0.00158758
0.00158698
0.00158639
0.00158583
0.00158528
0.00158474
0.00158421
0.00158368
0.00158317
0.00158267
0.00158217
0.00158168
0.00158119
0.00158069
0.00158019
0.00157968
0.00157916
0.00157863
0.0015781
0.00157756
0.00157701
0.00157643
0.00157583
0.0015752
0.00157455
0.00157387
0.00157315
0.00157241
0.00157163
0.00157081
0.00156994
0.00156902
0.00156804
0.001567
0.0015659
0.00156474
0.00156351
0.00156221
0.00156084
0.00155939
0.00155785
0.00155623
0.00155451
0.00155271
0.00155082
0.00154883
0.00154676
0.00154459
0.00154232
0.00153995
0.00153748
0.00153491
0.00153224
0.00152949
0.00152665
0.00152373
0.00152074
0.00151769
0.00151458
0.00151146
0.00150833
0.00150517
0.00150197
0.00149885
0.00149584
0.00149272
0.00148943
0.00148643
0.00148357
0.00148022
0.00147685
0.00147409
0.00147089
0.0014672
0.00146439
0.00146138
0.00145749
0.00145454
0.0014518
0.0014479
0.00144465
0.00144218
0.00143852
0.00143494
0.00143274
0.00142956
0.00142581
0.00142385
0.0014213
0.00141769
0.00141588
0.0014139
0.0014105
0.00140877
0.00140756
0.00140407
0.00140125
0.00140093
0.00139926
0.00139485
0.00139206
0.00139169
0.00139058
0.00138604
0.00138235
0.00138116
0.00138024
0.00137633
0.00137245
0.0013708
0.00136984
0.00136638
0.00136276
0.00136104
0.00136009
0.00135706
0.001354
0.00135204
0.00157956
0.0015789
0.00157827
0.00157765
0.00157706
0.00157649
0.00157594
0.00157541
0.0015749
0.00157439
0.0015739
0.00157341
0.00157292
0.00157243
0.00157195
0.00157147
0.00157099
0.00157051
0.00157002
0.00156952
0.00156901
0.00156849
0.00156796
0.00156741
0.00156685
0.00156628
0.00156568
0.00156505
0.0015644
0.00156371
0.00156299
0.00156223
0.00156144
0.0015606
0.00155972
0.00155879
0.0015578
0.00155676
0.00155565
0.00155447
0.00155322
0.0015519
0.00155051
0.00154903
0.00154747
0.00154583
0.00154409
0.00154225
0.00154032
0.0015383
0.00153617
0.00153395
0.00153163
0.0015292
0.00152668
0.00152404
0.0015213
0.00151846
0.00151552
0.00151249
0.00150937
0.00150617
0.0015029
0.00149956
0.00149618
0.00149277
0.00148933
0.00148586
0.00148244
0.00147906
0.00147561
0.00147213
0.00146884
0.00146558
0.001462
0.00145856
0.00145546
0.00145196
0.00144825
0.00144522
0.00144192
0.00143796
0.00143488
0.00143192
0.00142793
0.00142453
0.00142192
0.00141827
0.00141441
0.00141204
0.00140899
0.00140495
0.00140262
0.00140029
0.00139651
0.00139404
0.00139243
0.00138919
0.00138659
0.0013855
0.00138276
0.00137969
0.001379
0.00137761
0.00137369
0.001371
0.00137076
0.00137004
0.00136594
0.00136218
0.00136106
0.00136067
0.00135739
0.00135336
0.00135161
0.00135119
0.00134841
0.00134465
0.00134262
0.00134178
0.00133921
0.00133626
0.00133418
0.00133276
0.00133146
0.00156828
0.00156769
0.00156713
0.00156659
0.00156606
0.00156554
0.00156504
0.00156455
0.00156407
0.00156359
0.00156312
0.00156266
0.00156219
0.00156172
0.00156125
0.00156077
0.00156029
0.00155981
0.00155932
0.00155881
0.0015583
0.00155777
0.00155722
0.00155665
0.00155607
0.00155546
0.00155483
0.00155417
0.00155347
0.00155275
0.00155198
0.00155117
0.00155032
0.00154943
0.00154848
0.00154748
0.00154642
0.0015453
0.00154411
0.00154285
0.00154151
0.0015401
0.0015386
0.00153702
0.00153536
0.0015336
0.00153174
0.00152979
0.00152773
0.00152557
0.00152331
0.00152095
0.00151848
0.0015159
0.00151322
0.00151043
0.00150753
0.00150453
0.00150142
0.00149821
0.00149491
0.00149152
0.00148805
0.00148451
0.00148091
0.00147727
0.00147359
0.00146989
0.0014662
0.00146252
0.00145881
0.00145512
0.00145155
0.00144796
0.00144421
0.00144065
0.00143724
0.00143352
0.00142981
0.00142655
0.00142301
0.00141905
0.00141586
0.0014127
0.00140867
0.00140521
0.00140248
0.00139884
0.00139485
0.00139236
0.0013894
0.00138528
0.00138261
0.00138041
0.00137674
0.00137372
0.00137217
0.00136929
0.00136607
0.00136484
0.00136278
0.00135952
0.00135823
0.00135731
0.00135402
0.00135122
0.0013508
0.00135063
0.00134728
0.00134341
0.00134197
0.00134209
0.00133984
0.00133581
0.00133362
0.00133346
0.00133192
0.00132829
0.00132567
0.00132442
0.00132271
0.00132027
0.00131818
0.00131662
0.00131532
0.00155724
0.00155671
0.0015562
0.0015557
0.00155522
0.00155474
0.00155427
0.0015538
0.00155334
0.00155289
0.00155243
0.00155198
0.00155152
0.00155105
0.00155058
0.00155011
0.00154962
0.00154913
0.00154862
0.0015481
0.00154757
0.00154702
0.00154644
0.00154585
0.00154523
0.00154459
0.00154392
0.00154321
0.00154248
0.0015417
0.00154088
0.00154002
0.00153911
0.00153815
0.00153713
0.00153606
0.00153492
0.00153372
0.00153245
0.0015311
0.00152967
0.00152816
0.00152657
0.00152488
0.00152311
0.00152124
0.00151927
0.00151719
0.00151502
0.00151273
0.00151034
0.00150784
0.00150523
0.00150252
0.00149969
0.00149676
0.00149371
0.00149056
0.0014873
0.00148394
0.00148048
0.00147693
0.00147329
0.00146958
0.0014658
0.00146198
0.0014581
0.0014542
0.0014503
0.00144639
0.00144247
0.00143858
0.00143477
0.00143093
0.00142706
0.00142334
0.00141967
0.00141583
0.00141209
0.00140864
0.00140492
0.00140102
0.00139774
0.00139441
0.0013904
0.00138694
0.0013841
0.00138049
0.0013765
0.00137391
0.00137103
0.00136696
0.00136405
0.00136192
0.00135847
0.00135508
0.00135345
0.00135091
0.00134744
0.00134587
0.0013443
0.00134107
0.0013392
0.00133857
0.00133593
0.00133302
0.00133229
0.00133254
0.00132998
0.00132619
0.00132441
0.0013246
0.00132357
0.00131986
0.00131721
0.00131675
0.0013165
0.00131356
0.00131046
0.0013087
0.00130739
0.00130567
0.00130383
0.00130227
0.00130097
0.00154691
0.00154641
0.00154593
0.00154546
0.00154499
0.00154454
0.00154408
0.00154363
0.00154319
0.00154274
0.00154229
0.00154184
0.00154138
0.00154092
0.00154045
0.00153998
0.00153949
0.00153899
0.00153848
0.00153795
0.00153741
0.00153685
0.00153627
0.00153567
0.00153504
0.00153439
0.0015337
0.00153299
0.00153224
0.00153145
0.00153062
0.00152975
0.00152882
0.00152785
0.00152682
0.00152573
0.00152458
0.00152337
0.00152209
0.00152073
0.00151929
0.00151777
0.00151617
0.00151448
0.00151269
0.00151081
0.00150883
0.00150675
0.00150457
0.00150228
0.00149988
0.00149737
0.00149475
0.00149201
0.00148917
0.00148622
0.00148315
0.00147998
0.0014767
0.00147331
0.00146982
0.00146623
0.00146255
0.00145878
0.00145493
0.00145102
0.00144705
0.00144303
0.00143898
0.00143492
0.00143084
0.00142676
0.00142272
0.00141871
0.00141471
0.00141073
0.00140686
0.00140302
0.00139911
0.00139534
0.00139173
0.00138793
0.0013841
0.00138073
0.00137729
0.00137336
0.00136994
0.00136703
0.00136345
0.00135954
0.00135692
0.00135411
0.00135015
0.00134712
0.00134504
0.00134182
0.00133826
0.0013365
0.00133425
0.00133075
0.00132883
0.00132752
0.00132452
0.00132222
0.00132163
0.00131952
0.00131659
0.00131559
0.00131602
0.00131405
0.00131053
0.00130864
0.00130864
0.00130852
0.00130537
0.00130253
0.0013017
0.00130208
0.00129999
0.00129686
0.00129488
0.00129359
0.00129232
0.00129089
0.0012895
0.00128827
0.00153627
0.00153581
0.00153535
0.0015349
0.00153446
0.00153402
0.00153358
0.00153314
0.0015327
0.00153226
0.00153181
0.00153135
0.00153089
0.00153042
0.00152994
0.00152945
0.00152895
0.00152843
0.0015279
0.00152735
0.00152678
0.00152619
0.00152557
0.00152493
0.00152427
0.00152357
0.00152284
0.00152208
0.00152128
0.00152044
0.00151955
0.00151862