/*--------------------------------*- C++ -*----------------------------------*\
| =========                 |                                                 |
| \\      /  F ield         | OpenFOAM: The Open Source CFD Toolbox           |
|  \\    /   O peration     | Version:  v1706                                 |
|   \\  /    A nd           | Web:      www.OpenFOAM.com                      |
|    \\/     M anipulation  |                                                 |
\*---------------------------------------------------------------------------*/
FoamFile
{
    version     2.0;
    format      ascii;
    class       volScalarField;
    location    "4e-05";
    object      Tt;
}
// * * * * * * * * * * * * * * * * * * * * * * * * * * * * * * * * * * * * * //

dimensions      [0 0 0 1 0 0 0];


internalField   nonuniform List<scalar> 
29871
(
144.723
144.77
144.823
144.884
144.953
145.032
145.123
145.225
145.341
145.474
145.627
145.801
146
146.224
146.474
146.752
147.059
147.4
147.785
148.226
148.731
149.307
149.955
150.673
151.458
152.304
153.214
154.209
155.326
156.581
157.964
159.454
161.032
162.68
164.382
166.116
167.86
169.593
171.302
173.003
174.82
177.173
179.944
182.941
186.007
189.024
191.913
194.627
197.142
199.451
201.561
203.479
205.213
206.766
208.139
209.33
210.334
211.154
211.804
212.298
212.648
212.878
213.006
213.011
212.966
212.876
212.755
212.59
212.391
212.198
211.98
211.729
211.444
211.128
210.78
210.407
210.006
209.563
209.089
208.59
208.06
207.499
206.924
206.339
205.729
205.099
204.454
203.788
203.102
202.401
201.687
200.96
200.222
199.473
198.716
197.949
197.173
196.388
195.596
194.797
193.992
193.182
192.366
191.545
190.718
146.407
146.699
147.032
147.415
147.85
148.344
148.901
149.526
150.229
151.024
151.929
152.962
154.136
155.459
156.936
158.567
160.357
162.33
164.53
167
169.755
172.78
176.049
179.529
183.181
186.969
190.882
194.977
199.62
204.893
210.656
216.725
222.913
229.047
234.981
240.602
245.83
250.614
254.938
258.802
262.197
265.053
267.397
269.27
270.726
271.809
272.568
273.062
273.367
273.564
273.714
273.847
273.975
274.098
274.208
274.303
274.345
274.318
274.249
274.132
273.95
273.702
273.396
273.038
272.642
272.216
271.771
271.326
270.901
270.485
270.06
269.633
269.215
268.805
268.391
267.976
267.562
267.127
266.678
266.217
265.744
265.259
264.783
264.296
263.797
263.301
262.802
262.283
261.758
261.235
260.708
260.176
259.642
259.11
258.581
258.054
257.53
257.009
256.491
255.979
255.472
254.971
254.476
253.988
253.507
150.753
151.65
152.668
153.831
155.156
156.659
158.351
160.238
162.329
164.647
167.235
170.144
173.396
176.989
180.9
185.099
189.55
194.23
199.159
204.555
210.631
217.296
224.371
231.642
238.902
245.966
252.69
258.967
264.714
269.808
274.243
278.071
281.359
284.18
286.596
288.654
290.381
291.785
292.865
293.635
294.151
294.484
294.688
294.777
294.754
294.669
294.489
294.189
293.753
293.19
292.549
291.871
291.187
290.516
289.874
289.272
288.716
288.201
287.719
287.263
286.822
286.383
285.934
285.465
284.968
284.441
283.885
283.299
282.69
282.068
281.443
280.813
280.182
279.558
278.944
278.35
277.74
277.156
276.63
276.029
275.463
274.95
274.462
273.88
273.315
272.828
272.33
271.787
271.261
270.769
270.272
269.768
269.272
268.785
268.301
267.818
267.34
266.868
266.405
265.95
265.502
265.062
264.63
264.205
263.787
263.374
164.508
167.152
170.118
173.446
177.15
181.219
185.628
190.344
195.34
200.62
206.325
212.702
219.693
227.139
234.834
242.563
250.128
257.369
264.152
270.335
275.826
280.636
284.803
288.381
291.428
294.002
296.159
297.94
299.379
300.501
301.338
301.923
302.312
302.579
302.79
302.985
303.178
303.355
303.48
303.468
303.37
303.18
302.921
302.61
302.263
301.906
301.562
301.245
300.934
300.585
300.153
299.63
299.034
298.393
297.729
297.065
296.416
295.792
295.2
294.639
294.104
293.588
293.076
292.557
292.017
291.446
290.837
290.186
289.495
288.766
288.015
287.24
286.45
285.659
284.872
284.103
283.316
282.55
281.851
281.085
280.355
279.688
279.046
278.314
277.6
276.97
276.334
275.65
274.985
274.362
273.74
273.113
272.498
271.897
271.301
270.708
270.124
269.552
268.993
268.444
267.907
267.382
266.869
266.369
265.881
265.404
193.404
198.743
204.404
210.61
217.465
224.871
232.651
240.597
248.494
256.154
263.414
270.117
276.129
281.435
286.059
290.047
293.457
296.353
298.798
300.844
302.532
303.904
305.002
305.859
306.507
306.984
307.35
307.647
307.904
308.122
308.293
308.406
308.402
308.332
308.186
307.994
307.791
307.605
307.467
307.4
307.399
307.392
307.328
307.172
306.924
306.606
306.246
305.874
305.522
305.215
304.933
304.62
304.241
303.785
303.26
302.681
302.065
301.432
300.796
300.168
299.555
298.961
298.382
297.812
297.244
296.668
296.073
295.452
294.796
294.102
293.371
292.604
291.806
290.98
290.133
289.275
288.423
287.557
286.686
285.848
284.999
284.172
283.384
282.637
281.756
280.95
280.213
279.487
278.677
277.899
277.194
276.485
275.75
275.044
274.37
273.696
273.022
272.355
271.711
271.086
270.471
269.864
269.272
268.695
268.131
267.578
267.036
251.289
259.046
266.374
273.09
279.101
284.396
289.002
292.965
296.345
299.209
301.618
303.623
305.275
306.62
307.699
308.547
309.2
309.703
310.113
310.466
310.778
311.048
311.272
311.443
311.551
311.56
311.53
311.467
311.387
311.301
311.23
311.167
311.12
311.074
310.998
310.864
310.672
310.454
310.242
310.07
309.975
309.94
309.902
309.82
309.669
309.445
309.159
308.833
308.49
308.153
307.844
307.564
307.283
306.971
306.613
306.205
305.749
305.257
304.74
304.208
303.669
303.13
302.594
302.06
301.526
300.986
300.431
299.854
299.248
298.605
297.921
297.195
296.428
295.622
294.78
293.906
293.01
292.105
291.182
290.255
289.328
288.411
287.521
286.638
285.696
284.813
283.97
283.166
282.204
281.299
280.481
279.698
278.839
278.001
277.23
276.475
275.686
274.891
274.161
273.449
272.733
272.015
271.321
270.653
269.998
269.349
268.713
285.665
290.428
294.524
298.013
300.963
303.436
305.492
307.184
308.564
309.673
310.549
311.229
311.766
312.215
312.605
312.947
313.242
313.487
313.675
313.795
313.848
313.845
313.828
313.805
313.779
313.762
313.754
313.766
313.785
313.772
313.714
313.619
313.488
313.354
313.223
313.118
313.039
312.97
312.879
312.742
312.571
312.372
312.175
312.005
311.885
311.82
311.77
311.701
311.59
311.427
311.214
310.963
310.69
310.414
310.156
309.916
309.677
309.423
309.142
308.822
308.462
308.068
307.645
307.2
306.744
306.281
305.81
305.336
304.857
304.368
303.861
303.329
302.766
302.165
301.519
300.828
300.092
299.312
298.485
297.614
296.719
295.809
294.865
293.902
292.949
292.012
291.053
290.077
289.143
288.228
287.386
286.332
285.329
284.421
283.581
282.625
281.671
280.805
279.992
279.095
278.188
277.367
276.59
275.777
274.931
274.148
273.414
272.67
271.915
271.185
310.126
311.323
312.272
313.01
313.594
314.08
314.499
314.864
315.178
315.44
315.64
315.769
315.837
315.86
315.866
315.866
315.87
315.88
315.901
315.943
315.987
315.981
315.94
315.875
315.781
315.685
315.595
315.535
315.508
315.487
315.443
315.373
315.264
315.135
314.995
314.858
314.736
314.636
314.552
314.458
314.342
314.203
314.05
313.898
313.768
313.667
313.606
313.562
313.511
313.433
313.317
313.16
312.965
312.746
312.521
312.305
312.095
311.882
311.668
311.436
311.17
310.875
310.552
310.198
309.824
309.44
309.039
308.631
308.221
307.803
307.372
306.923
306.449
305.944
305.401
304.812
304.178
303.499
302.767
301.976
301.146
300.297
299.407
298.459
297.521
296.605
295.643
294.644
293.691
292.756
291.913
290.82
289.768
288.805
287.915
286.945
285.909
284.979
284.117
283.131
282.134
281.243
280.41
279.516
278.56
277.704
276.909
276.09
275.217
274.409
317.078
317.358
317.576
317.719
317.799
317.832
317.849
317.857
317.87
317.889
317.924
317.982
318.032
318.029
317.998
317.94
317.864
317.785
317.718
317.69
317.682
317.67
317.639
317.577
317.491
317.389
317.281
317.179
317.099
317.044
316.999
316.951
316.886
316.801
316.698
316.584
316.467
316.363
316.274
316.191
316.106
316.01
315.899
315.777
315.655
315.548
315.465
315.4
315.354
315.308
315.245
315.155
315.031
314.877
314.698
314.516
314.337
314.144
313.954
313.772
313.564
313.33
313.083
312.807
312.501
312.188
311.857
311.504
311.156
310.802
310.433
310.057
309.662
309.244
308.802
308.318
307.792
307.228
306.613
305.935
305.205
304.452
303.677
302.787
301.909
301.053
300.167
299.166
298.23
297.313
296.49
295.423
294.367
293.402
292.491
291.534
290.471
289.514
288.627
287.599
286.549
285.616
284.743
283.792
282.768
281.867
281.028
280.148
279.182
278.313
319.935
319.952
319.983
320.038
320.09
320.089
320.06
320.003
319.929
319.852
319.791
319.771
319.767
319.756
319.724
319.665
319.586
319.495
319.402
319.322
319.266
319.233
319.207
319.173
319.125
319.06
318.982
318.896
318.813
318.744
318.692
318.649
318.605
318.551
318.482
318.398
318.302
318.204
318.11
318.023
317.942
317.859
317.77
317.672
317.567
317.463
317.369
317.29
317.228
317.177
317.124
317.065
316.99
316.892
316.755
316.611
316.475
316.299
316.124
315.963
315.794
315.59
315.388
315.182
314.925
314.662
314.4
314.097
313.792
313.492
313.168
312.849
312.519
312.166
311.807
311.418
310.985
310.528
310.033
309.483
308.864
308.217
307.583
306.799
305.999
305.219
304.467
303.509
302.614
301.754
300.967
299.959
298.943
298.019
297.13
296.187
295.139
294.197
293.318
292.278
291.221
290.276
289.393
288.405
287.363
286.447
285.586
284.661
283.646
282.746
322.094
322.007
321.935
321.9
321.885
321.866
321.827
321.763
321.682
321.591
321.499
321.424
321.378
321.353
321.334
321.306
321.266
321.211
321.146
321.078
321.016
320.972
320.942
320.919
320.892
320.856
320.808
320.748
320.68
320.613
320.553
320.502
320.457
320.413
320.361
320.299
320.225
320.142
320.054
319.967
319.882
319.801
319.718
319.632
319.539
319.442
319.347
319.258
319.18
319.117
319.058
319.002
318.947
318.877
318.773
318.667
318.568
318.412
318.257
318.117
317.969
317.778
317.606
317.45
317.222
317
316.799
316.529
316.262
316.014
315.725
315.442
315.163
314.857
314.555
314.243
313.885
313.51
313.128
312.698
312.181
311.646
311.144
310.485
309.784
309.103
308.468
307.609
306.784
306.005
305.275
304.327
303.388
302.536
301.711
300.769
299.771
298.875
298.029
296.997
295.976
295.051
294.188
293.171
292.158
291.251
290.399
289.441
288.421
287.516
323.963
323.872
323.771
323.67
323.584
323.527
323.496
323.472
323.443
323.403
323.351
323.29
323.227
323.175
323.141
323.122
323.108
323.091
323.066
323.031
322.986
322.937
322.892
322.855
322.828
322.804
322.78
322.75
322.711
322.663
322.608
322.552
322.499
322.451
322.406
322.36
322.309
322.25
322.182
322.106
322.024
321.941
321.859
321.777
321.693
321.606
321.515
321.422
321.33
321.243
321.167
321.096
321.031
320.978
320.916
320.833
320.754
320.679
320.545
320.41
320.295
320.162
319.985
319.835
319.706
319.505
319.314
319.151
318.922
318.68
318.474
318.222
317.962
317.727
317.457
317.194
316.944
316.633
316.325
316.033
315.689
315.265
314.839
314.453
313.9
313.316
312.748
312.218
311.456
310.738
310.054
309.393
308.505
307.673
306.902
306.155
305.217
304.3
303.462
302.66
301.662
300.705
299.82
298.986
297.968
297.015
296.136
295.31
294.324
293.338
292.448
325.655
325.609
325.552
325.487
325.421
325.364
325.326
325.304
325.29
325.274
325.252
325.222
325.184
325.145
325.11
325.086
325.07
325.06
325.048
325.032
325.009
324.979
324.945
324.912
324.884
324.86
324.839
324.817
324.791
324.758
324.719
324.674
324.626
324.579
324.534
324.489
324.443
324.393
324.336
324.271
324.199
324.122
324.042
323.961
323.878
323.794
323.706
323.616
323.524
323.434
323.349
323.268
323.192
323.133
323.07
322.994
322.928
322.865
322.757
322.641
322.547
322.431
322.272
322.138
322.025
321.854
321.681
321.544
321.359
321.139
320.964
320.754
320.512
320.313
320.074
319.834
319.629
319.361
319.104
318.883
318.581
318.241
317.91
317.62
317.143
316.681
316.228
315.784
315.111
314.518
313.936
313.335
312.523
311.807
311.115
310.43
309.538
308.714
307.935
307.175
306.229
305.344
304.508
303.701
302.728
301.839
300.997
300.19
299.204
298.276
297.41
296.571
295.68
327.524
327.501
327.476
327.445
327.407
327.367
327.333
327.309
327.294
327.286
327.279
327.269
327.253
327.232
327.209
327.189
327.174
327.165
327.159
327.153
327.143
327.129
327.111
327.089
327.066
327.046
327.027
327.01
326.991
326.969
326.942
326.909
326.872
326.831
326.789
326.748
326.705
326.66
326.61
326.555
326.493
326.425
326.351
326.274
326.195
326.113
326.029
325.942
325.852
325.763
325.675
325.589
325.507
325.439
325.372
325.296
325.236
325.179
325.091
324.991
324.916
324.819
324.681
324.561
324.464
324.321
324.162
324.046
323.898
323.703
323.553
323.382
323.162
322.99
322.788
322.563
322.387
322.16
321.934
321.755
321.495
321.224
320.972
320.734
320.323
319.97
319.631
319.225
318.659
318.184
317.715
317.134
316.425
315.821
315.222
314.559
313.739
313.013
312.306
311.571
310.685
309.877
309.103
308.308
307.399
306.568
305.766
304.952
304.029
303.156
302.308
301.472
300.591
329.61
329.575
329.551
329.536
329.525
329.514
329.499
329.48
329.461
329.444
329.433
329.427
329.427
329.427
329.425
329.421
329.413
329.404
329.396
329.391
329.389
329.388
329.388
329.385
329.38
329.371
329.359
329.346
329.333
329.321
329.308
329.294
329.277
329.255
329.229
329.199
329.165
329.129
329.091
329.052
329.009
328.962
328.91
328.851
328.787
328.718
328.644
328.568
328.489
328.407
328.322
328.237
328.15
328.064
327.983
327.909
327.837
327.763
327.704
327.649
327.575
327.492
327.432
327.353
327.239
327.137
327.057
326.938
326.796
326.7
326.58
326.412
326.286
326.149
325.955
325.806
325.641
325.432
325.276
325.09
324.877
324.72
324.51
324.278
324.084
323.869
323.536
323.259
323.014
322.621
322.174
321.788
321.414
320.851
320.265
319.749
319.241
318.577
317.857
317.216
316.586
315.853
315.042
314.306
313.596
312.803
311.959
311.177
310.421
309.598
308.742
307.921
307.098
306.257
305.41
331.742
331.72
331.703
331.694
331.69
331.689
331.689
331.687
331.683
331.679
331.677
331.678
331.682
331.689
331.697
331.704
331.71
331.713
331.716
331.719
331.723
331.729
331.736
331.743
331.748
331.751
331.75
331.748
331.745
331.74
331.735
331.729
331.721
331.71
331.695
331.675
331.652
331.625
331.596
331.564
331.529
331.491
331.448
331.401
331.347
331.288
331.225
331.157
331.086
331.012
330.936
330.857
330.777
330.696
330.618
330.544
330.473
330.403
330.346
330.292
330.229
330.161
330.114
330.052
329.961
329.88
329.818
329.722
329.601
329.526
329.429
329.287
329.185
329.075
328.909
328.784
328.651
328.463
328.323
328.172
327.971
327.823
327.658
327.443
327.276
327.094
326.823
326.591
326.4
326.042
325.693
325.372
325.06
324.535
324.061
323.616
323.169
322.524
321.905
321.333
320.765
320.039
319.306
318.631
317.973
317.189
316.401
315.663
314.945
314.127
313.316
312.541
311.754
310.918
310.099
309.295
334.064
334.032
334.008
333.991
333.981
333.973
333.967
333.96
333.954
333.95
333.95
333.953
333.96
333.969
333.979
333.989
333.998
334.007
334.017
334.029
334.043
334.059
334.075
334.091
334.107
334.121
334.134
334.148
334.163
334.178
334.193
334.208
334.222
334.233
334.243
334.25
334.256
334.261
334.265
334.266
334.266
334.262
334.255
334.244
334.229
334.211
334.189
334.165
334.137
334.105
334.069
334.029
333.983
333.932
333.876
333.817
333.754
333.689
333.621
333.551
333.48
333.41
333.342
333.275
333.213
333.159
333.109
333.055
333.004
332.966
332.919
332.851
332.793
332.748
332.673
332.577
332.522
332.446
332.328
332.25
332.162
332.023
331.92
331.814
331.649
331.523
331.4
331.216
331.07
330.936
330.737
330.57
330.422
330.191
329.977
329.812
329.511
329.218
328.951
328.667
328.196
327.809
327.431
327.01
326.397
325.873
325.363
324.835
324.125
323.463
322.841
322.222
321.451
320.711
320.012
319.325
318.516
317.738
316.996
316.246
315.418
314.619
313.844
336.27
336.255
336.245
336.238
336.239
336.242
336.248
336.255
336.263
336.272
336.282
336.295
336.311
336.328
336.348
336.368
336.389
336.409
336.43
336.451
336.474
336.498
336.524
336.55
336.576
336.602
336.627
336.651
336.676
336.701
336.726
336.752
336.776
336.8
336.822
336.842
336.86
336.877
336.892
336.905
336.916
336.925
336.932
336.934
336.932
336.928
336.919
336.908
336.893
336.874
336.852
336.826
336.795
336.759
336.719
336.674
336.626
336.574
336.52
336.464
336.406
336.348
336.29
336.234
336.181
336.135
336.091
336.048
336.01
335.981
335.947
335.9
335.863
335.832
335.777
335.709
335.672
335.612
335.518
335.462
335.392
335.275
335.193
335.107
334.964
334.849
334.746
334.582
334.433
334.317
334.136
333.957
333.825
333.625
333.409
333.25
333.004
332.731
332.496
332.233
331.824
331.485
331.163
330.746
330.188
329.733
329.28
328.77
328.082
327.481
326.907
326.317
325.561
324.859
324.196
323.536
322.738
321.982
321.261
320.545
319.722
318.938
318.183
338.545
338.547
338.55
338.557
338.567
338.581
338.597
338.616
338.636
338.656
338.678
338.702
338.726
338.753
338.782
338.812
338.842
338.874
338.905
338.937
338.97
339.004
339.039
339.075
339.112
339.149
339.186
339.222
339.259
339.295
339.332
339.369
339.405
339.441
339.476
339.51
339.542
339.572
339.601
339.627
339.653
339.676
339.696
339.713
339.727
339.738
339.745
339.749
339.749
339.746
339.74
339.73
339.715
339.697
339.674
339.646
339.615
339.581
339.543
339.503
339.461
339.418
339.374
339.331
339.291
339.254
339.219
339.187
339.161
339.14
339.117
339.088
339.068
339.048
339.01
338.968
338.943
338.896
338.826
338.785
338.727
338.629
338.563
338.489
338.363
338.257
338.165
338.016
337.862
337.753
337.588
337.394
337.26
337.081
336.852
336.68
336.477
336.202
335.966
335.733
335.372
335.047
334.756
334.359
333.852
333.438
333.028
332.535
331.875
331.314
330.777
330.218
329.483
328.804
328.167
327.539
326.757
326.008
325.298
324.608
323.797
323.024
322.285
340.879
340.894
340.911
340.93
340.952
340.976
341.002
341.031
341.061
341.093
341.126
341.159
341.194
341.231
341.269
341.308
341.349
341.391
341.433
341.476
341.52
341.565
341.611
341.657
341.705
341.754
341.803
341.852
341.901
341.95
342
342.05
342.099
342.149
342.198
342.246
342.293
342.338
342.382
342.424
342.464
342.503
342.539
342.573
342.604
342.632
342.656
342.677
342.695
342.71
342.721
342.729
342.733
342.732
342.728
342.72
342.708
342.692
342.673
342.651
342.626
342.599
342.572
342.543
342.516
342.49
342.466
342.444
342.427
342.413
342.399
342.383
342.373
342.361
342.337
342.312
342.294
342.256
342.204
342.171
342.119
342.034
341.976
341.906
341.79
341.687
341.598
341.456
341.295
341.183
341.022
340.815
340.665
340.493
340.252
340.051
339.865
339.589
339.329
339.108
338.78
338.447
338.157
337.802
337.327
336.929
336.539
336.084
335.45
334.905
334.39
333.872
333.166
332.491
331.874
331.283
330.528
329.77
329.061
328.387
327.609
326.847
326.12
325.397
324.665
343.261
343.287
343.316
343.347
343.379
343.414
343.451
343.489
343.529
343.571
343.614
343.658
343.703
343.75
343.798
343.848
343.898
343.951
344.004
344.058
344.114
344.17
344.227
344.286
344.346
344.407
344.468
344.531
344.594
344.657
344.72
344.784
344.848
344.913
344.977
345.04
345.103
345.164
345.225
345.284
345.341
345.397
345.45
345.502
345.551
345.597
345.64
345.68
345.717
345.751
345.781
345.807
345.831
345.85
345.865
345.877
345.884
345.887
345.886
345.883
345.876
345.866
345.854
345.84
345.825
345.81
345.796
345.782
345.771
345.762
345.753
345.743
345.737
345.728
345.71
345.693
345.675
345.641
345.598
345.564
345.509
345.43
345.37
345.296
345.179
345.072
344.976
344.83
344.659
344.534
344.366
344.144
343.968
343.788
343.534
343.298
343.101
342.824
342.531
342.293
341.988
341.633
341.323
341.005
340.549
340.15
339.761
339.354
338.746
338.194
337.697
337.214
336.55
335.866
335.27
334.694
334.001
333.224
332.508
331.83
331.113
330.371
329.651
328.941
328.228
345.678
345.716
345.755
345.797
345.84
345.884
345.931
345.979
346.029
346.081
346.134
346.188
346.244
346.301
346.359
346.419
346.481
346.544
346.609
346.674
346.742
346.81
346.88
346.952
347.024
347.098
347.173
347.25
347.327
347.405
347.483
347.563
347.642
347.722
347.802
347.882
347.962
348.04
348.118
348.195
348.27
348.344
348.417
348.487
348.555
348.62
348.683
348.742
348.798
348.852
348.901
348.947
348.99
349.028
349.063
349.093
349.119
349.141
349.158
349.171
349.18
349.185
349.186
349.185
349.181
349.174
349.167
349.158
349.15
349.141
349.131
349.121
349.111
349.097
349.077
349.056
349.03
348.991
348.946
348.9
348.836
348.752
348.68
348.589
348.463
348.343
348.228
348.068
347.879
347.731
347.546
347.303
347.094
346.894
346.621
346.345
346.121
345.833
345.505
345.23
344.931
344.551
344.212
343.901
343.46
343.047
342.655
342.277
341.696
341.133
340.646
340.171
339.586
338.887
338.296
337.717
337.116
336.336
335.605
334.929
334.251
333.544
332.838
332.141
331.446
348.075
348.121
348.168
348.218
348.269
348.322
348.377
348.434
348.492
348.551
348.613
348.676
348.74
348.807
348.874
348.944
349.014
349.087
349.162
349.238
349.316
349.396
349.477
349.56
349.644
349.731
349.819
349.908
349.999
350.091
350.185
350.279
350.374
350.47
350.566
350.663
350.76
350.857
350.954
351.05
351.145
351.239
351.332
351.423
351.512
351.599
351.684
351.766
351.844
351.92
351.992
352.061
352.126
352.186
352.243
352.295
352.343
352.385
352.423
352.455
352.482
352.504
352.52
352.532
352.538
352.54
352.537
352.532
352.523
352.512
352.497
352.48
352.461
352.439
352.412
352.38
352.344
352.301
352.246
352.186
352.119
352.034
351.934
351.837
351.721
351.573
351.43
351.285
351.099
350.885
350.705
350.491
350.22
349.973
349.742
349.443
349.124
348.861
348.551
348.185
347.866
347.555
347.15
346.776
346.446
346.012
345.577
345.177
344.808
344.254
343.683
343.201
342.718
342.207
341.512
340.919
340.351
339.8
339.055
338.319
337.655
337.001
336.329
335.647
334.968
334.292
350.523
350.578
350.636
350.695
350.756
350.819
350.883
350.949
351.017
351.087
351.158
351.231
351.306
351.383
351.461
351.542
351.624
351.708
351.795
351.883
351.973
352.066
352.16
352.257
352.355
352.456
352.558
352.662
352.768
352.876
352.985
353.096
353.207
353.32
353.433
353.547
353.662
353.777
353.891
354.005
354.119
354.231
354.342
354.452
354.56
354.665
354.769
354.869
354.966
355.06
355.149
355.235
355.317
355.393
355.465
355.532
355.594
355.649
355.698
355.741
355.778
355.807
355.83
355.846
355.855
355.856
355.853
355.843
355.827
355.805
355.778
355.745
355.708
355.665
355.616
355.561
355.499
355.428
355.346
355.257
355.158
355.041
354.912
354.779
354.627
354.448
354.269
354.084
353.861
353.613
353.392
353.139
352.833
352.542
352.271
351.937
351.574
351.265
350.924
350.518
350.153
349.813
349.384
348.97
348.606
348.173
347.712
347.297
346.92
346.388
345.818
345.337
344.851
344.383
343.708
343.12
342.567
342.038
341.347
340.629
339.983
339.353
338.713
338.061
337.407
336.755
336.107
335.46
352.978
353.042
353.109
353.178
353.248
353.32
353.394
353.47
353.548
353.627
353.708
353.792
353.877
353.964
354.054
354.145
354.239
354.335
354.434
354.535
354.638
354.743
354.851
354.962
355.074
355.189
355.306
355.425
355.547
355.67
355.795
355.922
356.05
356.179
356.309
356.441
356.572
356.704
356.836
356.968
357.099
357.229
357.358
357.485
357.61
357.733
357.852
357.969
358.082
358.191
358.296
358.396
358.491
358.58
358.664
358.741
358.811
358.875
358.931
358.979
359.019
359.05
359.072
359.086
359.089
359.084
359.071
359.048
359.016
358.976
358.928
358.871
358.806
358.733
358.652
358.562
358.463
358.354
358.233
358.103
357.961
357.802
357.631
357.451
357.252
357.03
356.805
356.57
356.302
356.011
355.739
355.439
355.09
354.751
354.433
354.057
353.648
353.291
352.911
352.466
352.052
351.675
351.221
350.765
350.363
349.926
349.435
349.001
348.607
348.088
347.526
347.047
346.564
346.114
345.467
344.895
344.361
343.839
343.202
342.526
341.908
341.306
340.698
340.08
339.458
338.837
338.218
337.602
355.431
355.505
355.58
355.658
355.737
355.819
355.902
355.987
356.074
356.164
356.255
356.349
356.444
356.543
356.643
356.746
356.852
356.96
357.07
357.184
357.3
357.419
357.54
357.664
357.791
357.92
358.052
358.186
358.322
358.461
358.602
358.744
358.888
359.033
359.18
359.327
359.476
359.624
359.772
359.92
360.067
360.213
360.357
360.5
360.64
360.777
360.911
361.041
361.166
361.287
361.403
361.513
361.617
361.714
361.804
361.886
361.96
362.025
362.081
362.127
362.163
362.188
362.202
362.203
362.195
362.175
362.142
362.098
362.042
361.974
361.895
361.804
361.702
361.59
361.466
361.331
361.185
361.026
360.856
360.673
360.477
360.266
360.041
359.805
359.55
359.275
358.994
358.702
358.379
358.038
357.709
357.354
356.957
356.567
356.195
355.773
355.318
354.911
354.489
354.005
353.544
353.127
352.646
352.15
351.71
351.263
350.747
350.291
349.874
349.368
348.816
348.34
347.866
347.424
346.805
346.258
345.745
345.232
344.644
344.025
343.444
342.875
342.303
341.723
341.139
340.555
339.972
339.391
357.874
357.957
358.041
358.128
358.216
358.306
358.399
358.493
358.59
358.689
358.79
358.894
359
359.109
359.221
359.335
359.452
359.572
359.695
359.82
359.949
360.081
360.215
360.353
360.493
360.637
360.783
360.931
361.082
361.235
361.391
361.548
361.707
361.867
362.029
362.191
362.354
362.517
362.679
362.841
363.002
363.161
363.319
363.473
363.625
363.773
363.917
364.056
364.19
364.318
364.44
364.555
364.662
364.76
364.85
364.93
365.001
365.06
365.108
365.145
365.168
365.178
365.175
365.158
365.128
365.082
365.022
364.946
364.856
364.751
364.631
364.497
364.349
364.187
364.01
363.821
363.618
363.401
363.17
362.926
362.667
362.393
362.105
361.804
361.485
361.149
360.804
360.447
360.064
359.666
359.275
358.86
358.411
357.967
357.539
357.067
356.568
356.112
355.647
355.126
354.622
354.167
353.659
353.13
352.657
352.195
351.664
351.182
350.745
350.257
349.716
349.245
348.784
348.347
347.758
347.241
346.751
346.257
345.717
345.158
344.621
344.092
343.561
343.024
342.483
341.942
341.4
340.861
340.322
360.392
360.485
360.579
360.676
360.775
360.877
360.98
361.086
361.195
361.306
361.419
361.536
361.655
361.777
361.903
362.031
362.162
362.297
362.434
362.575
362.719
362.867
363.017
363.17
363.327
363.486
363.648
363.812
363.979
364.147
364.318
364.49
364.664
364.838
365.013
365.188
365.363
365.537
365.71
365.882
366.051
366.217
366.38
366.539
366.694
366.843
366.987
367.123
367.253
367.375
367.488
367.591
367.685
367.767
367.838
367.897
367.943
367.975
367.993
367.993
367.982
367.953
367.907
367.845
367.764
367.666
367.55
367.416
367.265
367.095
366.908
366.704
366.483
366.246
365.993
365.725
365.44
365.141
364.827
364.498
364.153
363.794
363.422
363.033
362.629
362.214
361.787
361.34
360.882
360.425
359.948
359.444
358.947
358.46
357.939
357.398
356.897
356.388
355.836
355.298
354.808
354.277
353.724
353.226
352.749
352.214
351.71
351.261
350.789
350.263
349.801
349.358
348.926
348.377
347.891
347.431
346.969
346.473
345.971
345.484
345.002
344.517
344.027
343.535
343.041
342.547
342.053
341.56
362.802
362.903
363.006
363.111
363.218
363.328
363.44
363.555
363.672
363.793
363.916
364.042
364.171
364.304
364.44
364.578
364.721
364.866
365.015
365.167
365.323
365.482
365.644
365.809
365.977
366.148
366.321
366.497
366.676
366.856
367.038
367.221
367.405
367.589
367.774
367.959
368.142
368.324
368.505
368.683
368.857
369.028
369.195
369.357
369.512
369.661
369.803
369.936
370.061
370.176
370.28
370.373
370.454
370.521
370.575
370.613
370.637
370.643
370.634
370.607
370.561
370.497
370.413
370.309
370.184
370.039
369.873
369.686
369.479
369.251
369.003
368.735
368.448
368.142
367.818
367.476
367.118
366.744
366.353
365.947
365.525
365.09
364.642
364.179
363.702
363.214
362.715
362.2
361.679
361.158
360.62
360.063
359.515
358.972
358.404
357.827
357.282
356.734
356.155
355.595
355.078
354.533
353.969
353.456
352.969
352.437
351.924
351.471
351.012
350.507
350.057
349.638
349.22
348.72
348.269
347.844
347.42
346.973
346.525
346.09
345.659
345.224
344.785
344.344
343.901
343.458
343.014
342.57
365.289
365.399
365.512
365.627
365.744
365.865
365.988
366.114
366.243
366.375
366.51
366.649
366.791
366.936
367.085
367.237
367.392
367.551
367.713
367.879
368.048
368.22
368.395
368.573
368.754
368.937
369.123
369.31
369.499
369.689
369.88
370.072
370.263
370.454
370.644
370.832
371.019
371.202
371.381
371.557
371.727
371.892
372.05
372.201
372.343
372.476
372.6
372.712
372.813
372.901
372.975
373.035
373.079
373.107
373.116
373.109
373.083
373.037
372.971
372.883
372.774
372.642
372.488
372.31
372.109
371.885
371.637
371.366
371.071
370.754
370.415
370.055
369.674
369.273
368.853
368.415
367.96
367.49
367.002
366.5
365.984
365.456
364.918
364.366
363.806
363.235
362.653
362.069
361.486
360.897
360.298
359.708
359.122
358.52
357.916
357.339
356.761
356.165
355.591
355.054
354.5
353.936
353.419
352.928
352.406
351.898
351.45
351.005
350.528
350.089
349.695
349.302
348.851
348.434
348.047
347.669
347.272
346.879
346.497
346.117
345.735
345.35
344.962
344.573
344.183
343.791
343.398
367.751
367.871
367.993
368.118
368.246
368.377
368.511
368.647
368.788
368.931
369.078
369.228
369.381
369.538
369.699
369.863
370.03
370.201
370.375
370.552
370.733
370.916
371.101
371.289
371.48
371.672
371.865
372.06
372.255
372.451
372.646
372.84
373.033
373.224
373.413
373.598
373.779
373.955
374.125
374.289
374.446
374.594
374.733
374.862
374.98
375.086
375.179
375.258
375.322
375.369
375.4
375.412
375.405
375.379
375.332
375.264
375.173
375.059
374.921
374.758
374.57
374.357
374.118
373.853
373.562
373.246
372.903
372.536
372.143
371.727
371.288
370.827
370.345
369.841
369.319
368.781
368.228
367.659
367.074
366.478
365.87
365.255
364.638
364.017
363.388
362.753
362.115
361.48
360.845
360.208
359.582
358.96
358.331
357.709
357.11
356.512
355.909
355.329
354.779
354.223
353.668
353.157
352.669
352.166
351.677
351.244
350.821
350.379
349.961
349.594
349.23
348.83
348.451
348.103
347.766
347.424
347.085
346.756
346.429
346.1
345.769
345.436
345.101
344.764
344.425
344.083
343.738
343.384
370.055
370.181
370.31
370.441
370.575
370.713
370.853
370.997
371.144
371.294
371.448
371.605
371.765
371.929
372.096
372.267
372.441
372.618
372.798
372.981
373.167
373.356
373.546
373.739
373.933
374.128
374.324
374.521
374.717
374.913
375.108
375.301
375.491
375.678
375.862
376.04
376.213
376.38
376.539
376.69
376.832
376.964
377.085
377.194
377.289
377.37
377.436
377.485