/*--------------------------------*- C++ -*----------------------------------*\
| =========                 |                                                 |
| \\      /  F ield         | OpenFOAM: The Open Source CFD Toolbox           |
|  \\    /   O peration     | Version:  v1706                                 |
|   \\  /    A nd           | Web:      www.OpenFOAM.com                      |
|    \\/     M anipulation  |                                                 |
\*---------------------------------------------------------------------------*/
FoamFile
{
    version     2.0;
    format      ascii;
    class       volScalarField;
    location    "4e-05";
    object      Tv;
}
// * * * * * * * * * * * * * * * * * * * * * * * * * * * * * * * * * * * * * //

dimensions      [0 0 0 1 0 0 0];


internalField   nonuniform List<scalar> 
29871
(
144.4
144.4
144.4
144.4
144.4
144.4
144.4
144.4
144.4
144.4
144.4
144.4
144.4
144.4
144.4
144.4
144.4
144.4
144.4
144.4
144.4
144.4
144.4
144.4
144.4
144.4
144.4
144.4
144.4
144.4
144.4
144.4
144.4
144.4
144.4
144.4
144.4
144.4
144.4
144.4
144.4
144.4
144.4
144.4
144.4
144.4
144.4
144.4
144.4
144.4
144.4
144.4
144.4
144.4
144.4
144.4
144.4
144.4
144.4
144.4
144.4
144.4
144.4
144.4
144.4
144.4
144.4
144.4
144.4
144.4
144.4
144.4
144.4
144.4
144.4
144.4
144.4
144.4
144.4
144.4
144.4
144.4
144.4
144.4
144.4
144.4
144.4
144.4
144.4
144.4
144.4
144.4
144.4
144.4
144.4
144.4
144.4
144.4
144.4
144.4
144.4
144.4
144.4
144.4
144.4
144.4
144.4
144.4
144.4
144.4
144.4
144.4
144.4
144.4
144.4
144.4
144.4
144.4
144.4
144.4
144.4
144.4
144.4
144.4
144.4
144.4
144.4
144.4
144.4
144.4
144.4
144.4
144.4
144.4
144.4
144.4
144.4
144.4
144.4
144.4
144.4
144.4
144.4
144.4
144.4
144.4
144.4
144.4
144.4
144.4
144.4
144.4
144.4
144.4
144.4
144.4
144.4
144.4
144.4
144.4
144.4
144.4
144.4
144.4
144.4
144.4
144.4
144.4
144.4
144.4
144.4
144.4
144.4
144.4
144.4
144.4
144.4
144.4
144.4
144.4
144.401
144.401
144.401
144.401
144.401
144.401
144.401
144.401
144.401
144.401
144.401
144.4
144.4
144.4
144.4
144.4
144.4
144.4
144.4
144.4
144.4
144.4
144.4
144.4
144.4
144.4
144.4
144.4
144.4
144.4
144.4
144.4
144.4
144.4
144.4
144.4
144.4
144.4
144.4
144.4
144.4
144.4
144.4
144.4
144.4
144.4
144.4
144.4
144.4
144.4
144.4
144.4
144.4
144.4
144.4
144.4
144.4
144.4
144.4
144.4
144.4
144.4
144.4
144.4
144.4
144.4
144.4
144.4
144.4
144.4
144.4
144.4
144.4
144.4
144.4
144.4
144.401
144.401
144.401
144.401
144.401
144.401
144.401
144.401
144.401
144.401
144.401
144.401
144.401
144.401
144.401
144.401
144.401
144.401
144.402
144.402
144.402
144.402
144.402
144.402
144.402
144.402
144.402
144.402
144.402
144.402
144.402
144.402
144.402
144.402
144.402
144.402
144.402
144.402
144.402
144.402
144.402
144.402
144.402
144.402
144.402
144.402
144.402
144.402
144.402
144.402
144.402
144.402
144.402
144.401
144.401
144.401
144.401
144.401
144.401
144.401
144.4
144.4
144.4
144.4
144.4
144.4
144.4
144.4
144.4
144.4
144.4
144.4
144.4
144.4
144.4
144.4
144.4
144.4
144.4
144.4
144.4
144.4
144.4
144.4
144.4
144.4
144.4
144.4
144.4
144.4
144.4
144.4
144.401
144.401
144.401
144.401
144.401
144.401
144.401
144.401
144.401
144.401
144.401
144.401
144.402
144.402
144.402
144.402
144.402
144.402
144.402
144.403
144.403
144.403
144.403
144.403
144.404
144.404
144.404
144.404
144.404
144.405
144.405
144.405
144.405
144.406
144.406
144.406
144.406
144.406
144.407
144.407
144.407
144.407
144.407
144.407
144.407
144.407
144.407
144.408
144.408
144.408
144.408
144.408
144.407
144.407
144.407
144.407
144.407
144.407
144.407
144.407
144.407
144.406
144.406
144.406
144.406
144.406
144.405
144.405
144.405
144.405
144.404
144.404
144.404
144.404
144.4
144.4
144.4
144.4
144.4
144.4
144.4
144.4
144.4
144.4
144.4
144.4
144.4
144.4
144.4
144.4
144.4
144.4
144.4
144.4
144.4
144.401
144.401
144.401
144.401
144.401
144.401
144.401
144.401
144.401
144.401
144.401
144.402
144.402
144.402
144.402
144.402
144.402
144.403
144.403
144.403
144.403
144.404
144.404
144.404
144.405
144.405
144.406
144.406
144.407
144.407
144.408
144.408
144.409
144.409
144.41
144.411
144.411
144.412
144.413
144.414
144.414
144.415
144.416
144.417
144.417
144.418
144.419
144.42
144.42
144.421
144.421
144.422
144.422
144.423
144.423
144.424
144.424
144.424
144.425
144.425
144.425
144.425
144.425
144.425
144.425
144.424
144.424
144.424
144.423
144.423
144.423
144.422
144.422
144.421
144.42
144.42
144.419
144.418
144.418
144.417
144.416
144.415
144.415
144.414
144.413
144.412
144.4
144.4
144.4
144.4
144.4
144.4
144.4
144.4
144.4
144.4
144.401
144.401
144.401
144.401
144.401
144.401
144.401
144.401
144.401
144.401
144.401
144.402
144.402
144.402
144.402
144.402
144.403
144.403
144.403
144.403
144.404
144.404
144.405
144.405
144.406
144.406
144.407
144.407
144.408
144.409
144.409
144.41
144.411
144.412
144.413
144.414
144.415
144.417
144.418
144.419
144.421
144.423
144.424
144.426
144.428
144.43
144.432
144.434
144.436
144.438
144.441
144.443
144.445
144.448
144.45
144.452
144.455
144.457
144.459
144.461
144.463
144.465
144.467
144.469
144.47
144.471
144.473
144.474
144.475
144.475
144.476
144.476
144.476
144.476
144.476
144.475
144.475
144.474
144.473
144.472
144.471
144.469
144.468
144.466
144.464
144.462
144.46
144.458
144.456
144.454
144.451
144.449
144.447
144.445
144.442
144.44
144.438
144.4
144.4
144.401
144.401
144.401
144.401
144.401
144.401
144.401
144.401
144.401
144.401
144.402
144.402
144.402
144.402
144.402
144.402
144.403
144.403
144.403
144.404
144.404
144.404
144.405
144.405
144.406
144.406
144.407
144.407
144.408
144.409
144.41
144.411
144.412
144.413
144.414
144.415
144.417
144.418
144.42
144.422
144.424
144.426
144.428
144.431
144.433
144.436
144.439
144.442
144.446
144.45
144.454
144.458
144.462
144.467
144.472
144.477
144.482
144.488
144.494
144.5
144.506
144.512
144.519
144.526
144.532
144.539
144.546
144.553
144.559
144.566
144.572
144.578
144.583
144.589
144.593
144.598
144.602
144.606
144.609
144.611
144.614
144.615
144.616
144.617
144.617
144.616
144.615
144.613
144.611
144.608
144.605
144.601
144.597
144.593
144.588
144.583
144.577
144.572
144.566
144.56
144.553
144.547
144.541
144.534
144.528
144.522
144.515
144.509
144.401
144.402
144.402
144.402
144.402
144.402
144.402
144.403
144.403
144.403
144.404
144.404
144.404
144.405
144.405
144.406
144.406
144.407
144.407
144.408
144.409
144.41
144.411
144.412
144.413
144.414
144.415
144.417
144.418
144.42
144.422
144.424
144.426
144.429
144.431
144.434
144.437
144.441
144.444
144.448
144.453
144.458
144.463
144.468
144.474
144.481
144.487
144.495
144.503
144.511
144.52
144.53
144.54
144.551
144.562
144.574
144.587
144.6
144.614
144.628
144.643
144.659
144.675
144.691
144.708
144.725
144.743
144.76
144.778
144.795
144.812
144.829
144.846
144.861
144.876
144.891
144.904
144.916
144.927
144.937
144.945
144.953
144.958
144.963
144.966
144.968
144.968
144.967
144.965
144.961
144.955
144.949
144.941
144.932
144.921
144.91
144.898
144.885
144.871
144.856
144.841
144.825
144.809
144.793
144.776
144.759
144.743
144.726
144.709
144.693
144.404
144.404
144.405
144.405
144.406
144.406
144.407
144.407
144.408
144.409
144.41
144.41
144.411
144.413
144.414
144.415
144.416
144.418
144.42
144.421
144.423
144.425
144.428
144.43
144.433
144.436
144.44
144.443
144.447
144.452
144.456
144.461
144.467
144.473
144.48
144.487
144.495
144.503
144.512
144.522
144.533
144.545
144.557
144.571
144.585
144.601
144.618
144.636
144.655
144.676
144.697
144.72
144.745
144.771
144.798
144.826
144.857
144.888
144.921
144.955
144.99
145.027
145.064
145.102
145.141
145.181
145.222
145.262
145.303
145.343
145.383
145.422
145.46
145.497
145.532
145.565
145.596
145.624
145.65
145.674
145.694
145.712
145.726
145.737
145.746
145.752
145.753
145.751
145.746
145.739
145.728
145.713
145.696
145.677
145.654
145.628
145.601
145.572
145.541
145.508
145.474
145.438
145.401
145.363
145.325
145.286
145.247
145.208
145.169
145.13
144.41
144.411
144.412
144.413
144.414
144.416
144.417
144.419
144.42
144.422
144.424
144.426
144.429
144.432
144.434
144.438
144.441
144.445
144.449
144.453
144.458
144.463
144.469
144.475
144.482
144.489
144.498
144.506
144.516
144.526
144.538
144.55
144.563
144.578
144.593
144.61
144.629
144.649
144.67
144.693
144.718
144.745
144.774
144.805
144.839
144.874
144.912
144.953
144.996
145.042
145.091
145.142
145.196
145.252
145.312
145.374
145.438
145.505
145.575
145.647
145.721
145.797
145.875
145.954
146.034
146.115
146.197
146.279
146.36
146.441
146.52
146.598
146.674
146.746
146.816
146.881
146.943
147
147.051
147.098
147.138
147.174
147.203
147.226
147.244
147.257
147.26
147.258
147.251
147.239
147.219
147.194
147.164
147.128
147.086
147.038
146.987
146.932
146.873
146.809
146.742
146.673
146.6
146.525
146.449
146.372
146.293
146.213
146.133
146.054
144.425
144.427
144.43
144.432
144.435
144.438
144.442
144.446
144.45
144.454
144.459
144.464
144.47
144.476
144.483
144.49
144.498
144.507
144.516
144.527
144.538
144.55
144.564
144.578
144.594
144.611
144.63
144.65
144.671
144.695
144.721
144.749
144.779
144.811
144.846
144.884
144.924
144.968
145.015
145.065
145.119
145.177
145.238
145.304
145.374
145.448
145.527
145.611
145.699
145.791
145.889
145.99
146.096
146.207
146.321
146.44
146.562
146.688
146.818
146.95
147.085
147.222
147.361
147.501
147.642
147.783
147.924
148.063
148.201
148.337
148.47
148.6
148.725
148.845
148.959
149.067
149.167
149.26
149.345
149.421
149.488
149.546
149.595
149.633
149.663
149.685
149.693
149.691
149.682
149.664
149.636
149.598
149.552
149.498
149.433
149.359
149.279
149.193
149.098
148.996
148.889
148.777
148.658
148.534
148.407
148.278
148.144
148.008
147.87
147.731
144.454
144.459
144.464
144.47
144.476
144.483
144.49
144.498
144.506
144.516
144.526
144.537
144.548
144.561
144.575
144.591
144.607
144.625
144.645
144.666
144.689
144.714
144.741
144.77
144.802
144.836
144.873
144.914
144.957
145.003
145.054
145.108
145.166
145.229
145.296
145.368
145.445
145.527
145.615
145.708
145.807
145.913
146.024
146.143
146.267
146.399
146.537
146.681
146.832
146.99
147.154
147.324
147.5
147.682
147.868
148.059
148.254
148.453
148.656
148.861
149.068
149.277
149.487
149.698
149.908
150.117
150.324
150.528
150.73
150.927
151.12
151.307
151.489
151.663
151.829
151.987
152.135
152.273
152.401
152.517
152.621
152.712
152.792
152.859
152.912
152.953
152.984
152.997
152.995
152.985
152.962
152.925
152.877
152.817
152.746
152.66
152.563
152.457
152.342
152.214
152.077
151.931
151.777
151.613
151.442
151.265
151.083
150.893
150.696
150.497
150.295
144.523
144.534
144.545
144.558
144.571
144.586
144.602
144.619
144.638
144.658
144.68
144.703
144.729
144.757
144.787
144.82
144.855
144.893
144.934
144.979
145.027
145.078
145.134
145.194
145.259
145.328
145.403
145.482
145.568
145.66
145.757
145.862
145.973
146.091
146.217
146.35
146.491
146.64
146.797
146.962
147.135
147.317
147.507
147.705
147.911
148.125
148.348
148.577
148.814
149.057
149.307
149.563
149.824
150.09
150.359
150.632
150.908
151.185
151.464
151.743
152.022
152.301
152.578
152.852
153.124
153.392
153.656
153.914
154.166
154.412
154.65
154.88
155.101
155.313
155.515
155.705
155.884
156.05
156.203
156.343
156.467
156.578
156.674
156.753
156.817
156.867
156.903
156.919
156.918
156.905
156.878
156.835
156.778
156.708
156.622
156.521
156.407
156.281
156.143
155.99
155.825
155.649
155.463
155.264
155.055
154.839
154.614
154.378
154.133
153.883
153.627
153.362
153.092
144.669
144.691
144.715
144.742
144.77
144.8
144.833
144.869
144.907
144.949
144.994
145.042
145.094
145.15
145.21
145.275
145.345
145.42
145.5
145.586
145.678
145.777
145.882
145.994
146.114
146.241
146.377
146.52
146.672
146.833
147.003
147.182
147.37
147.568
147.775
147.991
148.217
148.453
148.697
148.951
149.213
149.485
149.764
150.052
150.347
150.65
150.959
151.274
151.595
151.922
152.252
152.587
152.924
153.263
153.605
153.947
154.288
154.629
154.969
155.306
155.64
155.971
156.298
156.62
156.936
157.246
157.549
157.844
158.131
158.409
158.677
158.935
159.183
159.419
159.642
159.853
160.051
160.234
160.403
160.556
160.694
160.815
160.92
161.007
161.078
161.132
161.171
161.187
161.184
161.17
161.138
161.089
161.025
160.945
160.849
160.736
160.609
160.468
160.313
160.141
159.957
159.761
159.551
159.327
159.092
158.848
158.592
158.324
158.045
157.759
157.464
157.157
156.843
144.88
144.918
144.959
145.004
145.052
145.104
145.16
145.219
145.283
145.352
145.426
145.506
145.591
145.682
145.779
145.883
145.993
146.111
146.237
146.371
146.513
146.663
146.822
146.991
147.169
147.356
147.553
147.76
147.978
148.205
148.443
148.691
148.949
149.217
149.495
149.783
150.081
150.387
150.703
151.028
151.361
151.701
152.049
152.404
152.766
153.133
153.506
153.883
154.265
154.65
155.039
155.429
155.822
156.216
156.61
157.003
157.396
157.787
158.175
158.56
158.941
159.317
159.688
160.053
160.412
160.764
161.108
161.444
161.771
162.088
162.396
162.693
162.978
163.252
163.514
163.762
163.998
164.219
164.426
164.618
164.794
164.954
165.097
165.223
165.331
165.421
165.493
165.549
165.587
165.599
165.595
165.576
165.539
165.485
165.414
165.326
165.22
165.097
164.96
164.807
164.638
164.453
164.254
164.042
163.815
163.574
163.321
163.056
162.779
162.488
162.186
161.875
161.553
161.219
160.875
145.354
145.426
145.504
145.587
145.676
145.771
145.872
145.98
146.095
146.217
146.347
146.485
146.631
146.786
146.95
147.123
147.305
147.498
147.7
147.912
148.135
148.368
148.611
148.865
149.13
149.405
149.691
149.987
150.293
150.61
150.936
151.272
151.617
151.971
152.334
152.705
153.083
153.47
153.863
154.262
154.667
155.078
155.494
155.914
156.338
156.765
157.195
157.627
158.06
158.495
158.93
159.365
159.8
160.233
160.664
161.093
161.519
161.941
162.358
162.77
163.177
163.577
163.97
164.355
164.733
165.102
165.461
165.811
166.151
166.48
166.798
167.104
167.397
167.678
167.945
168.199
168.438
168.663
168.871
169.065
169.242
169.402
169.545
169.67
169.777
169.866
169.937
169.99
170.024
170.03
170.023
169.999
169.956
169.895
169.817
169.721
169.605
169.474
169.327
169.163
168.982
168.786
168.575
168.35
168.11
167.855
167.587
167.308
167.014
166.707
166.389
166.06
165.719
165.364
165
164.628
145.497
145.578
145.664
145.756
145.854
145.958
146.069
146.187
146.313
146.446
146.587
146.736
146.894
147.06
147.236
147.421
147.616
147.82
148.035
148.259
148.495
148.74
148.996
149.263
149.54
149.828
150.126
150.435
150.754
151.084
151.423
151.772
152.131
152.499
152.876
153.262
153.656
154.058
154.468
154.884
155.308
155.738
156.173
156.614
157.06
157.51
157.965
158.423
158.883
159.347
159.812
160.278
160.746
161.214
161.682
162.15
162.617
163.082
163.545
164.006
164.464
164.918
165.368
165.813
166.253
166.687
167.115
167.536
167.949
168.353
168.749
169.136
169.513
169.879
170.235
170.58
170.912
171.233
171.541
171.835
172.116
172.383
172.635
172.873
173.095
173.3
173.49
173.663
173.819
173.958
174.078
174.18
174.264
174.329
174.377
174.403
174.403
174.39
174.359
174.309
174.241
174.155
174.049
173.925
173.785
173.629
173.455
173.263
173.056
172.835
172.598
172.346
172.079
171.8
171.508
171.201
170.881
170.55
170.207
169.851
169.482
169.102
168.714
146.399
146.535
146.678
146.829
146.989
147.157
147.334
147.52
147.716
147.921
148.136
148.361
148.596
148.841
149.097
149.363
149.639
149.926
150.223
150.53
150.848
151.176
151.514
151.862
152.219
152.586
152.963
153.348
153.742
154.145
154.556
154.975
155.401
155.835
156.276
156.723
157.176
157.635
158.099
158.568
159.042
159.519
160.001
160.486
160.973
161.463
161.955
162.448
162.942
163.437
163.932
164.427
164.921
165.414
165.905
166.394
166.88
167.364
167.843
168.32
168.791
169.258
169.719
170.175
170.624
171.066
171.501
171.928
172.346
172.754
173.154
173.543
173.921
174.287
174.643
174.987
175.317
175.635
175.939
176.229
176.506
176.767
177.013
177.244
177.459
177.657
177.839
178.004
178.152
178.282
178.394
178.488
178.563
178.62
178.659
178.672
178.668
178.647
178.608
178.55
178.473
178.377
178.262
178.13
177.98
177.814
177.629
177.428
177.211
176.979
176.732
176.469
176.192
175.902
175.598
175.28
174.949
174.606
174.251
173.883
173.502
173.11
172.708
147.8
148.005
148.219
148.443
148.677
148.921
149.174
149.438
149.711
149.995
150.289
150.593
150.907
151.231
151.564
151.908
152.261
152.623
152.995
153.376
153.766
154.164
154.571
154.986
155.409
155.839
156.277
156.722
157.174
157.633
158.097
158.568
159.044
159.526
160.012
160.503
160.998
161.497
161.999
162.505
163.013
163.524
164.037
164.551
165.066
165.583
166.099
166.616
167.132
167.648
168.162
168.674
169.185
169.693
170.197
170.699
171.197
171.69
172.179
172.663
173.141
173.613
174.079
174.538
174.99
175.433
175.869
176.296
176.713
177.12
177.516
177.902
178.276
178.638
178.988
179.326
179.649
179.96
180.256
180.537
180.804
181.056
181.292
181.512
181.717
181.904
182.074
182.228
182.364
182.482
182.583
182.666
182.73
182.776
182.802
182.803
182.79
182.76
182.711
182.643
182.556
182.451
182.326
182.184
182.024
181.848
181.654
181.443
181.216
180.975
180.717
180.444
180.157
179.856
179.542
179.213
178.872
178.519
178.153
177.774
177.382
176.98
176.567
149.762
150.042
150.332
150.631
150.94
151.258
151.586
151.924
152.271
152.627
152.992
153.365
153.748
154.139
154.539
154.947
155.363
155.786
156.217
156.656
157.101
157.553
158.012
158.478
158.949
159.427
159.91
160.399
160.892
161.391
161.894
162.401
162.912
163.427
163.946
164.467
164.992
165.518
166.047
166.578
167.11
167.643
168.177
168.711
169.246
169.779
170.312
170.844
171.374
171.902
172.428
172.951
173.471
173.987
174.499
175.007
175.509
176.007
176.499
176.985
177.464
177.936
178.401
178.858
179.307
179.748
180.179
180.6
181.011
181.412
181.801
182.179
182.544
182.897
183.238
183.564
183.877
184.176
184.46
184.729
184.983
185.222
185.444
185.65
185.84
186.013
186.169
186.309
186.43
186.534
186.62
186.689
186.739
186.771
186.779
186.772
186.749
186.707
186.646
186.566
186.468
186.352
186.217
186.065
185.896
185.709
185.505
185.284
185.048
184.797
184.529
184.246
183.95
183.639
183.315
182.977
182.626
182.262
181.886
181.497
181.096
180.683
180.26
179.824
179.376
152.255
152.604
152.961
153.327
153.702
154.085
154.476
154.875
155.282
155.696
156.118
156.548
156.984
157.428
157.878
158.334
158.797
159.267
159.742
160.223
160.709
161.201
161.698
162.2
162.706
163.217
163.733
164.252
164.776
165.302
165.833
166.366
166.902
167.441
167.982
168.525
169.07
169.616
170.163
170.711
171.259
171.808
172.356
172.903
173.449
173.994
174.537
175.078
175.616
176.152
176.684
177.212
177.736
178.255
178.769
179.278
179.781
180.278
180.768
181.251
181.727
182.195
182.654
183.105
183.547
183.979
184.402
184.814
185.215
185.604
185.982
186.348
186.701
187.041
187.367
187.679
187.977
188.261
188.529
188.782
189.02
189.242
189.447
189.636
189.81
189.965
190.104
190.227
190.331
190.418
190.488
190.54
190.574
190.587
190.582
190.563
190.526
190.47
190.396
190.304
190.195
190.067
189.921
189.758
189.578
189.381
189.167
188.937
188.692
188.431
188.154
187.861
187.555
187.235
186.902
186.554
186.193
185.82
185.435
185.036
184.625
184.203
183.769
183.324
182.866
155.175
155.58
155.992
156.411
156.838
157.271
157.711
158.157
158.61
159.069
159.533
160.004
160.481
160.962
161.45
161.942
162.44
162.942
163.449
163.961
164.477
164.998
165.522
166.05
166.582
167.118
167.656
168.198
168.743
169.29
169.84
170.392
170.946
171.501
172.058
172.616
173.175
173.735
174.294
174.854
175.413
175.971
176.528
177.084
177.637
178.189
178.737
179.283
179.824
180.362
180.896
181.425
181.949
182.467
182.979
183.485
183.984
184.476
184.961
185.437
185.905
186.365
186.815
187.256
187.686
188.107
188.516
188.915
189.302
189.677
190.04
190.389
190.726
191.049
191.358
191.652
191.932
192.197
192.446
192.68
192.899
193.101
193.287
193.456
193.61
193.746
193.865
193.968
194.054
194.122
194.173
194.207
194.221
194.217
194.199
194.164
194.111
194.041
193.953
193.848
193.725
193.585
193.428
193.254
193.063
192.856
192.632
192.392
192.137
191.866
191.581
191.279
190.964
190.634
190.291
189.935
189.565
189.182
188.787
188.38
187.96
187.528
187.085
186.63
186.163
157.955
158.397
158.845
159.299
159.758
160.223
160.694
161.17
161.652
162.138
162.63
163.126
163.627
164.133
164.643
165.158
165.677
166.2
166.726
167.257
167.792
168.329
168.871
169.415
169.963
170.513
171.066
171.622
172.18
172.74
173.303
173.866
174.432
174.998
175.566
176.134
176.702
177.271
177.839
178.407
178.974
179.54
180.104
180.666
181.225
181.782
182.336
182.886
183.432
183.974
184.511
185.042
185.568
186.088
186.602
187.108
187.607
188.099
188.582
189.057
189.524
189.98
190.428
190.865
191.292
191.708
192.113
192.506
192.888
193.257
193.614
193.957
194.288
194.604
194.907
195.195
195.469
195.727
195.971
196.199
196.411
196.607
196.787
196.951
197.099
197.23
197.345
197.442
197.524
197.589
197.636
197.667
197.68
197.675
197.656
197.621
197.569
197.499
197.413
197.31
197.191
197.055
196.902
196.733
196.547
196.346
196.128
195.894
195.644
195.38
195.1
194.805
194.495
194.17
193.831
193.48
193.115
192.736
192.344
191.939
191.523
191.094
190.653
190.2
189.736
189.26
161.339
161.814
162.293
162.778
163.268
163.762
164.26
164.763
165.271
165.783
166.298
166.818
167.342
167.87
168.401
168.936
169.474
170.016
170.561
171.109
171.661
172.215
172.772
173.331
173.893
174.457
175.024
175.592
176.162
176.733
177.306
177.88
178.455
179.03
179.605
180.181
180.756
181.331
181.905
182.477
183.048
183.616
184.183
184.746
185.306
185.863
186.416
186.964
187.508
188.046
188.578
189.104
189.624
190.136
190.642
191.139
191.628
192.109
192.58
193.042
193.495
193.937
194.369
194.789
195.199
195.597
195.983
196.357
196.718
197.067
197.402
197.724
198.032
198.326
198.605
198.87
199.12
199.354
199.573
199.777
199.965
200.137
200.293
200.432
200.556
200.664
200.755
200.83
200.89
200.932
200.957
200.965
200.958
200.937
200.899
200.845
200.774
200.688
200.586
200.467
200.333
200.183
200.017
199.836
199.638
199.425
199.197
198.953
198.693
198.419
198.129
197.826
197.507
197.173
196.825
196.465
196.091
195.704
195.302
194.889
194.463
194.026
193.576
193.114
192.641
192.156
191.66
191.154
164.845
165.344
165.848
166.356
166.868
167.384
167.904
168.427
168.954
169.485
170.019
170.557
171.098
171.642
172.189
172.74
173.293
173.849
174.408
174.969
175.533
176.1
176.668
177.239
177.812
178.386
178.962
179.539
180.118
180.697
181.277
181.858
182.439
183.02
183.6
184.18
184.759
185.336
185.912
186.486
187.057
187.626
188.192
188.754
189.311
189.865
190.413
190.957
191.494
192.025
192.55
193.068
193.578
194.08
194.574
195.059
195.535
196.001
196.457
196.903
197.338
197.763
198.176
198.577
198.966
199.343
199.707
200.059
200.397
200.722
201.033
201.33
201.613
201.881
202.135
202.373
202.597
202.805
202.998
203.175
203.337
203.483
203.613
203.727
203.825
203.908
203.975
204.026
204.061
204.081
204.081
204.07
204.044
204.001
203.943
203.871
203.782
203.678
203.56
203.426
203.277
203.112
202.933
202.739
202.529
202.305
202.065
201.811
201.541
201.257
200.958
200.645
200.318
199.975
199.618
199.249
198.867
198.471
198.061
197.638
197.204
196.757
196.299
195.829
195.346
194.853
194.348
193.833
168.416
168.934
169.457
169.982
170.512
171.044
171.58
172.119
172.662
173.207
173.755
174.307
174.861
175.418
175.977
176.54
177.104
177.672
178.241
178.813
179.386
179.962
180.539
181.118
181.698
182.28
182.862
183.446
184.03
184.614
185.199
185.783
186.368
186.951
187.534
188.115
188.695
189.272
189.848
190.42
190.99
191.555
192.117
192.675
193.227
193.774
194.316
194.851
195.38
195.901
196.415
196.921
197.418
197.907
198.386
198.856
199.315
199.764
200.203
200.629
201.045
201.448
201.84
202.219
202.585
202.938
203.277
203.604
203.916
204.215
204.499
204.769
205.024
205.265
205.49
205.701
205.896
206.076
206.241
206.39
206.524
206.643
206.746
206.833
206.905
206.962
207.003
207.029
207.039
207.034
207.016
206.982
206.935
206.872
206.794
206.702
206.596
206.475
206.34
206.19
206.026
205.847
205.655
205.447
205.226
204.99
204.739
204.474
204.194
203.9
203.592
203.27
202.933
202.581
202.216
201.838
201.447
201.043
200.624
200.192
199.749
199.295
198.828
198.349
197.859
197.357
196.845
196.322
172.014
172.547
173.084
173.624
174.166
174.712
175.261
175.812
176.366
176.923
177.482
178.044
178.609
179.176
179.745
180.316
180.889
181.465
182.042
182.621
183.201
183.784
184.367
184.951
185.537
186.123
186.71
187.297
187.884
188.471
189.058
189.644
190.229
190.813
191.395
191.975
192.553
193.128
193.7
194.268
194.833
195.393
195.949
196.499
197.043
197.581
198.113
198.637
199.154
199.663
200.163
200.655
201.137
201.609
202.071
202.522
202.962
203.391
203.808
204.213
204.606
204.986
205.353
205.707
206.047
206.374
206.687
206.985
207.27
207.54
207.795
208.036
208.262
208.473
208.669
208.85
209.016
209.166
209.302
209.422
209.527
209.617
209.692
209.751
209.797
209.826
209.842
209.841
209.829
209.802
209.761
209.705
209.637
209.553
209.456
209.346
209.222
209.083
208.932
208.767
208.588
208.395
208.189
207.969
207.735
207.487
207.225
206.95
206.66
206.356
206.038
205.706
205.36
204.999
204.626
204.239
203.84
203.426
202.999
202.56
202.109
201.646
201.171
200.685
200.187
199.678
199.158
198.628
198.089
176.158
176.706
177.257
177.81
178.366
178.924
179.485
180.049
180.615
181.183
181.753
182.325
182.899
183.475
184.053
184.633
185.214
185.797
186.381
186.967
187.553
188.14
188.728
189.316
189.905
190.493
191.082
191.67
192.257
192.843
193.429
194.012
194.594
195.173
195.749
196.323
196.893
197.459
198.021
198.578
199.13
199.677
200.217
200.75
201.277
201.796
202.307
202.809
203.303
203.786
204.261
204.724
205.177
205.619
206.049
206.468
206.874
207.268
207.648
208.016
208.37
208.71
209.037
209.349
209.648
209.931
210.201
210.455
210.695
210.92
211.13
211.325
211.505
211.67
211.82
211.955
212.075
212.18
212.271
212.346
212.407
212.454
212.485
212.504
212.505
212.496
212.473
212.436
212.386
212.322
212.245
212.156
212.053
211.937
211.808
211.667
211.512
211.344
211.164
210.971
210.764
210.545
210.312
210.066
209.806
209.534
209.247
208.947
208.633
208.305
207.964
207.609
207.239
206.857
206.462
206.054
205.633
205.198
204.751
204.292
203.822
203.34
202.847
202.343
201.828
201.302
200.767
200.222
179.749
180.306
180.865
181.427
181.991
182.557
183.126
183.696
184.269
184.843
185.419
185.997
186.577
187.158
187.741
188.325
188.91
189.496
190.083
190.671
191.26
191.848
192.438
193.027
193.615
194.204
194.791
195.378
195.963
196.547
197.129
197.708
198.285
198.859
199.43
199.997
200.56
201.118
201.67
202.218
202.759
203.294
203.822
204.342
204.854
205.358
205.853
206.338
206.813
207.278
207.733
208.176
208.607
209.026
209.433
209.827
210.208
210.576
210.93
211.27
211.596
211.908
212.205
212.488
212.756
213.009
213.247
213.47
213.679
213.872
214.05
214.213
214.361
214.494
214.613
214.716
214.805
214.88
214.94
214.986
215.018
215.037
215.039
215.031
215.01
214.975
214.927
214.867
214.794
214.708
214.611
214.501
214.379
214.244
214.099
213.94
213.77
213.587
213.392
213.185
212.965
212.732
212.488
212.229
211.958
211.674
211.377
211.067
210.743
210.406
210.055
209.691
209.313
208.923
208.52
208.104
207.675
207.233
206.779
206.313
205.837
205.349
204.851
204.341
203.822
203.292
202.753
202.206
183.871
184.437
185.005
185.575
186.148
186.722
187.297
187.875
188.454
189.034
189.616
190.199
190.784
191.369
191.955
192.543
193.13
193.719
194.307
194.896
195.484
196.073
196.66
197.247
197.833
198.418
199.001
199.582
200.161
200.738
201.311
201.882
202.448
203.01
203.568
204.121
204.669
205.21
205.745
206.273
206.794
207.307
207.811
208.307
208.793
209.269
209.735
210.19
210.634
211.066
211.486
211.893
212.288
212.669
213.037
213.391
213.73
214.056
214.367
214.663
214.944
215.211
215.462
215.698
215.919
216.125
216.316
216.492
216.652
216.798
216.928
217.044
217.145
217.231
217.304
217.362
217.406
217.435
217.453
217.454
217.446
217.424
217.389
217.342
217.283
217.211
217.128
217.034
216.928
216.81
216.681
216.541
216.39
216.227
216.053
215.867
215.67
215.461
215.24
215.007
214.763
214.506
214.236
213.954
213.66
213.352
213.031
212.698
212.352
211.992
211.619
211.234
210.836
210.425
210.002
209.566
209.118
208.658
208.188
207.707
207.215
206.712
206.199
205.677
205.146
204.607
204.059
187.963
188.536
189.111
189.687
190.265
190.844
191.425
192.007
192.59
193.174
193.759
194.344
194.931
195.518
196.105
196.692
197.28
197.867
198.454
199.041
199.626
200.211
200.794
201.376
201.955
202.533
203.108
203.68
204.249
204.814
205.376
205.933
206.485
207.031
207.572
208.107
208.635
209.155
209.668
210.173
210.668
211.155
211.631
212.097
212.553
212.997
213.429
213.85
214.257
214.652
215.033
215.401
215.755
216.094
216.419
216.729
217.024
217.304
217.569
217.818
218.053
218.272
218.475
218.663
218.836
218.994
219.136
219.263
219.376
219.474
219.557
219.626
219.681
219.722
219.749
219.763
219.763
219.752
219.728
219.692
219.643
219.584
219.512
219.43
219.336
219.232
219.116
218.991
218.854
218.708
218.55
218.383
218.204
218.015
217.815
217.604
217.382
217.149
216.904
216.647
216.379
216.099
215.806
215.501
215.184
214.854
214.512
214.157
213.789
213.408
213.015
212.611
212.194
211.764
211.323
210.87
210.407
209.932
209.448
208.954
208.45
207.936
207.414
206.884
206.346
205.802
205.251
204.694
191.436
192.012
192.59
193.169
193.749
194.33
194.912
195.495
196.079
196.663
197.248
197.834
198.42
199.005
199.591
200.176
200.762
201.346
201.929
202.512
203.093
203.672
204.25
204.825
205.398
205.968
206.535
207.099
207.658
208.213
208.764
209.309
209.848
210.382
210.908
211.428
211.94
212.444
212.939
213.425
213.902
214.368
214.823
215.268
215.7
216.12
216.528
216.923
217.304
217.672
218.025
218.364
218.688
218.998
219.292
219.571
219.834
220.082
220.315
220.532
220.733
220.918
221.088
221.243
221.382
221.507
221.616
221.71
221.79
221.855
221.906
221.943
221.967
221.977
221.974
221.96
221.933
221.894
221.843
221.781
221.708
221.624
221.53
221.425
221.311
221.186
221.052
220.908
220.754
220.591
220.418
220.235
220.042
219.839
219.626
219.402
219.168
218.923
218.666
218.399
218.12
217.829
217.527
217.213
216.887
216.548
216.197
215.835
215.46
215.073
214.674
214.263
213.841