/*--------------------------------*- C++ -*----------------------------------*\
| =========                 |                                                 |
| \\      /  F ield         | OpenFOAM: The Open Source CFD Toolbox           |
|  \\    /   O peration     | Version:  v1706                                 |
|   \\  /    A nd           | Web:      www.OpenFOAM.com                      |
|    \\/     M anipulation  |                                                 |
\*---------------------------------------------------------------------------*/
FoamFile
{
    version     2.0;
    format      ascii;
    class       volScalarField;
    location    "4e-05";
    object      wallHeatFlux;
}
// * * * * * * * * * * * * * * * * * * * * * * * * * * * * * * * * * * * * * //

dimensions      [1 0 -3 0 0 0 0];


internalField   uniform 0;

boundaryField
{
    cone
    {
        type            calculated;
        value           nonuniform List<scalar> 
181
(
1001.96
985.736
970.922
957.465
945.293
934.303
924.335
915.207
906.823
899.076
891.731
884.564
877.37
869.957
862.144
853.773
844.715
834.877
824.214
812.727
800.475
787.572
774.194
760.572
746.984
733.752
721.219
709.746
699.718
691.525
685.59
682.134
681.319
683.761
689.779
699.316
712.404
728.987
749.035
772.548
799.36
829.22
861.832
896.884
934.074
973.139
1013.89
1056.23
1100.2
1146.01
1194.03
1244.81
1299.11
1357.84
1422.06
1492.95
1571.72
1659.55
1757.57
1866.67
1987.53
2120.43
2265.15
2420.82
2585.73
2757.16
2932.26
3106.57
3272.84
3423.87
3551.52
3646.98
3701.82
3708.61
3665.86
3565.05
3403.76
3189.13
2931.29
2642.39
2335.43
2022.81
1714.65
1418.68
1140.27
882.621
647.193
434.245
243.308
73.2967
-77.2835
-210.09
-326.844
-429.252
-518.965
-597.55
-666.47
-727.076
-780.604
-828.173
-870.788
-909.34
-944.611
-977.281
-1007.93
-1037.05
-1065.04
-1092.23
-1118.87
-1145.14
-1171.17
-1197.05
-1222.81
-1248.45
-1273.98
-1299.35
-1324.54
-1349.48
-1374.13
-1398.45
-1422.37
-1445.86
-1468.87
-1491.38
-1513.34
-1534.73
-1555.52
-1575.69
-1595.22
-1614.08
-1632.27
-1649.75
-1666.51
-1682.53
-1697.79
-1712.28
-1725.97
-1738.84
-1750.88
-1762.05
-1772.34
-1781.71
-1790.15
-1797.62
-1804.14
-1809.65
-1814.11
-1817.47
-1819.73
-1820.87
-1820.84
-1819.61
-1817.15
-1813.43
-1808.4
-1802.02
-1794.27
-1785.1
-1774.46
-1762.31
-1748.61
-1733.35
-1716.46
-1697.85
-1677.5
-1655.35
-1631.35
-1605.45
-1577.59
-1547.72
-1515.78
-1481.74
-1445.54
-1407.17
-1366.6
-1323.83
-1278.89
-1231.82
-1182.72
-1131.68
-1078.88
)
;
    }
    inlet
    {
        type            calculated;
        value           uniform 0;
    }
    rWedge
    {
        type            wedge;
    }
    lWedge
    {
        type            wedge;
    }
    outlet
    {
        type            calculated;
        value           nonuniform 0();
    }
    procBoundary1to0
    {
        type            processor;
        value           uniform 0;
    }
    procBoundary1to2
    {
        type            processor;
        value           uniform 0;
    }
}


// ************************************************************************* //
