/*--------------------------------*- C++ -*----------------------------------*\
| =========                 |                                                 |
| \\      /  F ield         | OpenFOAM: The Open Source CFD Toolbox           |
|  \\    /   O peration     | Version:  v1706                                 |
|   \\  /    A nd           | Web:      www.OpenFOAM.com                      |
|    \\/     M anipulation  |                                                 |
\*---------------------------------------------------------------------------*/
FoamFile
{
    version     2.0;
    format      ascii;
    class       volScalarField;
    location    "1.7e-05";
    object      alpha;
}
// * * * * * * * * * * * * * * * * * * * * * * * * * * * * * * * * * * * * * //

dimensions      [1 -1 -1 0 0 0 0];


internalField   nonuniform List<scalar> 
30038
(
1.40478e-05
1.40478e-05
1.40478e-05
1.40478e-05
1.40478e-05
1.40478e-05
1.40478e-05
1.40478e-05
1.40478e-05
1.40478e-05
1.40478e-05
1.40478e-05
1.40478e-05
1.40478e-05
1.40478e-05
1.40478e-05
1.40478e-05
1.40478e-05
1.40478e-05
1.40478e-05
1.40478e-05
1.40478e-05
1.40478e-05
1.40478e-05
1.40478e-05
1.40478e-05
1.40478e-05
1.40478e-05
1.40478e-05
1.40478e-05
1.40478e-05
1.40478e-05
1.40478e-05
1.40478e-05
1.40478e-05
1.40478e-05
1.40478e-05
1.40478e-05
1.40478e-05
1.40478e-05
1.40478e-05
1.40478e-05
1.40478e-05
1.40478e-05
1.40478e-05
1.40478e-05
1.40478e-05
1.40478e-05
1.40478e-05
1.40478e-05
1.40478e-05
1.40478e-05
1.40478e-05
1.40478e-05
1.40478e-05
1.40478e-05
1.40478e-05
1.40478e-05
1.40478e-05
1.40478e-05
1.40478e-05
1.40478e-05
1.40478e-05
1.40478e-05
1.40478e-05
1.40478e-05
1.40478e-05
1.40478e-05
1.40478e-05
1.40478e-05
1.40478e-05
1.40478e-05
1.40478e-05
1.40478e-05
1.40478e-05
1.40478e-05
1.40478e-05
1.40478e-05
1.40478e-05
1.40478e-05
1.40478e-05
1.40478e-05
1.40478e-05
1.40478e-05
1.40478e-05
1.40478e-05
1.40478e-05
1.40478e-05
1.40478e-05
1.40478e-05
1.40478e-05
1.40478e-05
1.40478e-05
1.40478e-05
1.40478e-05
1.40478e-05
1.40478e-05
1.40478e-05
1.40478e-05
1.40478e-05
1.40478e-05
1.40478e-05
1.40478e-05
1.40478e-05
1.40478e-05
1.40478e-05
1.40478e-05
1.40478e-05
1.40478e-05
1.40478e-05
1.40478e-05
1.40478e-05
1.40478e-05
1.40478e-05
1.40478e-05
1.40478e-05
1.40478e-05
1.40478e-05
1.40478e-05
1.40478e-05
1.40478e-05
1.40478e-05
1.40478e-05
1.40478e-05
1.40478e-05
1.40478e-05
1.40478e-05
1.40478e-05
1.40478e-05
1.40478e-05
1.40478e-05
1.40478e-05
1.40478e-05
1.40478e-05
1.40478e-05
1.40478e-05
1.40478e-05
1.40478e-05
1.40478e-05
1.40478e-05
1.40478e-05
1.40478e-05
1.40478e-05
1.40478e-05
1.40478e-05
1.40478e-05
1.40478e-05
1.40478e-05
1.40478e-05
1.40478e-05
1.40478e-05
1.40478e-05
1.40478e-05
1.40478e-05
1.40478e-05
1.40478e-05
1.40478e-05
1.40478e-05
1.40478e-05
1.40478e-05
1.40478e-05
1.40478e-05
1.40478e-05
1.40478e-05
1.40478e-05
1.40478e-05
1.40478e-05
1.40478e-05
1.40478e-05
1.40478e-05
1.40478e-05
1.40478e-05
1.40478e-05
1.40478e-05
1.40478e-05
1.40478e-05
1.40478e-05
1.40478e-05
1.40478e-05
1.40478e-05
1.40478e-05
1.40478e-05
1.40478e-05
1.40478e-05
1.40478e-05
1.40478e-05
1.40478e-05
1.40478e-05
1.40478e-05
1.40478e-05
1.40478e-05
1.40478e-05
1.40478e-05
1.40478e-05
1.40478e-05
1.40478e-05
1.40478e-05
1.40478e-05
1.40478e-05
1.40478e-05
1.40478e-05
1.40478e-05
1.40478e-05
1.40478e-05
1.40478e-05
1.40478e-05
1.40478e-05
1.40478e-05
1.40478e-05
1.40478e-05
1.40478e-05
1.40478e-05
1.40478e-05
1.40478e-05
1.40478e-05
1.40478e-05
1.40478e-05
1.40478e-05
1.40478e-05
1.40478e-05
1.40478e-05
1.40478e-05
1.40478e-05
1.40478e-05
1.40478e-05
1.40478e-05
1.40478e-05
1.40478e-05
1.40478e-05
1.40478e-05
1.40478e-05
1.40478e-05
1.40478e-05
1.40478e-05
1.40478e-05
1.40478e-05
1.40478e-05
1.40478e-05
1.40478e-05
1.40478e-05
1.40478e-05
1.40478e-05
1.40478e-05
1.40478e-05
1.40478e-05
1.40478e-05
1.40478e-05
1.40478e-05
1.40478e-05
1.40478e-05
1.40478e-05
1.40478e-05
1.40478e-05
1.40478e-05
1.40478e-05
1.40478e-05
1.40478e-05
1.40478e-05
1.40478e-05
1.40478e-05
1.40478e-05
1.40478e-05
1.40478e-05
1.40478e-05
1.40478e-05
1.40478e-05
1.40478e-05
1.40478e-05
1.40478e-05
1.40478e-05
1.40478e-05
1.40478e-05
1.40478e-05
1.40478e-05
1.40478e-05
1.40478e-05
1.40478e-05
1.40478e-05
1.40478e-05
1.40478e-05
1.40478e-05
1.40478e-05
1.40478e-05
1.40478e-05
1.40478e-05
1.40478e-05
1.40478e-05
1.40478e-05
1.40478e-05
1.40478e-05
1.40478e-05
1.40478e-05
1.40478e-05
1.40478e-05
1.40478e-05
1.40478e-05
1.40478e-05
1.40478e-05
1.40478e-05
1.40478e-05
1.40478e-05
1.40478e-05
1.40478e-05
1.40478e-05
1.40478e-05
1.40478e-05
1.40478e-05
1.40478e-05
1.40478e-05
1.40478e-05
1.40478e-05
1.40478e-05
1.40478e-05
1.40478e-05
1.40478e-05
1.40478e-05
1.40478e-05
1.40478e-05
1.40478e-05
1.40478e-05
1.40478e-05
1.40478e-05
1.40478e-05
1.40478e-05
1.40478e-05
1.40478e-05
1.40478e-05
1.40478e-05
1.40478e-05
1.40478e-05
1.40478e-05
1.40478e-05
1.40478e-05
1.40478e-05
1.40478e-05
1.40478e-05
1.40478e-05
1.40478e-05
1.40478e-05
1.40478e-05
1.40478e-05
1.40478e-05
1.40478e-05
1.40478e-05
1.40478e-05
1.40478e-05
1.40478e-05
1.40478e-05
1.40478e-05
1.40478e-05
1.40478e-05
1.40478e-05
1.40478e-05
1.40478e-05
1.40478e-05
1.40478e-05
1.40478e-05
1.40478e-05
1.40478e-05
1.40478e-05
1.40478e-05
1.40478e-05
1.40478e-05
1.40478e-05
1.40478e-05
1.40478e-05
1.40478e-05
1.40478e-05
1.40478e-05
1.40478e-05
1.40478e-05
1.40478e-05
1.40478e-05
1.40478e-05
1.40478e-05
1.40478e-05
1.40478e-05
1.40478e-05
1.40478e-05
1.40478e-05
1.40478e-05
1.40478e-05
1.40478e-05
1.40478e-05
1.40478e-05
1.40478e-05
1.40478e-05
1.40478e-05
1.40478e-05
1.40478e-05
1.40478e-05
1.40478e-05
1.40478e-05
1.40478e-05
1.40478e-05
1.40478e-05
1.40478e-05
1.40478e-05
1.40478e-05
1.40478e-05
1.40478e-05
1.40478e-05
1.40478e-05
1.40478e-05
1.40478e-05
1.40478e-05
1.40478e-05
1.40478e-05
1.40478e-05
1.40478e-05
1.40478e-05
1.40478e-05
1.40478e-05
1.40478e-05
1.40478e-05
1.40478e-05
1.40478e-05
1.40478e-05
1.40478e-05
1.40478e-05
1.40478e-05
1.40478e-05
1.40478e-05
1.40478e-05
1.40478e-05
1.40478e-05
1.40478e-05
1.40478e-05
1.40478e-05
1.40478e-05
1.40478e-05
1.40478e-05
1.40478e-05
1.40478e-05
1.40478e-05
1.40478e-05
1.40478e-05
1.40478e-05
1.40478e-05
1.40478e-05
1.40478e-05
1.40478e-05
1.40478e-05
1.40478e-05
1.40478e-05
1.40478e-05
1.40478e-05
1.40478e-05
1.40478e-05
1.40478e-05
1.40478e-05
1.40478e-05
1.40478e-05
1.40478e-05
1.40478e-05
1.40478e-05
1.40478e-05
1.40478e-05
1.40478e-05
1.40478e-05
1.40478e-05
1.40478e-05
1.40478e-05
1.40478e-05
1.40478e-05
1.40478e-05
1.40478e-05
1.40478e-05
1.40478e-05
1.40478e-05
1.40478e-05
1.40478e-05
1.40478e-05
1.40478e-05
1.40478e-05
1.40478e-05
1.40478e-05
1.40478e-05
1.40478e-05
1.40478e-05
1.40478e-05
1.40478e-05
1.40478e-05
1.40478e-05
1.40478e-05
1.40478e-05
1.40478e-05
1.40478e-05
1.40478e-05
1.40478e-05
1.40478e-05
1.40478e-05
1.40478e-05
1.40478e-05
1.40478e-05
1.40478e-05
1.40478e-05
1.40478e-05
1.40478e-05
1.40478e-05
1.40478e-05
1.40478e-05
1.40478e-05
1.40478e-05
1.40478e-05
1.40478e-05
1.40478e-05
1.40478e-05
1.40478e-05
1.40478e-05
1.40478e-05
1.40478e-05
1.40478e-05
1.40478e-05
1.40478e-05
1.40478e-05
1.40478e-05
1.40478e-05
1.40478e-05
1.40478e-05
1.40478e-05
1.40478e-05
1.40478e-05
1.40478e-05
1.40478e-05
1.40478e-05
1.40478e-05
1.40478e-05
1.40478e-05
1.40478e-05
1.40478e-05
1.40478e-05
1.40478e-05
1.40478e-05
1.40478e-05
1.40478e-05
1.40478e-05
1.40478e-05
1.40478e-05
1.40478e-05
1.40478e-05
1.40478e-05
1.40478e-05
1.40478e-05
1.40478e-05
1.40478e-05
1.40478e-05
1.40478e-05
1.40478e-05
1.40478e-05
1.40478e-05
1.40478e-05
1.40478e-05
1.40478e-05
1.40478e-05
1.40478e-05
1.40478e-05
1.40478e-05
1.40478e-05
1.40478e-05
1.40478e-05
1.40478e-05
1.40478e-05
1.40478e-05
1.40478e-05
1.40478e-05
1.40478e-05
1.40478e-05
1.40478e-05
1.40478e-05
1.40478e-05
1.40478e-05
1.40478e-05
1.40478e-05
1.40478e-05
1.40478e-05
1.40479e-05
1.40479e-05
1.40479e-05
1.40479e-05
1.4048e-05
1.40478e-05
1.40478e-05
1.40478e-05
1.40478e-05
1.40478e-05
1.40478e-05
1.40478e-05
1.40478e-05
1.40478e-05
1.40478e-05
1.40478e-05
1.40478e-05
1.40478e-05
1.40478e-05
1.40478e-05
1.40478e-05
1.40478e-05
1.40478e-05
1.40478e-05
1.40478e-05
1.40478e-05
1.40478e-05
1.40478e-05
1.40478e-05
1.40478e-05
1.40478e-05
1.40478e-05
1.40478e-05
1.40478e-05
1.40478e-05
1.40479e-05
1.40479e-05
1.40479e-05
1.40479e-05
1.4048e-05
1.4048e-05
1.40481e-05
1.40482e-05
1.40483e-05
1.40485e-05
1.40478e-05
1.40478e-05
1.40478e-05
1.40478e-05
1.40478e-05
1.40478e-05
1.40478e-05
1.40478e-05
1.40478e-05
1.40478e-05
1.40478e-05
1.40478e-05
1.40478e-05
1.40478e-05
1.40478e-05
1.40478e-05
1.40478e-05
1.40478e-05
1.40478e-05
1.40478e-05
1.40478e-05
1.40478e-05
1.40478e-05
1.40478e-05
1.40479e-05
1.40479e-05
1.40479e-05
1.40479e-05
1.4048e-05
1.4048e-05
1.40481e-05
1.40481e-05
1.40482e-05
1.40483e-05
1.40485e-05
1.40486e-05
1.40489e-05
1.40491e-05
1.40495e-05
1.405e-05
1.40478e-05
1.40478e-05
1.40478e-05
1.40478e-05
1.40478e-05
1.40478e-05
1.40478e-05
1.40478e-05
1.40478e-05
1.40478e-05
1.40478e-05
1.40478e-05
1.40478e-05
1.40478e-05
1.40478e-05
1.40478e-05
1.40478e-05
1.40478e-05
1.40478e-05
1.40479e-05
1.40479e-05
1.40479e-05
1.40479e-05
1.4048e-05
1.4048e-05
1.40481e-05
1.40481e-05
1.40482e-05
1.40483e-05
1.40485e-05
1.40487e-05
1.40489e-05
1.40492e-05
1.40495e-05
1.405e-05
1.40506e-05
1.40513e-05
1.40522e-05
1.40534e-05
1.4055e-05
1.40478e-05
1.40478e-05
1.40478e-05
1.40478e-05
1.40478e-05
1.40478e-05
1.40478e-05
1.40478e-05
1.40478e-05
1.40478e-05
1.40478e-05
1.40478e-05
1.40478e-05
1.40478e-05
1.40478e-05
1.40479e-05
1.40479e-05
1.40479e-05
1.40479e-05
1.4048e-05
1.4048e-05
1.40481e-05
1.40481e-05
1.40482e-05
1.40483e-05
1.40485e-05
1.40487e-05
1.40489e-05
1.40492e-05
1.40496e-05
1.405e-05
1.40506e-05
1.40513e-05
1.40522e-05
1.40534e-05
1.40548e-05
1.40567e-05
1.4059e-05
1.40619e-05
1.40657e-05
1.40706e-05
1.40478e-05
1.40478e-05
1.40478e-05
1.40478e-05
1.40478e-05
1.40478e-05
1.40478e-05
1.40478e-05
1.40478e-05
1.40478e-05
1.40479e-05
1.40479e-05
1.40479e-05
1.40479e-05
1.4048e-05
1.4048e-05
1.40481e-05
1.40481e-05
1.40482e-05
1.40483e-05
1.40485e-05
1.40487e-05
1.40489e-05
1.40492e-05
1.40496e-05
1.405e-05
1.40506e-05
1.40513e-05
1.40522e-05
1.40534e-05
1.40549e-05
1.40567e-05
1.4059e-05
1.40618e-05
1.40655e-05
1.407e-05
1.40757e-05
1.40828e-05
1.40918e-05
1.41033e-05
1.41183e-05
1.40478e-05
1.40478e-05
1.40478e-05
1.40478e-05
1.40478e-05
1.40478e-05
1.40479e-05
1.40479e-05
1.40479e-05
1.40479e-05
1.4048e-05
1.4048e-05
1.40481e-05
1.40481e-05
1.40482e-05
1.40484e-05
1.40485e-05
1.40487e-05
1.40489e-05
1.40492e-05
1.40496e-05
1.405e-05
1.40506e-05
1.40513e-05
1.40522e-05
1.40534e-05
1.40548e-05
1.40566e-05
1.40589e-05
1.40617e-05
1.40653e-05
1.40697e-05
1.40754e-05
1.40824e-05
1.40912e-05
1.41022e-05
1.4116e-05
1.41332e-05
1.41548e-05
1.41818e-05
1.42159e-05
1.426e-05
1.40478e-05
1.40479e-05
1.40479e-05
1.40479e-05
1.40479e-05
1.40479e-05
1.4048e-05
1.4048e-05
1.40481e-05
1.40482e-05
1.40482e-05
1.40484e-05
1.40485e-05
1.40487e-05
1.40489e-05
1.40492e-05
1.40496e-05
1.405e-05
1.40506e-05
1.40513e-05
1.40522e-05
1.40533e-05
1.40547e-05
1.40565e-05
1.40587e-05
1.40615e-05
1.4065e-05
1.40693e-05
1.40748e-05
1.40817e-05
1.40903e-05
1.4101e-05
1.41145e-05
1.41313e-05
1.41523e-05
1.41785e-05
1.42111e-05
1.42516e-05
1.4302e-05
1.43645e-05
1.44421e-05
1.45387e-05
1.46608e-05
1.40479e-05
1.4048e-05
1.4048e-05
1.40481e-05
1.40482e-05
1.40483e-05
1.40484e-05
1.40485e-05
1.40487e-05
1.40489e-05
1.40492e-05
1.40496e-05
1.405e-05
1.40506e-05
1.40513e-05
1.40522e-05
1.40533e-05
1.40546e-05
1.40564e-05
1.40585e-05
1.40612e-05
1.40646e-05
1.40688e-05
1.40742e-05
1.40808e-05
1.40891e-05
1.40995e-05
1.41125e-05
1.41288e-05
1.41491e-05
1.41744e-05
1.42059e-05
1.42451e-05
1.42938e-05
1.43541e-05
1.44287e-05
1.45206e-05
1.46336e-05
1.47719e-05
1.49404e-05
1.51453e-05
1.53939e-05
1.56962e-05
1.40482e-05
1.40483e-05
1.40484e-05
1.40485e-05
1.40487e-05
1.4049e-05
1.40492e-05
1.40496e-05
1.405e-05
1.40506e-05
1.40513e-05
1.40521e-05
1.40532e-05
1.40546e-05
1.40562e-05
1.40583e-05
1.4061e-05
1.40643e-05
1.40684e-05
1.40735e-05
1.40799e-05
1.40879e-05
1.40979e-05
1.41104e-05
1.4126e-05
1.41454e-05
1.41697e-05
1.41999e-05
1.42374e-05
1.4284e-05
1.43418e-05
1.44132e-05
1.45014e-05
1.46097e-05
1.47424e-05
1.49041e-05
1.51003e-05
1.53366e-05
1.56193e-05
1.59547e-05
1.63494e-05
1.68097e-05
1.73421e-05
1.79518e-05
1.40488e-05
1.4049e-05
1.40493e-05
1.40496e-05
1.40501e-05
1.40506e-05
1.40513e-05
1.40522e-05
1.40532e-05
1.40545e-05
1.40562e-05
1.40582e-05
1.40608e-05
1.4064e-05
1.40679e-05
1.40729e-05
1.40791e-05
1.40868e-05
1.40964e-05
1.41083e-05
1.41232e-05
1.41418e-05
1.41649e-05
1.41936e-05
1.42293e-05
1.42736e-05
1.43285e-05
1.43963e-05
1.448e-05
1.4583e-05
1.47091e-05
1.4863e-05
1.50499e-05
1.52755e-05
1.55458e-05
1.58673e-05
1.62461e-05
1.66878e-05
1.71975e-05
1.7778e-05
1.84309e-05
1.91561e-05
1.99504e-05
2.0809e-05
2.17221e-05
1.40501e-05
1.40507e-05
1.40514e-05
1.40522e-05
1.40533e-05
1.40546e-05
1.40562e-05
1.40582e-05
1.40607e-05
1.40638e-05
1.40677e-05
1.40724e-05
1.40784e-05
1.40858e-05
1.4095e-05
1.41065e-05
1.41207e-05
1.41384e-05
1.41604e-05
1.41877e-05
1.42216e-05
1.42635e-05
1.43154e-05
1.43796e-05
1.44586e-05
1.45558e-05
1.46748e-05
1.48202e-05
1.49968e-05
1.52102e-05
1.54665e-05
1.57718e-05
1.61326e-05
1.65546e-05
1.70431e-05
1.76021e-05
1.82333e-05
1.89365e-05
1.97094e-05
2.05458e-05
2.14364e-05
2.237e-05
2.33332e-05
2.43113e-05
2.52869e-05
2.62425e-05
1.40523e-05
1.40534e-05
1.40547e-05
1.40563e-05
1.40583e-05
1.40607e-05
1.40638e-05
1.40676e-05
1.40722e-05
1.4078e-05
1.40852e-05
1.40941e-05
1.41051e-05
1.41187e-05
1.41357e-05
1.41566e-05
1.41826e-05
1.42147e-05
1.42545e-05
1.43035e-05
1.4364e-05
1.44385e-05
1.453e-05
1.4642e-05
1.47787e-05
1.49449e-05
1.51457e-05
1.5387e-05
1.56751e-05
1.60162e-05
1.64163e-05
1.68809e-05
1.74144e-05
1.80198e-05
1.86976e-05
1.94461e-05
2.02612e-05
2.11353e-05
2.20575e-05
2.30156e-05
2.39947e-05
2.49778e-05
2.59443e-05
2.68698e-05
2.77296e-05
2.8504e-05
2.91776e-05
2.97593e-05
1.4061e-05
1.4064e-05
1.40677e-05
1.40723e-05
1.4078e-05
1.4085e-05
1.40936e-05
1.41043e-05
1.41175e-05
1.41337e-05
1.41538e-05
1.41786e-05
1.42093e-05
1.4247e-05
1.42935e-05
1.43507e-05
1.4421e-05
1.45072e-05
1.46126e-05
1.47411e-05
1.4897e-05
1.50856e-05
1.53123e-05
1.5583e-05
1.5904e-05
1.62814e-05
1.67208e-05
1.72271e-05
1.78036e-05
1.84522e-05
1.91722e-05
1.99604e-05
2.08112e-05
2.17156e-05
2.26617e-05
2.36367e-05
2.46253e-05
2.56096e-05
2.65681e-05
2.74765e-05
2.83109e-05
2.90525e-05
2.96904e-05
3.02219e-05
3.06511e-05
3.09889e-05
3.12414e-05
3.14312e-05
1.40728e-05
1.40784e-05
1.40853e-05
1.40938e-05
1.41042e-05
1.4117e-05
1.41328e-05
1.41523e-05
1.41761e-05
1.42055e-05
1.42416e-05
1.4286e-05
1.43404e-05
1.4407e-05
1.44885e-05
1.45879e-05
1.47089e-05
1.48556e-05
1.50328e-05
1.52457e-05
1.54999e-05
1.58016e-05
1.61567e-05
1.6571e-05
1.70496e-05
1.75964e-05
1.82138e-05
1.89024e-05
1.96601e-05
2.04826e-05
2.13628e-05
2.22906e-05
2.32535e-05
2.42384e-05
2.52297e-05
2.62089e-05
2.71543e-05
2.80419e-05
2.88494e-05
2.95605e-05
3.0167e-05
3.06689e-05
3.10721e-05
3.13866e-05
3.16235e-05
3.17927e-05
3.19058e-05
3.1974e-05
3.19999e-05
3.19915e-05
1.41177e-05
1.41332e-05
1.41522e-05
1.41754e-05
1.42039e-05
1.42387e-05
1.42814e-05
1.43335e-05
1.43972e-05
1.44747e-05
1.45691e-05
1.46837e-05
1.48223e-05
1.49894e-05
1.519e-05
1.54293e-05
1.57132e-05
1.60474e-05
1.64378e-05
1.68896e-05
1.7407e-05
1.79931e-05
1.86491e-05
1.93743e-05
2.01655e-05
2.1017e-05
2.19207e-05
2.28654e-05
2.38387e-05
2.48272e-05
2.58151e-05
2.67839e-05
2.77116e-05
2.85753e-05
2.93542e-05
3.00346e-05
3.06109e-05
3.1085e-05
3.14642e-05
3.17591e-05
3.19812e-05
3.21408e-05
3.22489e-05
3.23142e-05
3.23444e-05
3.23394e-05
3.23135e-05
3.22648e-05
3.21957e-05
3.21119e-05
1.42388e-05
1.42803e-05
1.43308e-05
1.43922e-05
1.44668e-05
1.45572e-05
1.46666e-05
1.47986e-05
1.49572e-05
1.51472e-05
1.53736e-05
1.56418e-05
1.59574e-05
1.63261e-05
1.6753e-05
1.72428e-05
1.77987e-05
1.84226e-05
1.91147e-05
1.98731e-05
2.06935e-05
2.15689e-05
2.24903e-05
2.34462e-05
2.44238e-05
2.54101e-05
2.63892e-05
2.73426e-05
2.82487e-05
2.90855e-05
2.98344e-05
3.04838e-05
3.10304e-05
3.14779e-05
3.18345e-05
3.21112e-05
3.23194e-05
3.24696e-05
3.25722e-05
3.26358e-05
3.26673e-05
3.26683e-05
3.26496e-05
3.26101e-05
3.25527e-05
3.24804e-05
3.23964e-05
3.22996e-05
3.21894e-05
3.2065e-05
1.45531e-05
1.46586e-05
1.47856e-05
1.49376e-05
1.51192e-05
1.5335e-05
1.55901e-05
1.58898e-05
1.62396e-05
1.66446e-05
1.71092e-05
1.76373e-05
1.82311e-05
1.88914e-05
1.9617e-05
2.04051e-05
2.12501e-05
2.21444e-05
2.3078e-05
2.40392e-05
2.50156e-05
2.59942e-05
2.69595e-05
2.78929e-05
2.87735e-05
2.95806e-05
3.02977e-05
3.09156e-05
3.14328e-05
3.18544e-05
3.21892e-05
3.24483e-05
3.26433e-05
3.27842e-05
3.28809e-05
3.29421e-05
3.29739e-05
3.2979e-05
3.2965e-05
3.29335e-05
3.28856e-05
3.28231e-05
3.27497e-05
3.26661e-05
3.25717e-05
3.24664e-05
3.23505e-05
3.2223e-05
3.20826e-05
3.1925e-05
1.53154e-05
1.55603e-05
1.58473e-05
1.61816e-05
1.6568e-05
1.70111e-05
1.75146e-05
1.80811e-05
1.8712e-05
1.94067e-05
2.0163e-05
2.09769e-05
2.18421e-05
2.27501e-05
2.36904e-05
2.46513e-05
2.5621e-05
2.65868e-05
2.75333e-05
2.84422e-05
2.92935e-05
3.00679e-05
3.07513e-05
3.13367e-05
3.18242e-05
3.22201e-05
3.25335e-05
3.27755e-05
3.29573e-05
3.30891e-05
3.31797e-05
3.32376e-05
3.32688e-05
3.32764e-05
3.32655e-05
3.32398e-05
3.31995e-05
3.31459e-05
3.30809e-05
3.30072e-05
3.29253e-05
3.28341e-05
3.27332e-05
3.26223e-05
3.25003e-05
3.23656e-05
3.22181e-05
3.20569e-05
3.18847e-05
3.16961e-05
1.69525e-05
1.74354e-05
1.79785e-05
1.85834e-05
1.925e-05
1.99767e-05
2.07603e-05
2.1596e-05
2.24766e-05
2.33928e-05
2.43342e-05
2.52893e-05
2.62468e-05
2.71945e-05
2.81173e-05
2.89971e-05
2.98149e-05
3.05536e-05
3.12011e-05
3.17526e-05
3.22098e-05
3.25796e-05
3.28716e-05
3.30966e-05
3.32653e-05
3.33876e-05
3.34718e-05
3.3526e-05
3.35556e-05
3.35644e-05
3.35557e-05
3.35339e-05
3.34995e-05
3.34531e-05
3.3396e-05
3.333e-05
3.32573e-05
3.31774e-05
3.30889e-05
3.29913e-05
3.2884e-05
3.27659e-05
3.2636e-05
3.24944e-05
3.23422e-05
3.21787e-05
3.20051e-05
3.18202e-05
3.16256e-05
3.14165e-05
1.98543e-05
2.061e-05
2.14171e-05
2.22699e-05
2.31605e-05
2.40792e-05
2.50158e-05
2.59594e-05
2.68993e-05
2.78237e-05
2.87174e-05
2.95633e-05
3.03435e-05
3.10429e-05
3.1652e-05
3.21678e-05
3.25936e-05
3.29368e-05
3.3207e-05
3.34147e-05
3.35701e-05
3.36826e-05
3.37601e-05
3.381e-05
3.38374e-05
3.38459e-05
3.38387e-05
3.38196e-05
3.37891e-05
3.37485e-05
3.36979e-05
3.36395e-05
3.35737e-05
3.35022e-05
3.34235e-05
3.33366e-05
3.32407e-05
3.31356e-05
3.30208e-05
3.28954e-05
3.27604e-05
3.26157e-05
3.24616e-05
3.22974e-05
3.21234e-05
3.19392e-05
3.17446e-05
3.15399e-05
3.13262e-05
3.11001e-05
2.39007e-05
2.48158e-05
2.57413e-05
2.66673e-05
2.75839e-05
2.84794e-05
2.93387e-05
3.01454e-05
3.08834e-05
3.15399e-05
3.21077e-05
3.25859e-05
3.2979e-05
3.32946e-05
3.35424e-05
3.37322e-05
3.3874e-05
3.39763e-05
3.40466e-05
3.40916e-05
3.41162e-05
3.41236e-05
3.41169e-05
3.40995e-05
3.40717e-05
3.40349e-05
3.39898e-05
3.39375e-05
3.38785e-05
3.38128e-05
3.37418e-05
3.36632e-05
3.35766e-05
3.34819e-05
3.3379e-05
3.32677e-05
3.31476e-05
3.30187e-05
3.2881e-05
3.27339e-05
3.25777e-05
3.24126e-05
3.22383e-05
3.20538e-05
3.18599e-05
3.16568e-05
3.14449e-05
3.12242e-05
3.09959e-05
3.07575e-05
2.83051e-05
2.91656e-05
2.99845e-05
3.07466e-05
3.14376e-05
3.20473e-05
3.25709e-05
3.30094e-05
3.33682e-05
3.36552e-05
3.38797e-05
3.40512e-05
3.41788e-05
3.42703e-05
3.43329e-05
3.43725e-05
3.43938e-05
3.43991e-05
3.43921e-05
3.43755e-05
3.43495e-05
3.43153e-05
3.42741e-05
3.42268e-05
3.41732e-05
3.41134e-05
3.40473e-05
3.39752e-05
3.38962e-05
3.381e-05
3.37168e-05
3.36168e-05
3.35094e-05
3.33937e-05
3.32699e-05
3.31378e-05
3.29973e-05
3.2848e-05
3.26907e-05
3.25251e-05
3.23498e-05
3.21652e-05
3.19719e-05
3.17698e-05
3.15591e-05
3.13406e-05
3.11152e-05
3.08832e-05
3.06458e-05
3.0401e-05
3.20074e-05
3.25664e-05
3.30429e-05
3.34397e-05
3.37628e-05
3.40201e-05
3.42205e-05
3.4373e-05
3.44859e-05
3.45661e-05
3.46205e-05
3.46542e-05
3.46714e-05
3.4674e-05
3.46661e-05
3.46492e-05
3.46241e-05
3.45916e-05
3.45531e-05
3.45095e-05
3.44605e-05
3.4405e-05
3.43432e-05
3.4276e-05
3.42031e-05
3.41241e-05
3.40389e-05
3.39478e-05
3.38504e-05
3.3746e-05
3.36339e-05
3.35145e-05
3.33877e-05
3.32531e-05
3.31106e-05
3.29596e-05
3.28012e-05
3.26339e-05
3.24577e-05
3.22732e-05
3.20804e-05
3.1879e-05
3.16698e-05
3.14533e-05
3.12301e-05
3.1001e-05
3.07671e-05
3.05291e-05
3.02883e-05
3.00433e-05
3.41631e-05
3.43899e-05
3.45656e-05
3.46986e-05
3.47962e-05
3.48647e-05
3.49104e-05
3.49378e-05
3.49504e-05
3.49493e-05
3.49401e-05
3.49223e-05
3.4897e-05
3.48655e-05
3.4829e-05
3.47879e-05
3.47419e-05
3.46901e-05
3.46322e-05
3.45684e-05
3.45003e-05
3.44271e-05
3.43487e-05
3.42647e-05
3.41753e-05
3.40799e-05
3.39779e-05
3.38692e-05
3.3754e-05
3.36321e-05
3.35025e-05
3.33652e-05
3.32205e-05
3.30679e-05
3.2908e-05
3.27394e-05
3.25628e-05
3.23783e-05
3.21855e-05
3.19849e-05
3.1777e-05
3.15623e-05
3.13414e-05
3.11149e-05
3.08839e-05
3.06493e-05
3.04122e-05
3.01739e-05
2.99355e-05
2.9696e-05
3.511e-05
3.51667e-05
3.52033e-05
3.52238e-05
3.5231e-05
3.52268e-05
3.52151e-05
3.51957e-05
3.51697e-05
3.51384e-05
3.51031e-05
3.50639e-05
3.50196e-05
3.49704e-05
3.49156e-05
3.48555e-05
3.47906e-05
3.47221e-05
3.4649e-05
3.45708e-05
3.44876e-05
3.43995e-05
3.4306e-05
3.42066e-05
3.41011e-05
3.39895e-05
3.38712e-05
3.37459e-05
3.36133e-05
3.34739e-05
3.33272e-05
3.31733e-05
3.30116e-05
3.2842e-05
3.26649e-05
3.248e-05
3.22874e-05
3.20877e-05
3.18811e-05
3.16681e-05
3.14493e-05
3.12253e-05
3.09971e-05
3.07656e-05
3.05317e-05
3.02968e-05
3.0062e-05
2.98286e-05
2.9598e-05
2.93692e-05
3.5514e-05
3.55067e-05
3.54919e-05
3.54703e-05
3.54433e-05
3.54117e-05
3.53769e-05
3.53383e-05
3.52953e-05
3.52476e-05
3.51952e-05
3.51381e-05
3.50765e-05
3.50111e-05
3.49421e-05
3.48686e-05
3.47905e-05
3.47081e-05
3.46214e-05
3.45299e-05
3.44327e-05
3.43298e-05
3.42209e-05
3.41057e-05
3.39842e-05
3.38559e-05
3.37211e-05
3.35797e-05
3.34309e-05
3.32752e-05
3.31121e-05
3.29418e-05
3.27641e-05
3.25789e-05
3.23867e-05
3.21877e-05
3.19822e-05
3.17708e-05
3.15541e-05
3.13325e-05
3.1107e-05
3.08784e-05
3.06477e-05
3.04159e-05
3.01843e-05
2.9954e-05
2.97265e-05
2.95029e-05
2.92846e-05
2.90708e-05
3.57183e-05
3.56861e-05
3.56514e-05
3.56126e-05
3.55701e-05
3.55233e-05
3.54723e-05
3.54175e-05
3.53588e-05
3.52962e-05
3.52299e-05
3.51602e-05
3.50864e-05
3.50086e-05
3.49272e-05
3.48419e-05
3.47518e-05
3.46562e-05
3.45551e-05
3.44487e-05
3.43365e-05
3.42183e-05
3.40937e-05
3.39629e-05
3.38259e-05
3.36822e-05
3.35315e-05
3.33743e-05
3.321e-05
3.30388e-05
3.28603e-05
3.26751e-05
3.24832e-05
3.2285e-05
3.20807e-05
3.18709e-05
3.16561e-05
3.14368e-05
3.12139e-05
3.09881e-05
3.07604e-05
3.05317e-05
3.03031e-05
3.00758e-05
2.9851e-05
2.96299e-05
2.9414e-05
2.92041e-05
2.90018e-05
2.8806e-05
3.58449e-05
3.57984e-05
3.57484e-05
3.56952e-05
3.56386e-05
3.55784e-05
3.55144e-05
3.54472e-05
3.53768e-05
3.53031e-05
3.52259e-05
3.51454e-05
3.50608e-05
3.49715e-05
3.48772e-05
3.4778e-05
3.46738e-05
3.4564e-05
3.44485e-05
3.43271e-05
3.41999e-05
3.40668e-05
3.39274e-05
3.37816e-05
3.36292e-05
3.34706e-05
3.33051e-05
3.31329e-05
3.2954e-05
3.27688e-05
3.25772e-05
3.23797e-05
3.21766e-05
3.19684e-05
3.17554e-05
3.15384e-05
3.1318e-05
3.1095e-05
3.08702e-05
3.06444e-05
3.04188e-05
3.01944e-05
2.99724e-05
2.97538e-05
2.95399e-05
2.93318e-05
2.91309e-05
2.89377e-05
2.87538e-05
2.85781e-05
3.59721e-05
3.5917e-05
3.58586e-05
3.57966e-05
3.57313e-05
3.56635e-05
3.5593e-05
3.55194e-05
3.54426e-05
3.53622e-05
3.5278e-05
3.51895e-05
3.50964e-05
3.49988e-05
3.48962e-05
3.47884e-05
3.46753e-05
3.45566e-05
3.44326e-05
3.4303e-05
3.41675e-05
3.40259e-05
3.38781e-05
3.37242e-05
3.35641e-05
3.33974e-05
3.32244e-05
3.30453e-05
3.286e-05
3.26689e-05
3.24722e-05
3.22703e-05
3.20635e-05
3.18525e-05
3.16376e-05
3.14196e-05
3.11992e-05
3.09772e-05
3.07544e-05
3.05318e-05
3.03102e-05
3.00909e-05
2.98748e-05
2.96631e-05
2.94568e-05
2.92571e-05
2.90648e-05
2.88812e-05
2.87068e-05
2.85426e-05
2.83877e-05
3.60137e-05
3.59477e-05
3.58797e-05
3.5809e-05
3.57352e-05
3.56581e-05
3.55778e-05
3.54941e-05
3.54062e-05
3.5314e-05
3.52175e-05
3.51162e-05
3.50101e-05
3.48991e-05
3.47829e-05
3.46616e-05
3.45351e-05
3.44029e-05
3.4265e-05
3.41214e-05
3.39718e-05
3.38164e-05
3.36548e-05
3.34871e-05
3.33136e-05
3.31342e-05
3.2949e-05
3.27583e-05
3.25625e-05
3.23617e-05
3.21565e-05
3.19473e-05
3.17346e-05
3.1519e-05
3.13011e-05
3.10819e-05
3.08619e-05
3.06421e-05
3.04234e-05
3.02068e-05
2.99932e-05
2.97837e-05
2.95793e-05
2.9381e-05
2.91897e-05
2.90064e-05
2.88319e-05
2.86671e-05
2.85122e-05
2.83683e-05
2.82338e-05
3.60957e-05
3.60243e-05
3.59498e-05
3.58727e-05
3.57926e-05
3.57091e-05
3.56216e-05
3.55299e-05
3.54342e-05
3.53341e-05
3.52295e-05
3.51202e-05
3.50061e-05
3.48872e-05
3.47633e-05
3.46341e-05
3.44995e-05
3.43596e-05
3.4214e-05
3.40627e-05
3.39057e-05
3.37429e-05
3.35745e-05
3.34004e-05
3.32208e-05
3.30358e-05
3.28457e-05
3.26507e-05
3.24512e-05
3.22475e-05
3.20401e-05
3.18294e-05
3.16162e-05
3.14009e-05
3.11843e-05
3.09671e-05
3.07501e-05
3.05342e-05
3.03203e-05
3.01092e-05
2.9902e-05
2.96995e-05
2.95028e-05
2.93126e-05
2.91299e-05
2.89555e-05
2.87901e-05
2.86342e-05
2.84887e-05
2.83533e-05
2.82287e-05
2.81134e-05
3.60866e-05
3.60064e-05
3.59229e-05
3.58354e-05
3.57442e-05
3.56492e-05
3.55501e-05
3.54466e-05
3.53387e-05
3.52265e-05
3.51097e-05
3.49881e-05
3.48615e-05
3.47299e-05
3.45932e-05
3.44512e-05
3.43036e-05
3.41507e-05
3.39925e-05
3.38287e-05
3.36595e-05
3.3485e-05
3.33053e-05
3.31206e-05
3.2931e-05
3.2737e-05
3.25387e-05
3.23365e-05
3.21309e-05
3.19224e-05
3.17114e-05
3.14986e-05
3.12846e-05
3.10702e-05
3.08559e-05
3.06428e-05
3.04315e-05
3.02229e-05
3.0018e-05
2.98176e-05
2.96225e-05
2.94336e-05
2.92518e-05
2.90776e-05
2.8912e-05
2.87553e-05
2.86084e-05
2.84712e-05
2.83444e-05
2.82271e-05
2.81212e-05
2.8024e-05
3.60477e-05
3.59569e-05
3.58624e-05
3.57639e-05
3.56614e-05
3.55549e-05
3.54442e-05
3.53292e-05
3.52096e-05
3.50853e-05
3.49564e-05
3.48226e-05
3.46837e-05
3.45397e-05
3.43904e-05
3.42362e-05
3.40767e-05
3.39119e-05
3.37422e-05
3.35674e-05
3.33877e-05
3.32033e-05
3.30145e-05
3.28214e-05
3.26244e-05
3.24238e-05
3.222e-05
3.20135e-05
3.18048e-05
3.15945e-05
3.13831e-05
3.11713e-05
3.09598e-05
3.07494e-05
3.05407e-05
3.03347e-05
3.01321e-05
2.99337e-05
2.97404e-05
2.95528e-05
2.9372e-05
2.91983e-05
2.90327e-05
2.88755e-05
2.87276e-05
2.85888e-05
2.846e-05
2.83404e-05
2.82315e-05
2.81314e-05
2.80429e-05
2.79628e-05
3.59757e-05
3.5874e-05
3.57687e-05
3.56594e-05
3.55458e-05
3.54279e-05
3.53058e-05
3.51792e-05
3.50479e-05
3.49118e-05
3.47709e-05
3.46252e-05
3.44744e-05
3.43188e-05
3.41582e-05
3.39928e-05
3.38226e-05
3.36476e-05
3.34681e-05
3.32842e-05
3.30961e-05
3.2904e-05
3.27083e-05
3.25093e-05
3.23074e-05
3.2103e-05
3.18965e-05
3.16886e-05
3.14798e-05
3.12706e-05
3.10618e-05
3.08541e-05
3.06481e-05
3.04445e-05
3.02443e-05
3.0048e-05
2.98565e-05
2.96704e-05
2.94907e-05
2.93176e-05
2.91523e-05
2.89949e-05
2.88461e-05
2.87062e-05
2.85755e-05
2.84539e-05
2.83421e-05
2.82391e-05
2.81469e-05
2.80635e-05
2.79909e-05
2.79259e-05
3.58717e-05
3.57595e-05
3.56433e-05
3.5523e-05
3.53984e-05
3.52693e-05
3.51358e-05
3.49977e-05
3.4855e-05
3.47076e-05
3.45555e-05
3.43988e-05
3.42374e-05
3.40713e-05
3.39008e-05
3.37258e-05
3.35465e-05
3.33632e-05
3.31759e-05
3.29849e-05
3.27906e-05
3.25932e-05
3.23931e-05
3.21907e-05
3.19866e-05
3.17811e-05
3.15748e-05
3.13682e-05
3.11621e-05
3.0957e-05
3.07536e-05
3.05526e-05
3.03547e-05
3.01606e-05
2.99709e-05
2.97864e-05
2.96079e-05
2.94357e-05
2.92707e-05
2.91132e-05
2.8964e-05
2.88231e-05
2.8691e-05
2.85676e-05
2.84533e-05
2.83477e-05
2.82522e-05
2.81652e-05
2.80885e-05
2.80198e-05
2.79612e-05
2.79096e-05
3.57368e-05
3.56139e-05
3.54869e-05
3.53557e-05
3.52201e-05
3.50802e-05
3.49358e-05
3.47869e-05
3.46337e-05
3.4476e-05
3.43139e-05
3.41475e-05
3.39767e-05
3.38019e-05
3.3623e-05
3.34402e-05
3.32538e-05
3.3064e-05
3.28711e-05
3.26754e-05
3.24772e-05
3.22769e-05
3.2075e-05
3.18719e-05
3.16682e-05
3.14642e-05
3.12608e-05
3.10583e-05
3.08575e-05
3.0659e-05
3.04635e-05
3.02715e-05
3.00838e-05
2.9901e-05
2.97237e-05
2.95525e-05
2.93881e-05
2.92307e-05
2.90812e-05
2.89395e-05
2.88064e-05
2.86814e-05
2.8565e-05
2.8457e-05
2.83585e-05
2.82683e-05
2.81878e-05
2.81152e-05
2.80522e-05
2.79965e-05
2.79498e-05
2.79084e-05
3.55714e-05
3.54382e-05
3.53007e-05
3.51591e-05
3.50133e-05
3.48632e-05
3.4709e-05
3.45505e-05
3.43879e-05
3.42212e-05
3.40504e-05
3.38758e-05
3.36974e-05
3.35154e-05
3.333e-05
3.31414e-05
3.295e-05
3.2756e-05
3.25597e-05
3.23615e-05
3.21619e-05
3.19612e-05
3.176e-05
3.15587e-05
3.13578e-05
3.1158e-05
3.09599e-05
3.07639e-05
3.05707e-05
3.03809e-05
3.01952e-05
3.00142e-05
2.98383e-05
2.96682e-05
2.95044e-05
2.93474e-05
2.91977e-05
2.90555e-05
2.89214e-05
2.8795e-05
2.8677e-05
2.85669e-05
2.84657e-05
2.83725e-05
2.82886e-05
2.82125e-05
2.81454e-05
2.80855e-05
2.80346e-05
2.79895e-05
2.79523e-05
2.79205e-05
3.52345e-05
3.50875e-05
3.49363e-05
3.47813e-05
3.46222e-05
3.44592e-05
3.42924e-05
3.41217e-05
3.39475e-05
3.37697e-05
3.35885e-05
3.34042e-05
3.3217e-05
3.30271e-05
3.28349e-05
3.26406e-05
3.24445e-05
3.22472e-05
3.2049e-05
3.18502e-05
3.16515e-05
3.14534e-05
3.12562e-05
3.10606e-05
3.08672e-05
3.06764e-05
3.04889e-05
3.03052e-05
3.01259e-05
2.99516e-05
2.97827e-05
2.96197e-05
2.94633e-05
2.93136e-05
2.91711e-05
2.90362e-05
2.89086e-05
2.87893e-05
2.86772e-05
2.85737e-05
2.84778e-05
2.83908e-05
2.83113e-05
2.82404e-05
2.81768e-05
2.81213e-05
2.80727e-05
2.8031e-05
2.79951e-05
2.79668e-05
2.79436e-05
3.50062e-05
3.48505e-05
3.4691e-05
3.45278e-05
3.4361e-05
3.41906e-05
3.40169e-05
3.38398e-05
3.36596e-05
3.34765e-05
3.32908e-05
3.31025e-05
3.29121e-05
3.27198e-05
3.25259e-05
3.23309e-05
3.21351e-05
3.1939e-05
3.17429e-05
3.15473e-05
3.13528e-05
3.11599e-05
3.09689e-05
3.07806e-05
3.05954e-05
3.04138e-05
3.02364e-05
3.00636e-05
2.9896e-05
2.9734e-05
2.95782e-05
2.94287e-05
2.92862e-05
2.91507e-05
2.90222e-05
2.89016e-05
2.87879e-05