/*--------------------------------*- C++ -*----------------------------------*\
| =========                 |                                                 |
| \\      /  F ield         | OpenFOAM: The Open Source CFD Toolbox           |
|  \\    /   O peration     | Version:  v1706                                 |
|   \\  /    A nd           | Web:      www.OpenFOAM.com                      |
|    \\/     M anipulation  |                                                 |
\*---------------------------------------------------------------------------*/
FoamFile
{
    version     2.0;
    format      ascii;
    class       volScalarField;
    location    "1.7e-05";
    object      kappatr;
}
// * * * * * * * * * * * * * * * * * * * * * * * * * * * * * * * * * * * * * //

dimensions      [1 1 -3 -1 0 0 0];


internalField   nonuniform List<scalar> 
30038
(
0.014593
0.014593
0.014593
0.014593
0.014593
0.014593
0.014593
0.014593
0.014593
0.014593
0.014593
0.014593
0.014593
0.014593
0.014593
0.014593
0.014593
0.014593
0.014593
0.014593
0.014593
0.014593
0.014593
0.014593
0.014593
0.014593
0.014593
0.014593
0.014593
0.014593
0.014593
0.014593
0.014593
0.014593
0.014593
0.014593
0.014593
0.014593
0.014593
0.014593
0.014593
0.014593
0.014593
0.014593
0.014593
0.014593
0.014593
0.014593
0.014593
0.014593
0.014593
0.014593
0.014593
0.014593
0.014593
0.014593
0.014593
0.014593
0.014593
0.014593
0.014593
0.014593
0.014593
0.014593
0.014593
0.014593
0.014593
0.014593
0.014593
0.014593
0.014593
0.014593
0.014593
0.014593
0.014593
0.014593
0.014593
0.014593
0.014593
0.014593
0.014593
0.014593
0.014593
0.014593
0.014593
0.014593
0.014593
0.014593
0.014593
0.014593
0.014593
0.014593
0.014593
0.014593
0.014593
0.014593
0.014593
0.014593
0.014593
0.014593
0.014593
0.014593
0.014593
0.014593
0.014593
0.014593
0.014593
0.014593
0.014593
0.014593
0.014593
0.014593
0.014593
0.014593
0.014593
0.014593
0.014593
0.014593
0.014593
0.014593
0.014593
0.014593
0.014593
0.014593
0.014593
0.014593
0.014593
0.014593
0.014593
0.014593
0.014593
0.014593
0.014593
0.014593
0.014593
0.014593
0.014593
0.014593
0.014593
0.014593
0.014593
0.014593
0.014593
0.014593
0.014593
0.014593
0.014593
0.014593
0.014593
0.014593
0.014593
0.014593
0.014593
0.014593
0.014593
0.014593
0.014593
0.014593
0.014593
0.014593
0.014593
0.014593
0.014593
0.014593
0.014593
0.014593
0.014593
0.014593
0.014593
0.014593
0.014593
0.014593
0.014593
0.014593
0.014593
0.014593
0.014593
0.014593
0.014593
0.014593
0.014593
0.014593
0.014593
0.014593
0.014593
0.014593
0.014593
0.014593
0.014593
0.014593
0.014593
0.014593
0.014593
0.014593
0.014593
0.014593
0.014593
0.014593
0.014593
0.014593
0.014593
0.014593
0.014593
0.014593
0.014593
0.014593
0.014593
0.014593
0.014593
0.014593
0.014593
0.014593
0.014593
0.014593
0.014593
0.014593
0.014593
0.014593
0.014593
0.014593
0.014593
0.014593
0.014593
0.014593
0.014593
0.014593
0.014593
0.014593
0.014593
0.014593
0.014593
0.014593
0.014593
0.014593
0.014593
0.014593
0.014593
0.014593
0.014593
0.014593
0.014593
0.014593
0.014593
0.014593
0.014593
0.014593
0.014593
0.014593
0.014593
0.014593
0.014593
0.014593
0.014593
0.014593
0.014593
0.014593
0.014593
0.014593
0.014593
0.014593
0.014593
0.014593
0.014593
0.014593
0.014593
0.014593
0.014593
0.014593
0.014593
0.014593
0.014593
0.014593
0.014593
0.014593
0.014593
0.014593
0.014593
0.014593
0.014593
0.014593
0.014593
0.014593
0.014593
0.014593
0.014593
0.014593
0.014593
0.014593
0.014593
0.014593
0.014593
0.014593
0.014593
0.014593
0.014593
0.014593
0.014593
0.014593
0.014593
0.014593
0.014593
0.014593
0.014593
0.014593
0.014593
0.014593
0.014593
0.014593
0.014593
0.014593
0.014593
0.014593
0.014593
0.014593
0.014593
0.014593
0.014593
0.014593
0.014593
0.014593
0.014593
0.014593
0.014593
0.014593
0.014593
0.014593
0.014593
0.014593
0.014593
0.014593
0.014593
0.014593
0.014593
0.014593
0.014593
0.014593
0.014593
0.014593
0.014593
0.014593
0.014593
0.014593
0.014593
0.014593
0.014593
0.014593
0.014593
0.014593
0.014593
0.014593
0.014593
0.014593
0.014593
0.014593
0.014593
0.014593
0.014593
0.014593
0.014593
0.014593
0.014593
0.014593
0.014593
0.014593
0.014593
0.014593
0.014593
0.014593
0.014593
0.014593
0.014593
0.014593
0.014593
0.014593
0.014593
0.014593
0.014593
0.014593
0.014593
0.014593
0.014593
0.014593
0.014593
0.014593
0.014593
0.014593
0.014593
0.014593
0.014593
0.014593
0.014593
0.014593
0.014593
0.014593
0.014593
0.014593
0.014593
0.014593
0.014593
0.014593
0.014593
0.014593
0.014593
0.014593
0.014593
0.014593
0.014593
0.014593
0.014593
0.014593
0.014593
0.014593
0.014593
0.014593
0.014593
0.014593
0.014593
0.014593
0.014593
0.014593
0.014593
0.014593
0.014593
0.014593
0.014593
0.014593
0.014593
0.014593
0.014593
0.014593
0.014593
0.014593
0.014593
0.014593
0.014593
0.014593
0.014593
0.014593
0.014593
0.014593
0.014593
0.014593
0.014593
0.014593
0.014593
0.014593
0.014593
0.014593
0.014593
0.014593
0.014593
0.014593
0.014593
0.014593
0.014593
0.014593
0.014593
0.014593
0.014593
0.014593
0.014593
0.014593
0.014593
0.014593
0.014593
0.014593
0.014593
0.014593
0.014593
0.014593
0.014593
0.014593
0.014593
0.014593
0.014593
0.014593
0.014593
0.014593
0.014593
0.014593
0.014593
0.014593
0.014593
0.014593
0.014593
0.014593
0.014593
0.014593
0.014593
0.014593
0.014593
0.014593
0.014593
0.014593
0.014593
0.014593
0.014593
0.014593
0.014593
0.014593
0.014593
0.014593
0.014593
0.014593
0.014593
0.014593
0.014593
0.014593
0.014593
0.014593
0.014593
0.014593
0.014593
0.014593
0.014593
0.014593
0.014593
0.014593
0.014593
0.014593
0.014593
0.014593
0.014593
0.014593
0.014593
0.014593
0.014593
0.014593
0.014593
0.014593
0.014593
0.014593
0.014593
0.014593
0.014593
0.014593
0.014593
0.014593
0.014593
0.0145931
0.0145931
0.014593
0.014593
0.014593
0.014593
0.014593
0.014593
0.014593
0.014593
0.014593
0.014593
0.014593
0.014593
0.014593
0.014593
0.014593
0.014593
0.014593
0.014593
0.014593
0.014593
0.014593
0.014593
0.014593
0.014593
0.014593
0.014593
0.014593
0.014593
0.014593
0.014593
0.014593
0.014593
0.014593
0.0145931
0.0145931
0.0145931
0.0145931
0.0145931
0.0145932
0.0145932
0.014593
0.014593
0.014593
0.014593
0.014593
0.014593
0.014593
0.014593
0.014593
0.014593
0.014593
0.014593
0.014593
0.014593
0.014593
0.014593
0.014593
0.014593
0.014593
0.014593
0.014593
0.014593
0.014593
0.014593
0.014593
0.014593
0.014593
0.014593
0.0145931
0.0145931
0.0145931
0.0145931
0.0145931
0.0145932
0.0145932
0.0145933
0.0145933
0.0145934
0.0145935
0.0145937
0.014593
0.014593
0.014593
0.014593
0.014593
0.014593
0.014593
0.014593
0.014593
0.014593
0.014593
0.014593
0.014593
0.014593
0.014593
0.014593
0.014593
0.014593
0.014593
0.014593
0.014593
0.014593
0.014593
0.0145931
0.0145931
0.0145931
0.0145931
0.0145931
0.0145932
0.0145932
0.0145933
0.0145934
0.0145934
0.0145936
0.0145937
0.0145939
0.0145941
0.0145944
0.0145948
0.0145953
0.014593
0.014593
0.014593
0.014593
0.014593
0.014593
0.014593
0.014593
0.014593
0.014593
0.014593
0.014593
0.014593
0.014593
0.014593
0.014593
0.014593
0.014593
0.0145931
0.0145931
0.0145931
0.0145931
0.0145931
0.0145932
0.0145932
0.0145933
0.0145934
0.0145935
0.0145936
0.0145937
0.0145939
0.0145941
0.0145944
0.0145948
0.0145953
0.0145959
0.0145966
0.0145976
0.0145988
0.0146005
0.014593
0.014593
0.014593
0.014593
0.014593
0.014593
0.014593
0.014593
0.014593
0.014593
0.014593
0.014593
0.014593
0.0145931
0.0145931
0.0145931
0.0145931
0.0145931
0.0145931
0.0145932
0.0145932
0.0145933
0.0145934
0.0145935
0.0145936
0.0145937
0.0145939
0.0145942
0.0145945
0.0145948
0.0145953
0.0145959
0.0145967
0.0145976
0.0145988
0.0146003
0.0146022
0.0146046
0.0146077
0.0146116
0.0146167
0.014593
0.014593
0.014593
0.014593
0.014593
0.014593
0.014593
0.014593
0.0145931
0.0145931
0.0145931
0.0145931
0.0145931
0.0145932
0.0145932
0.0145932
0.0145933
0.0145934
0.0145935
0.0145936
0.0145937
0.0145939
0.0145942
0.0145945
0.0145948
0.0145953
0.0145959
0.0145967
0.0145976
0.0145988
0.0146003
0.0146022
0.0146046
0.0146076
0.0146114
0.0146161
0.014622
0.0146294
0.0146388
0.0146507
0.0146663
0.014593
0.014593
0.014593
0.014593
0.0145931
0.0145931
0.0145931
0.0145931
0.0145931
0.0145932
0.0145932
0.0145932
0.0145933
0.0145934
0.0145935
0.0145936
0.0145937
0.0145939
0.0145942
0.0145945
0.0145949
0.0145953
0.0145959
0.0145967
0.0145976
0.0145988
0.0146003
0.0146022
0.0146045
0.0146075
0.0146112
0.0146158
0.0146216
0.0146289
0.0146381
0.0146495
0.0146638
0.0146817
0.0147041
0.0147322
0.0147677
0.0148134
0.0145931
0.0145931
0.0145931
0.0145931
0.0145931
0.0145932
0.0145932
0.0145932
0.0145933
0.0145934
0.0145935
0.0145936
0.0145938
0.0145939
0.0145942
0.0145945
0.0145949
0.0145953
0.0145959
0.0145967
0.0145976
0.0145987
0.0146002
0.014602
0.0146043
0.0146072
0.0146108
0.0146154
0.0146211
0.0146282
0.0146371
0.0146483
0.0146623
0.0146798
0.0147016
0.0147288
0.0147626
0.0148048
0.0148571
0.014922
0.0150026
0.015103
0.0152298
0.0145932
0.0145932
0.0145933
0.0145933
0.0145934
0.0145935
0.0145936
0.0145938
0.014594
0.0145942
0.0145945
0.0145949
0.0145953
0.0145959
0.0145966
0.0145975
0.0145987
0.0146001
0.0146019
0.0146041
0.014607
0.0146105
0.0146149
0.0146204
0.0146273
0.014636
0.0146468
0.0146603
0.0146772
0.0146982
0.0147245
0.0147573
0.014798
0.0148486
0.0149112
0.0149887
0.0150842
0.0152016
0.0153452
0.0155203
0.0157332
0.0159914
0.0163054
0.0145934
0.0145935
0.0145936
0.0145938
0.014594
0.0145942
0.0145945
0.0145949
0.0145953
0.0145959
0.0145966
0.0145975
0.0145986
0.0146
0.0146018
0.014604
0.0146067
0.0146101
0.0146144
0.0146197
0.0146264
0.0146347
0.0146451
0.0146581
0.0146743
0.0146945
0.0147196
0.014751
0.01479
0.0148384
0.0148984
0.0149726
0.0150642
0.0151767
0.0153146
0.0154826
0.0156863
0.0159318
0.0162255
0.016574
0.0169839
0.0174621
0.0180152
0.0186485
0.014594
0.0145943
0.0145945
0.0145949
0.0145954
0.0145959
0.0145967
0.0145975
0.0145986
0.0146
0.0146017
0.0146039
0.0146065
0.0146098
0.0146139
0.0146191
0.0146255
0.0146335
0.0146435
0.0146559
0.0146714
0.0146906
0.0147146
0.0147445
0.0147816
0.0148276
0.0148846
0.0149551
0.015042
0.015149
0.01528
0.0154399
0.015634
0.0158683
0.0161492
0.0164831
0.0168766
0.0173355
0.0178649
0.018468
0.0191463
0.0198996
0.0207247
0.0216166
0.0225651
0.0145954
0.014596
0.0145967
0.0145976
0.0145987
0.0146001
0.0146017
0.0146038
0.0146064
0.0146096
0.0146136
0.0146186
0.0146248
0.0146325
0.0146421
0.014654
0.0146688
0.0146872
0.01471
0.0147384
0.0147735
0.0148171
0.014871
0.0149376
0.0150198
0.0151207
0.0152444
0.0153954
0.0155789
0.0158006
0.0160668
0.016384
0.0167587
0.0171971
0.0177046
0.0182852
0.018941
0.0196715
0.0204744
0.0213432
0.0222684
0.0232382
0.0242387
0.0252549
0.0262683
0.027261
0.0145977
0.0145988
0.0146002
0.0146018
0.0146039
0.0146065
0.0146096
0.0146135
0.0146184
0.0146244
0.0146319
0.0146411
0.0146525
0.0146667
0.0146843
0.0147061
0.014733
0.0147664
0.0148077
0.0148587
0.0149215
0.0149989
0.015094
0.0152103
0.0153523
0.0155249
0.0157335
0.0159842
0.0162835
0.0166378
0.0170534
0.0175361
0.0180903
0.0187192
0.0194233
0.0202008
0.0210476
0.0219556
0.0229136
0.0239088
0.024926
0.0259473
0.0269512
0.0279127
0.0288059
0.0296103
0.0303101
0.0309143
0.0146067
0.0146098
0.0146137
0.0146185
0.0146244
0.0146316
0.0146406
0.0146517
0.0146654
0.0146823
0.0147032
0.0147289
0.0147607
0.0148
0.0148483
0.0149077
0.0149807
0.0150703
0.0151797
0.0153132
0.0154752
0.0156711
0.0159065
0.0161878
0.0165213
0.0169133
0.0173698
0.0178957
0.0184946
0.0191684
0.0199163
0.0207351
0.021619
0.0225584
0.0235413
0.0245541
0.025581
0.0266035
0.0275993
0.0285429
0.0294097
0.03018
0.0308427
0.0313949
0.0318407
0.0321917
0.0324539
0.0326511
0.014619
0.0146248
0.014632
0.0146408
0.0146516
0.0146649
0.0146813
0.0147015
0.0147263
0.0147569
0.0147944
0.0148404
0.0148969
0.0149662
0.0150508
0.0151541
0.0152798
0.0154322
0.0156162
0.0158374
0.0161015
0.0164149
0.0167838
0.0172142
0.0177113
0.0182793
0.0189207
0.019636
0.0204232
0.0212776
0.022192
0.0231557
0.0241561
0.0251792
0.0262089
0.0272261
0.0282082
0.0291302
0.0299691
0.0307078
0.0313379
0.0318592
0.0322781
0.0326047
0.0328508
0.0330266
0.0331441
0.033215
0.0332419
0.0332332
0.0146656
0.0146817
0.0147014
0.0147256
0.0147552
0.0147914
0.0148357
0.0148898
0.0149559
0.0150365
0.0151346
0.0152536
0.0153976
0.0155712
0.0157795
0.0160281
0.016323
0.0166703
0.0170758
0.0175451
0.0180826
0.0186914
0.0193729
0.0201262
0.0209481
0.0218327
0.0227714
0.0237529
0.024764
0.0257908
0.026817
0.0278234
0.0287872
0.0296843
0.0304935
0.0312003
0.031799
0.0322914
0.0326854
0.0329917
0.0332224
0.0333882
0.0335006
0.0335684
0.0335997
0.0335946
0.0335676
0.0335171
0.0334453
0.0333582
0.0147914
0.0148345
0.014887
0.0149508
0.0150283
0.0151222
0.0152358
0.0153729
0.0155377
0.0157351
0.0159703
0.0162489
0.0165768
0.0169598
0.0174033
0.017912
0.0184895
0.0191376
0.0198566
0.0206444
0.0214966
0.022406
0.0233632
0.0243561
0.0253717
0.0263963
0.0274134
0.0284038
0.0293451
0.0302143
0.0309923
0.0316669
0.0322348
0.0326996
0.03307
0.0333574
0.0335737
0.0337298
0.0338364
0.0339024
0.0339351
0.0339362
0.0339168
0.0338757
0.0338161
0.033741
0.0336537
0.0335532
0.0334387
0.0333095
0.0151179
0.0152276
0.0153594
0.0155174
0.015706
0.0159301
0.0161951
0.0165065
0.0168699
0.0172906
0.0177733
0.0183218
0.0189387
0.0196246
0.0203784
0.021197
0.0220749
0.0230038
0.0239737
0.0249722
0.0259865
0.0270031
0.0280059
0.0289755
0.0298903
0.0307287
0.0314736
0.0321155
0.0326528
0.0330907
0.0334385
0.0337077
0.0339102
0.0340567
0.0341571
0.0342206
0.0342537
0.034259
0.0342445
0.0342117
0.0341619
0.034097
0.0340207
0.0339339
0.0338358
0.0337264
0.033606
0.0334736
0.0333278
0.0331641
0.0159098
0.0161642
0.0164624
0.0168096
0.017211
0.0176713
0.0181943
0.0187829
0.0194382
0.0201599
0.0209456
0.021791
0.0226899
0.023633
0.0246099
0.0256081
0.0266154
0.0276187
0.0286019
0.0295461
0.0304304
0.0312349
0.0319448
0.0325529
0.0330594
0.0334706
0.0337961
0.0340476
0.0342365
0.0343733
0.0344674
0.0345276
0.0345601
0.0345679
0.0345566
0.0345299
0.0344881
0.0344324
0.0343648
0.0342883
0.0342032
0.0341084
0.0340036
0.0338884
0.0337617
0.0336217
0.0334685
0.0333011
0.0331222
0.0329263
0.0176104
0.0181121
0.0186763
0.0193046
0.0199971
0.020752
0.0215661
0.0224342
0.0233489
0.0243007
0.0252786
0.0262708
0.0272655
0.02825
0.0292085
0.0301225
0.0309721
0.0317395
0.0324121
0.0329849
0.0334599
0.0338441
0.0341474
0.0343811
0.0345564
0.0346834
0.0347709
0.0348272
0.034858
0.0348671
0.034858
0.0348354
0.0347997
0.0347514
0.0346922
0.0346236
0.0345481
0.0344651
0.0343732
0.0342717
0.0341603
0.0340376
0.0339026
0.0337556
0.0335974
0.0334276
0.0332473
0.0330552
0.032853
0.0326359
0.0206249
0.0214099
0.0222483
0.0231342
0.0240594
0.0250138
0.0259868
0.0269669
0.0279433
0.0289036
0.029832
0.0307107
0.0315212
0.0322478
0.0328804
0.0334163
0.0338586
0.0342152
0.0344958
0.0347116
0.034873
0.0349899
0.0350704
0.0351222
0.0351507
0.0351596
0.035152
0.0351322
0.0351005
0.0350583
0.0350058
0.0349451
0.0348768
0.0348025
0.0347207
0.0346305
0.0345308
0.0344217
0.0343024
0.0341721
0.0340319
0.0338816
0.0337215
0.0335509
0.0333702
0.0331788
0.0329767
0.032764
0.032542
0.0323071
0.0248283
0.0257789
0.0267404
0.0277024
0.0286545
0.0295847
0.0304774
0.0313154
0.0320821
0.032764
0.0333539
0.0338506
0.0342589
0.0345868
0.0348442
0.0350414
0.0351887
0.035295
0.035368
0.0354147
0.0354404
0.035448
0.035441
0.035423
0.0353941
0.0353558
0.035309
0.0352547
0.0351934
0.0351251
0.0350513
0.0349697
0.0348798
0.0347814
0.0346744
0.0345589
0.0344341
0.0343002
0.0341571
0.0340043
0.0338421
0.0336706
0.0334895
0.0332979
0.0330964
0.0328855
0.0326653
0.032436
0.0321989
0.0319512
0.0294037
0.0302975
0.0311483
0.03194
0.0326578
0.0332911
0.033835
0.0342905
0.0346633
0.0349614
0.0351947
0.0353728
0.0355053
0.0356004
0.0356655
0.0357066
0.0357286
0.0357342
0.0357269
0.0357096
0.0356827
0.0356471
0.0356043
0.0355552
0.0354995
0.0354374
0.0353687
0.0352939
0.0352118
0.0351222
0.0350254
0.0349215
0.03481
0.0346898
0.0345612
0.034424
0.034278
0.0341229
0.0339595
0.0337874
0.0336053
0.0334136
0.0332128
0.0330028
0.032784
0.032557
0.0323228
0.0320818
0.0318352
0.0315809
0.0332497
0.0338303
0.0343253
0.0347375
0.0350732
0.0353405
0.0355487
0.0357071
0.0358244
0.0359077
0.0359642
0.0359992
0.0360171
0.0360197
0.0360116
0.035994
0.0359679
0.0359342
0.0358941
0.0358489
0.0357979
0.0357403
0.0356761
0.0356063
0.0355306
0.0354485
0.03536
0.0352654
0.0351642
0.0350558
0.0349393
0.0348152
0.0346835
0.0345437
0.0343956
0.0342388
0.0340742
0.0339005
0.0337174
0.0335258
0.0333255
0.0331162
0.0328989
0.032674
0.0324422
0.0322042
0.0319612
0.031714
0.0314639
0.0312093
0.035489
0.0357246
0.0359072
0.0360453
0.0361467
0.0362179
0.0362654
0.0362938
0.0363069
0.0363057
0.0362962
0.0362777
0.0362514
0.0362187
0.0361807
0.0361381
0.0360903
0.0360365
0.0359763
0.0359101
0.0358393
0.0357633
0.0356818
0.0355946
0.0355017
0.0354026
0.0352967
0.0351838
0.0350641
0.0349374
0.0348027
0.0346602
0.0345098
0.0343513
0.0341852
0.0340101
0.0338266
0.0336349
0.0334346
0.0332262
0.0330104
0.0327873
0.0325578
0.0323225
0.0320826
0.0318388
0.0315926
0.031345
0.0310974
0.0308486
0.0364727
0.0365316
0.0365696
0.0365909
0.0365984
0.036594
0.0365818
0.0365617
0.0365347
0.0365022
0.0364655
0.0364247
0.0363787
0.0363277
0.0362708
0.0362083
0.0361409
0.0360697
0.0359938
0.0359125
0.0358261
0.0357346
0.0356375
0.0355342
0.0354247
0.0353087
0.0351858
0.0350556
0.0349179
0.0347731
0.0346207
0.0344608
0.0342928
0.0341166
0.0339327
0.0337406
0.0335406
0.0333331
0.0331185
0.0328972
0.0326699
0.0324372
0.0322002
0.0319596
0.0317167
0.0314726
0.0312288
0.0309863
0.0307468
0.0305091
0.0368924
0.0368848
0.0368694
0.036847
0.0368189
0.0367861
0.03675
0.0367098
0.0366652
0.0366157
0.0365612
0.0365018
0.0364379
0.0363699
0.0362983
0.0362219
0.0361407
0.0360552
0.0359651
0.03587
0.0357691
0.0356622
0.035549
0.0354294
0.0353032
0.0351699
0.0350299
0.034883
0.0347285
0.0345667
0.0343973
0.0342203
0.0340357
0.0338433
0.0336437
0.033437
0.0332235
0.0330039
0.0327787
0.0325486
0.0323143
0.0320769
0.0318372
0.0315964
0.0313558
0.0311165
0.0308802
0.0306479
0.0304212
0.0301991
0.0371046
0.0370712
0.037035
0.0369947
0.0369506
0.036902
0.0368491
0.0367922
0.0367311
0.0366661
0.0365973
0.0365248
0.0364481
0.0363673
0.0362828
0.0361941
0.0361006
0.0360012
0.0358963
0.0357857
0.0356692
0.0355463
0.035417
0.0352811
0.0351387
0.0349895
0.0348329
0.0346696
0.034499
0.0343211
0.0341357
0.0339432
0.033744
0.033538
0.0333258
0.0331078
0.0328847
0.0326569
0.0324254
0.0321908
0.0319542
0.0317166
0.0314792
0.0312431
0.0310096
0.0307799
0.0305556
0.0303376
0.0301274
0.029924
0.0372361
0.0371878
0.0371359
0.0370805
0.0370218
0.0369593
0.0368927
0.0368229
0.0367499
0.0366732
0.0365931
0.0365094
0.0364215
0.0363288
0.0362308
0.0361278
0.0360195
0.0359055
0.0357855
0.0356594
0.0355272
0.035389
0.0352442
0.0350928
0.0349344
0.0347696
0.0345978
0.0344188
0.034233
0.0340406
0.0338416
0.0336364
0.0334255
0.0332091
0.0329879
0.0327625
0.0325335
0.0323018
0.0320683
0.0318338
0.0315994
0.0313663
0.0311357
0.0309086
0.0306864
0.0304702
0.0302615
0.0300609
0.0298698
0.0296872
0.0373682
0.037311
0.0372503
0.0371859
0.0371181
0.0370476
0.0369744
0.036898
0.0368181
0.0367347
0.0366472
0.0365553
0.0364585
0.0363571
0.0362506
0.0361386
0.0360211
0.0358978
0.035769
0.0356344
0.0354935
0.0353465
0.035193
0.0350331
0.0348668
0.0346936
0.0345139
0.0343278
0.0341354
0.0339368
0.0337325
0.0335227
0.033308
0.0330887
0.0328655
0.0326391
0.0324101
0.0321795
0.031948
0.0317168
0.0314866
0.0312588
0.0310343
0.0308144
0.0306001
0.0303926
0.0301929
0.0300021
0.0298209
0.0296504
0.0294895
0.0374115
0.0373429
0.0372722
0.0371988
0.0371221
0.037042
0.0369587
0.0368717
0.0367804
0.0366846
0.0365843
0.0364792
0.0363689
0.0362536
0.0361329
0.0360069
0.0358754
0.0357381
0.0355948
0.0354457
0.0352902
0.0351289
0.034961
0.0347868
0.0346066
0.0344202
0.0342278
0.0340297
0.0338263
0.0336177
0.0334046
0.0331872
0.0329662
0.0327423
0.032516
0.0322882
0.0320597
0.0318314
0.0316042
0.0313792
0.0311573
0.0309397
0.0307273
0.0305213
0.0303226
0.0301322
0.0299509
0.0297797
0.0296188
0.0294693
0.0293296
0.0374966
0.0374225
0.0373451
0.0372649
0.0371818
0.037095
0.0370041
0.0369089
0.0368094
0.0367055
0.0365968
0.0364832
0.0363647
0.0362413
0.0361125
0.0359783
0.0358385
0.0356931
0.0355419
0.0353847
0.0352217
0.0350526
0.0348776
0.0346968
0.0345101
0.034318
0.0341205
0.0339179
0.0337106
0.033499
0.0332836
0.0330648
0.0328432
0.0326196
0.0323946
0.0321689
0.0319436
0.0317193
0.031497
0.0312778
0.0310625
0.0308522
0.0306478
0.0304503
0.0302605
0.0300793
0.0299075
0.0297456
0.0295944
0.0294537
0.0293243
0.0292046
0.0374871
0.0374039
0.0373171
0.0372262
0.0371315
0.0370328
0.0369298
0.0368223
0.0367103
0.0365937
0.0364724
0.036346
0.0362145
0.0360778
0.0359358
0.0357883
0.035635
0.0354762
0.0353118
0.0351416
0.0349659
0.0347846
0.0345979
0.034406
0.0342091
0.0340075
0.0338016
0.0335916
0.033378
0.0331613
0.0329422
0.0327211
0.0324988
0.032276
0.0320535
0.0318321
0.0316126
0.031396
0.0311831
0.0309748
0.0307722
0.030576
0.0303871
0.0302061
0.0300341
0.0298714
0.0297188
0.0295762
0.0294445
0.0293227
0.0292127
0.0291117
0.0374468
0.0373524
0.0372543
0.037152
0.0370455
0.0369348
0.0368199
0.0367004
0.0365761
0.036447
0.0363131
0.0361741
0.0360298
0.0358802
0.0357251
0.035565
0.0353992
0.0352281
0.0350517
0.0348702
0.0346835
0.034492
0.0342958
0.0340952
0.0338906
0.0336822
0.0334705
0.033256
0.0330392
0.0328207
0.0326011
0.0323811
0.0321614
0.0319428
0.0317261
0.031512
0.0313016
0.0310954
0.0308947
0.0306998
0.0305119
0.0303315
0.0301595
0.0299962
0.0298426
0.0296984
0.0295646
0.0294403
0.0293272
0.0292232
0.0291313
0.0290481
0.0373719
0.0372664
0.037157
0.0370434
0.0369254
0.0368029
0.0366761
0.0365446
0.0364082
0.0362668
0.0361204
0.035969
0.0358124
0.0356508
0.035484
0.0353121
0.0351353
0.0349536
0.0347671
0.034576
0.0343806
0.0341811
0.0339778
0.0337711
0.0335613
0.0333489
0.0331345
0.0329185
0.0327015
0.0324843
0.0322674
0.0320516
0.0318376
0.0316262
0.0314181
0.0312142
0.0310153
0.0308219
0.0306352
0.0304555
0.0302838
0.0301202
0.0299657
0.0298203
0.0296846
0.0295583
0.0294421
0.0293351
0.0292394
0.0291527
0.0290773
0.0290097
0.037264
0.0371473
0.0370266
0.0369017
0.0367723
0.0366382
0.0364994
0.036356
0.0362078
0.0360546
0.0358966
0.0357338
0.0355662
0.0353937
0.0352165
0.0350348
0.0348485
0.034658
0.0344635
0.0342651
0.0340632
0.0338582
0.0336503
0.0334401
0.033228
0.0330145
0.0328002
0.0325857
0.0323716
0.0321585
0.0319472
0.0317384
0.0315328
0.0313311
0.0311342
0.0309425
0.030757
0.0305781
0.0304068
0.0302432
0.0300882
0.0299418
0.0298046
0.0296764
0.0295576
0.0294479
0.0293487
0.0292584
0.0291787
0.0291073
0.0290464
0.0289928
0.0371238
0.0369962
0.0368642
0.0367279
0.0365871
0.0364417
0.0362917
0.0361371
0.0359779
0.0358141
0.0356457
0.0354728
0.0352954
0.0351138
0.0349279
0.0347381
0.0345445
0.0343473
0.0341469
0.0339436
0.0337377
0.0335296
0.0333199
0.0331089
0.0328972
0.0326854
0.0324741
0.0322637
0.0320552
0.031849
0.0316458
0.0314464
0.0312514
0.0310615
0.0308774
0.0306995
0.0305287
0.0303652
0.0302099
0.0300627
0.0299244
0.0297945
0.0296736
0.0295614
0.0294591
0.0293654
0.0292818
0.0292064
0.029141
0.0290831
0.0290346
0.0289916
0.036952
0.0368136
0.0366708
0.0365237
0.0363723
0.0362163
0.0360561
0.0358915
0.0357225
0.0355493
0.035372
0.0351905
0.0350052
0.0348161
0.0346236
0.0344277
0.0342288
0.0340273
0.0338234
0.0336175
0.0334101
0.0332017
0.0329926
0.0327835
0.0325749
0.0323673
0.0321615
0.0319579
0.0317572
0.0315601
0.0313672
0.0311791
0.0309964
0.0308197
0.0306496
0.0304865
0.0303309
0.0301831
0.0300439
0.0299126
0.02979
0.0296756
0.0295705
0.0294737
0.0293865
0.0293074
0.0292377
0.0291755
0.0291226
0.0290758
0.0290372
0.0290041
0.036602
0.0364493
0.0362923
0.0361312
0.035966
0.0357967
0.0356233
0.0354461
0.035265
0.0350803
0.0348921
0.0347007
0.0345062
0.034309
0.0341093
0.0339074
0.0337038
0.0334988
0.0332928
0.0330864
0.03288
0.0326741
0.0324693
0.0322661
0.0320652
0.031867
0.0316722
0.0314814
0.0312952
0.031114
0.0309386
0.0307693
0.0306068
0.0304513
0.0303033
0.0301631
0.0300306
0.0299066
0.0297902
0.0296827
0.0295831
0.0294927
0.0294101
0.0293364
0.0292704
0.0292128
0.0291623
0.0291189
0.0290817
0.0290522
0.0290281
0.0363648
0.0362031
0.0360374
0.0358679
0.0356946
0.0355176
0.0353371
0.0351532
0.034966
0.0347758
0.0345828
0.0343873
0.0341894
0.0339897
0.0337883
0.0335857
0.0333823
0.0331786
0.0329749
0.0327717
0.0325697
0.0323692
0.0321709
0.0319753
0.0317828
0.0315942
0.0314099
0.0312304
0.0310563
0.0308881
0.0307262
0.0305709
0.0304229
0.0302821
0.0301486
0.0300233
0.0299052
0.0297955
0.0296935
0.0296001
0.0295143
0.029437
0.0293671
0.0293053
0.0292506
0.0292033
0.0291618
0.0291273
0.0290987
0.0290772
0.0290605
0.0361057
0.0359361
0.0357631
0.0355866
0.0354067
0.0352237
0.0350377
0.0348488
0.0346574
0.0344636
0.0342678
0.0340702
0.0338711
0.033671
0.0334702
0.0332691
0.0330681
0.0328678
0.0326685
0.0324707
0.0322751
0.032082
0.031892
0.0317056
0.0315232
0.0313455
0.0311729
0.0310058
0.0308446
0.0306898
0.0305417
0.0304006
0.0302665
0.0301401
0.0300206
0.029909
0.0298048
0.0297086
0.02962
0.0295393
0.0294659
0.0294001
0.0293413
0.0292899
0.0292444
0.0292054
0.0291722
0.0291456
0.0291244
0.0291094
0.0290987
0.0356527
0.0354737
0.0352917
0.0351069
0.0349196
0.0347298
0.0345379
0.0343442
0.0341488
0.0339521
0.0337545
0.0335563
0.0333579
0.0331597
0.0329621
0.0327656
0.0325706
0.0323777
0.0321871
0.0319996
0.0318154
0.0316352
0.0314593
0.0312882
0.0311224
0.0309621
0.030808
0.03066
0.0305187
0.0303842
0.0302568
0.0301363
0.0300229
0.0299168
0.0298182
0.0297269
0.0296431
0.0295664
0.029497
0.0294344
0.0293787
0.0293296
0.0292863
0.0292487
0.0292173
0.0291913
0.0291713
0.0291561
0.0291465
0.0291406
0.0353571
0.0351737
0.034988
0.0348
0.0346101
0.0344185
0.0342254
0.0340312
0.0338361
0.0336406
0.0334449
0.0332495
0.0330547
0.0328611
0.0326689
0.0324786
0.0322907
0.0321057
0.0319238
0.0317457
0.0315717
0.0314023
0.0312378
0.0310786
0.0309252
0.0307776
0.0306363
0.0305015
0.0303734
0.030252
0.0301373
0.0300295
0.0299287
0.0298349
0.0297483
0.0296686
0.0295958
0.0295297
0.0294702
0.0294169
0.0293699
0.0293282
0.0292921
0.0292616
0.0292366
0.0292167
0.0292019
0.0291916
0.0291864
0.0291846
0.0350538
0.0348678
0.0346799
0.0344905
0.0342998
0.0341081
0.0339157
0.0337229
0.03353
0.0333375
0.0331456
0.0329547
0.0327654
0.0325779
0.0323926
0.0322101
0.0320307
0.0318548
0.0316828
0.0315151
0.031352
0.0311941
0.0310415
0.0308944
0.0307534
0.0306185
0.0304898
0.0303677
0.0302519
0.0301426
0.03004
0.029944
0.0298549
0.0297724
0.0296965
0.029627
0.0295638
0.0295068
0.0294558
0.0294103
0.0293701
0.0293351
0.0293054
0.0292808
0.0292611
0.029246
0.0292356
0.0292292
0.0292274
0.0292286
0.0347473
0.0345603
0.034372
0.0341829
0.0339932
0.0338032
0.0336131
0.0334234
0.0332345
0.0330465
0.03286
0.0326753
0.0324928
0.0323129
0.0321359
0.0319622
0.0317924
0.0316265
0.031465
0.0313085
0.0311567
0.0310104
0.0308698
0.0307349
0.030606
0.0304833
0.0303666
0.0302561
0.0301519
0.030054
0.0299626
0.0298775
0.0297988
0.0297262
0.0296597
0.029599
0.0295442
0.0294949
0.0294509
0.0294118
0.0293776
0.0293484
0.029324
0.0293042
0.0292888
0.0292775
0.0292705
0.0292673
0.029268
0.0292714
0.0344418
0.0342553
0.0340684
0.0338812
0.0336941
0.0335073
0.0333213
0.0331363
0.0329527
0.0327709
0.0325911
0.0324139
0.0322394
0.0320681
0.0319003
0.0317364
0.0315768
0.0314215
0.0312709
0.0311255
0.0309854
0.0308507
0.0307218
0.0305986
0.0304813
0.0303698
0.0302642
0.0301647
0.0300712
0.0299839
0.0299025
0.0298271
0.0297575
0.0296935
0.0296351
0.0295821
0.0295343
0.0294914
0.0294531
0.0294195
0.0293906
0.0293661
0.029346
0.0293299
0.0293179
0.0293097
0.0293054
0.0293046
0.029307
0.0293122
0.0341411
0.0339569
0.0337727
0.033589
0.033406
0.033224
0.0330434
0.0328644
0.0326875
0.0325129
0.032341
0.0321722
0.0320066
0.0318448
0.0316868
0.0315331
0.0313839
0.0312395
0.0311
0.0309658
0.0308369
0.0307135
0.0305958
0.0304835
0.0303768
0.0302759
0.0301806
0.0300912
0.0300076
0.0299296
0.0298571
0.0297901
0.0297284
0.0296718
0.0296203
0.0295737
0.0295316
0.0294939
0.0294606
0.0294317
0.029407
0.0293863
0.0293695
0.0293565
0.0293472
0.0293413
0.0293391
0.0293399
0.0293436
0.02935
0.0338489
0.0336682
0.0334883
0.0333093
0.0331317
0.0329558
0.0327817
0.0326099
0.0324407
0.0322743
0.0321111
0.0319514
0.0317953
0.0316432
0.0314955
0.0313522
0.0312136
0.0310799
0.0309513
0.0308279
0.0307098
0.0305971
0.0304895
0.0303874
0.0302907
0.0301994
0.0301137
0.0300334
0.0299583
0.0298885
0.0298237
0.0297639
0.0297089
0.0296586
0.029613
0.0295715
0.0295342
0.029501
0.0294719
0.0294467
0.0294253
0.0294076
0.0293934
0.0293827
0.0293754
0.0293713
0.0293706
0.0293723
0.0293771
0.0293841
0.0333923
0.0332177
0.0330448
0.0328737
0.0327047
0.0325382
0.0323743
0.0322136
0.032056
0.0319019
0.0317517
0.0316055
0.0314635
0.0313259
0.031193
0.0310648
0.0309416
0.0308234
0.0307102
0.0306021
0.030499
0.030401
0.0303083
0.0302207
0.0301383
0.0300609
0.0299885
0.029921
0.0298582
0.0298
0.0297463
0.029697
0.0296519
0.0296109
0.0295737
0.0295404
0.0295109
0.0294851
0.0294628
0.0294441
0.0294286
0.0294165
0.0294075
0.0294017
0.0293989
0.029399
0.0294015
0.0294068
0.0294141
0.0331313
0.0329632
0.0327971
0.0326334
0.0324723
0.0323139
0.0321586
0.0320067
0.0318584
0.0317138
0.0315732
0.0314368
0.0313048
0.0311773
0.0310544
0.0309362
0.0308229
0.0307143
0.0306105
0.0305116
0.0304175
0.0303283
0.030244
0.0301646
0.0300899
0.0300198
0.0299543
0.0298931
0.0298363
0.0297837
0.0297351
0.0296905
0.0296497
0.0296125
0.0295788
0.0295488
0.0295222
0.029499
0.029479
0.0294622
0.0294485
0.0294379
0.0294301
0.0294253
0.0294234
0.029424
0.0294268
0.0294322
0.0294394
0.032887
0.0327262
0.0325677
0.0324119
0.0322591
0.0321093
0.031963
0.0318202
0.0316812
0.0315461
0.0314151
0.0312884
0.031166
0.0310481
0.0309347
0.030826
0.0307217
0.030622
0.0305268
0.0304363
0.0303504
0.0302692
0.0301924
0.0301201
0.030052
0.0299882
0.0299285
0.0298728
0.029821
0.0297729
0.0297286
0.0296878
0.0296504
0.0296163
0.0295856
0.0295581
0.0295337
0.0295125
0.0294942
0.0294789
0.0294664
0.0294568
0.0294499
0.0294457