/*--------------------------------*- C++ -*----------------------------------*\
| =========                 |                                                 |
| \\      /  F ield         | OpenFOAM: The Open Source CFD Toolbox           |
|  \\    /   O peration     | Version:  v1706                                 |
|   \\  /    A nd           | Web:      www.OpenFOAM.com                      |
|    \\/     M anipulation  |                                                 |
\*---------------------------------------------------------------------------*/
FoamFile
{
    version     2.0;
    format      ascii;
    class       volScalarField;
    location    "1.7e-05";
    object      kappave;
}
// * * * * * * * * * * * * * * * * * * * * * * * * * * * * * * * * * * * * * //

dimensions      [1 1 -3 -1 0 0 0];


internalField   nonuniform List<scalar> 
30038
(
1.46038e-10
1.46038e-10
1.46038e-10
1.46038e-10
1.46038e-10
1.46038e-10
1.46038e-10
1.46038e-10
1.46038e-10
1.46038e-10
1.46038e-10
1.46038e-10
1.46038e-10
1.46038e-10
1.46038e-10
1.46038e-10
1.46038e-10
1.46038e-10
1.46038e-10
1.46038e-10
1.46038e-10
1.46038e-10
1.46038e-10
1.46038e-10
1.46038e-10
1.46038e-10
1.46038e-10
1.46038e-10
1.46038e-10
1.46038e-10
1.46038e-10
1.46038e-10
1.46038e-10
1.46038e-10
1.46038e-10
1.46038e-10
1.46038e-10
1.46038e-10
1.46038e-10
1.46038e-10
1.46038e-10
1.46038e-10
1.46038e-10
1.46038e-10
1.46038e-10
1.46038e-10
1.46038e-10
1.46038e-10
1.46038e-10
1.46038e-10
1.46038e-10
1.46038e-10
1.46038e-10
1.46038e-10
1.46038e-10
1.46038e-10
1.46038e-10
1.46038e-10
1.46038e-10
1.46038e-10
1.46038e-10
1.46038e-10
1.46038e-10
1.46038e-10
1.46038e-10
1.46038e-10
1.46038e-10
1.46038e-10
1.46038e-10
1.46038e-10
1.46038e-10
1.46038e-10
1.46038e-10
1.46038e-10
1.46038e-10
1.46038e-10
1.46038e-10
1.46038e-10
1.46038e-10
1.46038e-10
1.46038e-10
1.46038e-10
1.46038e-10
1.46038e-10
1.46038e-10
1.46038e-10
1.46038e-10
1.46038e-10
1.46038e-10
1.46038e-10
1.46038e-10
1.46038e-10
1.46038e-10
1.46038e-10
1.46038e-10
1.46038e-10
1.46038e-10
1.46038e-10
1.46038e-10
1.46038e-10
1.46038e-10
1.46038e-10
1.46038e-10
1.46038e-10
1.46038e-10
1.46038e-10
1.46038e-10
1.46038e-10
1.46038e-10
1.46038e-10
1.46038e-10
1.46038e-10
1.46038e-10
1.46038e-10
1.46038e-10
1.46038e-10
1.46038e-10
1.46038e-10
1.46038e-10
1.46038e-10
1.46038e-10
1.46038e-10
1.46038e-10
1.46038e-10
1.46038e-10
1.46038e-10
1.46038e-10
1.46038e-10
1.46038e-10
1.46038e-10
1.46038e-10
1.46038e-10
1.46038e-10
1.46038e-10
1.46038e-10
1.46038e-10
1.46038e-10
1.46038e-10
1.46038e-10
1.46038e-10
1.46038e-10
1.46038e-10
1.46038e-10
1.46038e-10
1.46038e-10
1.46038e-10
1.46038e-10
1.46038e-10
1.46038e-10
1.46038e-10
1.46038e-10
1.46038e-10
1.46038e-10
1.46038e-10
1.46038e-10
1.46038e-10
1.46038e-10
1.46038e-10
1.46038e-10
1.46038e-10
1.46038e-10
1.46038e-10
1.46038e-10
1.46038e-10
1.46038e-10
1.46038e-10
1.46038e-10
1.46038e-10
1.46038e-10
1.46038e-10
1.46038e-10
1.46038e-10
1.46038e-10
1.46038e-10
1.46038e-10
1.46038e-10
1.46038e-10
1.46038e-10
1.46038e-10
1.46038e-10
1.46038e-10
1.46038e-10
1.46038e-10
1.46038e-10
1.46038e-10
1.46038e-10
1.46038e-10
1.46038e-10
1.46038e-10
1.46038e-10
1.46038e-10
1.46038e-10
1.46038e-10
1.46038e-10
1.46038e-10
1.46038e-10
1.46038e-10
1.46038e-10
1.46038e-10
1.46038e-10
1.46038e-10
1.46038e-10
1.46038e-10
1.46038e-10
1.46038e-10
1.46038e-10
1.46038e-10
1.46038e-10
1.46038e-10
1.46038e-10
1.46038e-10
1.46038e-10
1.46038e-10
1.46038e-10
1.46038e-10
1.46038e-10
1.46038e-10
1.46038e-10
1.46038e-10
1.46038e-10
1.46038e-10
1.46038e-10
1.46038e-10
1.46038e-10
1.46038e-10
1.46038e-10
1.46038e-10
1.46038e-10
1.46038e-10
1.46038e-10
1.46038e-10
1.46038e-10
1.46038e-10
1.46038e-10
1.46038e-10
1.46038e-10
1.46038e-10
1.46038e-10
1.46038e-10
1.46038e-10
1.46038e-10
1.46038e-10
1.46038e-10
1.46038e-10
1.46038e-10
1.46038e-10
1.46038e-10
1.46038e-10
1.46038e-10
1.46038e-10
1.46038e-10
1.46038e-10
1.46038e-10
1.46038e-10
1.46038e-10
1.46038e-10
1.46038e-10
1.46038e-10
1.46038e-10
1.46038e-10
1.46038e-10
1.46038e-10
1.46038e-10
1.46038e-10
1.46038e-10
1.46038e-10
1.46038e-10
1.46038e-10
1.46038e-10
1.46038e-10
1.46038e-10
1.46038e-10
1.46038e-10
1.46038e-10
1.46038e-10
1.46038e-10
1.46038e-10
1.46038e-10
1.46038e-10
1.46038e-10
1.46038e-10
1.46038e-10
1.46038e-10
1.46038e-10
1.46038e-10
1.46038e-10
1.46038e-10
1.46038e-10
1.46038e-10
1.46038e-10
1.46038e-10
1.46038e-10
1.46038e-10
1.46038e-10
1.46038e-10
1.46038e-10
1.46038e-10
1.46038e-10
1.46038e-10
1.46038e-10
1.46038e-10
1.46038e-10
1.46038e-10
1.46038e-10
1.46038e-10
1.46038e-10
1.46038e-10
1.46038e-10
1.46038e-10
1.46038e-10
1.46038e-10
1.46038e-10
1.46038e-10
1.46038e-10
1.46038e-10
1.46038e-10
1.46038e-10
1.46038e-10
1.46038e-10
1.46038e-10
1.46038e-10
1.46038e-10
1.46038e-10
1.46038e-10
1.46038e-10
1.46038e-10
1.46038e-10
1.46038e-10
1.46038e-10
1.46038e-10
1.46038e-10
1.46038e-10
1.46038e-10
1.46038e-10
1.46038e-10
1.46038e-10
1.46038e-10
1.46038e-10
1.46038e-10
1.46038e-10
1.46038e-10
1.46038e-10
1.46038e-10
1.46038e-10
1.46038e-10
1.46038e-10
1.46038e-10
1.46038e-10
1.46038e-10
1.46038e-10
1.46038e-10
1.46038e-10
1.46038e-10
1.46038e-10
1.46038e-10
1.46038e-10
1.46038e-10
1.46038e-10
1.46038e-10
1.46038e-10
1.46038e-10
1.46038e-10
1.46038e-10
1.46038e-10
1.46038e-10
1.46038e-10
1.46038e-10
1.46038e-10
1.46038e-10
1.46038e-10
1.46038e-10
1.46038e-10
1.46038e-10
1.46038e-10
1.46038e-10
1.46038e-10
1.46038e-10
1.46038e-10
1.46038e-10
1.46038e-10
1.46038e-10
1.46038e-10
1.46038e-10
1.46038e-10
1.46038e-10
1.46038e-10
1.46038e-10
1.46038e-10
1.46038e-10
1.46038e-10
1.46038e-10
1.46038e-10
1.46038e-10
1.46038e-10
1.46038e-10
1.46038e-10
1.46038e-10
1.46038e-10
1.46038e-10
1.46038e-10
1.46038e-10
1.46038e-10
1.46038e-10
1.46038e-10
1.46038e-10
1.46038e-10
1.46038e-10
1.46038e-10
1.46038e-10
1.46038e-10
1.46038e-10
1.46038e-10
1.46038e-10
1.46038e-10
1.46038e-10
1.46038e-10
1.46038e-10
1.46038e-10
1.46038e-10
1.46038e-10
1.46038e-10
1.46038e-10
1.46038e-10
1.46038e-10
1.46038e-10
1.46038e-10
1.46038e-10
1.46038e-10
1.46038e-10
1.46038e-10
1.46038e-10
1.46038e-10
1.46038e-10
1.46038e-10
1.46038e-10
1.46038e-10
1.46038e-10
1.46038e-10
1.46038e-10
1.46038e-10
1.46038e-10
1.46038e-10
1.46038e-10
1.46038e-10
1.46038e-10
1.46038e-10
1.46038e-10
1.46038e-10
1.46038e-10
1.46038e-10
1.46038e-10
1.46038e-10
1.46038e-10
1.46038e-10
1.46038e-10
1.46038e-10
1.46038e-10
1.46038e-10
1.46038e-10
1.46038e-10
1.46038e-10
1.46038e-10
1.46038e-10
1.46038e-10
1.46038e-10
1.46038e-10
1.46038e-10
1.46038e-10
1.46038e-10
1.46038e-10
1.46038e-10
1.46038e-10
1.46038e-10
1.46038e-10
1.46038e-10
1.46038e-10
1.46038e-10
1.46038e-10
1.46038e-10
1.46038e-10
1.46038e-10
1.46038e-10
1.46038e-10
1.46038e-10
1.46038e-10
1.46038e-10
1.46038e-10
1.46038e-10
1.46038e-10
1.46038e-10
1.46038e-10
1.46038e-10
1.46038e-10
1.46038e-10
1.46038e-10
1.46038e-10
1.46038e-10
1.46038e-10
1.46038e-10
1.46038e-10
1.46038e-10
1.46038e-10
1.46038e-10
1.46038e-10
1.46038e-10
1.46038e-10
1.46038e-10
1.46038e-10
1.46038e-10
1.46038e-10
1.46038e-10
1.46038e-10
1.46038e-10
1.46038e-10
1.46038e-10
1.46038e-10
1.46038e-10
1.46038e-10
1.46038e-10
1.46038e-10
1.46038e-10
1.46038e-10
1.46038e-10
1.46038e-10
1.46038e-10
1.46038e-10
1.46038e-10
1.46038e-10
1.46038e-10
1.46038e-10
1.46038e-10
1.46038e-10
1.46038e-10
1.46038e-10
1.46038e-10
1.46038e-10
1.46038e-10
1.46038e-10
1.46038e-10
1.46038e-10
1.46038e-10
1.46038e-10
1.46038e-10
1.46038e-10
1.46038e-10
1.46038e-10
1.46038e-10
1.46038e-10
1.46038e-10
1.46038e-10
1.46038e-10
1.46038e-10
1.46038e-10
1.46038e-10
1.46038e-10
1.46038e-10
1.46038e-10
1.46038e-10
1.46038e-10
1.46038e-10
1.46038e-10
1.46038e-10
1.46038e-10
1.46038e-10
1.46038e-10
1.46038e-10
1.46038e-10
1.46038e-10
1.46038e-10
1.46038e-10
1.46038e-10
1.46038e-10
1.46038e-10
1.46038e-10
1.46038e-10
1.46038e-10
1.46038e-10
1.46039e-10
1.46039e-10
1.46039e-10
1.4604e-10
1.46038e-10
1.46038e-10
1.46038e-10
1.46038e-10
1.46038e-10
1.46038e-10
1.46038e-10
1.46038e-10
1.46038e-10
1.46038e-10
1.46038e-10
1.46038e-10
1.46038e-10
1.46038e-10
1.46038e-10
1.46038e-10
1.46038e-10
1.46038e-10
1.46038e-10
1.46038e-10
1.46038e-10
1.46038e-10
1.46038e-10
1.46038e-10
1.46038e-10
1.46038e-10
1.46038e-10
1.46038e-10
1.46038e-10
1.46038e-10
1.46038e-10
1.46039e-10
1.46039e-10
1.46039e-10
1.4604e-10
1.4604e-10
1.46041e-10
1.46042e-10
1.46043e-10
1.46045e-10
1.46038e-10
1.46038e-10
1.46038e-10
1.46038e-10
1.46038e-10
1.46038e-10
1.46038e-10
1.46038e-10
1.46038e-10
1.46038e-10
1.46038e-10
1.46038e-10
1.46038e-10
1.46038e-10
1.46038e-10
1.46038e-10
1.46038e-10
1.46038e-10
1.46038e-10
1.46038e-10
1.46038e-10
1.46038e-10
1.46038e-10
1.46038e-10
1.46038e-10
1.46039e-10
1.46039e-10
1.46039e-10
1.46039e-10
1.4604e-10
1.4604e-10
1.46041e-10
1.46042e-10
1.46043e-10
1.46045e-10
1.46047e-10
1.46049e-10
1.46052e-10
1.46056e-10
1.46061e-10
1.46038e-10
1.46038e-10
1.46038e-10
1.46038e-10
1.46038e-10
1.46038e-10
1.46038e-10
1.46038e-10
1.46038e-10
1.46038e-10
1.46038e-10
1.46038e-10
1.46038e-10
1.46038e-10
1.46038e-10
1.46038e-10
1.46038e-10
1.46038e-10
1.46038e-10
1.46038e-10
1.46039e-10
1.46039e-10
1.46039e-10
1.46039e-10
1.4604e-10
1.4604e-10
1.46041e-10
1.46042e-10
1.46043e-10
1.46045e-10
1.46047e-10
1.46049e-10
1.46052e-10
1.46056e-10
1.46061e-10
1.46067e-10
1.46074e-10
1.46084e-10
1.46096e-10
1.46113e-10
1.46038e-10
1.46038e-10
1.46038e-10
1.46038e-10
1.46038e-10
1.46038e-10
1.46038e-10
1.46038e-10
1.46038e-10
1.46038e-10
1.46038e-10
1.46038e-10
1.46038e-10
1.46038e-10
1.46038e-10
1.46038e-10
1.46039e-10
1.46039e-10
1.46039e-10
1.46039e-10
1.4604e-10
1.46041e-10
1.46041e-10
1.46042e-10
1.46043e-10
1.46045e-10
1.46047e-10
1.46049e-10
1.46052e-10
1.46056e-10
1.46061e-10
1.46067e-10
1.46074e-10
1.46084e-10
1.46096e-10
1.46111e-10
1.4613e-10
1.46154e-10
1.46184e-10
1.46223e-10
1.46275e-10
1.46038e-10
1.46038e-10
1.46038e-10
1.46038e-10
1.46038e-10
1.46038e-10
1.46038e-10
1.46038e-10
1.46038e-10
1.46038e-10
1.46038e-10
1.46039e-10
1.46039e-10
1.46039e-10
1.4604e-10
1.4604e-10
1.46041e-10
1.46041e-10
1.46042e-10
1.46044e-10
1.46045e-10
1.46047e-10
1.46049e-10
1.46052e-10
1.46056e-10
1.46061e-10
1.46067e-10
1.46075e-10
1.46084e-10
1.46096e-10
1.46111e-10
1.4613e-10
1.46154e-10
1.46184e-10
1.46221e-10
1.46268e-10
1.46328e-10
1.46402e-10
1.46496e-10
1.46615e-10
1.46771e-10
1.46038e-10
1.46038e-10
1.46038e-10
1.46038e-10
1.46038e-10
1.46038e-10
1.46038e-10
1.46039e-10
1.46039e-10
1.46039e-10
1.4604e-10
1.4604e-10
1.46041e-10
1.46041e-10
1.46042e-10
1.46044e-10
1.46045e-10
1.46047e-10
1.46049e-10
1.46052e-10
1.46056e-10
1.46061e-10
1.46067e-10
1.46074e-10
1.46084e-10
1.46096e-10
1.46111e-10
1.46129e-10
1.46153e-10
1.46182e-10
1.46219e-10
1.46266e-10
1.46324e-10
1.46397e-10
1.46489e-10
1.46603e-10
1.46747e-10
1.46926e-10
1.4715e-10
1.47431e-10
1.47786e-10
1.48244e-10
1.46038e-10
1.46038e-10
1.46038e-10
1.46039e-10
1.46039e-10
1.46039e-10
1.4604e-10
1.4604e-10
1.46041e-10
1.46042e-10
1.46042e-10
1.46044e-10
1.46045e-10
1.46047e-10
1.46049e-10
1.46052e-10
1.46056e-10
1.46061e-10
1.46067e-10
1.46074e-10
1.46083e-10
1.46095e-10
1.4611e-10
1.46128e-10
1.46151e-10
1.4618e-10
1.46216e-10
1.46262e-10
1.46319e-10
1.4639e-10
1.46479e-10
1.46591e-10
1.46731e-10
1.46906e-10
1.47124e-10
1.47396e-10
1.47735e-10
1.48157e-10
1.4868e-10
1.4933e-10
1.50136e-10
1.51141e-10
1.52411e-10
1.46039e-10
1.4604e-10
1.4604e-10
1.46041e-10
1.46042e-10
1.46043e-10
1.46044e-10
1.46045e-10
1.46047e-10
1.4605e-10
1.46053e-10
1.46056e-10
1.46061e-10
1.46067e-10
1.46074e-10
1.46083e-10
1.46095e-10
1.46109e-10
1.46127e-10
1.46149e-10
1.46177e-10
1.46213e-10
1.46257e-10
1.46312e-10
1.46381e-10
1.46467e-10
1.46576e-10
1.46711e-10
1.4688e-10
1.47091e-10
1.47354e-10
1.47682e-10
1.48089e-10
1.48595e-10
1.49222e-10
1.49998e-10
1.50954e-10
1.52128e-10
1.53565e-10
1.55318e-10
1.57448e-10
1.60032e-10
1.63175e-10
1.46042e-10
1.46043e-10
1.46044e-10
1.46046e-10
1.46047e-10
1.4605e-10
1.46053e-10
1.46056e-10
1.46061e-10
1.46067e-10
1.46074e-10
1.46083e-10
1.46094e-10
1.46108e-10
1.46126e-10
1.46147e-10
1.46175e-10
1.46209e-10
1.46252e-10
1.46305e-10
1.46371e-10
1.46455e-10
1.46559e-10
1.46689e-10
1.46851e-10
1.47053e-10
1.47305e-10
1.47619e-10
1.48009e-10
1.48494e-10
1.49094e-10
1.49837e-10
1.50753e-10
1.51879e-10
1.53259e-10
1.5494e-10
1.56979e-10
1.59436e-10
1.62376e-10
1.65863e-10
1.69966e-10
1.74752e-10
1.80287e-10
1.86626e-10
1.46048e-10
1.4605e-10
1.46053e-10
1.46057e-10
1.46061e-10
1.46067e-10
1.46074e-10
1.46083e-10
1.46094e-10
1.46108e-10
1.46125e-10
1.46146e-10
1.46173e-10
1.46206e-10
1.46247e-10
1.46299e-10
1.46363e-10
1.46443e-10
1.46543e-10
1.46667e-10
1.46822e-10
1.47015e-10
1.47255e-10
1.47554e-10
1.47925e-10
1.48385e-10
1.48956e-10
1.49661e-10
1.50532e-10
1.51602e-10
1.52913e-10
1.54513e-10
1.56456e-10
1.58801e-10
1.61612e-10
1.64955e-10
1.68893e-10
1.73486e-10
1.78784e-10
1.84821e-10
1.9161e-10
1.99149e-10
2.07409e-10
2.16337e-10
2.25831e-10
1.46062e-10
1.46068e-10
1.46075e-10
1.46084e-10
1.46095e-10
1.46108e-10
1.46125e-10
1.46146e-10
1.46172e-10
1.46204e-10
1.46244e-10
1.46294e-10
1.46356e-10
1.46433e-10
1.46529e-10
1.46648e-10
1.46796e-10
1.4698e-10
1.47209e-10
1.47492e-10
1.47844e-10
1.48281e-10
1.4882e-10
1.49487e-10
1.50309e-10
1.51319e-10
1.52557e-10
1.54068e-10
1.55905e-10
1.58124e-10
1.60788e-10
1.63963e-10
1.67713e-10
1.72101e-10
1.77181e-10
1.82993e-10
1.89557e-10
1.96869e-10
2.04907e-10
2.13605e-10
2.22866e-10
2.32576e-10
2.42594e-10
2.52768e-10
2.62916e-10
2.72858e-10
1.46085e-10
1.46096e-10
1.46109e-10
1.46126e-10
1.46147e-10
1.46172e-10
1.46204e-10
1.46243e-10
1.46292e-10
1.46352e-10
1.46427e-10
1.46519e-10
1.46633e-10
1.46775e-10
1.46951e-10
1.47169e-10
1.47439e-10
1.47773e-10
1.48186e-10
1.48697e-10
1.49326e-10
1.501e-10
1.51051e-10
1.52216e-10
1.53637e-10
1.55365e-10
1.57453e-10
1.59962e-10
1.62957e-10
1.66504e-10
1.70664e-10
1.75496e-10
1.81044e-10
1.87339e-10
1.94388e-10
2.02172e-10
2.1065e-10
2.19742e-10
2.29335e-10
2.39301e-10
2.49488e-10
2.59717e-10
2.69775e-10
2.79407e-10
2.88358e-10
2.96421e-10
3.03438e-10
3.09501e-10
1.46175e-10
1.46206e-10
1.46245e-10
1.46293e-10
1.46352e-10
1.46424e-10
1.46514e-10
1.46625e-10
1.46762e-10
1.46931e-10
1.4714e-10
1.47398e-10
1.47716e-10
1.48109e-10
1.48592e-10
1.49187e-10
1.49918e-10
1.50814e-10
1.5191e-10
1.53246e-10
1.54868e-10
1.56828e-10
1.59185e-10
1.62e-10
1.65338e-10
1.69263e-10
1.73833e-10
1.79098e-10
1.85094e-10
1.9184e-10
1.99329e-10
2.07527e-10
2.16378e-10
2.25787e-10
2.35632e-10
2.45778e-10
2.56067e-10
2.66314e-10
2.76294e-10
2.85755e-10
2.94448e-10
3.02178e-10
3.08831e-10
3.1438e-10
3.18865e-10
3.22402e-10
3.25052e-10
3.27055e-10
1.46297e-10
1.46356e-10
1.46428e-10
1.46516e-10
1.46624e-10
1.46758e-10
1.46922e-10
1.47124e-10
1.47372e-10
1.47678e-10
1.48053e-10
1.48514e-10
1.4908e-10
1.49772e-10
1.5062e-10
1.51654e-10
1.52912e-10
1.54437e-10
1.5628e-10
1.58493e-10
1.61137e-10
1.64275e-10
1.67968e-10
1.72277e-10
1.77254e-10
1.82941e-10
1.89363e-10
1.96526e-10
2.0441e-10
2.12968e-10
2.22127e-10
2.31783e-10
2.41807e-10
2.52061e-10
2.62383e-10
2.72583e-10
2.82435e-10
2.91688e-10
3.00111e-10
3.07534e-10
3.13872e-10
3.19124e-10
3.23352e-10
3.26659e-10
3.29162e-10
3.30963e-10
3.32182e-10
3.32935e-10
3.3325e-10
3.33217e-10
1.46764e-10
1.46925e-10
1.47123e-10
1.47365e-10
1.47661e-10
1.48023e-10
1.48466e-10
1.49008e-10
1.4967e-10
1.50477e-10
1.51459e-10
1.5265e-10
1.54092e-10
1.55829e-10
1.57915e-10
1.60403e-10
1.63356e-10
1.66832e-10
1.70893e-10
1.75592e-10
1.80975e-10
1.87072e-10
1.93896e-10
2.01442e-10
2.09676e-10
2.18539e-10
2.27946e-10
2.37784e-10
2.47921e-10
2.58219e-10
2.68515e-10
2.78615e-10
2.88293e-10
2.97308e-10
3.05446e-10
3.12563e-10
3.18601e-10
3.2358e-10
3.27575e-10
3.30698e-10
3.33066e-10
3.34788e-10
3.35978e-10
3.36726e-10
3.37111e-10
3.37134e-10
3.36941e-10
3.36516e-10
3.35882e-10
3.35108e-10
1.48024e-10
1.48455e-10
1.4898e-10
1.49619e-10
1.50394e-10
1.51335e-10
1.52472e-10
1.53845e-10
1.55495e-10
1.57471e-10
1.59825e-10
1.62615e-10
1.65898e-10
1.69733e-10
1.74174e-10
1.79269e-10
1.85053e-10
1.91546e-10
1.98749e-10
2.06643e-10
2.15183e-10
2.24299e-10
2.33896e-10
2.43855e-10
2.54045e-10
2.64328e-10
2.74543e-10
2.84495e-10
2.9396e-10
3.0271e-10
3.10551e-10
3.17363e-10
3.23112e-10
3.27835e-10
3.31617e-10
3.34574e-10
3.36824e-10
3.38476e-10
3.39639e-10
3.40402e-10
3.40836e-10
3.40959e-10
3.40882e-10
3.40595e-10
3.40127e-10
3.39511e-10
3.38777e-10
3.37916e-10
3.36925e-10
3.3581e-10
1.51292e-10
1.5239e-10
1.5371e-10
1.55292e-10
1.5718e-10
1.59424e-10
1.62078e-10
1.65196e-10
1.68835e-10
1.73048e-10
1.77883e-10
1.83378e-10
1.89558e-10
1.96431e-10
2.03986e-10
2.12193e-10
2.20995e-10
2.30312e-10
2.40044e-10
2.50066e-10
2.60252e-10
2.70468e-10
2.80551e-10
2.90309e-10
2.99526e-10
3.07985e-10
3.15515e-10
3.22021e-10
3.27487e-10
3.31966e-10
3.3555e-10
3.38355e-10
3.405e-10
3.42092e-10
3.43232e-10
3.44011e-10
3.44495e-10
3.4471e-10
3.44736e-10
3.44588e-10
3.44281e-10
3.43833e-10
3.4328e-10
3.42632e-10
3.41883e-10
3.4103e-10
3.40078e-10
3.39017e-10
3.37837e-10
3.36523e-10
1.59222e-10
1.61769e-10
1.64756e-10
1.68233e-10
1.72254e-10
1.76865e-10
1.82106e-10
1.88004e-10
1.94572e-10
2.01806e-10
2.09684e-10
2.18165e-10
2.27184e-10
2.36651e-10
2.46461e-10
2.56491e-10
2.6662e-10
2.76716e-10
2.8662e-10
2.96141e-10
3.05072e-10
3.13214e-10
3.20419e-10
3.26613e-10
3.318e-10
3.36043e-10
3.39439e-10
3.42103e-10
3.44153e-10
3.45693e-10
3.46818e-10
3.47617e-10
3.48152e-10
3.48454e-10
3.4858e-10
3.48567e-10
3.48418e-10
3.48147e-10
3.47774e-10
3.47329e-10
3.46815e-10
3.46223e-10
3.45549e-10
3.44789e-10
3.43933e-10
3.42963e-10
3.41881e-10
3.40677e-10
3.39389e-10
3.38013e-10
1.7626e-10
1.81287e-10
1.86942e-10
1.93241e-10
2.00185e-10
2.07757e-10
2.15926e-10
2.24639e-10
2.33826e-10
2.43389e-10
2.53222e-10
2.63206e-10
2.73223e-10
2.83149e-10
2.92826e-10
3.02067e-10
3.10676e-10
3.18473e-10
3.25333e-10
3.31207e-10
3.36114e-10
3.40125e-10
3.4334e-10
3.45873e-10
3.47836e-10
3.49332e-10
3.50451e-10
3.51274e-10
3.51863e-10
3.52255e-10
3.52486e-10
3.52605e-10
3.52615e-10
3.52525e-10
3.52351e-10
3.52109e-10
3.51826e-10
3.51497e-10
3.51107e-10
3.50652e-10
3.50128e-10
3.49522e-10
3.48825e-10
3.4804e-10
3.47178e-10
3.46234e-10
3.45224e-10
3.44137e-10
3.43006e-10
3.41872e-10
2.06497e-10
2.14378e-10
2.22798e-10
2.31699e-10
2.41001e-10
2.50604e-10
2.60402e-10
2.70282e-10
2.80136e-10
2.89841e-10
2.99241e-10
3.08157e-10
3.16404e-10
3.23826e-10
3.30322e-10
3.35865e-10
3.40487e-10
3.44268e-10
3.47307e-10
3.49714e-10
3.51599e-10
3.53059e-10
3.54178e-10
3.55034e-10
3.55684e-10
3.56166e-10
3.56512e-10
3.56769e-10
3.56939e-10
3.57039e-10
3.57072e-10
3.57062e-10
3.57015e-10
3.56951e-10
3.56857e-10
3.56721e-10
3.56538e-10
3.56308e-10
3.56024e-10
3.55681e-10
3.5529e-10
3.54853e-10
3.54374e-10
3.53848e-10
3.53282e-10
3.52674e-10
3.5203e-10
3.51359e-10
3.50701e-10
3.50173e-10
2.48786e-10
2.58368e-10
2.6807e-10
2.7779e-10
2.87426e-10
2.96858e-10
3.05929e-10
3.14471e-10
3.22316e-10
3.29331e-10
3.35441e-10
3.4064e-10
3.44972e-10
3.48521e-10
3.51386e-10
3.53674e-10
3.55488e-10
3.56919e-10
3.58047e-10
3.58945e-10
3.59666e-10
3.60245e-10
3.60715e-10
3.61119e-10
3.61459e-10
3.61752e-10
3.6201e-10
3.62246e-10
3.62467e-10
3.62677e-10
3.62894e-10
3.63096e-10
3.6328e-10
3.63448e-10
3.63602e-10
3.63743e-10
3.63869e-10
3.63981e-10
3.64083e-10
3.64172e-10
3.64255e-10
3.64337e-10
3.64421e-10
3.64502e-10
3.64594e-10
3.6471e-10
3.64865e-10
3.65076e-10
3.65406e-10
3.66081e-10
2.95153e-10
3.04254e-10
3.12944e-10
3.21062e-10
3.28462e-10
3.35037e-10
3.4074e-10
3.45581e-10
3.49618e-10
3.52934e-10
3.55629e-10
3.57802e-10
3.59552e-10
3.60962e-10
3.62109e-10
3.63059e-10
3.63861e-10
3.64547e-10
3.65155e-10
3.65718e-10
3.66242e-10
3.66743e-10
3.67237e-10
3.67738e-10
3.68248e-10
3.68771e-10
3.69311e-10
3.69876e-10
3.70459e-10
3.7106e-10
3.71688e-10
3.72348e-10
3.73039e-10
3.73752e-10
3.74495e-10
3.75271e-10
3.76083e-10
3.76933e-10
3.77833e-10
3.78788e-10
3.79789e-10
3.8085e-10
3.81988e-10
3.83213e-10
3.84546e-10
3.86011e-10
3.87644e-10
3.89478e-10
3.91613e-10
3.94439e-10
3.3488e-10
3.40985e-10
3.4626e-10
3.50733e-10
3.5447e-10
3.57555e-10
3.60083e-10
3.6215e-10
3.63845e-10
3.65243e-10
3.66421e-10
3.67435e-10
3.68333e-10
3.69138e-10
3.699e-10
3.70636e-10
3.71362e-10
3.72089e-10
3.72839e-10
3.73626e-10
3.74451e-10
3.75311e-10
3.76211e-10
3.77167e-10
3.78185e-10
3.79262e-10
3.80408e-10
3.81629e-10
3.82926e-10
3.84301e-10
3.85749e-10
3.87283e-10
3.88909e-10
3.90627e-10
3.92445e-10
3.94365e-10
3.96406e-10
3.98562e-10
4.00843e-10
4.03271e-10
4.05857e-10
4.08617e-10
4.11584e-10
4.14786e-10
4.18263e-10
4.22057e-10
4.26226e-10
4.30834e-10
4.3604e-10
4.4248e-10
3.59577e-10
3.62435e-10
3.64805e-10
3.66775e-10
3.68426e-10
3.69828e-10
3.71051e-10
3.72145e-10
3.73155e-10
3.74095e-10
3.7503e-10
3.75962e-10
3.76906e-10
3.77885e-10
3.78916e-10
3.80013e-10
3.81178e-10
3.82409e-10
3.83711e-10
3.85095e-10
3.86585e-10
3.88182e-10
3.89893e-10
3.91724e-10
3.93683e-10
3.95774e-10
3.98e-10
4.00367e-10
4.02887e-10
4.05568e-10
4.08408e-10
4.11418e-10
4.14611e-10
4.17995e-10
4.21589e-10
4.25389e-10
4.2942e-10
4.33702e-10
4.3825e-10
4.43096e-10
4.48276e-10
4.53827e-10
4.59799e-10
4.66245e-10
4.73233e-10
4.80835e-10
4.89145e-10
4.98272e-10
5.0846e-10
5.20711e-10
3.73367e-10
3.74793e-10
3.76079e-10
3.77273e-10
3.78411e-10
3.79518e-10
3.80644e-10
3.81794e-10
3.82986e-10
3.84243e-10
3.85585e-10
3.87025e-10
3.88558e-10
3.90197e-10
3.91942e-10
3.93808e-10
3.95811e-10
3.97977e-10
4.00306e-10
4.02801e-10
4.05479e-10
4.08351e-10
4.11424e-10
4.14705e-10
4.18206e-10
4.21935e-10
4.25903e-10
4.30117e-10
4.3459e-10
4.39343e-10
4.44384e-10
4.49732e-10
4.55398e-10
4.61399e-10
4.67765e-10
4.74513e-10
4.81677e-10
4.89296e-10
4.97414e-10
5.06079e-10
5.15354e-10
5.25307e-10
5.36018e-10
5.4758e-10
5.60101e-10
5.737e-10
5.88522e-10
6.04739e-10
6.22721e-10
6.43989e-10
3.84212e-10
3.8552e-10
3.86864e-10
3.88262e-10
3.89735e-10
3.91304e-10
3.92995e-10
3.9481e-10
3.96756e-10
3.9884e-10
4.01075e-10
4.03474e-10
4.06054e-10
4.08836e-10
4.11838e-10
4.15063e-10
4.18525e-10
4.22245e-10
4.2624e-10
4.30518e-10
4.35087e-10
4.39961e-10
4.45156e-10
4.50687e-10
4.5657e-10
4.6282e-10
4.69459e-10
4.76509e-10
4.8398e-10
4.91901e-10
5.00291e-10
5.09181e-10
5.18597e-10
5.28572e-10
5.39154e-10
5.50388e-10
5.6233e-10
5.75047e-10
5.88614e-10
6.03115e-10
6.18651e-10
6.35334e-10
6.53295e-10
6.72679e-10
6.93654e-10
7.16405e-10
7.41152e-10
7.68145e-10
7.97933e-10
8.32758e-10
3.97319e-10
3.99246e-10
4.01327e-10
4.03562e-10
4.05967e-10
4.08548e-10
4.11324e-10
4.14315e-10
4.17534e-10
4.21002e-10
4.24737e-10
4.2876e-10
4.33084e-10
4.3773e-10
4.42725e-10
4.48082e-10
4.53813e-10
4.59931e-10
4.66459e-10
4.73421e-10
4.80835e-10
4.88721e-10
4.971e-10
5.05999e-10
5.15448e-10
5.25467e-10
5.36079e-10
5.47325e-10
5.59231e-10
5.71833e-10
5.85169e-10
5.99292e-10
6.14256e-10
6.30121e-10
6.4696e-10
6.64855e-10
6.83898e-10
7.04197e-10
7.25873e-10
7.49064e-10
7.73928e-10
8.00639e-10
8.294e-10
8.60429e-10
8.93981e-10
9.30321e-10
9.69769e-10
1.01268e-09
1.05984e-09
1.11446e-09
4.16442e-10
4.19582e-10
4.22964e-10
4.2661e-10
4.3054e-10
4.34769e-10
4.39316e-10
4.44213e-10
4.49482e-10
4.55146e-10
4.6123e-10
4.67758e-10
4.74747e-10
4.82217e-10
4.90191e-10
4.987e-10
5.07769e-10
5.17422e-10
5.27687e-10
5.38592e-10
5.50173e-10
5.62463e-10
5.75492e-10
5.89292e-10
6.03903e-10
6.19372e-10
6.35732e-10
6.53032e-10
6.71333e-10
6.90695e-10
7.11187e-10
7.32888e-10
7.5589e-10
7.80294e-10
8.06216e-10
8.33786e-10
8.63153e-10
8.94484e-10
9.27969e-10
9.63817e-10
1.00227e-09
1.04358e-09
1.08806e-09
1.13602e-09
1.18782e-09
1.24382e-09
1.30449e-09
1.37029e-09
1.4423e-09
1.52503e-09
4.40718e-10
4.45438e-10
4.50514e-10
4.55968e-10
4.61831e-10
4.6814e-10
4.74922e-10
4.82201e-10
4.90003e-10
4.98359e-10
5.07295e-10
5.16839e-10
5.27021e-10
5.37876e-10
5.49434e-10
5.61729e-10
5.74797e-10
5.88673e-10
6.03404e-10
6.19028e-10
6.35581e-10
6.53108e-10
6.71656e-10
6.91278e-10
7.12024e-10
7.33944e-10
7.57113e-10
7.81599e-10
8.07478e-10
8.34842e-10
8.63791e-10
8.94436e-10
9.26904e-10
9.61336e-10
9.97893e-10
1.03675e-09
1.07812e-09
1.12222e-09
1.1693e-09
1.21964e-09
1.27356e-09
1.33141e-09
1.39354e-09
1.4604e-09
1.5324e-09
1.61005e-09
1.69383e-09
1.78435e-09
1.88221e-09
1.98887e-09
2.11045e-09
4.8213e-10
4.89589e-10
4.97604e-10
5.06198e-10
5.15399e-10
5.25245e-10
5.35776e-10
5.47025e-10
5.59022e-10
5.71806e-10
5.85418e-10
5.99898e-10
6.15289e-10
6.31634e-10
6.4898e-10
6.67378e-10
6.86877e-10
7.07522e-10
7.29368e-10
7.52478e-10
7.76901e-10
8.02711e-10
8.29965e-10
8.58745e-10
8.89135e-10
9.21219e-10
9.55102e-10
9.90895e-10
1.02872e-09
1.06872e-09
1.11104e-09
1.15587e-09
1.20338e-09
1.25381e-09
1.30738e-09
1.36437e-09
1.42508e-09
1.48984e-09
1.55901e-09
1.633e-09
1.71223e-09
1.7972e-09
1.88841e-09
1.98643e-09
2.09183e-09
2.20526e-09
2.32734e-09
2.45882e-09
2.60047e-09
2.75415e-09
2.92802e-09
5.33928e-10
5.44674e-10
5.56159e-10
5.68433e-10
5.81537e-10
5.95509e-10
6.10387e-10
6.26218e-10
6.43054e-10
6.60946e-10
6.79941e-10
7.00092e-10
7.21457e-10
7.44099e-10
7.68071e-10
7.93431e-10
8.20248e-10
8.48595e-10
8.78534e-10
9.10137e-10
9.43494e-10
9.7869e-10
1.01582e-09
1.05498e-09
1.0963e-09
1.13989e-09
1.18589e-09
1.23446e-09
1.28577e-09
1.33999e-09
1.39735e-09
1.45807e-09
1.52241e-09
1.59066e-09
1.66313e-09
1.74018e-09
1.8222e-09
1.9096e-09
2.00286e-09
2.10246e-09
2.20899e-09
2.32301e-09
2.44517e-09
2.57614e-09
2.71663e-09
2.86738e-09
3.0292e-09
3.20281e-09
3.38916e-09
3.58906e-09
3.80497e-09
4.04741e-09
6.21374e-10
6.37499e-10
6.5466e-10
6.72904e-10
6.9229e-10
7.1288e-10
7.34729e-10
7.57894e-10
7.8244e-10
8.08439e-10
8.3596e-10
8.65065e-10
8.95827e-10
9.28329e-10
9.62651e-10
9.98871e-10
1.03707e-09
1.07736e-09
1.11983e-09
1.1646e-09
1.21178e-09
1.2615e-09
1.3139e-09
1.36913e-09
1.42737e-09
1.4888e-09
1.55362e-09
1.62206e-09
1.69437e-09
1.77082e-09
1.85173e-09
1.93743e-09
2.02829e-09
2.12472e-09
2.22717e-09
2.33613e-09
2.45214e-09
2.57578e-09
2.70768e-09
2.8485e-09
2.99899e-09
3.15988e-09
3.33202e-09
3.51619e-09
3.71333e-09
3.92426e-09
4.15e-09
4.39129e-09
4.6493e-09
4.92481e-09
5.22117e-09
5.55158e-09
7.48975e-10
7.72491e-10
7.97425e-10
8.23841e-10
8.51809e-10
8.81411e-10
9.12727e-10
9.45827e-10
9.80793e-10
1.01771e-09
1.05668e-09
1.09779e-09
1.14112e-09
1.18679e-09
1.2349e-09
1.28559e-09
1.33895e-09
1.39514e-09
1.4543e-09
1.51659e-09
1.58217e-09
1.65124e-09
1.72399e-09
1.80065e-09
1.88147e-09
1.96672e-09
2.05669e-09
2.1517e-09
2.25213e-09
2.35836e-09
2.47083e-09
2.59001e-09
2.71642e-09
2.85063e-09
2.99324e-09
3.14492e-09
3.3064e-09
3.47841e-09
3.66181e-09
3.8574e-09
4.06616e-09
4.28895e-09
4.52683e-09
4.7807e-09
5.05172e-09
5.34071e-09
5.6489e-09
5.97698e-09
6.3265e-09
6.69807e-09
7.09602e-09
7.53667e-09
9.31416e-10
9.64903e-10
1.0003e-09
1.03768e-09
1.07714e-09
1.11877e-09
1.16268e-09
1.20897e-09
1.25774e-09
1.3091e-09
1.36318e-09
1.4201e-09
1.47999e-09
1.543e-09
1.60927e-09
1.67898e-09
1.75229e-09
1.8294e-09
1.91052e-09
1.99586e-09
2.08568e-09
2.18023e-09
2.27982e-09
2.38475e-09
2.49538e-09
2.61209e-09
2.73531e-09
2.86548e-09
3.00311e-09
3.14875e-09
3.30299e-09
3.46647e-09
3.6399e-09
3.82402e-09
4.01965e-09
4.22763e-09
4.44889e-09
4.68436e-09
4.93513e-09
5.20214e-09
5.4866e-09
5.78947e-09
6.11204e-09
6.45525e-09
6.82043e-09
7.20839e-09
7.62062e-09
8.05766e-09
8.52148e-09
9.01254e-09
9.53577e-09
1.01112e-08
1.18733e-09
1.23402e-09
1.28321e-09
1.33503e-09
1.38959e-09
1.44699e-09
1.50738e-09
1.57089e-09
1.63767e-09
1.70785e-09
1.78162e-09
1.85913e-09
1.94057e-09
2.02613e-09
2.11603e-09
2.21049e-09
2.30977e-09
2.41411e-09
2.52382e-09
2.63921e-09
2.76061e-09
2.88841e-09
3.02302e-09
3.16487e-09
3.31445e-09
3.4723e-09
3.63898e-09
3.81512e-09
4.0014e-09
4.19855e-09
4.40736e-09
4.62868e-09
4.86339e-09
5.11248e-09
5.37696e-09
5.65788e-09
5.95641e-09
6.27363e-09
6.61087e-09
6.9692e-09
7.35002e-09
7.75439e-09
8.18371e-09
8.63896e-09
9.12157e-09
9.63241e-09
1.01733e-08
1.07445e-08
1.13479e-08
1.19839e-08
1.26582e-08
1.33949e-08
1.5399e-09
1.60374e-09
1.67085e-09
1.74137e-09
1.81544e-09
1.89322e-09
1.97489e-09
2.06062e-09
2.15062e-09
2.24506e-09
2.34419e-09
2.44822e-09
2.55741e-09
2.67202e-09
2.79235e-09
2.91871e-09
3.05143e-09
3.19089e-09
3.33748e-09
3.49164e-09
3.65384e-09
3.82459e-09
4.00445e-09
4.19403e-09
4.39398e-09
4.60501e-09
4.82789e-09
5.06343e-09
5.31253e-09
5.57613e-09
5.85524e-09
6.15094e-09
6.46433e-09
6.79662e-09
7.14904e-09
7.52285e-09
7.91943e-09
8.34002e-09
8.78613e-09
9.25893e-09
9.75995e-09
1.02902e-08
1.08513e-08
1.14441e-08
1.20706e-08
1.27312e-08
1.34277e-08
1.41602e-08
1.49305e-08
1.57387e-08
1.6591e-08
1.75161e-08
2.01752e-09
2.10338e-09
2.19343e-09
2.28787e-09
2.3869e-09
2.49071e-09
2.59955e-09
2.71365e-09
2.83326e-09
2.95865e-09
3.09012e-09
3.22798e-09
3.37256e-09
3.52424e-09
3.6834e-09
3.85048e-09
4.02592e-09
4.21024e-09
4.40398e-09
4.60772e-09
4.82209e-09
5.04779e-09
5.28555e-09
5.53617e-09
5.80053e-09
6.07953e-09
6.37417e-09
6.68549e-09
7.01463e-09
7.36276e-09
7.73112e-09
8.12103e-09
8.53381e-09
8.97091e-09
9.43371e-09
9.92374e-09
1.04425e-08
1.09913e-08
1.15718e-08
1.21852e-08
1.2833e-08
1.35164e-08
1.42373e-08
1.49962e-08
1.57952e-08
1.66343e-08
1.75152e-08
1.84376e-08
1.94033e-08
2.04116e-08
2.14697e-08
2.26119e-08
2.76857e-09
2.88768e-09
3.0124e-09
3.143e-09
3.27974e-09
3.42293e-09
3.57287e-09
3.72991e-09
3.89441e-09
4.06675e-09
4.24737e-09
4.43671e-09
4.63526e-09
4.84356e-09
5.06216e-09
5.29169e-09
5.53282e-09
5.78626e-09
6.05278e-09
6.33323e-09
6.62849e-09
6.93953e-09
7.26738e-09
7.61312e-09
7.97793e-09
8.36305e-09
8.76975e-09
9.19943e-09
9.65349e-09
1.01334e-08
1.06408e-08
1.1177e-08
1.17439e-08
1.23429e-08
1.29756e-08
1.36437e-08
1.43485e-08
1.50917e-08
1.58744e-08
1.66986e-08
1.75651e-08
1.84759e-08
1.94313e-08
2.04328e-08
2.14805e-08
2.25755e-08
2.37176e-08
2.49069e-08
2.6144e-08
2.74368e-08
2.88249e-08
3.64224e-09
3.79781e-09
3.96049e-09
4.13065e-09
4.30864e-09
4.49485e-09
4.6897e-09
4.89363e-09
5.10713e-09
5.3307e-09
5.56492e-09
5.81037e-09
6.06771e-09
6.33762e-09
6.62087e-09
6.91825e-09
7.23064e-09
7.55896e-09
7.90421e-09
8.26746e-09
8.64985e-09
9.05257e-09
9.47693e-09
9.92426e-09
1.0396e-08
1.08936e-08
1.14186e-08
1.19728e-08
1.25576e-08
1.31747e-08
1.3826e-08
1.45131e-08
1.52379e-08
1.60018e-08