/*--------------------------------*- C++ -*----------------------------------*\
| =========                 |                                                 |
| \\      /  F ield         | OpenFOAM: The Open Source CFD Toolbox           |
|  \\    /   O peration     | Version:  v1706                                 |
|   \\  /    A nd           | Web:      www.OpenFOAM.com                      |
|    \\/     M anipulation  |                                                 |
\*---------------------------------------------------------------------------*/
FoamFile
{
    version     2.0;
    format      ascii;
    class       volScalarField;
    location    "1.7e-05";
    object      p;
}
// * * * * * * * * * * * * * * * * * * * * * * * * * * * * * * * * * * * * * //

dimensions      [1 -1 -2 0 0 0 0];


internalField   nonuniform List<scalar> 
30038
(
21.9139
21.9139
21.9139
21.9139
21.9139
21.9139
21.9139
21.9139
21.9139
21.9139
21.9139
21.9139
21.9139
21.9139
21.9139
21.9139
21.9139
21.9139
21.9139
21.9139
21.9139
21.9139
21.9139
21.9139
21.9139
21.9139
21.9139
21.9139
21.9139
21.9139
21.9139
21.9139
21.9139
21.9139
21.9139
21.9139
21.9139
21.9139
21.9139
21.9139
21.9139
21.9139
21.9139
21.9139
21.9139
21.9139
21.9139
21.9139
21.9139
21.9139
21.9139
21.9139
21.9139
21.9139
21.9139
21.9139
21.9139
21.9139
21.9139
21.9139
21.9139
21.9139
21.9139
21.9139
21.9139
21.9139
21.9139
21.9139
21.9139
21.9139
21.9139
21.9139
21.9139
21.9139
21.9139
21.9139
21.9139
21.9139
21.9139
21.9139
21.9139
21.9139
21.9139
21.9139
21.9139
21.9139
21.9139
21.9139
21.9139
21.9139
21.9139
21.9139
21.9139
21.9139
21.9139
21.9139
21.9139
21.9139
21.9139
21.9139
21.9139
21.9139
21.9139
21.9139
21.9139
21.9139
21.9139
21.9139
21.9139
21.9139
21.9139
21.9139
21.9139
21.9139
21.9139
21.9139
21.9139
21.9139
21.9139
21.9139
21.9139
21.9139
21.9139
21.9139
21.9139
21.9139
21.9139
21.9139
21.9139
21.9139
21.9139
21.9139
21.9139
21.9139
21.9139
21.9139
21.9139
21.9139
21.9139
21.9139
21.9139
21.9139
21.9139
21.9139
21.9139
21.9139
21.9139
21.9139
21.9139
21.9139
21.9139
21.9139
21.9139
21.9139
21.9139
21.9139
21.9139
21.9139
21.9139
21.9139
21.9139
21.9139
21.9139
21.9139
21.9139
21.9139
21.9139
21.9139
21.9139
21.9139
21.9139
21.9139
21.9139
21.9139
21.9139
21.9139
21.9139
21.9139
21.9139
21.9139
21.9139
21.9139
21.9139
21.9139
21.9139
21.9139
21.9139
21.9139
21.9139
21.9139
21.9139
21.9139
21.9139
21.9139
21.9139
21.9139
21.9139
21.9139
21.9139
21.9139
21.9139
21.9139
21.9139
21.9139
21.9139
21.9139
21.9139
21.9139
21.9139
21.9139
21.9139
21.9139
21.9139
21.9139
21.9139
21.9139
21.9139
21.9139
21.9139
21.9139
21.9139
21.9139
21.9139
21.9139
21.9139
21.9139
21.9139
21.9139
21.9139
21.9139
21.9139
21.9139
21.9139
21.9139
21.9139
21.9139
21.9139
21.9139
21.9139
21.9139
21.9139
21.9139
21.9139
21.9139
21.9139
21.9139
21.9139
21.9139
21.9139
21.9139
21.9139
21.9139
21.9139
21.9139
21.9139
21.9139
21.9139
21.9139
21.9139
21.9139
21.9139
21.9139
21.9139
21.9139
21.9139
21.9139
21.9139
21.9139
21.9139
21.9139
21.9139
21.9139
21.9139
21.9139
21.9139
21.9139
21.9139
21.9139
21.9139
21.9139
21.9139
21.9139
21.9139
21.9139
21.9139
21.9139
21.9139
21.9139
21.9139
21.9139
21.9139
21.9139
21.9139
21.9139
21.9139
21.9139
21.9139
21.9139
21.9139
21.9139
21.9139
21.9139
21.9139
21.9139
21.9139
21.9139
21.9139
21.9139
21.9139
21.9139
21.9139
21.9139
21.9139
21.9139
21.9139
21.9139
21.9139
21.9139
21.9139
21.9139
21.9139
21.9139
21.9139
21.9139
21.9139
21.9139
21.9139
21.9139
21.9139
21.9139
21.9139
21.9139
21.9139
21.9139
21.9139
21.9139
21.9139
21.9139
21.9139
21.9139
21.9139
21.9139
21.9139
21.9139
21.9139
21.9139
21.9139
21.9139
21.9139
21.9139
21.9139
21.9139
21.9139
21.9139
21.9139
21.9139
21.9139
21.9139
21.9139
21.9139
21.9139
21.9139
21.9139
21.9139
21.9139
21.9139
21.9139
21.9139
21.9139
21.9139
21.9139
21.9139
21.9139
21.9139
21.9139
21.9139
21.9139
21.9139
21.9139
21.9139
21.9139
21.9139
21.9139
21.9139
21.9139
21.9139
21.9139
21.9139
21.9139
21.9139
21.9139
21.9139
21.9139
21.9139
21.9139
21.9139
21.9139
21.9139
21.9139
21.9139
21.9139
21.9139
21.9139
21.9139
21.9139
21.9139
21.9139
21.9139
21.9139
21.9139
21.9139
21.9139
21.9139
21.9139
21.9139
21.9139
21.9139
21.9139
21.9139
21.9139
21.9139
21.9139
21.9139
21.9139
21.9139
21.9139
21.9139
21.9139
21.9139
21.9139
21.9139
21.9139
21.9139
21.9139
21.9139
21.9139
21.9139
21.9139
21.9139
21.9139
21.9139
21.9139
21.9139
21.9139
21.9139
21.9139
21.9139
21.9139
21.9139
21.9139
21.9139
21.9139
21.9139
21.9139
21.9139
21.9139
21.9139
21.9139
21.9139
21.9139
21.9139
21.9139
21.9139
21.9139
21.9139
21.9139
21.9139
21.9139
21.9139
21.9139
21.9139
21.9139
21.9139
21.9139
21.9139
21.9139
21.9139
21.9139
21.9139
21.9139
21.9139
21.9139
21.9139
21.9139
21.9139
21.9139
21.9139
21.9139
21.9139
21.9139
21.9139
21.9139
21.9139
21.9139
21.9139
21.9139
21.9139
21.9139
21.9139
21.9139
21.9139
21.9139
21.9139
21.9139
21.9139
21.9139
21.9139
21.9139
21.9139
21.9139
21.9139
21.9139
21.9139
21.9139
21.9139
21.9139
21.9139
21.9139
21.9139
21.9139
21.9139
21.9139
21.9139
21.9139
21.9139
21.9139
21.9139
21.9139
21.9139
21.9139
21.9139
21.9139
21.9139
21.9139
21.9139
21.9139
21.914
21.914
21.914
21.914
21.9141
21.9139
21.9139
21.9139
21.9139
21.9139
21.9139
21.9139
21.9139
21.9139
21.9139
21.9139
21.9139
21.9139
21.9139
21.9139
21.9139
21.9139
21.9139
21.9139
21.9139
21.9139
21.9139
21.9139
21.9139
21.9139
21.9139
21.9139
21.9139
21.9139
21.9139
21.914
21.914
21.914
21.914
21.9141
21.9141
21.9141
21.9142
21.9143
21.9144
21.9139
21.9139
21.9139
21.9139
21.9139
21.9139
21.9139
21.9139
21.9139
21.9139
21.9139
21.9139
21.9139
21.9139
21.9139
21.9139
21.9139
21.9139
21.9139
21.9139
21.9139
21.9139
21.9139
21.9139
21.9139
21.914
21.914
21.914
21.914
21.9141
21.9141
21.9142
21.9142
21.9143
21.9144
21.9146
21.9147
21.915
21.9153
21.9157
21.9139
21.9139
21.9139
21.9139
21.9139
21.9139
21.9139
21.9139
21.9139
21.9139
21.9139
21.9139
21.9139
21.9139
21.9139
21.9139
21.9139
21.9139
21.9139
21.914
21.914
21.914
21.914
21.914
21.9141
21.9141
21.9142
21.9142
21.9143
21.9144
21.9146
21.9148
21.915
21.9153
21.9156
21.9161
21.9167
21.9174
21.9184
21.9197
21.9139
21.9139
21.9139
21.9139
21.9139
21.9139
21.9139
21.9139
21.9139
21.9139
21.9139
21.9139
21.9139
21.9139
21.914
21.914
21.914
21.914
21.914
21.9141
21.9141
21.9142
21.9142
21.9143
21.9144
21.9146
21.9148
21.915
21.9153
21.9157
21.9161
21.9167
21.9175
21.9184
21.9196
21.9211
21.9229
21.9253
21.9284
21.9325
21.9139
21.9139
21.9139
21.9139
21.9139
21.9139
21.9139
21.9139
21.9139
21.9139
21.914
21.914
21.914
21.914
21.914
21.9141
21.9141
21.9142
21.9143
21.9143
21.9145
21.9146
21.9148
21.915
21.9153
21.9157
21.9162
21.9167
21.9175
21.9184
21.9196
21.9211
21.923
21.9254
21.9283
21.9321
21.9368
21.9428
21.9503
21.96
21.9729
21.9139
21.9139
21.9139
21.9139
21.9139
21.914
21.914
21.914
21.914
21.914
21.9141
21.9141
21.9142
21.9143
21.9144
21.9145
21.9146
21.9148
21.915
21.9153
21.9157
21.9162
21.9168
21.9175
21.9184
21.9196
21.9211
21.923
21.9253
21.9283
21.9321
21.9367
21.9427
21.9501
21.9594
21.9711
21.9858
22.0043
22.0276
22.0572
22.0966
21.9139
21.914
21.914
21.914
21.914
21.914
21.9141
21.9141
21.9142
21.9143
21.9144
21.9145
21.9146
21.9148
21.9151
21.9153
21.9157
21.9162
21.9168
21.9175
21.9184
21.9196
21.9211
21.9229
21.9253
21.9282
21.9319
21.9365
21.9423
21.9496
21.9588
21.9703
21.9848
22.0029
22.0257
22.0542
22.0898
22.1345
22.1905
22.2609
22.3496
22.4663
21.914
21.9141
21.9141
21.9141
21.9142
21.9143
21.9144
21.9145
21.9146
21.9148
21.9151
21.9154
21.9157
21.9162
21.9168
21.9175
21.9184
21.9196
21.921
21.9229
21.9251
21.928
21.9316
21.9362
21.9418
21.949
21.9579
21.9692
21.9833
22.0009
22.0231
22.0508
22.0856
22.1291
22.1835
22.2514
22.3363
22.4422
22.5741
22.7385
22.9439
23.2001
23.5324
21.9143
21.9144
21.9145
21.9147
21.9149
21.9151
21.9154
21.9158
21.9162
21.9168
21.9175
21.9184
21.9196
21.921
21.9228
21.925
21.9278
21.9314
21.9358
21.9413
21.9482
21.9569
21.9678
21.9814
21.9985
22.0199
22.0467
22.0802
22.1221
22.1745
22.2401
22.3219
22.4239
22.5511
22.7093
22.906
23.15
23.452
23.8253
24.2856
24.8538
25.5508
26.4359
21.9149
21.9151
21.9154
21.9158
21.9163
21.9169
21.9176
21.9185
21.9196
21.921
21.9228
21.925
21.9277
21.9311
21.9354
21.9408
21.9475
21.9559
21.9664
21.9795
21.996
22.0165
22.0422
22.0743
22.1144
22.1645
22.2271
22.3052
22.4027
22.524
22.675
22.8627
23.0956
23.3841
23.7406
24.18
24.7201
25.3817
26.1888
27.1698
28.3559
29.79
31.5048
33.6255
21.9164
21.9169
21.9177
21.9186
21.9197
21.9211
21.9228
21.925
21.9277
21.931
21.9352
21.9404
21.947
21.9551
21.9652
21.9779
21.9936
22.0133
22.0379
22.0686
22.1068
22.1545
22.214
22.2882
22.3805
22.4955
22.6385
22.8161
23.0364
23.3092
23.6464
24.0622
24.5735
25.2002
25.9656
26.8963
28.0227
29.3791
31.0044
32.9417
35.2388
37.9473
41.1352
44.8191
49.3437
21.9198
21.9212
21.923
21.9251
21.9278
21.9311
21.9352
21.9403
21.9467
21.9546
21.9644
21.9766
21.9918
22.0107
22.0342
22.0635
22.1
22.1454
22.2018
22.2721
22.3594
22.468
22.6027
22.77
22.9772
23.2336
23.5504
23.9408
24.4209
25.0094
25.7284
26.6036
27.6638
28.9419
30.4747
32.3039
34.475
37.0382
40.0473
43.5551
47.6211
52.3354
57.813
64.2808
71.7814
81.4552
21.9254
21.9281
21.9314
21.9354
21.9405
21.9467
21.9545
21.964
21.9759
21.9906
22.0089
22.0315
22.0596
22.0945
22.1378
22.1915
22.2581
22.3408
22.4432
22.5702
22.7275
22.9221
23.1625
23.459
23.8242
24.2729
24.8226
25.4941
26.3115
27.3022
28.4975
29.932
31.6449
33.68
36.0856
38.9138
42.2202
46.0581
50.4937
55.6252
61.5978
68.6081
76.8698
86.5664
97.7423
110.455
123.983
139.851
21.9472
21.9549
21.9643
21.976
21.9904
22.0081
22.0301
22.0572
22.0908
22.1323
22.1837
22.2472
22.3257
22.4228
22.5428
22.691
22.8739
23.0995
23.3772
23.7186
24.1375
24.65
25.2756
26.0365
26.9587
28.0714
29.4075
31.0035
32.8999
35.1428
37.7824
40.8726
44.4697
48.628
53.4197
58.9569
65.4051
72.9791
81.8976
92.3173
104.266
117.604
132.002
147.015
161.998
176.659
189.786
202.891
21.977
21.9912
22.0087
22.0302
22.0567
22.0893
22.1295
22.179
22.24
22.3152
22.4078
22.5218
22.6623
22.8351
23.0476
23.3085
23.6286
24.0204
24.4991
25.0822
25.7907
26.6484
27.6828
28.9247
30.4082
32.1709
34.255
36.708
39.5819
42.9318
46.8138
51.283
56.4187
62.3476
69.255
77.3704
86.9101
98.0047
110.634
124.596
139.507
154.848
170.033
184.499
197.754
209.503
219.463
227.892
234.337
239.88
22.0905
22.1299
22.1781
22.2374
22.31
22.3992
22.5086
22.6428
22.8074
23.009
23.2558
23.5576
23.926
24.375
24.9208
25.5824
26.3821
27.3452
28.5005
29.8798
31.5183
33.4545
35.7314
38.398
41.5078
45.1162
49.2788
54.0515
59.5216
65.8317
73.1852
81.8223
91.9503
103.668
116.905
131.403
146.727
162.322
177.588
191.966
205.008
216.41
226.053
233.952
240.199
244.971
248.484
251.03
252.65
253.722
22.3981
22.5043
22.634
22.7924
22.9856
23.2212
23.5083
23.8576
24.2818
24.7961
25.4178
26.1674
27.0683
28.147
29.4333
30.9598
32.7623
34.8799
37.3564
40.242
43.5912
47.4594
51.9006
56.9721
62.771
69.4562
77.2482
86.3925
97.0803
109.373
123.151
138.102
153.752
169.52
184.801
199.052
211.856
222.95
232.25
239.793
245.717
250.177
253.452
255.719
257.156
257.985
258.308
258.258
257.943
257.45
23.2071
23.4833
23.8181
24.2231
24.7123
25.3018
26.0102
26.859
27.8728
29.0791
30.5085
32.1939
34.1713
36.4801
39.1649
42.2772
45.8718
50.0036
54.7241
60.0936
66.2206
73.2816
81.512
91.1559
102.382
115.208
129.465
144.794
160.688
176.553
191.787
205.87
218.417
229.204
238.179
245.405
251.035
255.246
258.294
260.367
261.655
262.332
262.547
262.418
262.035
261.481
260.831
260.057
259.198
258.121
25.2387
25.9155
26.7234
27.685
28.8258
30.174
31.7605
33.6184
35.7836
38.2956
41.2001
44.5495
48.3989
52.801
57.8048
63.4759
69.9371
77.3829
86.0604
96.2049
107.953
121.277
135.956
151.592
167.653
183.54
198.665
212.535
224.8
235.274
243.93
250.858
256.219
260.202
263.049
264.963
266.12
266.681
266.805
266.614
266.202
265.62
264.908
264.093
263.156
262.026
260.796
259.357
257.959
256.299
29.9654
31.4723
33.2325
35.2788
37.6469
40.3766
43.5152
47.1157
51.2322
55.915
61.2098
67.1918
74.0015
81.8512
90.9951
101.65
113.912
127.701
142.748
158.621
174.774
190.608
205.558
219.163
231.112
241.254
249.591
256.225
261.33
265.1
267.763
269.531
270.565
271.034
271.079
270.84
270.386
269.775
269.033
268.166
267.178
266.048
264.736
263.291
261.784
260.177
258.585
256.954
255.423
253.807
39.8195
42.7845
46.1752
50.0446
54.4444
59.4212
65.0191
71.3288
78.5119
86.7972
96.4382
107.621
120.391
134.614
149.974
166.013
182.176
197.879
212.582
225.864
237.453
247.235
255.237
261.573
266.421
269.984
272.478
274.099
275.023
275.407
275.396
275.095
274.609
273.978
273.204
272.305
271.284
270.114
268.79
267.303
265.745
264.163
262.564
260.935
259.327
257.748
256.175
254.579
253.057
251.48
58.1224
63.4094
69.3289
75.9929
83.5882
92.3554
102.535
114.269
127.542
142.163
157.776
173.903
189.99
205.473
219.848
232.736
243.913
253.298
260.939
266.96
271.544
274.896
277.217
278.7
279.514
279.822
279.75
279.409
278.888
278.231
277.439
276.519
275.468
274.269
272.913
271.431
269.87
268.272
266.686
265.09
263.444
261.799
260.206
258.602
257
255.431
253.889
252.338
250.843
249.299
89.3781
98.6893
109.458
121.765
135.531
150.505
166.3
182.426
198.338
213.5
227.455
239.873
250.573
259.512
266.755
272.437
276.745
279.872
282.015
283.356
284.063
284.292
284.157
283.782
283.237
282.55
281.737
280.804
279.716
278.487
277.118
275.648
274.101
272.521
270.913
269.305
267.692
266.03
264.368
262.767
261.162
259.535
257.945
256.379
254.818
253.263
251.735
250.206
248.728
247.216
144.533
159.799
175.688
191.706
207.329
222.058
235.489
247.347
257.501
265.936
272.739
278.051
282.058
284.94
286.896
288.091
288.687
288.83
288.639
288.227
287.657
286.94
286.111
285.146
284.035
282.775
281.406
279.952
278.424
276.845
275.245
273.608
271.968
270.343
268.714
267.05
265.421
263.814
262.176
260.551
258.974
257.396
255.824
254.264
252.72
251.182
249.671
248.162
246.701
245.218
217.052
231.221
244.014
255.217
264.745
272.616
278.929
283.835
287.516
290.128
291.882
292.922
293.402
293.453
293.207
292.762
292.155
291.418
290.558
289.556
288.42
287.143
285.778
284.337
282.828
281.254
279.642
278.001
276.349
274.72
273.099
271.476
269.82
268.166
266.549
264.913
263.265
261.664
260.076
258.483
256.906
255.338
253.779
252.229
250.697
249.176
247.683
246.196
244.755
243.301
272.335
279.579
285.352
289.812
293.13
295.462
296.992
297.862
298.221
298.176
297.873
297.388
296.749
295.985
295.086
294.046
292.872
291.591
290.234
288.802
287.301
285.751
284.117
282.469
280.835
279.191
277.562
275.941
274.312
272.654
271.004
269.371
267.734
266.076
264.449
262.849
261.241
259.644
258.06
256.48
254.908
253.346
251.798
250.261
248.745
247.242
245.768
244.304
242.887
241.46
298.914
300.946
302.235
302.924
303.146
303.012
302.651
302.118
301.444
300.645
299.699
298.62
297.416
296.131
294.781
293.35
291.856
290.299
288.682
287.033
285.391
283.765
282.124
280.482
278.856
277.232
275.567
273.919
272.282
270.632
268.974
267.326
265.714
264.095
262.48
260.879
259.283
257.691
256.108
254.533
252.97
251.417
249.881
248.359
246.86
245.375
243.924
242.482
241.095
239.694
308.191
307.968
307.545
306.961
306.246
305.4
304.406
303.285
302.055
300.771
299.417
297.99
296.496
294.929
293.322
291.695
290.054
288.419
286.783
285.133
283.49
281.859
280.237
278.569
276.912
275.278
273.618
271.953
270.296
268.67
267.04
265.411
263.793
262.182
260.573
258.97
257.375
255.788
254.211
252.643
251.09
249.549
248.027
246.52
245.04
243.574
242.148
240.729
239.374
238.001
311.155
310.251
309.212
308.05
306.805
305.514
304.151
302.72
301.222
299.649
298.052
296.443
294.814
293.172
291.528
289.885
288.232
286.592
284.961
283.329
281.659
279.998
278.355
276.695
275.018
273.352
271.716
270.075
268.433
266.803
265.176
263.552
261.932
260.319
258.712
257.112
255.521
253.938
252.369
250.809
249.268
247.738
246.232
244.741
243.282
241.836
240.437
239.043
237.722
236.381
312.918
311.665
310.36
308.986
307.546
306.035
304.466
302.881
301.282
299.668
298.024
296.375
294.729
293.084
291.434
289.791
288.157
286.513
284.839
283.178
281.526
279.857
278.177
276.498
274.855
273.203
271.548
269.906
268.267
266.628
264.992
263.362
261.737
260.117
258.505
256.9
255.303
253.718
252.141
250.58
249.029
247.5
245.984
244.494
243.021
241.583
240.161
238.788
237.426
236.133
234.832
312.475
310.947
309.388
307.81
306.222
304.614
302.976
301.325
299.679
298.036
296.385
294.735
293.09
291.453
289.793
288.117
286.454
284.794
283.111
281.427
279.743
278.085
276.426
274.759
273.105
271.453
269.801
268.151
266.505
264.864
263.226
261.594
259.968
258.349
256.738
255.136
253.543
251.964
250.393
248.842
247.301
245.785
244.284
242.811
241.359
239.942
238.548
237.201
235.87
234.616
233.355
312.845
311.262
309.656
308.025
306.381
304.737
303.094
301.446
299.79
298.141
296.494
294.85
293.174
291.496
289.83
288.159
286.465
284.771
283.088
281.417
279.744
278.069
276.402
274.738
273.073
271.409
269.749
268.092
266.437
264.787
263.143
261.503
259.87
258.244
256.627
255.017
253.419
251.829
250.257
248.693
247.152
245.624
244.12
242.638
241.183
239.753
238.361
236.988
235.682
234.369
233.202
231.978
311.539
309.903
308.262
306.614
304.956
303.305
301.655
300.008
298.344
296.66
294.982
293.312
291.623
289.921
288.218
286.534
284.853
283.163
281.481
279.803
278.125
276.447
274.77
273.095
271.423
269.753
268.086
266.423
264.765
263.112
261.465
259.824
258.19
256.564
254.947
253.34
251.745
250.16
248.595
247.04
245.51
243.996
242.509
241.041
239.613
238.193
236.843
235.477
234.248
232.978
231.847
230.671
310.232
308.58
306.931
305.28
303.623
301.938
300.255
298.577
296.894
295.188
293.479
291.774
290.084
288.391
286.69
284.997
283.31
281.617
279.926
278.236
276.547
274.859
273.174
271.491
269.811
268.135
266.463
264.795
263.133
261.477
259.827
258.185
256.55
254.925
253.309
251.704
250.114
248.534
246.979
245.432
243.919
242.413
240.951
239.489
238.098
236.685
235.39
234.076
232.878
231.658
230.549
229.404
309.01
307.328
305.643
303.961
302.28
300.573
298.859
297.146
295.441
293.741
292.034
290.326
288.623
286.922
285.217
283.512
281.809
280.106
278.404
276.703
275.004
273.308
271.614
269.924
268.238
266.556
264.879
263.207
261.541
259.881
258.229
256.585
254.949
253.324
251.711
250.108
248.527
246.95
245.41
243.867
242.375
240.876
239.441
237.991
236.63
235.277
234.013
232.742
231.564
230.368
229.321
228.215
307.777
306.071
304.356
302.638
300.923
299.217
297.504
295.785
294.072
292.36
290.643
288.927
287.21
285.493
283.776
282.06
280.344
278.629
276.917
275.206
273.498
271.794
270.092
268.395
266.702
265.015
263.332
261.655
259.985
258.322
256.668
255.022
253.387
251.762
250.154
248.552
246.982
245.407
243.883
242.349
240.87
239.391
237.966
236.576
235.25
233.929
232.691
231.439
230.31
229.151
228.158
227.105
306.525
304.814
303.096
301.372
299.648
297.928
296.204
294.476
292.747
291.019
289.289
287.558
285.827
284.096
282.367
280.638
278.911
277.186
275.464
273.744
272.028
270.315
268.606
266.902
265.203
263.508
261.821
260.138
258.465
256.798
255.142
253.495
251.862
250.238
248.635
247.038
245.476
243.912
242.391
240.879
239.403
237.97
236.589
235.218
233.927
232.618
231.417
230.201
229.121
228.009
227.069
226.07
305.346
303.62
301.89
300.154
298.417
296.678
294.937
293.195
291.451
289.707
287.962
286.218
284.474
282.731
280.989
279.25
277.512
275.777
274.045
272.317
270.591
268.871
267.154
265.443
263.737
262.036
260.343
258.655
256.979
255.309
253.651
252.006
250.372
248.755
247.153
245.567
244.006
242.458
240.94
239.455
238.03
236.609
235.269
233.906
232.636
231.364
230.204
229.034
227.997
226.943
226.061
225.126
302.463
300.715
298.963
297.21
295.454
293.697
291.939
290.181
288.423
286.665
284.908
283.151
281.397
279.644
277.894
276.146
274.401
272.659
270.922
269.187
267.459
265.734
264.015
262.303
260.595
258.898
257.206
255.525
253.856
252.193
250.554
248.918
247.309
245.711
244.129
242.578
241.035
239.569
238.099
236.71
235.301
233.969
232.642
231.404
230.179
229.053
227.939
226.947
225.96
225.132
224.256
301.328
299.563
297.795
296.025
294.254
292.483
290.711
288.939
287.167
285.397
283.627
281.859
280.093
278.329
276.568
274.81
273.055
271.304
269.557
267.814
266.077
264.344
262.618
260.899
259.186
257.484
255.789
254.104
252.437
250.772
249.135
247.506
245.891
244.31
242.72
241.208
239.693
238.251
236.801
235.412
234.031
232.724
231.44
230.236
229.055
227.971
226.915
225.976
225.052
224.276
223.462
300.214
298.432
296.649
294.865
293.08
291.294
289.509
287.724
285.94
284.157
282.375
280.596
278.818
277.044
275.272
273.504
271.738
269.978
268.222
266.469
264.725
262.984
261.251
259.527
257.808
256.102
254.405
252.718
251.05
249.391
247.745
246.133
244.507
242.944
241.393
239.895
238.41
236.962
235.53
234.161
232.818
231.542
230.298
229.129
228
226.964
225.967
225.077
224.213
223.495
222.747
297.324
295.527
293.728
291.93
290.131
288.332
286.535
284.739
282.943
281.151
279.359
277.571
275.786
274.003
272.225
270.45
268.679
266.915
265.153
263.401
261.653
259.913
258.185
256.46
254.753
253.052
251.367
249.694
248.041
246.392
244.776
243.195
241.643
240.122
238.622
237.143
235.712
234.312
232.97
231.663
230.419
229.218
228.092
227.016
226.028
225.086
224.248
223.448
222.791
222.112
296.238
294.427
292.615
290.803
288.992
287.181
285.371
283.563
281.756
279.951
278.149
276.35
274.554
272.76
270.972
269.187
267.407
265.635
263.864
262.105
260.351
258.604
256.873
255.144
253.434
251.735
250.043
248.374
246.71
245.092
243.493
241.934
240.391
238.867
237.379
235.924
234.518
233.15
231.837
230.565
229.359
228.204
227.124
226.1
225.16
224.275
223.494
222.758
222.166
221.559
295.173
293.348
291.523
289.699
287.875
286.052
284.23
282.41
280.592
278.776
276.963
275.153
273.346
271.542
269.745
267.95
266.161
264.381
262.603
260.837
259.078
257.326
255.59
253.864
252.143
250.446
248.749
247.085
245.449
243.845
242.266
240.698
239.159
237.652
236.186
234.759
233.38
232.043
230.76
229.529
228.365
227.257
226.223
225.249
224.361
223.536
222.814
222.144
221.62
221.084
294.127
292.29
290.452
288.616
286.78
284.945
283.112
281.28
279.451
277.624
275.799
273.979
272.163
270.348
268.542
266.739
264.941
263.154
261.369
259.597
257.834
256.079
254.337
252.607
250.886
249.177
247.506
245.856
244.242
242.636
241.051
239.494
237.973
236.489
235.047
233.647
232.296
230.991
229.746
228.557
227.435
226.373
225.387
224.467
223.634
222.87
222.208
221.607
221.149
220.68
293.099
291.25
289.401
287.552
285.705
283.858
282.014
280.171
278.331
276.494
274.659
272.828
271.002
269.178
267.364
265.553
263.748
261.954
260.165
258.385
256.619
254.859
253.115
251.372
249.661
247.972
246.317
244.678
243.051
241.448
239.876
238.338
236.838
235.378
233.961
232.588
231.267
230
228.794
227.647
226.568
225.554
224.618
223.754
222.978
222.275
221.676
221.146
220.751
220.349
292.088
290.227
288.367
286.507
284.649
282.791
280.936
279.082
277.231
275.385
273.539
271.699
269.865
268.032
266.209
264.392
262.58
260.779
258.987
257.203
255.429
253.664
251.911
250.19
248.491
246.821
245.156
243.511
241.892
240.304
238.75
237.232
235.753
234.317
232.926
231.584
230.298
229.069
227.902
226.798
225.764
224.801
223.917
223.11
222.392
221.751
221.219
220.755
220.424
220.088
291.093
289.222
287.35
285.48
283.61
281.742
279.877
278.013
276.152
274.296
272.441
270.593
268.75
266.91
265.079
263.256
261.44
259.633
257.833
256.046
254.261
252.503
250.765
249.059
247.365
245.681
244.018
242.383
240.778
239.207
237.671
236.174
234.718
233.307
231.945
230.637
229.387
228.197
227.07
226.011
225.025
224.114
223.285
222.535
221.876
221.299
220.833
220.432
220.165
219.893
288.231
286.349
284.469
282.589
280.711
278.836
276.962
275.093
273.228
271.365
269.508
267.658
265.813
263.975
262.146
260.324
258.511
256.704
254.907
253.139
251.393
249.671
247.953
246.251
244.572
242.92
241.299
239.71
238.156
236.64
235.164
233.733
232.349
231.02
229.748
228.534
227.383
226.299
225.287
224.351
223.493
222.72
222.028
221.429
220.917
220.514
220.176
219.972
219.763
287.255
285.363
283.473
281.584
279.697
277.813
275.931
274.052
272.179
270.31
268.446
266.589
264.738
262.896
261.059
259.232
257.408
255.605
253.822
252.068
250.322
248.586
246.867
245.172
243.505
241.867
240.26
238.687
237.151
235.656
234.204
232.799
231.447
230.151
228.913
227.737
226.628
225.59
224.626
223.742
222.938
222.221
221.588
221.05
220.602
220.26
219.984
219.841
219.692
286.293
284.392
282.494
280.596
278.699
276.807
274.918
273.032
271.152
269.276
267.407
265.544
263.688
261.838
259.995
258.158
256.346
254.554
252.785
251.018
249.264
247.53
245.82
244.136
242.481
240.856
239.264
237.709
236.194
234.721
233.294
231.919
230.599
229.337
228.135
227
225.934
224.943
224.028
223.196
222.447
221.787
221.213
220.736
220.351
220.069
219.853
219.769
219.681
283.435
281.529
279.623
277.72
275.82
273.924
272.032
270.145
268.264
266.39
264.521
262.658
260.799
258.955
257.131
255.332
253.541
251.757
249.987
248.238
246.513
244.813
243.141
241.498
239.888
238.313
236.777
235.283
233.835
232.436
231.092
229.804
228.577
227.414
226.321
225.3
224.356
223.493
222.714
222.02
221.417
220.903
220.485
220.161
219.937
219.783
219.754
219.725
282.494
280.579
278.667
276.758
274.851
272.949
271.052
269.16
267.274
265.393
263.519
261.646
259.794
257.961
256.149
254.339
252.539
250.755
248.991
247.251
245.535
243.846
242.186
240.557
238.963
237.407
235.892
234.421
232.999
231.63
230.316
229.062
227.872
226.75
225.7
224.725
223.83
223.018
222.293
221.655
221.108
220.653
220.294
220.03
219.864
219.771
219.793
219.805
279.646
277.728
275.812
273.901
271.994
270.093
268.196
266.304
264.415
262.534
260.674
258.834
257.005
255.179
253.363
251.566
249.789
248.034
246.302
244.596
242.918
241.271
239.658
238.082
236.546
235.053
233.608
232.214
230.875
229.593
228.375
227.224
226.143
225.137
224.21
223.364
222.604
221.932
221.35
220.861
220.464
220.165
219.959
219.852
219.802
219.865
219.916
278.728
276.805
274.885
272.97
271.059
269.152
267.25
265.349
263.463
261.593
259.745
257.898
256.057
254.23
252.42
250.629
248.86
247.113
245.39
243.696
242.031
240.398
238.802
237.245
235.73
234.262
232.843
231.478
230.171
228.924
227.743
226.631
225.593
224.633
223.753
222.958
222.25
221.632
221.106
220.675
220.336
220.098
219.94
219.878
219.87
219.973
220.071
275.9
273.977
272.058
270.142
268.23
266.32
264.427
262.552
260.691
258.829
256.975
255.136
253.314
251.511
249.727
247.966
246.228
244.516
242.834
241.183
239.567
237.989
236.452
234.961
233.518
232.127
230.792
229.518
228.308
227.166
226.096
225.101
224.187
223.356
222.611
221.956
221.393
220.924
220.551
220.27
220.075
219.961
219.935
219.98
220.126
220.259
275.012
273.086
271.162
269.241
267.325
265.426
263.545
261.669
259.796
257.931
256.081
254.248
252.432
250.636
248.86
247.107
245.379
243.68
242.011
240.376
238.778
237.219
235.705
234.237
232.82
231.459
230.156
228.916
227.743
226.64
225.612
224.663
223.795
223.014
222.32
221.72
221.211
220.8
220.475
220.238
220.085
220.02
220.043
220.129
220.309
220.47
274.142
272.211
270.282
268.362
266.457
264.569
262.681
260.796
258.923
257.063
255.219
253.392
251.583
249.793
248.026
246.283
244.568
242.881
241.228
239.609
238.03
236.493
235.001
233.559
232.17
230.839
229.569
228.364
227.229
226.167
225.181
224.277
223.457
222.726
222.085
221.54
221.084
220.716
220.434
220.241
220.142
220.126
220.191
220.311
220.517
220.701
273.287
271.352
269.428
267.52
265.623
263.724
261.83
259.948
258.08
256.226
254.388
252.567
250.765
248.985
247.227
245.496
243.793
242.121
240.484
238.884
237.324
235.809
234.342
232.927
231.567
230.267
229.031
227.863
226.766
225.745
224.804
223.946
223.176
222.496
221.91
221.408
220.996
220.669
220.439
220.301
220.248
220.271
220.369
220.519
220.746
220.948
272.447
270.521
268.609
266.702
264.795
262.895
261.006
259.129
257.267
255.419
253.587
251.773
249.98
248.209
246.463
244.744
243.055
241.399
239.779
238.199
236.661
235.169
233.728
232.34
231.011
229.744
228.542
227.411
226.355
225.376
224.481
223.671
222.953
222.32
221.775
221.314
220.947
220.677
220.498
220.403
220.389
220.447
220.574
220.748
220.991
221.205
271.637
269.722
267.808
265.894
263.988
262.093
260.209
258.339
256.482
254.64
252.816
251.011
249.228
247.468
245.734
244.028
242.355
240.715
239.114
237.554
236.039
234.572
233.157
231.799
230.501
229.267
228.102
227.01
225.995
225.061
224.214
223.453
222.774
222.181
221.676
221.269
220.956
220.734
220.597
220.541
220.561
220.649
220.8
220.994
221.248
221.469
270.857
268.936
267.018
265.107
263.207
261.318
259.44
257.575
255.725
253.891
252.076
250.28
248.507
246.759
245.039
243.348
241.691
240.07
238.488
236.95
235.458
234.017
232.63
231.302
230.037
228.838
227.711
226.66
225.689
224.803
223.994
223.271
222.63
222.084
221.634
221.277
221.01
220.829
220.73
220.71
220.761
220.875
221.045
221.253
221.513
221.736
268.164
266.251
264.346
262.452
260.568
258.697
256.839
254.997
253.171
251.365
249.581
247.82
246.085
244.378
242.704
241.064
239.462
237.901
236.386
234.919
233.504
232.147
230.85
229.619
228.459
227.371
226.364
225.432
224.581
223.809
223.126
222.538
222.044
221.641
221.328
221.102
220.958
220.895
220.906
220.984
221.119
221.305
221.522
221.782
222.002
267.415
265.508
263.609
261.721
259.844
257.98
256.13
254.296
252.481
250.686
248.913
247.164
245.443
243.753
242.095
240.473
238.892
237.353
235.861
234.421
233.035
231.708
230.446
229.25
228.13
227.081
226.107
225.21
224.394
223.67
223.039
222.499
222.049
221.688
221.416
221.227
221.119
221.088
221.127
221.227
221.38
221.575
221.797
222.053
222.265
266.689
264.788
262.896
261.015
259.145
257.289
255.448
253.624
251.82
250.036
248.275
246.541
244.835
243.161
241.521
239.919
238.358
236.844
235.377
233.964
232.61
231.315
230.09
228.931
227.841
226.824
225.883
225.028
224.262
223.586
222.999
222.501
222.093
221.773
221.538
221.385
221.31
221.307
221.369
221.487
221.652
221.853
222.074
222.321
222.52
264.09
262.206
260.333
258.472
256.625
254.794
252.98
251.187
249.416
247.669
245.949
244.26
242.602
240.982
239.401
237.863
236.373
234.936
233.552
232.231
230.97
229.772
228.644
227.584
226.604
225.709
224.9
224.179
223.545
222.999
222.542
222.174
221.892
221.692