/*--------------------------------*- C++ -*----------------------------------*\
| =========                 |                                                 |
| \\      /  F ield         | OpenFOAM: The Open Source CFD Toolbox           |
|  \\    /   O peration     | Version:  v1706                                 |
|   \\  /    A nd           | Web:      www.OpenFOAM.com                      |
|    \\/     M anipulation  |                                                 |
\*---------------------------------------------------------------------------*/
FoamFile
{
    version     2.0;
    format      ascii;
    class       volScalarField;
    location    "1.7e-05";
    object      rho;
}
// * * * * * * * * * * * * * * * * * * * * * * * * * * * * * * * * * * * * * //

dimensions      [1 -3 0 0 0 0 0];


internalField   nonuniform List<scalar> 
30038
(
0.000511309
0.000511309
0.000511309
0.000511309
0.000511309
0.000511309
0.000511309
0.000511309
0.000511309
0.000511309
0.000511309
0.000511309
0.000511309
0.000511309
0.000511309
0.000511309
0.000511309
0.000511309
0.000511309
0.000511309
0.000511309
0.000511309
0.000511309
0.000511309
0.000511309
0.000511309
0.000511309
0.000511309
0.000511309
0.000511309
0.000511309
0.000511309
0.000511309
0.000511309
0.000511309
0.000511309
0.000511309
0.000511309
0.000511309
0.000511309
0.000511309
0.000511309
0.000511309
0.000511309
0.000511309
0.000511309
0.000511309
0.000511309
0.000511309
0.000511309
0.000511309
0.000511309
0.000511309
0.000511309
0.000511309
0.000511309
0.000511309
0.000511309
0.000511309
0.000511309
0.000511309
0.000511309
0.000511309
0.000511309
0.000511309
0.000511309
0.000511309
0.000511309
0.000511309
0.000511309
0.000511309
0.000511309
0.000511309
0.000511309
0.000511309
0.000511309
0.000511309
0.000511309
0.000511309
0.000511309
0.000511309
0.000511309
0.000511309
0.000511309
0.000511309
0.000511309
0.000511309
0.000511309
0.000511309
0.000511309
0.000511309
0.000511309
0.000511309
0.000511309
0.000511309
0.000511309
0.000511309
0.000511309
0.000511309
0.000511309
0.000511309
0.000511309
0.000511309
0.000511309
0.000511309
0.000511309
0.000511309
0.000511309
0.000511309
0.000511309
0.000511309
0.000511309
0.000511309
0.000511309
0.000511309
0.000511309
0.000511309
0.000511309
0.000511309
0.000511309
0.000511309
0.000511309
0.000511309
0.000511309
0.000511309
0.000511309
0.000511309
0.000511309
0.000511309
0.000511309
0.000511309
0.000511309
0.000511309
0.000511309
0.000511309
0.000511309
0.000511309
0.000511309
0.000511309
0.000511309
0.000511309
0.000511309
0.000511309
0.000511309
0.000511309
0.000511309
0.000511309
0.000511309
0.000511309
0.000511309
0.000511309
0.000511309
0.000511309
0.000511309
0.000511309
0.000511309
0.000511309
0.000511309
0.000511309
0.000511309
0.000511309
0.000511309
0.000511309
0.000511309
0.000511309
0.000511309
0.000511309
0.000511309
0.000511309
0.000511309
0.000511309
0.000511309
0.000511309
0.000511309
0.000511309
0.000511309
0.000511309
0.000511309
0.000511309
0.000511309
0.000511309
0.000511309
0.000511309
0.000511309
0.000511309
0.000511309
0.000511309
0.000511309
0.000511309
0.000511309
0.000511309
0.000511309
0.000511309
0.000511309
0.000511309
0.000511309
0.000511309
0.000511309
0.000511309
0.000511309
0.000511309
0.000511309
0.000511309
0.000511309
0.000511309
0.000511309
0.000511309
0.000511309
0.000511309
0.000511309
0.000511309
0.000511309
0.000511309
0.000511309
0.000511309
0.000511309
0.000511309
0.000511309
0.000511309
0.000511309
0.000511309
0.000511309
0.000511309
0.000511309
0.000511309
0.000511309
0.000511309
0.000511309
0.000511309
0.000511309
0.000511309
0.000511309
0.000511309
0.000511309
0.000511309
0.000511309
0.000511309
0.000511309
0.000511309
0.000511309
0.000511309
0.000511309
0.000511309
0.000511309
0.000511309
0.000511309
0.000511309
0.000511309
0.000511309
0.000511309
0.000511309
0.000511309
0.000511309
0.000511309
0.000511309
0.000511309
0.000511309
0.000511309
0.000511309
0.000511309
0.000511309
0.000511309
0.000511309
0.000511309
0.000511309
0.000511309
0.000511309
0.000511309
0.000511309
0.000511309
0.000511309
0.000511309
0.000511309
0.000511309
0.000511309
0.000511309
0.000511309
0.000511309
0.000511309
0.000511309
0.000511309
0.000511309
0.000511309
0.000511309
0.000511309
0.000511309
0.000511309
0.000511309
0.000511309
0.000511309
0.000511309
0.000511309
0.000511309
0.000511309
0.000511309
0.000511309
0.000511309
0.000511309
0.000511309
0.000511309
0.000511309
0.000511309
0.000511309
0.000511309
0.000511309
0.000511309
0.000511309
0.000511309
0.000511309
0.000511309
0.000511309
0.000511309
0.000511309
0.000511309
0.000511309
0.000511309
0.000511309
0.000511309
0.000511309
0.000511309
0.000511309
0.000511309
0.000511309
0.000511309
0.000511309
0.000511309
0.000511309
0.000511309
0.000511309
0.000511309
0.000511309
0.000511309
0.000511309
0.000511309
0.000511309
0.000511309
0.000511309
0.000511309
0.000511309
0.000511309
0.000511309
0.000511309
0.000511309
0.000511309
0.000511309
0.000511309
0.000511309
0.000511309
0.000511309
0.000511309
0.000511309
0.000511309
0.000511309
0.000511309
0.000511309
0.000511309
0.000511309
0.000511309
0.000511309
0.000511309
0.000511309
0.000511309
0.000511309
0.000511309
0.000511309
0.000511309
0.000511309
0.000511309
0.000511309
0.000511309
0.000511309
0.000511309
0.000511309
0.000511309
0.000511309
0.000511309
0.000511309
0.000511309
0.000511309
0.000511309
0.000511309
0.000511309
0.000511309
0.000511309
0.000511309
0.000511309
0.000511309
0.000511309
0.000511309
0.000511309
0.000511309
0.000511309
0.000511309
0.000511309
0.000511309
0.000511309
0.000511309
0.000511309
0.000511309
0.000511309
0.000511309
0.000511309
0.000511309
0.000511309
0.000511309
0.000511309
0.000511309
0.000511309
0.000511309
0.000511309
0.000511309
0.000511309
0.000511309
0.000511309
0.000511309
0.000511309
0.000511309
0.000511309
0.000511309
0.000511309
0.000511309
0.000511309
0.000511309
0.000511309
0.000511309
0.000511309
0.000511309
0.000511309
0.000511309
0.000511309
0.000511309
0.000511309
0.000511309
0.000511309
0.000511309
0.000511309
0.000511309
0.000511309
0.000511309
0.000511309
0.000511309
0.000511309
0.000511309
0.000511309
0.000511309
0.000511309
0.000511309
0.000511309
0.000511309
0.000511309
0.000511309
0.000511309
0.000511309
0.000511309
0.000511309
0.000511309
0.000511309
0.000511309
0.000511309
0.000511309
0.000511309
0.000511309
0.000511309
0.000511309
0.000511309
0.000511309
0.000511309
0.000511309
0.000511309
0.000511309
0.000511309
0.000511309
0.000511309
0.000511309
0.000511309
0.000511309
0.000511309
0.000511309
0.000511309
0.000511309
0.000511309
0.000511309
0.000511309
0.000511309
0.000511309
0.000511309
0.000511309
0.000511309
0.000511309
0.000511309
0.000511309
0.000511309
0.000511309
0.000511309
0.000511309
0.000511309
0.000511309
0.000511309
0.000511309
0.000511309
0.00051131
0.000511309
0.000511309
0.000511309
0.000511309
0.000511309
0.000511309
0.000511309
0.000511309
0.000511309
0.000511309
0.000511309
0.000511309
0.000511309
0.000511309
0.000511309
0.000511309
0.000511309
0.000511309
0.000511309
0.000511309
0.000511309
0.000511309
0.000511309
0.000511309
0.000511309
0.000511309
0.000511309
0.000511309
0.000511309
0.000511309
0.000511309
0.000511309
0.000511309
0.000511309
0.00051131
0.00051131
0.00051131
0.00051131
0.00051131
0.00051131
0.000511309
0.000511309
0.000511309
0.000511309
0.000511309
0.000511309
0.000511309
0.000511309
0.000511309
0.000511309
0.000511309
0.000511309
0.000511309
0.000511309
0.000511309
0.000511309
0.000511309
0.000511309
0.000511309
0.000511309
0.000511309
0.000511309
0.000511309
0.000511309
0.000511309
0.000511309
0.000511309
0.000511309
0.000511309
0.00051131
0.00051131
0.00051131
0.00051131
0.00051131
0.00051131
0.00051131
0.00051131
0.000511311
0.000511311
0.000511312
0.000511309
0.000511309
0.000511309
0.000511309
0.000511309
0.000511309
0.000511309
0.000511309
0.000511309
0.000511309
0.000511309
0.000511309
0.000511309
0.000511309
0.000511309
0.000511309
0.000511309
0.000511309
0.000511309
0.000511309
0.000511309
0.000511309
0.000511309
0.000511309
0.00051131
0.00051131
0.00051131
0.00051131
0.00051131
0.00051131
0.00051131
0.00051131
0.000511311
0.000511311
0.000511311
0.000511312
0.000511313
0.000511314
0.000511315
0.000511317
0.000511309
0.000511309
0.000511309
0.000511309
0.000511309
0.000511309
0.000511309
0.000511309
0.000511309
0.000511309
0.000511309
0.000511309
0.000511309
0.000511309
0.000511309
0.000511309
0.000511309
0.000511309
0.00051131
0.00051131
0.00051131
0.00051131
0.00051131
0.00051131
0.00051131
0.00051131
0.00051131
0.000511311
0.000511311
0.000511312
0.000511312
0.000511313
0.000511314
0.000511315
0.000511316
0.000511318
0.000511321
0.000511324
0.000511328
0.000511333
0.000511309
0.000511309
0.000511309
0.000511309
0.000511309
0.000511309
0.000511309
0.000511309
0.000511309
0.000511309
0.000511309
0.000511309
0.000511309
0.00051131
0.00051131
0.00051131
0.00051131
0.00051131
0.00051131
0.00051131
0.00051131
0.00051131
0.000511311
0.000511311
0.000511312
0.000511312
0.000511313
0.000511314
0.000511315
0.000511316
0.000511318
0.000511321
0.000511324
0.000511328
0.000511333
0.000511339
0.000511347
0.000511357
0.000511369
0.000511387
0.000511309
0.000511309
0.000511309
0.000511309
0.000511309
0.000511309
0.000511309
0.000511309
0.000511309
0.00051131
0.00051131
0.00051131
0.00051131
0.00051131
0.00051131
0.00051131
0.00051131
0.00051131
0.000511311
0.000511311
0.000511312
0.000511312
0.000511313
0.000511314
0.000511315
0.000511317
0.000511318
0.000511321
0.000511324
0.000511328
0.000511333
0.000511339
0.000511346
0.000511356
0.000511368
0.000511384
0.000511404
0.000511428
0.00051146
0.000511499
0.000511555
0.000511309
0.000511309
0.000511309
0.000511309
0.00051131
0.00051131
0.00051131
0.00051131
0.00051131
0.00051131
0.00051131
0.00051131
0.00051131
0.000511311
0.000511311
0.000511312
0.000511312
0.000511313
0.000511314
0.000511315
0.000511317
0.000511318
0.000511321
0.000511324
0.000511328
0.000511332
0.000511338
0.000511346
0.000511356
0.000511368
0.000511383
0.000511402
0.000511427
0.000511457
0.000511496
0.000511544
0.000511605
0.000511681
0.000511779
0.000511899
0.000512072
0.00051131
0.00051131
0.00051131
0.00051131
0.00051131
0.00051131
0.00051131
0.00051131
0.00051131
0.000511311
0.000511311
0.000511312
0.000511312
0.000511313
0.000511314
0.000511315
0.000511317
0.000511318
0.000511321
0.000511324
0.000511327
0.000511332
0.000511338
0.000511346
0.000511355
0.000511367
0.000511382
0.000511401
0.000511424
0.000511454
0.000511492
0.000511539
0.000511598
0.000511673
0.000511766
0.000511884
0.000512031
0.000512216
0.000512448
0.000512741
0.000513101
0.000513615
0.00051131
0.00051131
0.00051131
0.00051131
0.000511311
0.000511311
0.000511311
0.000511312
0.000511312
0.000511313
0.000511314
0.000511315
0.000511317
0.000511318
0.000511321
0.000511324
0.000511327
0.000511332
0.000511338
0.000511345
0.000511354
0.000511366
0.00051138
0.000511398
0.000511421
0.00051145
0.000511486
0.000511532
0.000511589
0.000511661
0.000511752
0.000511865
0.000512007
0.000512186
0.000512409
0.000512689
0.000513039
0.000513477
0.000514024
0.000514706
0.000515565
0.000516613
0.000518089
0.000511311
0.000511311
0.000511312
0.000511312
0.000511313
0.000511314
0.000511315
0.000511317
0.000511318
0.000511321
0.000511324
0.000511327
0.000511332
0.000511337
0.000511344
0.000511353
0.000511364
0.000511378
0.000511396
0.000511418
0.000511446
0.000511481
0.000511524
0.000511579
0.000511648
0.000511735
0.000511843
0.000511979
0.000512149
0.000512362
0.00051263
0.000512964
0.000513382
0.000513904
0.000514555
0.000515368
0.000516379
0.000517636
0.000519197
0.000521128
0.000523539
0.00052645
0.000530488
0.000511313
0.000511314
0.000511315
0.000511317
0.000511318
0.000511321
0.000511324
0.000511327
0.000511331
0.000511337
0.000511344
0.000511353
0.000511363
0.000511377
0.000511394
0.000511415
0.000511442
0.000511475
0.000511517
0.000511569
0.000511635
0.000511717
0.00051182
0.000511949
0.00051211
0.000512312
0.000512565
0.000512881
0.000513276
0.000513769
0.000514385
0.000515152
0.000516107
0.000517295
0.000518769
0.000520596
0.000522856
0.000525645
0.000529075
0.000533286
0.000538416
0.000544736
0.000552243
0.000562454
0.000511319
0.000511321
0.000511324
0.000511327
0.000511332
0.000511337
0.000511344
0.000511352
0.000511363
0.000511376
0.000511392
0.000511413
0.000511438
0.00051147
0.00051151
0.00051156
0.000511623
0.000511701
0.000511798
0.00051192
0.000512073
0.000512263
0.000512501
0.000512798
0.000513169
0.000513631
0.000514208
0.000514926
0.000515821
0.000516932
0.000518311
0.00052002
0.000522134
0.000524744
0.000527957
0.000531899
0.000536719
0.00054259
0.000549724
0.000558372
0.000568826
0.000581361
0.000596481
0.000613892
0.000637738
0.000511332
0.000511337
0.000511344
0.000511352
0.000511363
0.000511375
0.000511391
0.000511411
0.000511436
0.000511467
0.000511505
0.000511553
0.000511612
0.000511687
0.000511779
0.000511894
0.000512038
0.000512218
0.000512441
0.00051272
0.000513067
0.000513499
0.000514037
0.000514707
0.000515539
0.000516573
0.000517854
0.000519441
0.000521403
0.000523823
0.000526803
0.000530462
0.000534938
0.000540392
0.000547014
0.000555037
0.000564734
0.000576413
0.000590394
0.000606999
0.000626655
0.000650129
0.000678411
0.000713615
0.000755671
0.000815667
0.000511353
0.000511363
0.000511376
0.000511391
0.000511411
0.000511435
0.000511465
0.000511502
0.000511548
0.000511605
0.000511676
0.000511764
0.000511873
0.00051201
0.000512179
0.000512389
0.000512651
0.000512976
0.00051338
0.000513882
0.000514505
0.000515278
0.000516236
0.000517423
0.000518891
0.000520703
0.000522937
0.000525684
0.000529056
0.000533183
0.000538213
0.00054432
0.000551707
0.000560627
0.000571376
0.000584276
0.000599659
0.000617851
0.000639351
0.000664999
0.000696103
0.000734409
0.000781756
0.000839728
0.000908744
0.000989559
0.0010764
0.00118238
0.000511435
0.000511465
0.000511501
0.000511545
0.000511601
0.000511669
0.000511754
0.000511858
0.000511988
0.000512149
0.000512348
0.000512595
0.000512901
0.000513279
0.000513749
0.00051433
0.000515049
0.000515938
0.000517037
0.000518394
0.000520067
0.000522124
0.000524652
0.00052775
0.000531539
0.000536157
0.000541763
0.00054854
0.000556706
0.000566532
0.00057833
0.000592439
0.000609193
0.000628926
0.000652201
0.000679982
0.000713745
0.000755359
0.000806671
0.000869008
0.000942719
0.00102694
0.00111948
0.00121742
0.00131632
0.00141448
0.00150315
0.00159396
0.000511547
0.000511601
0.000511667
0.000511749
0.00051185
0.000511975
0.000512129
0.000512319
0.000512554
0.000512843
0.000513201
0.000513642
0.000514187
0.000514859
0.000515688
0.000516709
0.000517967
0.000519514
0.000521413
0.00052374
0.000526587
0.000530063
0.000534296
0.000539433
0.00054564
0.00055311
0.000562071
0.000572813
0.000585664
0.000600972
0.000619069
0.000640297
0.00066529
0.00069514
0.000731473
0.00077625
0.000831261
0.0008976
0.000975253
0.00106291
0.00115805
0.0012572
0.00135646
0.00145211
0.00154082
0.00162073
0.00168973
0.00174964
0.00179721
0.00184041
0.000511972
0.000512122
0.000512305
0.00051253
0.000512807
0.000513148
0.000513567
0.000514082
0.000514714
0.000515492
0.000516447
0.00051762
0.000519058
0.000520819
0.000522971
0.000525596
0.000528793
0.00053268
0.000537391
0.000543079
0.000549918
0.000558106
0.000567886
0.000579562
0.000593476
0.00060998
0.000629399
0.000652088
0.000678756
0.000710628
0.000749463
0.000797273
0.000855738
0.000925691
0.00100675
0.00109723
0.00119426
0.00129418
0.00139301
0.00148705
0.0015733
0.00164977
0.00171554
0.00177069
0.00181574
0.00185223
0.00188086
0.00190401
0.00192187
0.00193684
0.000513123
0.000513525
0.000514018
0.00051462
0.000515357
0.000516259
0.000517361
0.000518709
0.000520354
0.000522358
0.000524795
0.000527753
0.000531338
0.000535674
0.000540904
0.000547183
0.00055469
0.000563631
0.00057426
0.000586899
0.000601898
0.000619607
0.000640339
0.000664469
0.000692794
0.000726671
0.000767976
0.00081872
0.00088043
0.000953646
0.00103763
0.00113036
0.00122872
0.00132889
0.00142692
0.00151921
0.00160296
0.00167645
0.00173901
0.00179082
0.00183271
0.00186594
0.00189184
0.0019119
0.00192724
0.00193927
0.00194851
0.00195603
0.00196268
0.0019692
0.000516149
0.000517198
0.000518475
0.000520027
0.000521911
0.000524194
0.000526956
0.000530289
0.000534308
0.000539142
0.000544938
0.000551856
0.000560076
0.000569814
0.000581336
0.000594978
0.000611098
0.000630037
0.000652087
0.000677661
0.000707658
0.000743567
0.000787354
0.000840984
0.000905774
0.000981948
0.00106843
0.0011629
0.00126206
0.00136204
0.00145892
0.00154927
0.00163053
0.0017012
0.00176085
0.00180976
0.0018489
0.00187957
0.00190311
0.00192089
0.0019342
0.0019442
0.0019517
0.00195748
0.00196228
0.00196671
0.00197132
0.00197598
0.0019811
0.00198603
0.000523805
0.000526411
0.000529544
0.000533304
0.000537812
0.000543202
0.000549623
0.000557237
0.000566226
0.000576816
0.000589289
0.000603995
0.000621289
0.000641499
0.00066489
0.000691939
0.000723665
0.000761686
0.000808031
0.000864552
0.000932306
0.00101118
0.00109976
0.00119551
0.00129499
0.00139434
0.00148973
0.00157794
0.00165665
0.00172458
0.00178148
0.00182781
0.00186454
0.00189297
0.00191454
0.0019305
0.00194212
0.00195047
0.00195657
0.00196107
0.00196462
0.00196768
0.00197058
0.00197354
0.00197652
0.00197911
0.001982
0.00198446
0.00198817
0.00199126
0.000541991
0.000548007
0.000555123
0.0005635
0.000573327
0.000584839
0.000598342
0.00061419
0.000632732
0.00065427
0.000679046
0.000707639
0.000741207
0.000781492
0.000830538
0.000890011
0.000960656
0.001042
0.00113234
0.00122892
0.00132826
0.00142653
0.00152008
0.0016059
0.00168192
0.00174711
0.00180139
0.00184527
0.00187981
0.00190629
0.00192612
0.00194055
0.00195072
0.00195776
0.00196261
0.00196613
0.00196864
0.00197057
0.00197226
0.00197377
0.00197516
0.00197639
0.00197723
0.00197802
0.0019792
0.00198056
0.00198287
0.00198584
0.00199042
0.00199562
0.000581609
0.000594133
0.000608767
0.000625862
0.000645743
0.000668684
0.000694918
0.000725172
0.000760772
0.000803553
0.000855515
0.000918052
0.000991542
0.00107515
0.00116689
0.00126387
0.0013626
0.00145934
0.00155064
0.00163378
0.00170693
0.00176929
0.00182093
0.00186245
0.00189491
0.00191963
0.00193793
0.00195096
0.00195993
0.00196586
0.00196977
0.00197225
0.00197397
0.00197511
0.0019758
0.00197623
0.00197651
0.00197642
0.00197598
0.00197516
0.00197459
0.0019746
0.00197523
0.00197647
0.00197866
0.00198195
0.00198617
0.00199112
0.00199746
0.00200453
0.000660707
0.000685133
0.000712944
0.000745052
0.000782965
0.000828572
0.000883731
0.000949476
0.00102577
0.0011114
0.00120417
0.0013011
0.0013987
0.00149342
0.00158205
0.00166214
0.00173218
0.00179156
0.00184049
0.00187963
0.00191007
0.0019331
0.00194996
0.00196175
0.00196965
0.00197471
0.00197774
0.00197944
0.0019804
0.00198093
0.00198091
0.00198056
0.00197991
0.00197883
0.00197726
0.00197541
0.00197366
0.00197233
0.00197176
0.00197186
0.00197232
0.00197349
0.00197582
0.00197891
0.00198283
0.00198781
0.00199382
0.00200057
0.00200852
0.00201709
0.000808556
0.000857423
0.0009161
0.000985186
0.00106419
0.00115158
0.00124496
0.00134131
0.00143724
0.00152939
0.00161485
0.00169149
0.00175809
0.00181428
0.00186036
0.00189705
0.00192546
0.00194683
0.00196229
0.00197292
0.00197986
0.00198414
0.00198642
0.0019875
0.00198789
0.00198776
0.00198725
0.00198634
0.00198488
0.00198298
0.0019806
0.00197801
0.00197542
0.00197323
0.00197146
0.0019703
0.00196977
0.00196956
0.00196999
0.00197154
0.00197384
0.00197677
0.00198071
0.00198561
0.00199133
0.00199784
0.00200524
0.0020133
0.00202237
0.00203197
0.00110773
0.00119649
0.00128997
0.00138515
0.00147876
0.00156772
0.00164946
0.0017222
0.00178501
0.00183775
0.00188078
0.00191492
0.00194123
0.00196089
0.00197496
0.00198451
0.00199057
0.00199409
0.00199577
0.00199632
0.00199621
0.00199557
0.00199464
0.00199319
0.00199114
0.00198851
0.00198557
0.00198247
0.00197932
0.00197632
0.00197375
0.00197146
0.00196969
0.00196864
0.00196816
0.00196808
0.00196884
0.00197048
0.00197261
0.00197553
0.00197953
0.00198427
0.00198976
0.00199603
0.00200308
0.00201079
0.00201924
0.0020282
0.00203793
0.00204803
0.0015237
0.00160878
0.00168619
0.00175453
0.00181318
0.00186216
0.00190193
0.00193336
0.00195749
0.00197537
0.00198803
0.0019965
0.00200173
0.00200453
0.00200569
0.00200584
0.00200526
0.00200424
0.00200285
0.00200091
0.00199838
0.00199525
0.00199189
0.00198841
0.00198485
0.00198127
0.0019779
0.00197482
0.00197214
0.00197012
0.00196874
0.00196792
0.00196743
0.00196756
0.00196853
0.00197007
0.00197217
0.00197528
0.00197918
0.00198374
0.00198907
0.00199511
0.00200183
0.00200918
0.00201718
0.00202571
0.00203479
0.00204419
0.00205411
0.00206419
0.00184268
0.0018876
0.0019239
0.00195245
0.00197428
0.00199031
0.00200152
0.00200889
0.00201332
0.00201544
0.00201614
0.0020159
0.00201501
0.00201363
0.00201178
0.00200936
0.00200639
0.00200294
0.0019993
0.00199552
0.00199161
0.00198772
0.00198363
0.00197987
0.00197664
0.0019738
0.00197154
0.00196986
0.00196867
0.00196778
0.00196751
0.00196791
0.0019689
0.00197037
0.00197267
0.00197582
0.00197957
0.00198402
0.00198919
0.001995
0.00200143
0.00200845
0.00201605
0.00202414
0.00203272
0.00204163
0.0020509
0.00206026
0.00206991
0.00207943
0.00199159
0.00200569
0.00201542
0.00202169
0.00202526
0.0020268
0.00202708
0.0020265
0.00202531
0.00202363
0.00202133
0.00201848
0.0020151
0.00201146
0.00200764
0.00200358
0.00199943
0.00199514
0.00199074
0.00198646
0.00198263
0.00197931
0.00197633
0.00197379
0.00197183
0.00197039
0.00196913
0.0019685
0.0019685
0.00196895
0.00196991
0.00197152
0.001974
0.00197705
0.00198073
0.00198509
0.00199008
0.00199566
0.00200182
0.00200854
0.00201577
0.00202346
0.00203158
0.00204002
0.00204875
0.00205761
0.00206662
0.00207547
0.00208441
0.00209292
0.00203757
0.00203857
0.00203846
0.00203759
0.00203612
0.00203412
0.00203143
0.00202818
0.00202449
0.00202072
0.00201673
0.00201251
0.0020081
0.00200349
0.00199884
0.00199434
0.00199006
0.00198623
0.00198276
0.00197958
0.00197686
0.00197467
0.00197299
0.00197146
0.00197046
0.00197013
0.00197014
0.00197062
0.0019717
0.00197357
0.001976
0.001979
0.00198264
0.00198689
0.00199169
0.00199706
0.00200298
0.0020094
0.00201629
0.00202361
0.0020313
0.00203929
0.00204754
0.00205591
0.00206438
0.00207275
0.00208108
0.002089
0.00209686
0.00210401
0.00204736
0.00204499
0.002042
0.00203842
0.00203454
0.00203061
0.00202648
0.00202211
0.00201751
0.00201264
0.00200784
0.00200318
0.00199867
0.0019944
0.00199046
0.00198687
0.00198356
0.00198074
0.00197839
0.00197646
0.00197469
0.00197341
0.00197272
0.00197239
0.00197244
0.00197306
0.00197442
0.00197629
0.00197868
0.00198169
0.00198527
0.00198938
0.00199402
0.0019992
0.00200487
0.00201101
0.00201759
0.00202454
0.00203185
0.00203941
0.00204721
0.00205511
0.00206308
0.00207097
0.00207879
0.00208628
0.00209358
0.00210024
0.00210671
0.00211227
0.00204913
0.00204515
0.00204108
0.0020368
0.00203231
0.00202752
0.00202252
0.00201762
0.00201286
0.00200822
0.00200364
0.00199932
0.00199535
0.00199169
0.00198834
0.00198541
0.00198292
0.00198075
0.00197877
0.00197727
0.00197628
0.00197561
0.00197533
0.00197552
0.00197643
0.00197781
0.00197966
0.00198211
0.00198509
0.00198857
0.00199255
0.00199705
0.00200203
0.00200747
0.00201334
0.00201962
0.00202624
0.00203317
0.00204034
0.00204771
0.00205516
0.00206268
0.00207011
0.00207744
0.00208449
0.0020913
0.0020976
0.00210356
0.00210876
0.0021136
0.00211749
0.00204302
0.00203808
0.00203306
0.00202808
0.00202325
0.00201851
0.00201377
0.00200919
0.00200491
0.00200095
0.00199724
0.00199386
0.00199085
0.00198824
0.00198584
0.00198369
0.00198201
0.00198076
0.00197976
0.00197917
0.00197904
0.00197953
0.00198049
0.00198187
0.00198381
0.00198625
0.00198916
0.00199255
0.00199642
0.00200077
0.00200556
0.00201077
0.00201639
0.00202237
0.00202867
0.00203525
0.00204204
0.00204901
0.00205603
0.00206312
0.0020701
0.00207699
0.00208361
0.00208996
0.00209589
0.0021014
0.00210631
0.00211071
0.0021143
0.00211751
0.0021197
0.00203917
0.00203428
0.00202945
0.00202463
0.00201991
0.00201542
0.00201121
0.00200725
0.00200351
0.00200011
0.00199704
0.00199433
0.00199173
0.00198944
0.0019876
0.0019861
0.00198484
0.00198396
0.00198357
0.0019837
0.00198425
0.00198523
0.00198671
0.00198867
0.00199106
0.00199391
0.00199722
0.00200098
0.00200516
0.00200976
0.00201476
0.00202013
0.00202583
0.00203182
0.00203806
0.00204449
0.00205107
0.0020577
0.00206437
0.00207093
0.00207739
0.00208359
0.00208952
0.00209507
0.00210018
0.00210474
0.0021088
0.0021121
0.00211499
0.0021168
0.00211884
0.00211943
0.00203134
0.00202675
0.00202235
0.00201818
0.00201418
0.00201049
0.00200709
0.002004
0.00200111
0.00199838
0.00199601
0.00199404
0.00199228
0.0019908
0.00198967
0.00198907
0.00198889
0.00198906
0.00198968
0.00199077
0.00199227
0.0019942
0.00199656
0.00199936
0.00200257
0.0020062
0.00201024
0.00201465
0.00201944
0.00202456
0.00202999
0.00203568
0.00204159
0.00204768
0.00205388
0.00206013
0.00206639
0.00207256
0.00207861
0.0020844
0.00208995
0.0020951
0.00209984
0.00210406
0.0021078
0.00211076
0.00211339
0.00211491
0.00211661
0.00211697
0.00211745
0.0021166
0.00202575
0.00202185
0.0020182
0.00201481
0.00201166
0.0020086
0.00200582
0.00200339
0.00200125
0.00199927
0.00199761
0.00199631
0.00199549
0.00199503
0.00199489
0.00199519
0.00199592
0.00199703
0.00199853
0.00200045
0.00200277
0.00200549
0.00200861
0.00201211
0.00201599
0.00202023
0.0020248
0.00202968
0.00203484
0.00204024
0.00204583
0.00205158
0.00205743
0.00206332
0.00206919
0.00207497
0.00208063
0.00208602
0.0020912
0.00209595
0.00210038
0.00210422
0.00210767
0.00211032
0.00211268
0.00211395
0.00211527
0.00211548
0.00211564
0.00211469
0.00211357
0.00211124
0.00202323
0.00201991
0.00201683
0.00201405
0.00201155
0.00200919
0.00200708
0.00200527
0.00200386
0.00200283
0.00200209
0.00200171
0.00200173
0.00200212
0.00200288
0.002004
0.00200551
0.00200741
0.00200968
0.00201232
0.00201533
0.00201871
0.00202243
0.00202648
0.00203084
0.00203549
0.00204038
0.00204549
0.00205079
0.00205621
0.00206171
0.00206724
0.00207274
0.00207816
0.00208342
0.00208845
0.00209326
0.00209763
0.00210174
0.00210521
0.00210839
0.00211074
0.00211281
0.00211388
0.00211479
0.00211487
0.00211474
0.00211364
0.00211227
0.00210983
0.00210761
0.00210406
0.00202303
0.00202036
0.00201788
0.00201568
0.00201378
0.00201227
0.00201103
0.00201007
0.00200949
0.00200926
0.00200935
0.00200978
0.00201057
0.00201172
0.00201322
0.00201507
0.00201728
0.00201984
0.00202275
0.00202599
0.00202955
0.00203342
0.00203757
0.00204198
0.00204662
0.00205145
0.00205644
0.00206154
0.00206671
0.00207189
0.00207704
0.00208209
0.00208699
0.00209166
0.0020961
0.00210013
0.0021039
0.00210703
0.00210991
0.00211199
0.00211374
0.00211466
0.00211517
0.00211511
0.0021147
0.00211343
0.00211187
0.00210929
0.00210677
0.00210313
0.00209996
0.00209551
0.00202508
0.00202316
0.00202149
0.00202008
0.00201896
0.0020182
0.00201773
0.00201756
0.00201771
0.0020182
0.00201901
0.00202016
0.00202164
0.00202345
0.0020256
0.00202807
0.00203087
0.00203397
0.00203737
0.00204105
0.00204499
0.00204917
0.00205355
0.00205811
0.0020628
0.00206759
0.00207243
0.00207727
0.00208208
0.00208677
0.00209131
0.00209564
0.00209971
0.00210343
0.00210683
0.0021097
0.00211224
0.00211407
0.00211551
0.00211625
0.00211644
0.00211618
0.00211551
0.00211405
0.00211233
0.00210959
0.00210681
0.00210307
0.00209957
0.00209501
0.00209111
0.00208609
0.00202996
0.00202874
0.00202779
0.00202711
0.00202672
0.00202663
0.00202684
0.00202736
0.00202819
0.00202933
0.00203078
0.00203255
0.00203462
0.00203701
0.00203968
0.00204265
0.00204589
0.00204938
0.00205311
0.00205705
0.00206118
0.00206546
0.00206986
0.00207435
0.00207887
0.00208338
0.00208785
0.00209219
0.00209639
0.00210037
0.0021041
0.00210751
0.00211054
0.00211318
0.00211535
0.00211699
0.00211813
0.00211864
0.00211858
0.00211803
0.00211715
0.00211551
0.00211364
0.00211074
0.00210772
0.00210386
0.00210006
0.00209542
0.00209107
0.00208595
0.00208158
0.00207618
0.0020368
0.0020365
0.00203647
0.00203672
0.00203727
0.0020381
0.00203923
0.00204065
0.00204236
0.00204436
0.00204664
0.0020492
0.00205202
0.00205509
0.0020584
0.00206192
0.00206563
0.00206951
0.00207352
0.00207763
0.00208182
0.00208602
0.00209021
0.00209434
0.00209835
0.00210222
0.00210586
0.00210925
0.00211235
0.00211504
0.00211742
0.00211925
0.00212068
0.00212154
0.00212182
0.0021216
0.00212069
0.00211962
0.00211777
0.00211573
0.00211272
0.00210948
0.00210549
0.00210142
0.00209668
0.002092
0.0020867
0.00208181
0.00207636
0.0020716
0.00206587
0.00204704
0.00204734
0.0020479
0.00204874
0.00204985
0.00205123
0.00205289
0.00205481
0.00205699
0.00205942
0.0020621
0.002065
0.00206812
0.00207143
0.00207491
0.00207854
0.00208228
0.00208611
0.00209
0.00209389
0.00209777
0.00210156
0.00210525
0.00210879
0.0021121
0.00211518
0.00211794
0.00212034
0.00212241
0.00212395
0.00212513
0.00212575
0.00212578
0.00212541
0.00212423
0.00212292
0.00212086
0.00211861
0.00211551
0.00211209
0.00210796
0.00210365
0.00209877
0.00209383
0.00208836
0.00208305
0.00207739
0.00207212
0.00206639
0.00206133
0.00205547
0.00205927
0.0020601
0.00206118
0.00206252
0.00206412
0.00206595
0.00206803
0.00207034
0.00207286
0.0020756
0.00207853
0.00208163
0.00208488
0.00208826
0.00209174
0.0020953
0.00209889
0.00210248
0.00210604
0.00210952
0.00211289
0.00211609
0.00211909
0.00212185
0.00212428
0.00212642
0.00212816
0.00212946
0.00213036
0.00213073
0.00213055
0.00212999
0.00212861
0.00212701
0.00212482
0.0021223
0.00211914
0.00211551
0.00211124
0.00210673
0.00210171
0.00209653
0.00209092
0.00208526
0.00207935
0.00207365
0.00206773
0.00206214
0.00205625
0.0020511
0.00204527
0.00207452
0.00207604
0.00207779
0.00207976
0.00208194
0.00208432
0.00208689
0.00208963
0.00209252
0.00209555
0.00209868
0.0021019
0.00210518
0.00210848
0.00211178
0.00211503
0.0021182
0.00212126
0.00212413
0.00212682
0.00212925
0.0021314
0.00213324
0.00213467
0.00213575
0.00213635
0.00213649
0.00213613
0.00213529
0.0021338
0.00213188
0.00212957
0.0021268
0.00212356
0.00211975
0.00211537
0.00211065
0.00210548
0.00210009
0.00209433