/*--------------------------------*- C++ -*----------------------------------*\
| =========                 |                                                 |
| \\      /  F ield         | OpenFOAM: The Open Source CFD Toolbox           |
|  \\    /   O peration     | Version:  v1706                                 |
|   \\  /    A nd           | Web:      www.OpenFOAM.com                      |
|    \\/     M anipulation  |                                                 |
\*---------------------------------------------------------------------------*/
FoamFile
{
    version     2.0;
    format      ascii;
    class       volScalarField;
    location    "1.7e-05";
    object      Tt;
}
// * * * * * * * * * * * * * * * * * * * * * * * * * * * * * * * * * * * * * //

dimensions      [0 0 0 1 0 0 0];


internalField   nonuniform List<scalar> 
30038
(
144.4
144.4
144.4
144.4
144.4
144.4
144.4
144.4
144.4
144.4
144.4
144.4
144.4
144.4
144.4
144.4
144.4
144.4
144.4
144.4
144.4
144.4
144.4
144.4
144.4
144.4
144.4
144.4
144.4
144.4
144.4
144.4
144.4
144.4
144.4
144.4
144.4
144.4
144.4
144.4
144.4
144.4
144.4
144.4
144.4
144.4
144.4
144.4
144.4
144.4
144.4
144.4
144.4
144.4
144.4
144.4
144.4
144.4
144.4
144.4
144.4
144.4
144.4
144.4
144.4
144.4
144.4
144.4
144.4
144.4
144.4
144.4
144.4
144.4
144.4
144.4
144.4
144.4
144.4
144.4
144.4
144.4
144.4
144.4
144.4
144.4
144.4
144.4
144.4
144.4
144.4
144.4
144.4
144.4
144.4
144.4
144.4
144.4
144.4
144.4
144.4
144.4
144.4
144.4
144.4
144.4
144.4
144.4
144.4
144.4
144.4
144.4
144.4
144.4
144.4
144.4
144.4
144.4
144.4
144.4
144.4
144.4
144.4
144.4
144.4
144.4
144.4
144.4
144.4
144.4
144.4
144.4
144.4
144.4
144.4
144.4
144.4
144.4
144.4
144.4
144.4
144.4
144.4
144.4
144.4
144.4
144.4
144.4
144.4
144.4
144.4
144.4
144.4
144.4
144.4
144.4
144.4
144.4
144.4
144.4
144.4
144.4
144.4
144.4
144.4
144.4
144.4
144.4
144.4
144.4
144.4
144.4
144.4
144.4
144.4
144.4
144.4
144.4
144.4
144.4
144.4
144.4
144.4
144.4
144.4
144.4
144.4
144.4
144.4
144.4
144.4
144.4
144.4
144.4
144.4
144.4
144.4
144.4
144.4
144.4
144.4
144.4
144.4
144.4
144.4
144.4
144.4
144.4
144.4
144.4
144.4
144.4
144.4
144.4
144.4
144.4
144.4
144.4
144.4
144.4
144.4
144.4
144.4
144.4
144.4
144.4
144.4
144.4
144.4
144.4
144.4
144.4
144.4
144.4
144.4
144.4
144.4
144.4
144.4
144.4
144.4
144.4
144.4
144.4
144.4
144.4
144.4
144.4
144.4
144.4
144.4
144.4
144.4
144.4
144.4
144.4
144.4
144.4
144.4
144.4
144.4
144.4
144.4
144.4
144.4
144.4
144.4
144.4
144.4
144.4
144.4
144.4
144.4
144.4
144.4
144.4
144.4
144.4
144.4
144.4
144.4
144.4
144.4
144.4
144.4
144.4
144.4
144.4
144.4
144.4
144.4
144.4
144.4
144.4
144.4
144.4
144.4
144.4
144.4
144.4
144.4
144.4
144.4
144.4
144.4
144.4
144.4
144.4
144.4
144.4
144.4
144.4
144.4
144.4
144.4
144.4
144.4
144.4
144.4
144.4
144.4
144.4
144.4
144.4
144.4
144.4
144.4
144.4
144.4
144.4
144.4
144.4
144.4
144.4
144.4
144.4
144.4
144.4
144.4
144.4
144.4
144.4
144.4
144.4
144.4
144.4
144.4
144.4
144.4
144.4
144.4
144.4
144.4
144.4
144.4
144.4
144.4
144.4
144.4
144.4
144.4
144.4
144.4
144.4
144.4
144.4
144.4
144.4
144.4
144.4
144.4
144.4
144.4
144.4
144.4
144.4
144.4
144.4
144.4
144.4
144.4
144.4
144.4
144.4
144.4
144.4
144.4
144.4
144.4
144.4
144.4
144.4
144.4
144.4
144.4
144.4
144.4
144.4
144.4
144.4
144.4
144.4
144.4
144.4
144.4
144.4
144.4
144.4
144.4
144.4
144.4
144.4
144.4
144.4
144.4
144.4
144.4
144.4
144.4
144.4
144.4
144.4
144.4
144.4
144.4
144.4
144.4
144.4
144.4
144.4
144.4
144.4
144.4
144.4
144.4
144.4
144.4
144.4
144.4
144.4
144.4
144.4
144.4
144.4
144.4
144.4
144.4
144.4
144.4
144.4
144.4
144.4
144.4
144.4
144.4
144.4
144.4
144.4
144.4
144.4
144.4
144.4
144.4
144.4
144.4
144.4
144.4
144.4
144.4
144.4
144.4
144.4
144.4
144.4
144.4
144.4
144.4
144.4
144.4
144.4
144.4
144.4
144.4
144.4
144.4
144.4
144.4
144.4
144.4
144.4
144.4
144.4
144.4
144.4
144.4
144.4
144.4
144.4
144.4
144.4
144.4
144.4
144.4
144.4
144.4
144.4
144.4
144.4
144.4
144.4
144.4
144.4
144.4
144.4
144.4
144.4
144.4
144.4
144.4
144.4
144.4
144.4
144.4
144.4
144.4
144.4
144.4
144.4
144.4
144.4
144.4
144.4
144.4
144.4
144.4
144.4
144.4
144.4
144.4
144.401
144.401
144.4
144.4
144.4
144.4
144.4
144.4
144.4
144.4
144.4
144.4
144.4
144.4
144.4
144.4
144.4
144.4
144.4
144.4
144.4
144.4
144.4
144.4
144.4
144.4
144.4
144.4
144.4
144.4
144.4
144.4
144.4
144.4
144.401
144.401
144.401
144.401
144.401
144.402
144.402
144.403
144.4
144.4
144.4
144.4
144.4
144.4
144.4
144.4
144.4
144.4
144.4
144.4
144.4
144.4
144.4
144.4
144.4
144.4
144.4
144.4
144.4
144.4
144.4
144.4
144.4
144.4
144.4
144.401
144.401
144.401
144.401
144.401
144.402
144.402
144.403
144.404
144.405
144.406
144.407
144.409
144.4
144.4
144.4
144.4
144.4
144.4
144.4
144.4
144.4
144.4
144.4
144.4
144.4
144.4
144.4
144.4
144.4
144.4
144.4
144.4
144.4
144.4
144.401
144.401
144.401
144.401
144.401
144.402
144.402
144.403
144.404
144.405
144.406
144.407
144.409
144.412
144.415
144.419
144.424
144.431
144.4
144.4
144.4
144.4
144.4
144.4
144.4
144.4
144.4
144.4
144.4
144.4
144.4
144.4
144.4
144.4
144.4
144.401
144.401
144.401
144.401
144.401
144.402
144.402
144.403
144.404
144.405
144.406
144.408
144.41
144.412
144.415
144.419
144.424
144.431
144.439
144.449
144.462
144.479
144.501
144.4
144.4
144.4
144.4
144.4
144.4
144.4
144.4
144.4
144.4
144.4
144.4
144.4
144.401
144.401
144.401
144.401
144.402
144.402
144.402
144.403
144.404
144.405
144.406
144.408
144.41
144.412
144.416
144.42
144.425
144.431
144.439
144.449
144.462
144.478
144.499
144.524
144.557
144.598
144.65
144.719
144.4
144.4
144.4
144.4
144.4
144.4
144.4
144.4
144.401
144.401
144.401
144.401
144.402
144.402
144.402
144.403
144.404
144.405
144.406
144.408
144.41
144.412
144.416
144.42
144.425
144.431
144.439
144.45
144.462
144.478
144.499
144.524
144.556
144.597
144.647
144.71
144.79
144.89
145.016
145.177
145.387
144.4
144.4
144.4
144.401
144.401
144.401
144.401
144.401
144.402
144.402
144.403
144.403
144.404
144.405
144.406
144.408
144.41
144.413
144.416
144.42
144.425
144.431
144.439
144.449
144.462
144.478
144.498
144.523
144.555
144.595
144.644
144.707
144.785
144.884
145.007
145.161
145.354
145.596
145.898
146.277
146.756
147.376
144.401
144.401
144.401
144.401
144.402
144.402
144.403
144.403
144.404
144.405
144.406
144.408
144.41
144.413
144.416
144.42
144.425
144.431
144.439
144.449
144.461
144.477
144.497
144.521
144.552
144.591
144.64
144.701
144.778
144.874
144.994
145.145
145.333
145.569
145.863
146.23
146.687
147.257
147.965
148.845
149.939
151.306
153.036
144.402
144.403
144.403
144.404
144.405
144.407
144.408
144.41
144.413
144.416
144.42
144.425
144.431
144.439
144.449
144.461
144.476
144.496
144.52
144.55
144.588
144.635
144.694
144.768
144.861
144.978
145.123
145.305
145.533
145.817
146.172
146.614
147.164
147.848
148.697
149.749
151.047
152.647
154.61
157.013
159.946
163.523
167.9
144.405
144.407
144.408
144.411
144.413
144.416
144.42
144.425
144.431
144.439
144.449
144.461
144.476
144.495
144.518
144.547
144.584
144.63
144.687
144.759
144.848
144.96
145.1
145.275
145.493
145.766
146.105
146.528
147.055
147.71
148.522
149.528
150.772
152.305
154.187
156.49
159.294
162.689
166.775
171.655
177.443
184.253
192.211
201.425
144.414
144.417
144.421
144.426
144.432
144.44
144.449
144.461
144.476
144.494
144.517
144.546
144.581
144.626
144.681
144.75
144.837
144.944
145.078
145.246
145.454
145.714
146.037
146.44
146.941
147.562
148.334
149.289
150.469
151.924
153.711
155.9
158.568
161.803
165.703
170.371
175.912
182.431
190.025
198.771
208.724
219.921
232.353
245.982
260.688
144.433
144.44
144.45
144.462
144.476
144.495
144.517
144.545
144.58
144.623
144.677
144.744
144.827
144.931
145.06
145.22
145.419
145.667
145.974
146.356
146.831
147.42
148.149
149.051
150.164
151.536
153.222
155.287
157.805
160.861
164.549
168.973
174.237
180.447
187.703
196.094
205.68
216.494
228.54
241.759
256.037
271.224
287.12
303.493
320.044
336.463
144.463
144.478
144.496
144.519
144.546
144.581
144.623
144.676
144.741
144.822
144.922
145.046
145.2
145.391
145.628
145.921
146.284
146.734
147.292
147.98
148.831
149.88
151.171
152.755
154.694
157.059
159.93
163.398
167.561
172.525
178.395
185.274
193.253
202.409
212.786
224.397
237.217
251.162
266.09
281.826
298.142
314.752
331.295
347.33
362.387
376.075
388.078
398.513
144.584
144.626
144.678
144.742
144.821
144.919
145.04
145.189
145.373
145.6
145.881
146.228
146.657
147.186
147.839
148.643
149.632
150.847
152.336
154.156
156.374
159.065
162.316
166.221
170.881
176.402
182.886
190.429
199.113
208.998
220.113
232.445
245.946
260.506
275.963
292.125
308.745
325.519
342.063
357.924
372.643
385.841
397.279
406.869
414.647
420.793
425.396
428.862
144.748
144.827
144.923
145.042
145.187
145.367
145.587
145.859
146.193
146.604
147.11
147.732
148.496
149.433
150.581
151.985
153.698
155.781
158.307
161.355
165.015
169.385
174.566
180.66
187.765
195.967
205.336
215.913
227.709
240.689
254.78
269.85
285.722
302.189
318.995
335.818
352.261
367.871
382.212
394.946
405.885
414.988
422.334
428.081
432.42
435.524
437.597
438.845
439.312
439.148
145.375
145.592
145.857
146.182
146.581
147.069
147.667
148.399
149.293
150.386
151.718
153.338
155.305
157.685
160.552
163.991
168.095
172.96
178.687
185.373
193.106
201.962
211.992
223.224
235.645
249.2
263.795
279.276
295.456
312.122
329.006
345.777
362.029
377.319
391.239
403.495
413.943
422.585
429.526
434.941
439.026
441.964
443.957
445.158
445.706
445.607
445.117
444.208
442.921
441.362
147.069
147.651
148.359
149.222
150.272
151.547
153.094
154.965
157.222
159.936
163.185
167.056
171.641
177.036
183.337
190.632
199.001
208.503
219.173
231.019
244.01
258.07
273.082
288.881
305.271
322.036
338.901
355.526
371.508
386.416
399.877
411.638
421.6
429.794
436.349
441.45
445.296
448.073
449.971
451.145
451.724
451.733
451.38
450.639
449.564
448.215
446.648
444.846
442.798
440.489
151.488
152.98
154.778
156.941
159.532
162.626
166.303
170.651
175.76
181.723
188.627
196.553
205.563
215.702
226.987
239.407
252.91
267.403
282.751
298.777
315.283
332.052
348.805
365.198
380.832
395.299
408.261
419.508
428.979
436.733
442.913
447.71
451.324
453.941
455.735
456.869
457.457
457.545
457.279
456.684
455.784
454.613
453.238
451.676
449.914
447.951
445.793
443.422
440.815
437.894
162.342
165.869
170.028
174.904
180.585
187.156
194.695
203.268
212.924
223.688
235.56
248.508
262.466
277.318
292.918
309.081
325.613
342.294
358.844
374.919
390.129
404.094
416.514
427.222
436.19
443.502
449.31
453.807
457.191
459.645
461.332
462.41
462.99
463.124
462.917
462.43
461.671
460.663
459.441
458.06
456.524
454.817
452.931
450.86
448.584
446.074
443.331
440.338
437.148
433.661
186.277
193.497
201.699
210.936
221.237
232.608
245.032
258.46
272.807
287.94
303.706
319.916
336.381
352.884
369.139
384.807
399.514
412.911
424.741
434.878
443.325
450.185
455.618
459.813
462.964
465.249
466.824
467.835
468.387
468.546
468.379
467.965
467.314
466.438
465.363
464.121
462.754
461.253
459.593
457.761
455.752
453.542
451.114
448.474
445.64
442.601
439.381
435.957
432.36
428.507
230.673
242.624
255.558
269.407
284.07
299.4
315.238
331.402
347.706
363.934
379.798
394.967
409.086
421.845
433.03
442.558
450.46
456.852
461.898
465.784
468.697
470.806
472.26
473.194
473.707
473.863
473.722
473.359
472.78
472.011
471.056
469.952
468.711
467.363
465.881
464.245
462.441
460.468
458.314
455.965
453.44
450.738
447.866
444.809
441.578
438.161
434.562
430.782
426.845
422.69
296.392
311.824
327.635
343.651
359.694
375.546
390.916
405.485
418.926
430.971
441.453
450.328
457.654
463.556
468.2
471.766
474.432
476.356
477.678
478.524
478.986
479.122
478.99
478.659
478.13
477.431
476.576
475.586
474.47
473.226
471.883
470.399
468.766
466.98
465.042
462.95
460.694
458.277
455.698
452.947
450.032
446.954
443.712
440.288
436.695
432.941
429.031
424.971
420.781
416.416
372.437
387.799
402.563
416.424
429.09
440.341
450.059
458.235
464.951
470.34
474.564
477.796
480.203
481.93
483.111
483.858
484.256
484.354
484.218
483.899
483.404
482.751
481.969
481.07
480.053
478.918
477.664
476.299
474.803
473.172
471.411
469.524
467.5
465.321
462.993
460.513
457.879
455.084
452.143
449.052
445.788
442.356
438.771
435.029
431.139
427.113
422.97
418.716
414.375
409.912
439.607
449.982
458.873
466.307
472.381
477.231
481.016
483.9
486.036
487.554
488.584
489.221
489.544
489.588
489.437
489.112
488.631
488.011
487.277
486.447
485.513
484.457
483.281
482.003
480.62
479.12
477.506
475.781
473.937
471.965
469.849
467.598
465.211
462.68
460.004
457.174
454.209
451.084
447.798
444.366
440.784
437.051
433.183
429.189
425.082
420.876
416.592
412.246
407.861
403.41
479.951
484.242
487.573
490.096
491.949
493.25
494.117
494.635
494.872
494.847
494.67
494.327
493.842
493.24
492.541
491.758
490.879
489.889
488.784
487.569
486.271
484.878
483.386
481.791
480.093
478.284
476.353
474.296
472.119
469.817
467.374
464.79
462.069
459.206
456.21
453.057
449.759
446.321
442.736
439.014
435.167
431.201
427.129
422.967
418.731
414.44
410.117
405.78
401.457
397.123
497.948
499.028
499.724
500.113
500.246
500.163
499.936
499.563
499.065
498.464
497.787
497.034
496.186
495.246
494.196
493.047
491.807
490.499
489.105
487.614
486.03
484.354
482.576
480.689
478.69
476.574
474.336
471.967
469.465
466.838
464.077
461.185
458.153
454.977
451.668
448.219
444.633
440.923
437.094
433.154
429.117
424.996
420.806
416.566
412.295
408.014
403.749
399.52
395.353
391.229
505.683
505.54
505.254
504.838
504.316
503.709
503.041
502.298
501.472
500.557
499.551
498.456
497.276
496.024
494.704
493.299
491.806
490.234
488.581
486.837
484.988
483.031
480.963
478.779
476.476
474.05
471.502
468.834
466.031
463.103
460.04
456.847
453.522
450.064
446.482
442.781
438.969
435.055
431.05
426.968
422.823
418.631
414.411
410.183
405.969
401.79
397.672
393.635
389.706
385.864
509.611
508.991
508.321
507.573
506.754
505.853
504.873
503.82
502.691
501.49
500.218
498.88
497.466
495.977
494.421
492.79
491.07
489.246
487.321
485.295
483.162
480.916
478.554
476.076
473.484
470.77
467.928
464.967
461.88
458.666
455.324
451.861
448.282
444.591
440.796
436.907
432.934
428.889
424.787
420.642
416.472
412.294
408.13
403.999
399.925
395.928
392.033
388.258
384.627
381.12
512.052
511.154
510.19
509.163
508.074
506.915
505.683
504.39
503.038
501.622
500.143
498.599
496.978
495.27
493.466
491.573
489.584
487.492
485.293
482.985
480.569
478.045
475.407
472.65
469.772
466.782
463.669
460.433
457.08
453.613
450.036
446.355
442.578
438.714
434.772
430.764
426.703
422.603
418.481
414.352
410.237
406.153
402.123
398.165
394.303
390.553
386.941
383.477
380.186
377.047
514.509
513.445
512.316
511.12
509.861
508.554
507.197
505.782
504.304
502.761
501.144
499.447
497.663
495.794
493.833
491.774
489.615
487.354
484.993
482.53
479.956
477.273
474.476
471.567
468.547
465.406
462.154
458.792
455.322
451.748
448.079
444.32
440.48
436.568
432.595
428.575
424.519
420.443
416.363
412.296
408.259
404.273
400.355
396.526
392.803
389.208
385.754
382.463
379.343
376.413
373.653
515.315
514.039
512.726
511.362
509.937
508.452
506.907
505.296
503.608
501.838
499.985
498.045
496.014
493.89
491.671
489.357
486.946
484.43
481.809
479.086
476.25
473.312
470.259
467.098
463.832
460.461
456.989
453.421
449.764
446.023
442.207
438.325
434.388
430.406
426.393
422.363
418.33
414.31
410.32
406.378
402.5
398.706
395.012
391.436
387.995
384.706
381.58
378.633
375.869
373.305
370.914
516.901
515.521
514.082
512.592
511.047
509.438
507.752
505.988
504.148
502.226
500.219
498.123
495.939
493.666
491.299
488.834
486.271
483.609
480.845
477.974
475.002
471.925
468.747
465.467
462.089
458.617
455.056
451.411
447.69
443.898
440.046
436.144
432.201
428.23
424.244
420.257
416.284
412.34
408.441
404.604
400.846
397.182
393.63
390.204
386.921
383.791
380.831
378.045
375.449
373.037
370.822
368.773
516.727
515.178
513.563
511.874
510.116
508.286
506.378
504.388
502.316
500.163
497.925
495.597
493.176
490.664
488.057
485.354
482.548
479.646
476.647
473.547
470.351
467.06
463.679
460.209
456.656
453.025
449.322
445.556
441.734
437.866
433.961
430.032
426.09
422.149
418.221
414.323
410.468
406.671
402.95
399.317
395.791
392.382
389.109
385.98
383.011
380.207
377.583
375.135
372.877
370.792
368.91
367.185
515.978
514.223
512.399
510.499
508.524
506.473
504.346
502.136
499.841
497.46
494.993
492.436
489.785
487.04
484.199
481.269
478.243
475.124
471.914
468.615
465.231
461.764
458.221
454.605
450.923
447.182
443.39
439.556
435.69
431.802
427.903
424.007
420.125
416.271
412.459
408.704
405.019
401.419
397.92
394.531
391.271
388.147
385.174
382.357
379.71
377.232
374.934
372.804
370.866
369.089
367.517
366.097
514.588
512.626
510.594
508.487
506.301
504.034
501.689
499.261
496.746
494.142
491.451
488.671
485.799
482.841
479.792
476.657
473.436
470.131
466.746
463.285
459.752
456.153
452.492
448.777
445.016
441.216
437.388
433.541
429.686
425.833
421.997
418.187
414.419
410.705
407.058
403.492
400.02
396.654
393.409
390.292
387.32
384.494
381.829
379.326
376.993
374.824
372.833
371.001
369.362
367.881
366.593
365.44
512.583
510.418
508.179
505.864
503.47
500.992
498.431
495.787
493.06
490.245
487.345
484.363
481.295
478.146
474.916
471.608
468.226
464.772
461.251
457.669
454.03
450.343
446.612
442.848
439.058
435.251
431.439
427.631
423.839
420.074
416.349
412.676
409.068
405.536
402.094
398.752
395.524
392.417
389.447
386.617
383.94
381.415
379.054
376.85
374.811
372.93
371.231
369.685
368.322
367.103
366.064
365.148
509.983
507.616
505.172
502.65
500.05
497.368
494.606
491.761
488.838
485.835
482.751
479.591
476.356
473.047
469.669
466.224
462.717
459.154
455.539
451.879
448.18
444.451
440.699
436.934
433.164
429.4
425.653
421.932
418.251
414.619
411.05
407.553
404.141
400.826
397.617
394.524
391.559
388.727
386.04
383.499
381.115
378.879
376.801
374.875
373.121
371.515
370.084
368.794
367.676
366.688
365.859
365.124
506.8
504.237
501.598
498.882
496.091
493.22
490.276
487.255
484.159
480.992
477.753
474.446
471.074
467.641
464.15
460.607
457.017
453.386
449.72
446.026
442.313
438.589
434.862
431.142
427.44
423.764
420.126
416.536
413.006
409.545
406.165
402.877
399.689
396.613
393.655
390.826
388.132
385.577
383.173
380.91
378.8
376.833
375.029
373.368
371.874
370.52
369.327
368.264
367.36
366.559
365.901
365.336
500.33
497.512
494.619
491.657
488.622
485.518
482.345
479.107
475.804
472.441
469.022
465.549
462.028
458.464
454.862
451.23
447.573
443.899
440.217
436.533
432.858
429.2
425.569
421.975
418.427
414.936
411.512
408.165
404.905
401.74
398.682
395.735
392.912
390.215
387.652
385.23
382.943
380.806
378.801
376.953
375.243
373.691
372.277
371.014
369.883
368.898
368.034
367.294
366.657
366.153
365.741
495.957
492.98
489.935
486.825
483.651
480.415
477.12
473.769
470.365
466.912
463.415
459.879
456.309
452.711
449.091
445.458
441.817
438.177
434.547
430.934
427.348
423.797
420.292
416.842
413.455
410.143
406.912
403.773
400.733
397.801
394.984
392.287
389.721
387.284
384.977
382.815
380.78
378.892
377.137
375.532
374.061
372.735
371.538
370.479
369.543
368.733
368.024
367.433
366.945
366.577
366.29
491.191
488.078
484.906
481.676
478.391
475.054
471.668
468.237
464.766
461.26
457.722
454.16
450.579
446.987
443.389
439.793
436.208
432.641
429.1
425.594
422.132
418.723
415.375
412.097
408.897
405.785
402.766
399.851
397.043
394.351
391.78
389.335
387.014
384.829
382.768
380.843
379.049
377.395
375.872
374.487
373.228
372.101
371.093
370.213
369.435
368.767
368.198
367.743
367.38
367.123
366.938
482.887
479.614
476.294
472.929
469.523
466.08
462.605
459.102
455.577
452.036
448.485
444.931
441.38
437.841
434.32
430.825
427.364
423.946
420.579
417.27
414.028
410.861
407.776
404.781
401.884
399.088
396.404
393.832
391.379
389.049
386.845
384.762
382.806
380.977
379.278
377.707
376.267
374.951
373.76
372.687
371.732
370.891
370.15
369.506
368.967
368.523
368.179
367.918
367.753
367.651
477.488
474.146
470.766
467.353
463.911
460.445
456.959
453.459
449.951
446.442
442.937
439.444
435.97
432.522
429.107
425.733
422.408
419.14
415.935
412.802
409.746
406.777
403.9
401.119
398.445
395.875
393.419
391.081
388.86
386.761
384.778
382.917
381.179
379.565
378.075
376.704
375.454
374.318
373.297
372.384
371.579
370.864
370.246
369.723
369.295
368.953
368.7
368.522
368.431
368.399
471.965
468.584
465.177
461.748
458.303
454.845
451.382
447.919
444.461
441.016
437.589
434.188
430.82
427.492
424.211
420.984
417.817
414.719
411.695
408.753
405.896
403.135
400.471
397.907
395.453
393.109
390.877
388.761
386.757
384.868
383.096
381.442
379.906
378.487
377.181
375.987
374.902
373.923
373.048
372.269
371.58
370.979
370.471
370.048
369.711
369.451
369.272
369.161
369.13
369.149
466.399
463.01
459.607
456.194
452.776
449.36
445.95
442.553
439.176
435.823
432.503
429.221
425.984
422.799
419.673
416.611
413.62
410.706
407.875
405.133
402.481
399.928
397.477
395.13
392.891
390.762
388.741
386.828
385.027
383.337
381.76
380.295
378.939
377.69
376.546
375.504
374.563
373.718
372.963
372.291
371.705
371.205
370.787
370.446
370.182
369.988
369.867
369.81
369.822
369.878
460.867
457.5
454.13
450.762
447.402
444.055
440.727
437.424
434.152
430.918
427.727
424.586
421.5
418.476
415.52
412.635
409.833
407.11
404.475
401.935
399.49
397.144
394.901
392.761
390.726
388.794
386.967
385.246
383.632
382.125
380.724
379.425
378.227
377.127
376.122
375.211
374.392
373.655
372.998
372.421
371.925
371.505
371.16
370.884
370.678
370.536
370.461
370.447
370.486
370.572
455.441
452.123
448.813
445.517
442.24
438.988
435.766
432.58
429.436
426.339
423.296
420.312
417.39
414.541
411.764
409.065
406.451
403.925
401.488
399.147
396.902
394.756
392.71
390.763
388.915
387.167
385.521
383.976
382.533
381.188
379.94
378.786
377.724
376.751
375.866
375.066
374.344
373.696
373.125
372.629
372.205
371.849
371.561
371.337
371.176
371.074
371.035
371.047
371.11
371.217
450.181
446.938
443.713
440.513
437.341
434.205
431.109
428.059
425.059
422.115
419.232
416.417
413.669
410.997
408.405
405.895
403.471
401.137
398.894
396.745
394.691
392.732
390.866
389.096
387.422
385.844
384.363
382.976
381.682
380.478
379.363
378.334
377.388
376.523
375.738
375.026
374.385
373.815
373.315
372.883
372.516
372.211
371.968
371.784
371.657
371.585
371.572
371.601
371.681
371.8
441.995
438.876
435.791
432.744
429.741
426.786
423.884
421.042
418.26
415.545
412.902
410.334
407.843
405.434
403.11
400.872
398.723
396.664
394.697
392.818
391.029
389.331
387.725
386.21
384.786
383.45
382.201
381.036
379.954
378.952
378.028
377.18
376.406
375.701
375.062
374.49
373.983
373.54
373.158
372.835
372.57
372.361
372.207
372.105
372.056
372.058
372.098
372.187
372.311
437.333
434.337
431.382
428.474
425.617
422.814
420.07
417.39
414.777
412.235
409.766
407.375
405.063
402.834
400.688
398.628
396.654
394.766
392.963
391.246
389.614
388.07
386.612
385.239
383.949
382.739
381.609
380.555
379.576
378.67
377.834
377.067
376.366
375.726
375.149
374.633
374.176
373.777
373.434
373.145
372.909
372.725
372.592
372.507
372.473
372.483
372.53
372.621
372.743
432.98
430.121
427.308
424.547
421.843
419.199
416.618
414.105
411.661
409.289
406.993
404.775
402.635
400.577
398.601
396.706
394.893
393.16
391.508
389.939
388.452
387.045
385.718
384.468
383.293
382.192
381.163
380.203
379.31
378.484
377.72
377.019
376.376
375.79
375.262
374.79
374.372
374.006
373.692
373.429
373.214
373.048
372.929
372.855
372.829
372.841
372.889
372.976
373.091
426.239
423.576
420.97
418.423
415.94
413.523
411.174
408.896
406.692
404.562
402.508
400.533
398.634
396.814
395.07
393.403
391.812
390.299
388.864
387.503
386.217
385.002
383.858
382.782
381.773
380.828
379.947
379.126
378.364
377.659
377.01
376.414
375.872
375.382
374.943
374.554
374.214
373.921
373.675
373.475
373.32
373.209
373.141
373.116
373.127
373.171
373.249
373.35
422.698
420.188
417.737
415.349
413.025
410.768
408.58
406.463
404.417
402.445
400.547
398.723
396.971
395.291
393.684
392.15
390.689
389.3
387.982
386.732
385.548
384.43
383.376
382.383
381.451
380.576
379.758
378.995
378.285
377.627
377.02
376.462
375.953
375.492
375.078
374.709
374.386
374.108
373.874
373.683
373.534
373.426
373.359
373.331
373.338
373.373
373.439
373.525
417.135
414.839
412.605
410.436
408.334
406.3
404.335
402.439
400.614
398.858
397.17
395.551
394
392.517
391.104
389.757
388.475
387.257
386.102
385.006
383.97
382.991
382.067
381.198
380.38
379.614
378.897
378.228
377.606
377.03
376.501
376.017
375.577
375.18
374.826
374.515
374.246
374.019
373.832
373.685
373.576
373.505
373.471
373.47
373.494
373.55
373.617
414.403
412.256
410.172
408.152
406.196
404.306
402.483
400.725
399.033
397.405
395.841
394.342
392.907
391.536
390.228
388.979
387.79
386.658
385.582
384.561
383.593
382.676
381.808
380.989
380.218
379.492
378.811
378.174
377.58
377.029
376.519
376.052
375.626
375.242
374.897
374.593
374.329
374.104
373.917
373.768
373.656
373.579
373.537
373.527
373.539
373.582
373.63
409.968
408.025
406.144
404.326
402.57
400.876
399.243
397.67
396.158
394.706
393.315
391.983
390.708
389.49
388.325
387.215
386.155
385.146
384.186
383.273
382.407
381.585
380.806
380.07
379.376
378.723
378.11
377.537
377.004
376.509
376.053
375.636
375.258
374.919
374.617
374.354
374.129
373.941
373.788
373.671
373.589
373.538
373.514
373.515
373.537
373.562
407.948
406.137
404.386
402.693
401.058
399.481
397.959
396.495
395.087
393.735
392.438
391.194
390.002
388.86
387.767
386.722
385.723
384.769
383.859
382.991
382.164
381.378
380.631
379.923
379.252
378.62
378.025
377.466
376.945
376.46
376.012
375.601
375.226
374.889
374.588
374.324
374.096
373.903
373.746
373.623
373.532
373.468
373.432
373.413
373.412
373.41
406.168
404.479
402.846
401.266
399.74
398.266
396.846
395.478
394.162
392.897
391.681
390.512
389.39
388.313
387.279
386.289
385.339
384.43
383.559
382.727
381.931
381.172
380.449
379.762
379.109
378.491
377.908
377.359
376.846
376.367
375.923
375.514
375.14
374.802
374.5
374.233
374.001
373.804
373.641
373.509
373.405
373.327
373.274
373.234
373.208
373.178
404.601
403.022
401.494
400.015
398.586
397.206
395.875
394.592
393.355
392.164
391.016
389.911
388.848
387.824
386.84
385.893
384.984
384.11
383.271
382.466
381.694
380.956
380.25
379.577
378.937
378.329
377.753
377.211
376.701
376.225
375.782
375.373
374.998
374.658
374.353
374.082
373.847
373.643
373.471
373.327
373.21
373.117
373.044
372.982
372.93
372.872
403.216
401.735
400.301
398.913
397.57
396.273
395.02
393.809
392.64
391.511
390.421
389.37
388.355
387.375
386.43
385.519
384.641
383.794
382.979
382.195
381.442
380.718
380.025
379.362
378.729
378.127
377.556
377.016
376.508
376.032
375.588
375.178
374.8
374.458
374.149
373.875
373.632
373.42
373.237
373.08
372.951
372.84
372.746
372.661
372.582
372.494
401.985
400.592
399.241
397.933
396.667
395.441
394.254
393.105
391.993
390.917
389.875
388.867
387.891
386.947
386.034
385.151
384.297
383.471
382.674
381.906
381.164
380.451
379.766
379.109
378.481
377.882
377.313
376.773
376.264
375.787
375.341
374.928
374.549
374.203
373.89
373.609
373.358
373.137
372.941
372.774
372.628
372.5
372.384
372.275
372.168
372.048
400.882
399.567
398.29
397.052
395.851
394.686
393.555
392.458
391.394
390.361
389.359
388.387
387.443
386.527
385.638
384.776
383.941
383.131
382.347
381.588
380.856
380.149
379.469
378.815
378.189
377.591
377.021
376.48
375.97
375.49
375.043
374.628
374.245
373.895
373.576
373.287
373.027
372.795
372.589
372.409
372.246
372.099
371.961
371.826
371.691
371.54
398.637
397.425
396.247
395.102
393.988
392.904
391.851
390.826
389.829
388.858
387.914
386.995
386.101
385.231
384.385
383.563
382.764
381.989
381.238
380.51
379.807
379.129
378.477
377.851
377.252
376.68
376.138
375.626
375.145
374.695
374.277
373.89
373.533
373.207
372.911
372.642
372.399
372.183
371.988
371.808
371.64
371.48
371.32
371.155
370.971
397.782
396.625
395.497
394.399
393.328
392.284
391.266
390.273
389.304
388.359
387.437
386.538
385.66
384.804
383.97
383.157
382.366
381.597
380.849
380.124
379.423
378.745
378.093
377.465
376.865
376.292
375.749
375.235
374.751
374.298
373.875
373.483
373.12
372.788
372.483
372.205
371.954
371.725
371.514
371.317
371.129
370.945
370.759
370.563
370.348
396.98
395.87
394.785
393.726
392.691
391.679
390.69
389.723
388.777
387.852
386.947
386.062
385.197
384.351
383.525
382.718
381.931
381.165
380.42
379.696
378.994
378.316
377.662
377.034
376.432
375.858
375.313
374.797
374.309
373.852
373.425
373.027
372.659
372.32
372.007
371.721
371.46
371.217
370.991
370.775
370.567
370.359
370.146
369.921
369.673
395.144
394.095
393.068
392.063
391.077
390.111
389.165
388.237
387.327
386.435
385.561
384.704
383.865
383.044
382.241
381.457
380.692
379.947
379.223
378.521
377.842
377.187
376.558
375.955
375.379
374.831
374.312
373.821
373.36
372.929
372.527
372.153
371.807
371.487
371.193
370.92
370.664
370.421
370.188
369.958
369.726
369.486
369.231
368.95
394.434
393.415
392.415
391.433
390.468
389.521
388.59
387.676
386.778
385.895
385.028
384.178
383.343
382.526
381.725
380.942
380.177
379.432
378.707
378.005
377.326
376.67
376.039
375.434
374.856
374.305
373.783
373.289
372.825
372.39
371.983
371.605
371.252
370.925
370.622
370.337
370.067
369.808
369.556
369.305
369.049
368.781
368.496
368.182
393.727
392.733
391.754
390.791
389.844
388.911
387.992
387.088
386.198
385.323
384.461
383.615
382.783
381.967
381.167
380.384
379.62
378.875
378.15
377.447
376.766
376.109
375.476
374.869
374.289
373.736
373.212
372.716
372.249
371.811
371.4
371.016
370.657
370.324
370.011
369.714
369.43
369.155
368.884
368.611
368.33
368.035
367.72
367.375
393.014
392.039
391.078
390.131
389.196
388.275
387.366
386.469
385.585
384.714
383.857
383.012
382.182
381.367
380.568
379.786
379.022
378.277
377.551
376.847
376.165
375.506
374.872
374.264
373.682
373.128
372.603
372.105
371.636
371.195
370.78
370.391
370.027
369.686
369.362
369.054
368.756
368.464
368.174
367.879
367.574
367.252
366.907
366.529
391.328
390.381
389.445
388.521
387.608
386.706
385.815
384.936
384.068
383.213
382.371
381.543
380.729
379.93
379.148
378.384
377.637
376.911
376.206
375.523
374.864
374.229