/*--------------------------------*- C++ -*----------------------------------*\
| =========                 |                                                 |
| \\      /  F ield         | OpenFOAM: The Open Source CFD Toolbox           |
|  \\    /   O peration     | Version:  v1706                                 |
|   \\  /    A nd           | Web:      www.OpenFOAM.com                      |
|    \\/     M anipulation  |                                                 |
\*---------------------------------------------------------------------------*/
FoamFile
{
    version     2.0;
    format      ascii;
    class       volVectorField;
    location    "1.7e-05";
    object      U;
}
// * * * * * * * * * * * * * * * * * * * * * * * * * * * * * * * * * * * * * //

dimensions      [0 1 -1 0 0 0 0];


internalField   nonuniform List<vector> 
30038
(
(978.58 -1.14068e-10 5.36814e-15)
(978.58 -1.15751e-10 3.61151e-15)
(978.58 -1.17936e-10 7.6059e-15)
(978.58 -1.1993e-10 3.18923e-15)
(978.58 -1.21753e-10 4.67686e-15)
(978.58 -1.23396e-10 5.60967e-15)
(978.58 -1.25467e-10 8.80133e-15)
(978.58 -1.28569e-10 8.07195e-15)
(978.58 -1.3063e-10 4.76504e-15)
(978.58 -1.32676e-10 5.6515e-15)
(978.58 -1.35285e-10 1.01232e-14)
(978.58 -1.37794e-10 6.85358e-15)
(978.58 -1.40251e-10 4.67619e-15)
(978.58 -1.42796e-10 3.54331e-15)
(978.58 -1.45314e-10 6.47003e-15)
(978.58 -1.48233e-10 8.61025e-15)
(978.58 -1.51573e-10 5.78408e-15)
(978.58 -1.54998e-10 2.99496e-15)
(978.58 -1.58114e-10 5.15313e-15)
(978.58 -1.61309e-10 7.68706e-15)
(978.58 -1.64488e-10 8.45456e-15)
(978.58 -1.67047e-10 4.99988e-15)
(978.58 -1.70217e-10 2.1135e-15)
(978.58 -1.7351e-10 8.23663e-15)
(978.58 -1.77023e-10 5.71885e-15)
(978.58 -1.79475e-10 3.2467e-15)
(978.58 -1.81856e-10 3.6379e-15)
(978.58 -1.84347e-10 7.72952e-15)
(978.58 -1.86671e-10 1.00571e-14)
(978.58 -1.86699e-10 7.70392e-15)
(978.58 -1.80308e-10 7.7057e-15)
(978.58 -1.72872e-10 8.48564e-15)
(978.58 -1.6103e-10 7.09949e-15)
(978.58 -1.44497e-10 7.2779e-15)
(978.58 -1.13052e-10 8.50283e-15)
(978.58 -5.62803e-11 4.82867e-15)
(978.58 2.51224e-11 2.42026e-15)
(978.58 1.72366e-10 7.20022e-15)
(978.58 -3.27774e-10 1.77268e-14)
(978.58 -3.32248e-10 2.02328e-14)
(978.58 -3.37365e-10 1.87308e-14)
(978.58 -3.42512e-10 1.85005e-14)
(978.58 -3.47999e-10 2.23955e-14)
(978.58 -3.54461e-10 2.1371e-14)
(978.58 -3.59859e-10 2.25665e-14)
(978.58 -3.66138e-10 2.10094e-14)
(978.58 -3.71866e-10 1.68342e-14)
(978.58 -3.7924e-10 2.11537e-14)
(978.58 -3.84517e-10 1.94423e-14)
(978.58 -3.90929e-10 1.57728e-14)
(978.58 -3.98899e-10 1.82317e-14)
(978.58 -4.05798e-10 1.94991e-14)
(978.58 -4.13e-10 2.08127e-14)
(978.58 -4.20157e-10 2.0248e-14)
(978.58 -4.28186e-10 1.98125e-14)
(978.58 -4.3594e-10 1.88391e-14)
(978.58 -4.44298e-10 1.79056e-14)
(978.58 -4.51898e-10 1.9048e-14)
(978.58 -4.60349e-10 1.94761e-14)
(978.58 -4.69771e-10 2.04015e-14)
(978.58 -4.78809e-10 1.99012e-14)
(978.58 -4.85286e-10 1.9089e-14)
(978.58 -4.9293e-10 1.74449e-14)
(978.58 -5.00331e-10 1.85236e-14)
(978.58 -5.05772e-10 1.84211e-14)
(978.58 -5.07044e-10 1.74347e-14)
(978.58 -5.00302e-10 2.09656e-14)
(978.58 -4.82485e-10 1.84348e-14)
(978.58 -4.6577e-10 1.78168e-14)
(978.58 -4.35181e-10 2.47936e-14)
(978.58 -3.78019e-10 2.36947e-14)
(978.58 -2.89225e-10 2.1795e-14)
(978.58 -1.64496e-10 2.1263e-14)
(978.58 6.81188e-11 1.81851e-14)
(978.58 5.16809e-10 1.98101e-14)
(978.58 1.33861e-09 2.33066e-14)
(978.58 -5.33181e-10 3.22294e-14)
(978.58 -5.39874e-10 3.39188e-14)
(978.58 -5.46617e-10 3.09994e-14)
(978.58 -5.55284e-10 2.90332e-14)
(978.58 -5.63175e-10 3.1619e-14)
(978.58 -5.71836e-10 3.26959e-14)
(978.58 -5.7974e-10 3.22789e-14)
(978.58 -5.88278e-10 2.691e-14)
(978.58 -5.97449e-10 2.85573e-14)
(978.58 -6.07188e-10 2.84279e-14)
(978.58 -6.17218e-10 2.7191e-14)
(978.58 -6.25822e-10 2.96406e-14)
(978.58 -6.37087e-10 3.20541e-14)
(978.58 -6.47657e-10 3.24913e-14)
(978.58 -6.5786e-10 3.14063e-14)
(978.58 -6.69903e-10 3.37371e-14)
(978.58 -6.82121e-10 3.23175e-14)
(978.58 -6.94197e-10 3.18235e-14)
(978.58 -7.07302e-10 3.09338e-14)
(978.58 -7.19467e-10 3.00151e-14)
(978.58 -7.30304e-10 2.99256e-14)
(978.58 -7.41305e-10 3.16035e-14)
(978.58 -7.52322e-10 2.84824e-14)
(978.58 -7.61416e-10 2.92395e-14)
(978.58 -7.68504e-10 3.34295e-14)
(978.58 -7.72691e-10 3.29885e-14)
(978.58 -7.67297e-10 2.96382e-14)
(978.58 -7.5486e-10 2.76093e-14)
(978.58 -7.27177e-10 3.18539e-14)
(978.58 -6.85325e-10 3.25168e-14)
(978.58 -6.17854e-10 3.30193e-14)
(978.58 -5.22763e-10 3.38578e-14)
(978.58 -3.49841e-10 3.27744e-14)
(978.58 -4.89747e-11 3.49945e-14)
(978.58 5.38947e-10 3.70787e-14)
(978.58 1.45914e-09 3.75214e-14)
(978.58 2.60835e-09 3.50588e-14)
(978.58 4.08337e-09 3.70162e-14)
(978.58 -7.26901e-10 4.54682e-14)
(978.58 -7.37219e-10 4.48907e-14)
(978.58 -7.46253e-10 4.27564e-14)
(978.58 -7.56821e-10 4.23403e-14)
(978.58 -7.67424e-10 4.55816e-14)
(978.58 -7.78341e-10 4.20879e-14)
(978.58 -7.89815e-10 4.14344e-14)
(978.58 -8.01046e-10 4.19822e-14)
(978.58 -8.12892e-10 4.36338e-14)
(978.58 -8.24964e-10 4.16793e-14)
(978.58 -8.38346e-10 4.42605e-14)
(978.58 -8.5107e-10 4.46488e-14)
(978.58 -8.64504e-10 4.51405e-14)
(978.58 -8.78122e-10 3.94377e-14)
(978.58 -8.89408e-10 4.13805e-14)
(978.58 -9.0143e-10 4.21983e-14)
(978.58 -9.15047e-10 4.09554e-14)
(978.58 -9.29105e-10 4.53894e-14)
(978.58 -9.4365e-10 4.5252e-14)
(978.58 -9.57385e-10 4.26036e-14)
(978.58 -9.69481e-10 4.20555e-14)
(978.58 -9.78409e-10 4.15365e-14)
(978.58 -9.8428e-10 4.51025e-14)
(978.58 -9.84044e-10 4.6663e-14)
(978.58 -9.82448e-10 4.4448e-14)
(978.58 -9.68404e-10 4.50111e-14)
(978.58 -9.40229e-10 4.38778e-14)
(978.58 -8.86932e-10 4.30689e-14)
(978.58 -8.06e-10 4.57279e-14)
(978.58 -6.80981e-10 4.72003e-14)
(978.58 -4.56824e-10 4.67486e-14)
(978.58 -4.82622e-11 4.87869e-14)
(978.58 6.77974e-10 4.86253e-14)
(978.58 1.60266e-09 4.91855e-14)
(978.58 2.77295e-09 5.18952e-14)
(978.58 4.30859e-09 5.22513e-14)
(978.58 6.88399e-09 5.03148e-14)
(978.58 1.06619e-08 5.11714e-14)
(978.58 -9.11273e-10 5.47132e-14)
(978.58 -9.23474e-10 5.66349e-14)
(978.58 -9.35507e-10 5.64982e-14)
(978.58 -9.47346e-10 5.56339e-14)
(978.58 -9.60562e-10 5.37305e-14)
(978.58 -9.74176e-10 5.46578e-14)
(978.58 -9.87898e-10 5.64446e-14)
(978.58 -1.00232e-09 5.74245e-14)
(978.58 -1.01556e-09 5.82298e-14)
(978.58 -1.0293e-09 5.75133e-14)
(978.58 -1.0433e-09 5.68851e-14)
(978.58 -1.05752e-09 5.58669e-14)
(978.58 -1.07256e-09 5.35706e-14)
(978.58 -1.08836e-09 5.40832e-14)
(978.58 -1.10221e-09 5.66493e-14)
(978.58 -1.1146e-09 5.8346e-14)
(978.58 -1.12629e-09 6.08062e-14)
(978.58 -1.13771e-09 5.75078e-14)
(978.58 -1.14598e-09 5.49829e-14)
(978.58 -1.15089e-09 5.83689e-14)
(978.58 -1.15577e-09 5.38903e-14)
(978.58 -1.15548e-09 5.31572e-14)
(978.58 -1.14883e-09 5.97515e-14)
(978.58 -1.12083e-09 5.84233e-14)
(978.58 -1.07797e-09 5.87661e-14)
(978.58 -1.00966e-09 5.96894e-14)
(978.58 -8.96161e-10 5.94791e-14)
(978.58 -6.88371e-10 5.40668e-14)
(978.58 -3.5055e-10 5.38883e-14)
(978.58 2.22569e-10 5.67768e-14)
(978.58 1.02022e-09 6.24612e-14)
(978.58 2.03775e-09 6.58896e-14)
(978.58 3.32835e-09 6.23475e-14)
(978.58 5.193e-09 6.15558e-14)
(978.58 8.04122e-09 6.23355e-14)
(978.58 1.21864e-08 6.35601e-14)
(978.58 1.86962e-08 6.45172e-14)
(978.58 2.80418e-08 6.47548e-14)
(978.58 -1.08892e-09 7.01043e-14)
(978.58 -1.10269e-09 6.96876e-14)
(978.58 -1.11646e-09 6.52082e-14)
(978.58 -1.12909e-09 6.23159e-14)
(978.58 -1.14263e-09 6.56947e-14)
(978.58 -1.15799e-09 6.6147e-14)
(978.58 -1.17312e-09 6.50192e-14)
(978.58 -1.18874e-09 7.37438e-14)
(978.58 -1.2038e-09 7.32327e-14)
(978.58 -1.21836e-09 6.93221e-14)
(978.58 -1.23179e-09 6.94538e-14)
(978.58 -1.24507e-09 6.81125e-14)
(978.58 -1.25732e-09 6.68746e-14)
(978.58 -1.26671e-09 6.88071e-14)
(978.58 -1.27504e-09 6.78115e-14)
(978.58 -1.28132e-09 6.87711e-14)
(978.58 -1.28569e-09 7.14746e-14)
(978.58 -1.28757e-09 6.75683e-14)
(978.58 -1.28585e-09 6.52957e-14)
(978.58 -1.26944e-09 6.98592e-14)
(978.58 -1.23392e-09 7.0515e-14)
(978.58 -1.18113e-09 7.17086e-14)
(978.58 -1.08628e-09 7.0393e-14)
(978.58 -9.32093e-10 6.81861e-14)
(978.58 -6.90803e-10 6.96298e-14)
(978.58 -3.26955e-10 7.58206e-14)
(978.58 2.27704e-10 7.65178e-14)
(978.58 9.87371e-10 7.1458e-14)
(978.58 1.9533e-09 7.38941e-14)
(978.58 3.22381e-09 7.37019e-14)
(978.58 4.9387e-09 7.18705e-14)
(978.58 7.42437e-09 7.31829e-14)
(978.58 1.0997e-08 7.45217e-14)
(978.58 1.61368e-08 7.75444e-14)
(978.58 2.35822e-08 7.59304e-14)
(978.58 3.42484e-08 7.25761e-14)
(978.58 5.07255e-08 7.45231e-14)
(978.58 7.43231e-08 7.56225e-14)
(978.58 -1.25905e-09 7.87371e-14)
(978.58 -1.2736e-09 7.89746e-14)
(978.58 -1.28794e-09 8.17658e-14)
(978.58 -1.30152e-09 8.28768e-14)
(978.58 -1.31472e-09 7.98612e-14)
(978.58 -1.32815e-09 7.77061e-14)
(978.58 -1.33997e-09 8.10513e-14)
(978.58 -1.35034e-09 8.34105e-14)
(978.58 -1.36001e-09 7.76949e-14)
(978.58 -1.3692e-09 8.25367e-14)
(978.58 -1.3766e-09 8.17574e-14)
(978.58 -1.38231e-09 7.97929e-14)
(978.58 -1.38589e-09 7.89056e-14)
(978.58 -1.3867e-09 7.80184e-14)
(978.58 -1.37643e-09 7.70676e-14)
(978.58 -1.35324e-09 8.00986e-14)
(978.58 -1.30533e-09 8.18553e-14)
(978.58 -1.23039e-09 8.35094e-14)
(978.58 -1.11423e-09 8.18966e-14)
(978.58 -9.41499e-10 8.41694e-14)
(978.58 -6.89248e-10 8.32945e-14)
(978.58 -3.27182e-10 8.28796e-14)
(978.58 1.79654e-10 8.30948e-14)
(978.58 8.67838e-10 8.47114e-14)
(978.58 1.75008e-09 8.40593e-14)
(978.58 2.86814e-09 8.75312e-14)
(978.58 4.34461e-09 8.64379e-14)
(978.58 6.34007e-09 8.06434e-14)
(978.58 9.09021e-09 8.23342e-14)
(978.58 1.28832e-08 8.54268e-14)
(978.58 1.81158e-08 8.58154e-14)
(978.58 2.54137e-08 8.61951e-14)
(978.58 3.56198e-08 8.90499e-14)
(978.58 4.99736e-08 9.13485e-14)
(978.58 7.03141e-08 9.13419e-14)
(978.58 9.89698e-08 8.80291e-14)
(978.58 1.42403e-07 8.86235e-14)
(978.58 2.04404e-07 8.94004e-14)
(978.58 -1.41378e-09 9.28383e-14)
(978.58 -1.42438e-09 9.38682e-14)
(978.58 -1.4327e-09 9.56483e-14)
(978.58 -1.4417e-09 9.75507e-14)
(978.58 -1.44918e-09 9.45607e-14)
(978.58 -1.45506e-09 9.04981e-14)
(978.58 -1.45936e-09 9.31045e-14)
(978.58 -1.46242e-09 9.45588e-14)
(978.58 -1.45863e-09 9.6978e-14)
(978.58 -1.4443e-09 9.40694e-14)
(978.58 -1.41491e-09 9.17359e-14)
(978.58 -1.36413e-09 9.20764e-14)
(978.58 -1.28313e-09 9.17718e-14)
(978.58 -1.16177e-09 9.36114e-14)
(978.58 -9.9e-10 9.43285e-14)
(978.58 -7.46763e-10 9.75326e-14)
(978.58 -4.04793e-10 9.88002e-14)
(978.58 5.58357e-11 9.62484e-14)
(978.58 6.63731e-10 9.63292e-14)
(978.58 1.44774e-09 9.6433e-14)
(978.58 2.44111e-09 9.47719e-14)
(978.58 3.70874e-09 9.64156e-14)
(978.58 5.34473e-09 9.38428e-14)
(978.58 7.50879e-09 9.44642e-14)
(978.58 1.03928e-08 9.51226e-14)
(978.58 1.42312e-08 9.97383e-14)
(978.58 1.93457e-08 9.6874e-14)
(978.58 2.61681e-08 9.67968e-14)
(978.58 3.53249e-08 9.9883e-14)
(978.58 4.76667e-08 1.01363e-13)
(978.58 6.43809e-08 1.01657e-13)
(978.58 8.71356e-08 1.0111e-13)
(978.58 1.18253e-07 1.01228e-13)
(978.58 1.61023e-07 1.00034e-13)
(978.58 2.20282e-07 1.02993e-13)
(978.58 3.02078e-07 1.04415e-13)
(978.58 4.23294e-07 1.00163e-13)
(978.58 5.95575e-07 9.69961e-14)
(978.58 -1.51664e-09 1.07504e-13)
(978.58 -1.52327e-09 1.07893e-13)
(978.58 -1.52771e-09 1.10135e-13)
(978.58 -1.52661e-09 1.08907e-13)
(978.58 -1.51561e-09 1.08206e-13)
(978.58 -1.49272e-09 1.08867e-13)
(978.58 -1.45296e-09 1.10538e-13)
(978.58 -1.388e-09 1.07626e-13)
(978.58 -1.28877e-09 1.07783e-13)
(978.58 -1.15002e-09 1.05503e-13)
(978.58 -9.53974e-10 1.04459e-13)
(978.58 -6.82086e-10 1.07907e-13)
(978.58 -3.12479e-10 1.03452e-13)
(978.58 1.75833e-10 1.09427e-13)
(978.58 8.14249e-10 1.09657e-13)
(978.58 1.61929e-09 1.1065e-13)
(978.58 2.62919e-09 1.08727e-13)
(978.58 3.91899e-09 1.06788e-13)
(978.58 5.57619e-09 1.06896e-13)
(978.58 7.71897e-09 1.08325e-13)
(978.58 1.05142e-08 1.07711e-13)
(978.58 1.41752e-08 1.07737e-13)
(978.58 1.89582e-08 1.05873e-13)
(978.58 2.51983e-08 1.06077e-13)
(978.58 3.33541e-08 1.09008e-13)
(978.58 4.40341e-08 1.10845e-13)
(978.58 5.80392e-08 1.11331e-13)
(978.58 7.64419e-08 1.09031e-13)
(978.58 1.00685e-07 1.09475e-13)
(978.58 1.32733e-07 1.10971e-13)
(978.58 1.75221e-07 1.12762e-13)
(978.58 2.31728e-07 1.12959e-13)
(978.58 3.07153e-07 1.13332e-13)
(978.58 4.08243e-07 1.12906e-13)
(978.58 5.44316e-07 1.16287e-13)
(978.58 7.28865e-07 1.15048e-13)
(978.58 9.78338e-07 1.11923e-13)
(978.58 1.33946e-06 1.10905e-13)
(978.58 1.84978e-06 1.10608e-13)
(978.58 -1.51901e-09 1.19295e-13)
(978.58 -1.46652e-09 1.18211e-13)
(978.58 -1.38377e-09 1.20228e-13)
(978.58 -1.26708e-09 1.23782e-13)
(978.58 -1.10075e-09 1.22781e-13)
(978.58 -8.69771e-10 1.23808e-13)
(978.58 -5.53961e-10 1.22382e-13)
(978.58 -1.3395e-10 1.18595e-13)
(978.58 4.14095e-10 1.17889e-13)
(978.58 1.10953e-09 1.18266e-13)
(978.58 1.98325e-09 1.20731e-13)
(978.58 3.0833e-09 1.17646e-13)
(978.58 4.48014e-09 1.17772e-13)
(978.58 6.26761e-09 1.22402e-13)
(978.58 8.57545e-09 1.219e-13)
(978.58 1.15727e-08 1.21249e-13)
(978.58 1.54665e-08 1.19439e-13)
(978.58 2.05021e-08 1.22533e-13)
(978.58 2.70071e-08 1.21179e-13)
(978.58 3.54165e-08 1.20715e-13)
(978.58 4.62996e-08 1.18952e-13)
(978.58 6.04015e-08 1.19087e-13)
(978.58 7.86863e-08 1.19141e-13)
(978.58 1.02402e-07 1.21722e-13)
(978.58 1.33183e-07 1.23789e-13)
(978.58 1.73174e-07 1.23622e-13)
(978.58 2.25194e-07 1.23171e-13)
(978.58 2.92951e-07 1.1978e-13)
(978.58 3.8134e-07 1.21296e-13)
(978.58 4.96848e-07 1.25965e-13)
(978.58 6.48076e-07 1.25757e-13)
(978.58 8.46499e-07 1.25674e-13)
(978.58 1.10751e-06 1.25377e-13)
(978.58 1.45188e-06 1.2549e-13)
(978.58 1.90765e-06 1.26696e-13)
(978.58 2.51484e-06 1.24382e-13)
(978.58 3.32075e-06 1.22408e-13)
(978.58 4.46291e-06 1.25973e-13)
(978.58 6.06629e-06 1.25921e-13)
(978.58 -7.37004e-10 1.38196e-13)
(978.58 -3.70352e-10 1.36408e-13)
(978.58 1.09877e-10 1.34928e-13)
(978.58 7.22545e-10 1.35154e-13)
(978.58 1.49099e-09 1.33109e-13)
(978.58 2.45358e-09 1.35186e-13)
(978.58 3.6686e-09 1.36924e-13)
(978.58 5.21429e-09 1.34198e-13)
(978.58 7.19379e-09 1.30882e-13)
(978.58 9.75488e-09 1.32729e-13)
(978.58 1.3063e-08 1.3218e-13)
(978.58 1.73258e-08 1.32055e-13)
(978.58 2.28128e-08 1.30265e-13)
(978.58 2.98737e-08 1.30874e-13)
(978.58 3.89639e-08 1.36834e-13)
(978.58 5.06723e-08 1.37469e-13)
(978.58 6.57522e-08 1.37572e-13)
(978.58 8.51852e-08 1.33607e-13)
(978.58 1.10244e-07 1.30058e-13)
(978.58 1.42569e-07 1.30959e-13)
(978.58 1.84265e-07 1.32704e-13)
(978.58 2.38061e-07 1.32308e-13)
(978.58 3.07495e-07 1.31238e-13)
(978.58 3.97145e-07 1.32325e-13)
(978.58 5.12955e-07 1.34671e-13)
(978.58 6.62639e-07 1.36012e-13)
(978.58 8.56227e-07 1.31572e-13)
(978.58 1.10677e-06 1.33184e-13)
(978.58 1.43131e-06 1.37699e-13)
(978.58 1.8521e-06 1.39593e-13)
(978.58 2.39828e-06 1.38027e-13)
(978.58 3.1082e-06 1.35607e-13)
(978.58 4.03237e-06 1.35866e-13)
(978.58 5.23789e-06 1.36917e-13)
(978.58 6.81332e-06 1.37568e-13)
(978.58 8.8841e-06 1.37023e-13)
(978.58 1.15932e-05 1.3872e-13)
(978.58 1.5368e-05 1.3875e-13)
(978.58 2.063e-05 1.36472e-13)
(978.58 1.95896e-09 1.51758e-13)
(978.58 3.03188e-09 1.49209e-13)
(978.58 4.38845e-09 1.48842e-13)
(978.58 6.1113e-09 1.49741e-13)
(978.58 8.32903e-09 1.49312e-13)
(978.58 1.11867e-08 1.49542e-13)
(978.58 1.48605e-08 1.49741e-13)
(978.58 1.95701e-08 1.49477e-13)
(978.58 2.56047e-08 1.47202e-13)
(978.58 3.33431e-08 1.48493e-13)
(978.58 4.32747e-08 1.46097e-13)
(978.58 5.60228e-08 1.45702e-13)
(978.58 7.23968e-08 1.4288e-13)
(978.58 9.3438e-08 1.41633e-13)
(978.58 1.20483e-07 1.4641e-13)
(978.58 1.55237e-07 1.47526e-13)
(978.58 1.99897e-07 1.45713e-13)
(978.58 2.57307e-07 1.45239e-13)
(978.58 3.3113e-07 1.44412e-13)
(978.58 4.26073e-07 1.42225e-13)
(978.58 5.48183e-07 1.40437e-13)
(978.58 7.05244e-07 1.42836e-13)
(978.58 9.07304e-07 1.43333e-13)
(978.58 1.16731e-06 1.42689e-13)
(978.58 1.50194e-06 1.45526e-13)
(978.58 1.93272e-06 1.49108e-13)
(978.58 2.48737e-06 1.44865e-13)
(978.58 3.20173e-06 1.43144e-13)
(978.58 4.12211e-06 1.47426e-13)
(978.58 5.3084e-06 1.48609e-13)
(978.58 6.83817e-06 1.49591e-13)
(978.58 8.81201e-06 1.47478e-13)
(978.58 1.13607e-05 1.48137e-13)
(978.58 1.46543e-05 1.49976e-13)
(978.58 1.89163e-05 1.52305e-13)
(978.58 2.4436e-05 1.50871e-13)
(978.58 3.16218e-05 1.49786e-13)
(978.58 4.09215e-05 1.50063e-13)
(978.58 5.37154e-05 1.48524e-13)
(978.58 7.14218e-05 1.48933e-13)
(978.58 1.29042e-08 1.65142e-13)
(978.58 1.69938e-08 1.6451e-13)
(978.58 2.22092e-08 1.63336e-13)
(978.58 2.88621e-08 1.61189e-13)
(978.58 3.73704e-08 1.61921e-13)
(978.58 4.82627e-08 1.63044e-13)
(978.58 6.22012e-08 1.63471e-13)
(978.58 8.00432e-08 1.61249e-13)
(978.58 1.02905e-07 1.61475e-13)
(978.58 1.32202e-07 1.61827e-13)
(978.58 1.69738e-07 1.56329e-13)
(978.58 2.1784e-07 1.57514e-13)
(978.58 2.79507e-07 1.56946e-13)
(978.58 3.58584e-07 1.56657e-13)
(978.58 4.59995e-07 1.58142e-13)
(978.58 5.90063e-07 1.57692e-13)
(978.58 7.56922e-07 1.55184e-13)
(978.58 9.71018e-07 1.53784e-13)
(978.58 1.24574e-06 1.5579e-13)
(978.58 1.59828e-06 1.54298e-13)
(978.58 2.05071e-06 1.5749e-13)
(978.58 2.63138e-06 1.59452e-13)
(978.58 3.37671e-06 1.59842e-13)
(978.58 4.33344e-06 1.57407e-13)
(978.58 5.56157e-06 1.56743e-13)
(978.58 7.13818e-06 1.57763e-13)
(978.58 9.16226e-06 1.56802e-13)
(978.58 1.1761e-05 1.56139e-13)
(978.58 1.5098e-05 1.57954e-13)
(978.58 1.93834e-05 1.60631e-13)
(978.58 2.48877e-05 1.60873e-13)
(978.58 3.19591e-05 1.60499e-13)
(978.58 4.10468e-05 1.60178e-13)
(978.58 5.27297e-05 1.62071e-13)
(978.58 6.77613e-05 1.62847e-13)
(978.58 8.71028e-05 1.58812e-13)
(978.58 0.000112111 1.6049e-13)
(978.58 0.00014422 1.61685e-13)
(978.58 0.000187975 1.61813e-13)
(978.58 0.000248098 1.61394e-13)
(978.58 5.40956e-08 1.77044e-13)
(978.58 6.93811e-08 1.75062e-13)
(978.58 8.88781e-08 1.75594e-13)
(978.58 1.13771e-07 1.76163e-13)
(978.58 1.45563e-07 1.76781e-13)
(978.58 1.86162e-07 1.77295e-13)
(978.58 2.38023e-07 1.73533e-13)
(978.58 3.04316e-07 1.712e-13)
(978.58 3.89094e-07 1.75246e-13)
(978.58 4.97515e-07 1.74423e-13)
(978.58 6.362e-07 1.70693e-13)
(978.58 8.13652e-07 1.74313e-13)
(978.58 1.04077e-06 1.72605e-13)
(978.58 1.33148e-06 1.69603e-13)
(978.58 1.70368e-06 1.69377e-13)
(978.58 2.18025e-06 1.6624e-13)
(978.58 2.79056e-06 1.65402e-13)
(978.58 3.5722e-06 1.68056e-13)
(978.58 4.57332e-06 1.69175e-13)
(978.58 5.85562e-06 1.71428e-13)
(978.58 7.49815e-06 1.75935e-13)
(978.58 9.60215e-06 1.71908e-13)
(978.58 1.22972e-05 1.70381e-13)
(978.58 1.57493e-05 1.70312e-13)
(978.58 2.0171e-05 1.69701e-13)
(978.58 2.58342e-05 1.70206e-13)
(978.58 3.30872e-05 1.68909e-13)
(978.58 4.23759e-05 1.68597e-13)
(978.58 5.42709e-05 1.75763e-13)
(978.58 6.95025e-05 1.72432e-13)
(978.58 8.90062e-05 1.69075e-13)
(978.58 0.00011398 1.68991e-13)
(978.58 0.000145959 1.69948e-13)
(978.58 0.000186911 1.7324e-13)
(978.58 0.000239379 1.75138e-13)
(978.58 0.000306567 1.74002e-13)
(978.58 0.00039301 1.72477e-13)
(978.58 0.000503338 1.73893e-13)
(978.579 0.000652582 1.77576e-13)
(978.579 0.00085621 1.75064e-13)
(978.58 2.05193e-07 1.90135e-13)
(978.58 2.61255e-07 1.9038e-13)
(978.58 3.32671e-07 1.89443e-13)
(978.58 4.23687e-07 1.87272e-13)
(978.58 5.39709e-07 1.87657e-13)
(978.58 6.87655e-07 1.89332e-13)
(978.58 8.764e-07 1.86846e-13)
(978.58 1.11728e-06 1.82438e-13)
(978.58 1.42477e-06 1.86514e-13)
(978.58 1.81738e-06 1.86631e-13)
(978.58 2.31881e-06 1.83947e-13)
(978.58 2.95938e-06 1.86824e-13)
(978.58 3.77787e-06 1.82582e-13)
(978.58 4.82387e-06 1.79723e-13)
(978.58 6.1608e-06 1.81617e-13)
(978.58 7.8698e-06 1.80648e-13)
(978.58 1.00546e-05 1.78756e-13)
(978.58 1.2848e-05 1.81559e-13)
(978.58 1.64195e-05 1.83204e-13)
(978.58 2.09861e-05 1.85838e-13)
(978.58 2.68251e-05 1.85598e-13)
(978.58 3.42905e-05 1.82004e-13)
(978.58 4.38351e-05 1.84404e-13)
(978.58 5.60371e-05 1.82713e-13)
(978.58 7.16348e-05 1.80273e-13)
(978.58 9.15712e-05 1.83195e-13)
(978.58 0.00011705 1.7923e-13)
(978.58 0.000149606 1.82091e-13)
(978.58 0.000191201 1.82589e-13)
(978.58 0.000244334 1.80487e-13)
(978.58 0.000312196 1.83066e-13)
(978.58 0.000398853 1.84823e-13)
(978.58 0.000509499 1.82836e-13)
(978.579 0.000650749 1.82244e-13)
(978.579 0.000831118 1.86285e-13)
(978.579 0.00106124 1.86586e-13)
(978.579 0.00135616 1.86976e-13)
(978.579 0.00173085 1.8738e-13)
(978.578 0.00223466 1.8656e-13)
(978.578 0.00291732 1.85838e-13)
(978.58 7.47127e-07 2.03506e-13)
(978.58 9.48363e-07 2.03099e-13)
(978.58 1.2043e-06 2.01489e-13)
(978.58 1.52993e-06 2.00139e-13)
(978.58 1.94437e-06 1.98791e-13)
(978.58 2.47209e-06 1.98904e-13)
(978.58 3.14427e-06 1.99526e-13)
(978.58 4.00071e-06 1.98131e-13)
(978.58 5.09222e-06 1.99167e-13)
(978.58 6.48372e-06 1.9778e-13)
(978.58 8.25811e-06 1.97185e-13)
(978.58 1.05212e-05 1.97916e-13)
(978.58 1.34081e-05 1.93508e-13)
(978.58 1.70915e-05 1.93262e-13)
(978.58 2.17916e-05 1.95715e-13)
(978.58 2.77898e-05 1.94604e-13)
(978.58 3.54452e-05 1.94338e-13)
(978.58 4.52162e-05 1.94791e-13)
(978.58 5.76877e-05 1.94e-13)
(978.58 7.36061e-05 1.95779e-13)
(978.58 9.39237e-05 1.95448e-13)
(978.58 0.000119854 1.93829e-13)
(978.58 0.000152947 1.9408e-13)
(978.58 0.000195174 1.94243e-13)
(978.58 0.000249051 1.94153e-13)
(978.58 0.00031778 1.93504e-13)
(978.58 0.00040544 1.94406e-13)
(978.58 0.000517223 1.94641e-13)
(978.579 0.000659737 1.92326e-13)
(978.579 0.000841386 1.95533e-13)
(978.579 0.00107286 1.96161e-13)
(978.579 0.00136774 1.98286e-13)
(978.578 0.00174331 1.93659e-13)
(978.578 0.0022215 1.94259e-13)
(978.578 0.00283043 1.97607e-13)
(978.577 0.00360492 1.99856e-13)
(978.576 0.00459433 1.99013e-13)
(978.575 0.00584672 1.97058e-13)
(978.574 0.00752192 1.97096e-13)
(978.572 0.00977626 2.00029e-13)
(978.58 2.64975e-06 2.17244e-13)
(978.58 3.35683e-06 2.16051e-13)
(978.58 4.25468e-06 2.15168e-13)
(978.58 5.39521e-06 2.12198e-13)
(978.58 6.84464e-06 2.12343e-13)
(978.58 8.6873e-06 2.15529e-13)
(978.58 1.10306e-05 2.14194e-13)
(978.58 1.40115e-05 2.10469e-13)
(978.58 1.78046e-05 2.12155e-13)
(978.58 2.26324e-05 2.12505e-13)
(978.58 2.87786e-05 2.10948e-13)
(978.58 3.66048e-05 2.10357e-13)
(978.58 4.65721e-05 2.06517e-13)
(978.58 5.9268e-05 2.07931e-13)
(978.58 7.54416e-05 2.09975e-13)
(978.58 9.60475e-05 2.07341e-13)
(978.58 0.000122302 2.0899e-13)
(978.58 0.000155755 2.11112e-13)
(978.58 0.000198379 2.08757e-13)
(978.58 0.000252691 2.07544e-13)
(978.58 0.000321889 2.0655e-13)
(978.58 0.000410047 2.05102e-13)
(978.579 0.00052235 2.09251e-13)
(978.579 0.000665392 2.09919e-13)
(978.579 0.000847555 2.10286e-13)
(978.579 0.0010795 2.07732e-13)
(978.579 0.00137476 2.05292e-13)
(978.578 0.00175053 2.0495e-13)
(978.578 0.00222863 2.04689e-13)
(978.577 0.00283677 2.06887e-13)
(978.577 0.00361006 2.06304e-13)
(978.576 0.00459301 2.06119e-13)
(978.575 0.00584209 2.07631e-13)
(978.574 0.00742864 2.07762e-13)
(978.572 0.00944394 2.05444e-13)
(978.57 0.0120004 2.08127e-13)
(978.567 0.0152567 2.08878e-13)
(978.564 0.0193656 2.07605e-13)
(978.559 0.0248354 2.09046e-13)
(978.554 0.0321462 2.11127e-13)
(978.58 9.19072e-06 2.33196e-13)
(978.58 1.16236e-05 2.30969e-13)
(978.58 1.4708e-05 2.28e-13)
(978.58 1.862e-05 2.26662e-13)
(978.58 2.35836e-05 2.26706e-13)
(978.58 2.98835e-05 2.25891e-13)
(978.58 3.78823e-05 2.26126e-13)
(978.58 4.80411e-05 2.25143e-13)
(978.58 6.09468e-05 2.26271e-13)
(978.58 7.73461e-05 2.22862e-13)
(978.58 9.81894e-05 2.21053e-13)
(978.58 0.000124686 2.21471e-13)
(978.58 0.000158375 2.20656e-13)
(978.58 0.000201215 2.22577e-13)
(978.58 0.000255697 2.22117e-13)
(978.58 0.000324991 2.24556e-13)
(978.58 0.000413128 2.24126e-13)
(978.579 0.000525235 2.21545e-13)
(978.579 0.000667832 2.22081e-13)
(978.579 0.000849202 2.22256e-13)
(978.579 0.00107988 2.18274e-13)
(978.579 0.00137323 2.19075e-13)
(978.578 0.00174624 2.19865e-13)
(978.578 0.00222047 2.18237e-13)
(978.577 0.00282328 2.20066e-13)
(978.577 0.00358937 2.18066e-13)
(978.576 0.00456271 2.18381e-13)
(978.575 0.00579904 2.17608e-13)
(978.573 0.00736893 2.1615e-13)
(978.571 0.00936175 2.19058e-13)
(978.569 0.0118904 2.20612e-13)
(978.567 0.015098 2.21144e-13)
(978.563 0.0191649 2.21731e-13)
(978.559 0.0243187 2.18187e-13)
(978.553 0.0308501 2.18879e-13)
(978.547 0.0391142 2.22146e-13)
(978.538 0.0496126 2.22708e-13)
(978.527 0.0628215 2.21713e-13)
(978.513 0.0803238 2.22336e-13)
(978.496 0.103554 2.24438e-13)
(978.58 2.47363e-05 2.47781e-13)
(978.58 3.12168e-05 2.48195e-13)
(978.58 3.94162e-05 2.43693e-13)
(978.58 4.97947e-05 2.43022e-13)
(978.58 6.29367e-05 2.43294e-13)
(978.58 7.95841e-05 2.39107e-13)
(978.58 0.000100679 2.41079e-13)
(978.58 0.000127419 2.37926e-13)
(978.58 0.000161323 2.36223e-13)
(978.58 0.000204323 2.38202e-13)
(978.58 0.000258871 2.35527e-13)
(978.58 0.000328085 2.33308e-13)
(978.58 0.000415922 2.33474e-13)
(978.579 0.000527412 2.35146e-13)
(978.579 0.000668941 2.34085e-13)
(978.579 0.00084862 2.34183e-13)
(978.579 0.00107675 2.36583e-13)
(978.579 0.0013664 2.32442e-13)
(978.578 0.00173418 2.30995e-13)
(978.578 0.00220114 2.3213e-13)
(978.577 0.002794 2.31917e-13)
(978.576 0.00354665 2.30582e-13)
(978.576 0.00450204 2.3155e-13)
(978.574 0.00571462 2.29174e-13)
(978.573 0.00725333 2.29019e-13)
(978.571 0.0092055 2.33416e-13)
(978.569 0.0116816 2.31309e-13)
(978.566 0.0148215 2.29688e-13)
(978.562 0.0188018 2.29896e-13)
(978.558 0.0238457 2.32437e-13)
(978.552 0.030235 2.32224e-13)
(978.545 0.0383257 2.28054e-13)
(978.537 0.0485656 2.332e-13)
(978.526 0.0615205 2.34931e-13)
(978.512 0.0779005 2.31083e-13)
(978.495 0.0986075 2.33026e-13)
(978.474 0.124745 2.35527e-13)
(978.447 0.157856 2.34778e-13)
(978.413 0.199398 2.33928e-13)
(978.369 0.254187 2.3519e-13)
(978.316 0.326369 2.33983e-13)
(978.58 8.24512e-05 2.63861e-13)
(978.58 0.000103883 2.60762e-13)
(978.58 0.000130955 2.54965e-13)
(978.58 0.000165166 2.5652e-13)
(978.58 0.000208415 2.55526e-13)
(978.58 0.000263109 2.52521e-13)
(978.58 0.000332299 2.518e-13)
(978.58 0.000419854 2.50593e-13)
(978.579 0.000530682 2.5244e-13)
(978.579 0.000671001 2.5286e-13)
(978.579 0.000848702 2.48098e-13)
(978.579 0.00107379 2.47533e-13)
(978.579 0.00135894 2.48862e-13)
(978.578 0.00172024 2.48282e-13)
(978.578 0.00217807 2.46386e-13)
(978.577 0.00275828 2.4797e-13)
(978.576 0.00349362 2.47879e-13)
(978.575 0.00442558 2.44997e-13)
(978.574 0.00560673 2.43975e-13)
(978.573 0.00710364 2.44e-13)
(978.571 0.0090006 2.43943e-13)
(978.569 0.0114043 2.45401e-13)
(978.566 0.0144496 2.40437e-13)
(978.562 0.0183072 2.37622e-13)
(978.557 0.0231928 2.44443e-13)
(978.552 0.0293788 2.46133e-13)
(978.545 0.0372092 2.41927e-13)
(978.536 0.0471182 2.41758e-13)
(978.524 0.0596531 2.41983e-13)
(978.51 0.0755035 2.43315e-13)
(978.493 0.0955385 2.42324e-13)
(978.471 0.12085 2.43926e-13)
(978.444 0.152813 2.47096e-13)
(978.41 0.193153 2.45557e-13)
(978.367 0.244029 2.46905e-13)
(978.314 0.308186 2.45508e-13)
(978.248 0.388935 2.4408e-13)
(978.165 0.490933 2.46759e-13)
(978.063 0.618502 2.49124e-13)
(977.927 0.78589 2.45258e-13)
(977.766 1.00455 2.45263e-13)
(978.58 0.000214245 2.76232e-13)
(978.58 0.000269343 2.74572e-13)
(978.58 0.000338796 2.67016e-13)
(978.579 0.00042638 2.68747e-13)
(978.579 0.000536873 2.70765e-13)
(978.579 0.000676319 2.67283e-13)
(978.579 0.000852365 2.67122e-13)
(978.579 0.00107469 2.68005e-13)
(978.578 0.00135554 2.65975e-13)
(978.578 0.00171042 2.6804e-13)
(978.578 0.00215895 2.6678e-13)
(978.577 0.00272596 2.60832e-13)
(978.576 0.00344288 2.6114e-13)
(978.575 0.00434949 2.61281e-13)
(978.574 0.00549612 2.60715e-13)
(978.572 0.00694645 2.61708e-13)
(978.571 0.00878103 2.62267e-13)
(978.568 0.0111018 2.57193e-13)
(978.565 0.0140375 2.54144e-13)
(978.562 0.017751 2.54492e-13)
(978.557 0.0224482 2.56019e-13)
(978.551 0.0283891 2.56707e-13)
(978.544 0.0359018 2.54609e-13)
(978.535 0.0454007 2.54239e-13)
(978.524 0.0574086 2.56953e-13)
(978.509 0.0725844 2.57964e-13)
(978.492 0.0917584 2.56467e-13)
(978.47 0.115976 2.55477e-13)
(978.442 0.146554 2.54328e-13)
(978.407 0.185145 2.53845e-13)
(978.364 0.233828 2.56886e-13)
(978.311 0.29521 2.59459e-13)
(978.244 0.372562 2.54094e-13)
(978.16 0.469974 2.51418e-13)
(978.056 0.59257 2.53937e-13)
(977.927 0.74674 2.55412e-13)
(977.766 0.940496 2.55515e-13)
(977.566 1.18361 2.55936e-13)
(977.317 1.48943 2.59174e-13)
(977.01 1.87046 2.5843e-13)
(976.607 2.36732 2.5542e-13)
(976.134 3.00919 2.5619e-13)
(978.579 0.000547843 2.87147e-13)
(978.579 0.000687196 2.85706e-13)
(978.579 0.000862478 2.83685e-13)
(978.579 0.00108305 2.83841e-13)
(978.578 0.00136073 2.84509e-13)
(978.578 0.00171043 2.82553e-13)
(978.577 0.002151 2.81233e-13)
(978.577 0.00270623 2.82202e-13)
(978.576 0.00340617 2.81036e-13)
(978.575 0.00428879 2.80165e-13)
(978.574 0.00540205 2.80421e-13)
(978.572 0.00680652 2.7617e-13)
(978.57 0.00857874 2.73447e-13)
(978.568 0.0108153 2.74795e-13)
(978.565 0.0136384 2.74709e-13)
(978.561 0.0172021 2.73859e-13)
(978.557 0.021701 2.73574e-13)
(978.551 0.0273808 2.70327e-13)
(978.543 0.0345515 2.6816e-13)
(978.534 0.0436041 2.67275e-13)
(978.523 0.055032 2.69825e-13)
(978.509 0.0694568 2.71153e-13)
(978.491 0.0876621 2.68392e-13)
(978.469 0.110634 2.66384e-13)
(978.441 0.139616 2.69122e-13)
(978.407 0.176168 2.68563e-13)
(978.364 0.222254 2.67068e-13)
(978.31 0.280342 2.65629e-13)
(978.243 0.353524 2.6565e-13)
(978.159 0.445681 2.64636e-13)
(978.055 0.561669 2.66192e-13)
(977.926 0.70756 2.68899e-13)
(977.765 0.890943 2.66309e-13)
(977.565 1.12127 2.63297e-13)
(977.316 1.41031 2.65821e-13)
(977.007 1.77268 2.66556e-13)
(976.625 2.22641 2.6689e-13)
(976.151 2.79415 2.69374e-13)
(975.565 3.50251 2.6848e-13)
(974.838 4.38879 2.69401e-13)
(973.951 5.48556 2.69406e-13)
(972.799 6.90256 2.67588e-13)
(971.468 8.70362 2.69135e-13)
(978.578 0.00172577 3.00231e-13)
(978.577 0.00216106 3.01494e-13)
(978.577 0.00270763 3.00904e-13)
(978.576 0.00339421 2.98297e-13)
(978.575 0.00425702 2.95831e-13)
(978.574 0.00534168 2.94488e-13)
(978.572 0.00670572 2.95127e-13)
(978.57 0.00842162 2.942e-13)
(978.568 0.0105808 2.92044e-13)
(978.565 0.0132984 2.9179e-13)
(978.561 0.0167197 2.90475e-13)
(978.556 0.0210277 2.87814e-13)
(978.55 0.0264532 2.88913e-13)
(978.543 0.033287 2.87596e-13)
(978.534 0.0418956 2.86968e-13)
(978.522 0.0527405 2.86866e-13)
(978.508 0.0664033 2.84525e-13)
(978.491 0.0836161 2.86134e-13)