/*--------------------------------*- C++ -*----------------------------------*\
| =========                 |                                                 |
| \\      /  F ield         | OpenFOAM: The Open Source CFD Toolbox           |
|  \\    /   O peration     | Version:  v1706                                 |
|   \\  /    A nd           | Web:      www.OpenFOAM.com                      |
|    \\/     M anipulation  |                                                 |
\*---------------------------------------------------------------------------*/
FoamFile
{
    version     2.0;
    format      ascii;
    class       volScalarField;
    location    "1.7e-05";
    object      wallHeatFlux;
}
// * * * * * * * * * * * * * * * * * * * * * * * * * * * * * * * * * * * * * //

dimensions      [1 0 -3 0 0 0 0];


internalField   uniform 0;

boundaryField
{
    cone
    {
        type            calculated;
        value           nonuniform List<scalar> 
153
(
1686.48
1748.13
1815.13
1887.19
1963.98
2045.12
2130.16
2218.61
2309.9
2403.42
2498.51
2594.45
2690.47
2785.76
2879.47
2970.73
3058.64
3142.33
3220.89
3293.47
3359.24
3417.39
3467.2
3507.98
3539.17
3560.28
3570.92
3570.78
3559.91
3538.08
3505.15
3461.32
3406.75
3341.68
3266.37
3181.17
3086.45
2982.64
2870.16
2749.51
2621.16
2485.65
2343.52
2195.35
2041.77
1883.44
1721.19
1554.8
1379.69
1197.3
1014.03
831.438
650.296
471.362
295.382
123.094
-44.801
-207.666
-364.926
-516.075
-660.675
-798.344
-928.762
-1051.64
-1166.73
-1273.84
-1372.64
-1463.02
-1545.32
-1619.26
-1684.46
-1741.3
-1789.97
-1830.59
-1863.19
-1887.79
-1904.43
-1913.42
-1914.38
-1906.95
-1891.48
-1868.07
-1836.59
-1796.99
-1749.26
-1693.37
-1629.33
-1557.12
-1476.73
-1388.16
-1291.47
-1186.71
-1073.95
-953.305
-824.895
-688.914
-545.632
-395.342
-238.401
-75.2528
93.5796
267.459
445.725
627.691
812.677
1000.08
1189.4
1380.24
1572.29
1765.24
1958.73
2152.25
2345.12
2536.46
2725.08
2909.46
3087.62
3256.83
3415.37
3560.71
3688.65
3796.76
3882.93
3945.05
3982.79
3994.67
3981.62
3944.35
3884.14
3804.92
3710.61
3604.79
3490.88
3371.92
3250.5
3128.68
3008.03
2889.67
2774.37
2662.59
2554.62
2450.56
2350.43
2254.2
2161.77
2073.07
1988.02
1906.54
1828.56
1754.06
1683.03
1615.45
1551.38
)
;
    }
    inlet
    {
        type            calculated;
        value           uniform 0;
    }
    rWedge
    {
        type            wedge;
    }
    lWedge
    {
        type            wedge;
    }
    outlet
    {
        type            calculated;
        value           nonuniform 0();
    }
    procBoundary2to0
    {
        type            processor;
        value           uniform 0;
    }
    procBoundary2to1
    {
        type            processor;
        value           uniform 0;
    }
    procBoundary2to3
    {
        type            processor;
        value           uniform 0;
    }
}


// ************************************************************************* //
