/*--------------------------------*- C++ -*----------------------------------*\
| =========                 |                                                 |
| \\      /  F ield         | OpenFOAM: The Open Source CFD Toolbox           |
|  \\    /   O peration     | Version:  v1706                                 |
|   \\  /    A nd           | Web:      www.OpenFOAM.com                      |
|    \\/     M anipulation  |                                                 |
\*---------------------------------------------------------------------------*/
FoamFile
{
    version     2.0;
    format      ascii;
    class       volScalarField;
    location    "3.2e-05";
    object      alpha;
}
// * * * * * * * * * * * * * * * * * * * * * * * * * * * * * * * * * * * * * //

dimensions      [1 -1 -1 0 0 0 0];


internalField   nonuniform List<scalar> 
29871
(
1.40478e-05
1.40478e-05
1.40478e-05
1.40478e-05
1.40478e-05
1.40478e-05
1.40478e-05
1.40478e-05
1.40478e-05
1.40478e-05
1.40478e-05
1.40478e-05
1.40478e-05
1.40478e-05
1.40478e-05
1.40478e-05
1.40478e-05
1.40478e-05
1.40478e-05
1.40478e-05
1.40478e-05
1.40478e-05
1.40478e-05
1.40478e-05
1.40478e-05
1.40478e-05
1.40478e-05
1.40478e-05
1.40478e-05
1.40478e-05
1.40478e-05
1.40478e-05
1.40478e-05
1.40478e-05
1.40478e-05
1.40478e-05
1.40478e-05
1.40478e-05
1.40478e-05
1.40478e-05
1.40478e-05
1.40478e-05
1.40478e-05
1.40478e-05
1.40478e-05
1.40478e-05
1.40478e-05
1.40478e-05
1.40478e-05
1.40478e-05
1.40478e-05
1.40478e-05
1.40478e-05
1.40478e-05
1.40478e-05
1.40478e-05
1.40478e-05
1.40478e-05
1.40478e-05
1.40478e-05
1.40478e-05
1.40478e-05
1.40478e-05
1.40478e-05
1.40478e-05
1.40478e-05
1.40478e-05
1.40478e-05
1.40478e-05
1.40478e-05
1.40478e-05
1.40478e-05
1.40478e-05
1.40478e-05
1.40478e-05
1.40478e-05
1.40478e-05
1.40478e-05
1.40478e-05
1.40478e-05
1.40478e-05
1.40478e-05
1.40478e-05
1.40478e-05
1.40478e-05
1.40478e-05
1.40478e-05
1.40478e-05
1.40478e-05
1.40478e-05
1.40478e-05
1.40478e-05
1.40478e-05
1.40478e-05
1.40478e-05
1.40478e-05
1.40478e-05
1.40478e-05
1.40478e-05
1.40478e-05
1.40478e-05
1.40478e-05
1.40478e-05
1.40478e-05
1.40478e-05
1.40478e-05
1.40478e-05
1.40478e-05
1.40478e-05
1.40478e-05
1.40478e-05
1.40478e-05
1.40478e-05
1.40478e-05
1.40478e-05
1.40478e-05
1.40478e-05
1.40478e-05
1.40478e-05
1.40478e-05
1.40478e-05
1.40478e-05
1.40478e-05
1.40478e-05
1.40478e-05
1.40478e-05
1.40478e-05
1.40478e-05
1.40478e-05
1.40478e-05
1.40478e-05
1.40478e-05
1.40478e-05
1.40478e-05
1.40478e-05
1.40478e-05
1.40478e-05
1.40478e-05
1.40478e-05
1.40478e-05
1.40478e-05
1.40478e-05
1.40478e-05
1.40478e-05
1.40478e-05
1.40478e-05
1.40478e-05
1.40478e-05
1.40478e-05
1.40478e-05
1.40478e-05
1.40478e-05
1.40478e-05
1.40478e-05
1.40478e-05
1.40478e-05
1.40478e-05
1.40478e-05
1.40478e-05
1.40478e-05
1.40478e-05
1.40478e-05
1.40478e-05
1.40478e-05
1.40478e-05
1.40478e-05
1.40478e-05
1.40478e-05
1.40478e-05
1.40478e-05
1.40478e-05
1.40478e-05
1.40478e-05
1.40478e-05
1.40478e-05
1.40478e-05
1.40478e-05
1.40478e-05
1.40478e-05
1.40478e-05
1.40478e-05
1.40478e-05
1.40478e-05
1.40478e-05
1.40478e-05
1.40478e-05
1.40478e-05
1.40478e-05
1.40478e-05
1.40478e-05
1.40478e-05
1.40478e-05
1.40478e-05
1.40478e-05
1.40478e-05
1.40478e-05
1.40478e-05
1.40478e-05
1.40478e-05
1.40478e-05
1.40478e-05
1.40478e-05
1.40478e-05
1.40478e-05
1.40478e-05
1.40478e-05
1.40478e-05
1.40478e-05
1.40478e-05
1.40478e-05
1.40478e-05
1.40478e-05
1.40478e-05
1.40478e-05
1.40478e-05
1.40478e-05
1.40478e-05
1.40478e-05
1.40478e-05
1.40478e-05
1.40478e-05
1.40478e-05
1.40478e-05
1.40478e-05
1.40478e-05
1.40478e-05
1.40478e-05
1.40478e-05
1.40478e-05
1.40478e-05
1.40478e-05
1.40478e-05
1.40478e-05
1.40478e-05
1.40478e-05
1.40478e-05
1.40478e-05
1.40478e-05
1.40478e-05
1.40478e-05
1.40478e-05
1.40478e-05
1.40478e-05
1.40478e-05
1.40478e-05
1.40478e-05
1.40478e-05
1.40478e-05
1.40478e-05
1.40478e-05
1.40478e-05
1.40478e-05
1.40478e-05
1.40478e-05
1.40478e-05
1.40478e-05
1.40478e-05
1.40478e-05
1.40478e-05
1.40478e-05
1.40478e-05
1.40478e-05
1.40478e-05
1.40478e-05
1.40478e-05
1.40478e-05
1.40478e-05
1.40478e-05
1.40478e-05
1.40478e-05
1.40478e-05
1.40478e-05
1.40478e-05
1.40478e-05
1.40478e-05
1.40478e-05
1.40478e-05
1.40478e-05
1.40478e-05
1.40478e-05
1.40478e-05
1.40478e-05
1.40478e-05
1.40478e-05
1.40478e-05
1.40478e-05
1.40478e-05
1.40478e-05
1.40478e-05
1.40478e-05
1.40478e-05
1.40478e-05
1.40478e-05
1.40478e-05
1.40478e-05
1.40478e-05
1.40478e-05
1.40478e-05
1.40478e-05
1.40478e-05
1.40478e-05
1.40478e-05
1.40478e-05
1.40478e-05
1.40478e-05
1.40478e-05
1.40478e-05
1.40478e-05
1.40478e-05
1.40478e-05
1.40478e-05
1.40478e-05
1.40478e-05
1.40478e-05
1.40478e-05
1.40478e-05
1.40478e-05
1.40478e-05
1.40478e-05
1.40478e-05
1.40478e-05
1.40478e-05
1.40478e-05
1.40478e-05
1.40478e-05
1.40478e-05
1.40478e-05
1.40478e-05
1.40478e-05
1.40478e-05
1.40478e-05
1.40478e-05
1.40478e-05
1.40478e-05
1.40478e-05
1.40478e-05
1.40478e-05
1.40478e-05
1.40478e-05
1.40478e-05
1.40478e-05
1.40478e-05
1.40478e-05
1.40478e-05
1.40478e-05
1.40478e-05
1.40478e-05
1.40478e-05
1.40478e-05
1.40478e-05
1.40478e-05
1.40478e-05
1.40478e-05
1.40478e-05
1.40478e-05
1.40478e-05
1.40478e-05
1.40478e-05
1.40478e-05
1.40478e-05
1.40478e-05
1.40478e-05
1.40478e-05
1.40478e-05
1.40478e-05
1.40478e-05
1.40478e-05
1.40478e-05
1.40478e-05
1.40478e-05
1.40478e-05
1.40478e-05
1.40478e-05
1.40478e-05
1.40478e-05
1.40478e-05
1.40478e-05
1.40478e-05
1.40478e-05
1.40478e-05
1.40478e-05
1.40478e-05
1.40478e-05
1.40478e-05
1.40478e-05
1.40478e-05
1.40478e-05
1.40478e-05
1.40478e-05
1.40478e-05
1.40478e-05
1.40478e-05
1.40478e-05
1.40478e-05
1.40478e-05
1.40478e-05
1.40478e-05
1.40478e-05
1.40478e-05
1.40478e-05
1.40478e-05
1.40478e-05
1.40478e-05
1.40478e-05
1.40478e-05
1.40478e-05
1.40478e-05
1.40478e-05
1.40478e-05
1.40478e-05
1.40478e-05
1.40478e-05
1.40478e-05
1.40478e-05
1.40478e-05
1.40478e-05
1.40478e-05
1.40478e-05
1.40478e-05
1.40478e-05
1.40478e-05
1.40478e-05
1.40478e-05
1.40478e-05
1.40478e-05
1.40478e-05
1.40478e-05
1.40478e-05
1.40478e-05
1.40478e-05
1.40478e-05
1.40478e-05
1.40478e-05
1.40478e-05
1.40478e-05
1.40478e-05
1.40478e-05
1.40478e-05
1.40478e-05
1.40478e-05
1.40478e-05
1.40478e-05
1.40478e-05
1.40478e-05
1.40478e-05
1.40478e-05
1.40478e-05
1.40478e-05
1.40478e-05
1.40478e-05
1.40478e-05
1.40478e-05
1.40478e-05
1.40478e-05
1.40478e-05
1.40478e-05
1.40478e-05
1.40478e-05
1.40478e-05
1.40478e-05
1.40478e-05
1.40478e-05
1.40478e-05
1.40478e-05
1.40478e-05
1.40478e-05
1.40478e-05
1.40478e-05
1.40478e-05
1.40478e-05
1.40478e-05
1.40478e-05
1.40478e-05
1.40478e-05
1.40478e-05
1.40478e-05
1.40478e-05
1.40478e-05
1.40478e-05
1.40478e-05
1.40478e-05
1.40478e-05
1.40478e-05
1.40478e-05
1.40478e-05
1.40478e-05
1.40478e-05
1.40478e-05
1.40478e-05
1.40478e-05
1.40478e-05
1.40478e-05
1.40478e-05
1.40478e-05
1.40478e-05
1.40478e-05
1.40478e-05
1.40478e-05
1.40478e-05
1.40478e-05
1.40478e-05
1.40478e-05
1.40478e-05
1.40478e-05
1.40478e-05
1.40478e-05
1.40478e-05
1.40478e-05
1.40478e-05
1.40478e-05
1.40478e-05
1.40478e-05
1.40478e-05
1.40478e-05
1.40478e-05
1.40478e-05
1.40478e-05
1.40478e-05
1.40478e-05
1.40478e-05
1.40478e-05
1.40478e-05
1.40478e-05
1.40478e-05
1.40478e-05
1.40478e-05
1.40478e-05
1.40478e-05
1.40478e-05
1.40478e-05
1.40478e-05
1.40478e-05
1.40478e-05
1.40478e-05
1.40478e-05
1.40478e-05
1.40478e-05
1.40478e-05
1.40478e-05
1.40478e-05
1.40478e-05
1.40478e-05
1.40478e-05
1.40478e-05
1.40478e-05
1.40478e-05
1.40478e-05
1.40478e-05
1.40478e-05
1.40478e-05
1.40478e-05
1.40478e-05
1.40478e-05
1.40478e-05
1.40478e-05
1.40478e-05
1.40478e-05
1.40478e-05
1.40478e-05
1.40478e-05
1.40478e-05
1.40478e-05
1.40478e-05
1.40478e-05
1.40478e-05
1.40478e-05
1.40478e-05
1.40478e-05
1.40478e-05
1.40478e-05
1.40478e-05
1.40478e-05
1.40478e-05
1.40478e-05
1.40478e-05
1.40478e-05
1.40478e-05
1.40478e-05
1.40478e-05
1.40478e-05
1.40478e-05
1.40478e-05
1.40478e-05
1.40478e-05
1.40478e-05
1.40478e-05
1.40478e-05
1.40478e-05
1.40478e-05
1.40478e-05
1.40478e-05
1.40478e-05
1.40478e-05
1.40478e-05
1.40478e-05
1.40478e-05
1.40478e-05
1.40478e-05
1.40478e-05
1.40478e-05
1.40478e-05
1.40478e-05
1.40478e-05
1.40478e-05
1.40478e-05
1.40478e-05
1.40478e-05
1.40478e-05
1.40478e-05
1.40478e-05
1.40478e-05
1.40478e-05
1.40478e-05
1.40478e-05
1.40478e-05
1.40478e-05
1.40478e-05
1.40478e-05
1.40478e-05
1.40478e-05
1.40478e-05
1.40478e-05
1.40478e-05
1.40478e-05
1.40478e-05
1.40478e-05
1.40478e-05
1.40478e-05
1.40478e-05
1.40478e-05
1.40478e-05
1.40478e-05
1.40478e-05
1.40478e-05
1.40478e-05
1.40478e-05
1.40478e-05
1.40478e-05
1.40478e-05
1.40478e-05
1.40478e-05
1.40478e-05
1.40478e-05
1.40478e-05
1.40478e-05
1.40478e-05
1.40478e-05
1.40478e-05
1.40478e-05
1.40478e-05
1.40478e-05
1.40478e-05
1.40478e-05
1.40478e-05
1.40478e-05
1.40478e-05
1.40478e-05
1.40478e-05
1.40478e-05
1.40478e-05
1.40478e-05
1.40478e-05
1.40478e-05
1.40478e-05
1.40478e-05
1.40478e-05
1.40478e-05
1.40478e-05
1.40478e-05
1.40478e-05
1.40478e-05
1.40478e-05
1.40478e-05
1.40478e-05
1.40478e-05
1.40478e-05
1.40478e-05
1.40478e-05
1.40478e-05
1.40478e-05
1.40478e-05
1.40478e-05
1.40478e-05
1.40478e-05
1.40478e-05
1.40478e-05
1.40478e-05
1.40478e-05
1.40478e-05
1.40478e-05
1.40478e-05
1.40478e-05
1.40478e-05
1.40478e-05
1.40478e-05
1.40478e-05
1.40478e-05
1.40478e-05
1.40478e-05
1.40478e-05
1.40478e-05
1.40478e-05
1.40478e-05
1.40478e-05
1.40478e-05
1.40478e-05
1.40478e-05
1.40478e-05
1.40478e-05
1.40478e-05
1.40478e-05
1.40478e-05
1.40478e-05
1.40478e-05
1.40478e-05
1.40478e-05
1.40478e-05
1.40478e-05
1.40478e-05
1.40478e-05
1.40478e-05
1.40478e-05
1.40478e-05
1.40478e-05
1.40478e-05
1.40478e-05
1.40478e-05
1.40478e-05
1.40478e-05
1.40478e-05
1.40478e-05
1.40478e-05
1.40478e-05
1.40478e-05
1.40478e-05
1.40478e-05
1.40478e-05
1.40478e-05
1.40478e-05
1.40478e-05
1.40478e-05
1.40478e-05
1.40478e-05
1.40478e-05
1.40478e-05
1.40478e-05
1.40478e-05
1.40478e-05
1.40478e-05
1.40478e-05
1.40478e-05
1.40478e-05
1.40478e-05
1.40478e-05
1.40478e-05
1.40478e-05
1.40478e-05
1.40478e-05
1.40478e-05
1.40478e-05
1.40478e-05
1.40478e-05
1.40478e-05
1.40478e-05
1.40478e-05
1.40478e-05
1.40478e-05
1.40478e-05
1.40478e-05
1.40478e-05
1.40478e-05
1.40478e-05
1.40478e-05
1.40478e-05
1.40478e-05
1.40478e-05
1.40478e-05
1.40478e-05
1.40478e-05
1.40478e-05
1.40478e-05
1.40478e-05
1.40478e-05
1.40478e-05
1.40478e-05
1.40478e-05
1.40478e-05
1.40478e-05
1.40478e-05
1.40478e-05
1.40478e-05
1.40478e-05
1.40478e-05
1.40478e-05
1.40478e-05
1.40478e-05
1.40478e-05
1.40478e-05
1.40478e-05
1.40478e-05
1.40478e-05
1.40478e-05
1.40478e-05
1.40478e-05
1.40478e-05
1.40478e-05
1.40478e-05
1.40478e-05
1.40478e-05
1.40478e-05
1.40478e-05
1.40478e-05
1.40478e-05
1.40478e-05
1.40478e-05
1.40478e-05
1.40478e-05
1.40478e-05
1.40478e-05
1.40478e-05
1.40478e-05
1.40478e-05
1.40478e-05
1.40478e-05
1.40478e-05
1.40478e-05
1.40478e-05
1.40478e-05
1.40478e-05
1.40478e-05
1.40478e-05
1.40478e-05
1.40478e-05
1.40478e-05
1.40478e-05
1.40478e-05
1.40478e-05
1.40478e-05
1.40478e-05
1.40478e-05
1.40478e-05
1.40478e-05
1.40478e-05
1.40478e-05
1.40478e-05
1.40478e-05
1.40478e-05
1.40478e-05
1.40478e-05
1.40478e-05
1.40478e-05
1.40478e-05
1.40478e-05
1.40478e-05
1.40478e-05
1.40478e-05
1.40478e-05
1.40478e-05
1.40478e-05
1.40478e-05
1.40478e-05
1.40478e-05
1.40478e-05
1.40478e-05
1.40478e-05
1.40478e-05
1.40478e-05
1.40478e-05
1.40478e-05
1.40478e-05
1.40478e-05
1.40478e-05
1.40478e-05
1.40478e-05
1.40478e-05
1.40478e-05
1.40478e-05
1.40478e-05
1.40478e-05
1.40478e-05
1.40478e-05
1.40478e-05
1.40478e-05
1.40478e-05
1.40478e-05
1.40478e-05
1.40478e-05
1.40478e-05
1.40478e-05
1.40478e-05
1.40478e-05
1.40478e-05
1.40478e-05
1.40478e-05
1.40478e-05
1.40478e-05
1.40478e-05
1.40478e-05
1.40478e-05
1.40478e-05
1.40478e-05
1.40478e-05
1.40478e-05
1.40478e-05
1.40478e-05
1.40478e-05
1.40478e-05
1.40478e-05
1.40478e-05
1.40478e-05
1.40478e-05
1.40478e-05
1.40478e-05
1.40478e-05
1.40478e-05
1.40478e-05
1.40478e-05
1.40478e-05
1.40478e-05
1.40478e-05
1.40478e-05
1.40478e-05
1.40478e-05
1.40478e-05
1.40478e-05
1.40478e-05
1.40478e-05
1.40478e-05
1.40478e-05
1.40478e-05
1.40478e-05
1.40478e-05
1.40478e-05
1.40478e-05
1.40478e-05
1.40478e-05
1.40478e-05
1.40478e-05
1.40478e-05
1.40478e-05
1.40478e-05
1.40478e-05
1.40478e-05
1.40478e-05
1.40478e-05
1.40478e-05
1.40478e-05
1.40478e-05
1.40478e-05
1.40478e-05
1.40478e-05
1.40478e-05
1.40478e-05
1.40478e-05
1.40478e-05
1.40478e-05
1.40478e-05
1.40478e-05
1.40478e-05
1.40478e-05
1.40478e-05
1.40478e-05
1.40478e-05
1.40478e-05
1.40478e-05
1.40478e-05
1.40478e-05
1.40478e-05
1.40478e-05
1.40478e-05
1.40478e-05
1.40478e-05
1.40478e-05
1.40478e-05
1.40478e-05
1.40478e-05
1.40478e-05
1.40478e-05
1.40478e-05
1.40478e-05
1.40478e-05
1.40478e-05
1.40478e-05
1.40478e-05
1.40478e-05
1.40478e-05
1.40478e-05
1.40478e-05
1.40478e-05
1.40478e-05
1.40478e-05
1.40478e-05
1.40478e-05
1.40478e-05
1.40478e-05
1.40478e-05
1.40478e-05
1.40478e-05
1.40478e-05
1.40478e-05
1.40478e-05
1.40478e-05
1.40478e-05
1.40478e-05
1.40478e-05
1.40478e-05
1.40478e-05
1.40478e-05
1.40478e-05
1.40478e-05
1.40478e-05
1.40478e-05
1.40478e-05
1.40478e-05
1.40478e-05
1.40478e-05
1.40478e-05
1.40478e-05
1.40478e-05
1.40478e-05
1.40478e-05
1.40478e-05
1.40478e-05
1.40478e-05
1.40478e-05
1.40478e-05
1.40478e-05
1.40478e-05
1.40478e-05
1.40478e-05
1.40478e-05
1.40478e-05
1.40478e-05
1.40478e-05
1.40478e-05
1.40478e-05
1.40478e-05
1.40478e-05
1.40478e-05
1.40478e-05
1.40478e-05
1.40478e-05
1.40478e-05
1.40478e-05
1.40478e-05
1.40478e-05
1.40478e-05
1.40478e-05
1.40478e-05
1.40478e-05
1.40478e-05
1.40478e-05
1.40478e-05
1.40478e-05
1.40478e-05
1.40478e-05
1.40478e-05
1.40478e-05
1.40478e-05
1.40478e-05
1.40478e-05
1.40478e-05
1.40478e-05
1.40478e-05
1.40478e-05
1.40478e-05
1.40478e-05
1.40478e-05
1.40478e-05
1.40478e-05
1.40478e-05
1.40478e-05
1.40478e-05
1.40479e-05
1.40479e-05
1.40479e-05
1.40478e-05
1.40478e-05
1.40478e-05
1.40478e-05
1.40478e-05
1.40478e-05
1.40478e-05
1.40478e-05
1.40478e-05
1.40478e-05
1.40478e-05
1.40478e-05
1.40478e-05
1.40478e-05
1.40478e-05
1.40478e-05
1.40478e-05
1.40478e-05
1.40478e-05
1.40478e-05
1.40478e-05
1.40478e-05
1.40478e-05
1.40478e-05
1.40478e-05
1.40478e-05
1.40478e-05
1.40478e-05
1.40478e-05
1.40478e-05
1.40478e-05
1.40478e-05
1.40478e-05
1.40478e-05
1.40478e-05
1.40478e-05
1.40478e-05
1.40478e-05
1.40478e-05
1.40478e-05
1.40478e-05
1.40478e-05
1.40478e-05
1.40478e-05
1.40478e-05
1.40478e-05
1.40478e-05
1.40478e-05
1.40478e-05
1.40478e-05
1.40478e-05
1.40478e-05
1.40478e-05
1.40478e-05
1.40478e-05
1.40478e-05
1.40478e-05
1.40478e-05
1.40478e-05
1.40478e-05
1.40478e-05
1.40478e-05
1.40478e-05
1.40478e-05
1.40478e-05
1.40478e-05
1.40478e-05
1.40478e-05
1.40478e-05
1.40478e-05
1.40478e-05
1.40478e-05
1.40478e-05
1.40478e-05
1.40478e-05
1.40478e-05
1.40478e-05
1.40478e-05
1.40478e-05
1.40478e-05
1.40478e-05
1.40478e-05
1.40478e-05
1.40478e-05
1.40478e-05
1.40478e-05
1.40478e-05
1.40478e-05
1.40478e-05
1.40478e-05
1.40478e-05
1.40478e-05
1.40478e-05
1.40479e-05
1.40479e-05
1.40479e-05
1.40479e-05
1.40479e-05
1.40479e-05
1.40479e-05
1.40479e-05
1.4048e-05
1.4048e-05
1.4048e-05
1.4048e-05
1.40481e-05
1.40481e-05
1.40481e-05
1.40482e-05
1.40482e-05
1.40478e-05
1.40478e-05
1.40478e-05
1.40478e-05
1.40478e-05
1.40478e-05
1.40478e-05
1.40478e-05
1.40478e-05
1.40478e-05
1.40478e-05
1.40478e-05
1.40478e-05
1.40478e-05
1.40478e-05
1.40478e-05
1.40478e-05
1.40478e-05
1.40478e-05
1.40478e-05
1.40478e-05
1.40478e-05
1.40478e-05
1.40478e-05
1.40478e-05
1.40478e-05
1.40478e-05
1.40478e-05
1.40478e-05
1.40478e-05
1.40478e-05
1.40478e-05
1.40478e-05
1.40478e-05
1.40478e-05
1.40478e-05
1.40478e-05
1.40478e-05
1.40478e-05
1.40478e-05
1.40478e-05
1.40478e-05
1.40478e-05
1.40478e-05
1.40478e-05
1.40478e-05
1.40478e-05
1.40478e-05
1.40478e-05
1.40478e-05
1.40478e-05
1.40478e-05
1.40478e-05
1.40478e-05
1.40478e-05
1.40478e-05
1.40478e-05
1.40478e-05
1.40478e-05
1.40478e-05
1.40478e-05
1.40478e-05
1.40478e-05
1.40478e-05
1.40478e-05
1.40478e-05
1.40478e-05
1.40478e-05
1.40478e-05
1.40478e-05
1.40478e-05
1.40478e-05
1.40478e-05
1.40478e-05
1.40478e-05
1.40478e-05
1.40478e-05
1.40478e-05
1.40478e-05
1.40479e-05
1.40479e-05
1.40479e-05
1.40479e-05
1.40479e-05
1.40479e-05
1.40479e-05
1.40479e-05
1.40479e-05
1.4048e-05
1.4048e-05
1.4048e-05
1.4048e-05
1.40481e-05
1.40481e-05
1.40481e-05
1.40482e-05
1.40482e-05
1.40483e-05
1.40484e-05
1.40484e-05
1.40485e-05
1.40486e-05
1.40487e-05
1.40488e-05
1.4049e-05
1.40491e-05
1.40493e-05
1.40495e-05
1.40497e-05
1.405e-05
1.40503e-05
1.40478e-05
1.40478e-05
1.40478e-05
1.40478e-05
1.40478e-05
1.40478e-05
1.40478e-05
1.40478e-05
1.40478e-05
1.40478e-05
1.40478e-05
1.40478e-05
1.40478e-05
1.40478e-05
1.40478e-05
1.40478e-05
1.40478e-05
1.40478e-05
1.40478e-05
1.40478e-05
1.40478e-05
1.40478e-05
1.40478e-05
1.40478e-05
1.40478e-05
1.40478e-05
1.40478e-05
1.40478e-05
1.40478e-05
1.40478e-05
1.40478e-05
1.40478e-05
1.40478e-05
1.40478e-05
1.40478e-05
1.40478e-05
1.40478e-05
1.40478e-05
1.40478e-05
1.40478e-05
1.40478e-05
1.40478e-05
1.40478e-05
1.40478e-05
1.40478e-05
1.40478e-05
1.40478e-05
1.40478e-05
1.40478e-05
1.40478e-05
1.40478e-05
1.40478e-05
1.40478e-05
1.40478e-05
1.40478e-05
1.40478e-05
1.40478e-05
1.40478e-05
1.40478e-05
1.40478e-05
1.40478e-05
1.40478e-05
1.40478e-05
1.40479e-05
1.40479e-05
1.40479e-05
1.40479e-05
1.40479e-05
1.40479e-05
1.40479e-05
1.40479e-05
1.40479e-05
1.40479e-05
1.4048e-05
1.4048e-05
1.4048e-05
1.4048e-05
1.40481e-05
1.40481e-05
1.40481e-05
1.40482e-05
1.40482e-05
1.40482e-05
1.40483e-05
1.40484e-05
1.40484e-05
1.40485e-05
1.40486e-05
1.40487e-05
1.40488e-05
1.40489e-05
1.40491e-05
1.40492e-05
1.40494e-05
1.40496e-05
1.40498e-05
1.40501e-05
1.40504e-05
1.40508e-05
1.40512e-05
1.40516e-05
1.40522e-05
1.40527e-05
1.40534e-05
1.40541e-05
1.40549e-05
1.40558e-05
1.40569e-05
1.40582e-05
1.40597e-05
1.40615e-05
1.40635e-05
1.40657e-05
1.40478e-05
1.40478e-05
1.40478e-05
1.40478e-05
1.40478e-05
1.40478e-05
1.40478e-05
1.40478e-05
1.40478e-05
1.40478e-05
1.40478e-05
1.40478e-05
1.40478e-05
1.40478e-05
1.40478e-05
1.40478e-05
1.40478e-05
1.40478e-05
1.40478e-05
1.40478e-05
1.40478e-05
1.40478e-05
1.40478e-05
1.40478e-05
1.40478e-05
1.40478e-05
1.40478e-05
1.40478e-05
1.40478e-05
1.40478e-05
1.40478e-05
1.40478e-05
1.40478e-05
1.40478e-05
1.40478e-05
1.40478e-05
1.40478e-05
1.40478e-05
1.40478e-05
1.40478e-05
1.40478e-05
1.40478e-05
1.40479e-05
1.40479e-05
1.40479e-05
1.40479e-05
1.40479e-05
1.40479e-05
1.40479e-05
1.40479e-05
1.40479e-05
1.40479e-05
1.40479e-05
1.40479e-05
1.40479e-05
1.4048e-05
1.4048e-05
1.4048e-05
1.4048e-05
1.4048e-05
1.4048e-05
1.40481e-05
1.40481e-05
1.40481e-05
1.40481e-05
1.40482e-05
1.40482e-05
1.40483e-05
1.40483e-05
1.40484e-05
1.40484e-05
1.40485e-05
1.40486e-05
1.40486e-05
1.40487e-05
1.40488e-05
1.4049e-05
1.40491e-05
1.40493e-05
1.40494e-05
1.40496e-05
1.40498e-05
1.40501e-05
1.40503e-05
1.40506e-05
1.4051e-05
1.40514e-05
1.40518e-05
1.40524e-05
1.4053e-05
1.40536e-05
1.40544e-05
1.40552e-05
1.40561e-05
1.40572e-05
1.40583e-05
1.40597e-05
1.40613e-05
1.40632e-05
1.40654e-05
1.40678e-05
1.40706e-05
1.40736e-05
1.40769e-05
1.40806e-05
1.40848e-05
1.40898e-05
1.40957e-05
1.41027e-05
1.4111e-05
1.41205e-05
1.41311e-05
1.41429e-05
1.40478e-05
1.40478e-05
1.40478e-05
1.40478e-05
1.40478e-05
1.40478e-05
1.40478e-05
1.40478e-05
1.40478e-05
1.40478e-05
1.40478e-05
1.40478e-05
1.40478e-05
1.40478e-05
1.40478e-05
1.40478e-05
1.40478e-05
1.40478e-05
1.40478e-05
1.40478e-05
1.40478e-05
1.40479e-05
1.40479e-05
1.40479e-05
1.40479e-05
1.40479e-05
1.40479e-05
1.40479e-05
1.40479e-05
1.40479e-05
1.40479e-05
1.40479e-05
1.40479e-05
1.40479e-05
1.40479e-05
1.40479e-05
1.4048e-05
1.4048e-05
1.4048e-05
1.4048e-05
1.4048e-05
1.4048e-05
1.4048e-05
1.40481e-05
1.40481e-05
1.40481e-05
1.40481e-05
1.40481e-05
1.40482e-05
1.40482e-05
1.40482e-05
1.40483e-05
1.40483e-05
1.40483e-05
1.40484e-05
1.40484e-05
1.40485e-05
1.40485e-05
1.40486e-05
1.40487e-05
1.40488e-05
1.40488e-05
1.40489e-05
1.4049e-05
1.40492e-05
1.40493e-05
1.40494e-05
1.40496e-05
1.40498e-05
1.405e-05
1.40503e-05
1.40505e-05
1.40508e-05
1.40511e-05
1.40515e-05
1.40519e-05
1.40523e-05
1.40529e-05
1.40535e-05
1.40542e-05
1.40549e-05
1.40558e-05
1.40568e-05
1.40578e-05
1.4059e-05
1.40603e-05
1.40618e-05
1.40636e-05
1.40656e-05
1.4068e-05
1.40706e-05
1.40737e-05
1.40771e-05
1.40808e-05
1.40849e-05
1.40895e-05
1.40947e-05
1.41008e-05
1.41079e-05
1.41163e-05
1.41261e-05
1.41374e-05
1.415e-05
1.41641e-05
1.41795e-05
1.41964e-05
1.42151e-05
1.42365e-05
1.42619e-05
1.42925e-05
1.43289e-05
1.43714e-05
1.44198e-05
1.44738e-05
1.4533e-05
1.40478e-05
1.40479e-05
1.40479e-05
1.40479e-05
1.40479e-05
1.40479e-05
1.40479e-05
1.40479e-05
1.40479e-05
1.40479e-05
1.40479e-05
1.40479e-05
1.40479e-05
1.40479e-05
1.4048e-05
1.4048e-05
1.4048e-05
1.4048e-05
1.4048e-05
1.4048e-05
1.4048e-05
1.40481e-05
1.40481e-05
1.40481e-05
1.40481e-05
1.40481e-05
1.40482e-05
1.40482e-05
1.40482e-05
1.40483e-05
1.40483e-05
1.40483e-05
1.40484e-05
1.40484e-05
1.40484e-05
1.40485e-05
1.40485e-05
1.40486e-05
1.40486e-05
1.40487e-05
1.40487e-05
1.40488e-05
1.40489e-05
1.4049e-05
1.4049e-05
1.40491e-05
1.40492e-05
1.40493e-05
1.40495e-05
1.40496e-05
1.40497e-05
1.40499e-05
1.405e-05
1.40502e-05
1.40504e-05
1.40507e-05
1.40509e-05
1.40512e-05
1.40515e-05
1.40518e-05
1.40522e-05
1.40526e-05
1.40531e-05
1.40536e-05
1.40541e-05
1.40548e-05
1.40555e-05
1.40563e-05
1.40572e-05
1.40582e-05
1.40594e-05
1.40606e-05
1.4062e-05
1.40635e-05
1.40652e-05
1.40672e-05
1.40694e-05
1.4072e-05
1.40749e-05
1.40783e-05
1.4082e-05
1.40862e-05
1.40909e-05
1.4096e-05
1.41016e-05
1.41081e-05
1.41154e-05
1.41241e-05
1.41342e-05
1.41459e-05
1.41592e-05
1.41743e-05
1.41909e-05
1.42093e-05
1.42294e-05
1.42516e-05
1.4277e-05
1.43067e-05
1.43419e-05
1.43835e-05
1.44317e-05
1.44865e-05
1.45477e-05
1.46148e-05
1.46877e-05
1.47665e-05
1.4853e-05
1.49525e-05
1.50722e-05
1.52168e-05
1.53874e-05
1.55826e-05
1.57993e-05
1.60343e-05
1.62843e-05
1.65467e-05
1.40479e-05
1.40479e-05
1.40479e-05
1.4048e-05
1.4048e-05
1.4048e-05
1.4048e-05
1.4048e-05
1.40481e-05
1.40481e-05
1.40481e-05
1.40481e-05
1.40482e-05
1.40482e-05
1.40482e-05
1.40483e-05
1.40483e-05
1.40483e-05
1.40484e-05
1.40484e-05
1.40485e-05
1.40485e-05
1.40486e-05
1.40486e-05
1.40487e-05
1.40488e-05
1.40488e-05
1.40489e-05
1.4049e-05
1.40491e-05
1.40491e-05
1.40492e-05
1.40493e-05
1.40494e-05
1.40495e-05
1.40497e-05
1.40498e-05
1.40499e-05
1.40501e-05
1.40502e-05
1.40504e-05
1.40506e-05
1.40507e-05
1.40509e-05
1.40512e-05
1.40514e-05
1.40516e-05
1.40519e-05
1.40522e-05
1.40525e-05
1.40529e-05
1.40533e-05
1.40537e-05
1.40541e-05
1.40546e-05
1.40551e-05
1.40557e-05
1.40563e-05
1.4057e-05
1.40577e-05
1.40586e-05
1.40596e-05
1.40606e-05
1.40618e-05
1.40631e-05
1.40645e-05
1.4066e-05
1.40677e-05
1.40695e-05
1.40715e-05
1.40739e-05
1.40765e-05
1.40795e-05
1.40829e-05
1.40867e-05
1.40909e-05
1.40957e-05
1.41009e-05
1.41066e-05
1.4113e-05
1.412e-05
1.4128e-05
1.41372e-05
1.41479e-05
1.41602e-05
1.41742e-05
1.41902e-05
1.4208e-05
1.42278e-05
1.42495e-05
1.42733e-05
1.42996e-05
1.43295e-05
1.43642e-05
1.4405e-05
1.44526e-05
1.45074e-05
1.45695e-05
1.46386e-05
1.47145e-05
1.4797e-05
1.48864e-05
1.49843e-05
1.5096e-05
1.52282e-05
1.53855e-05
1.55692e-05
1.57779e-05
1.60092e-05
1.626e-05
1.65272e-05
1.68081e-05
1.71022e-05
1.74156e-05
1.77705e-05
1.81944e-05
1.86918e-05
1.92516e-05
1.98575e-05
2.04931e-05
2.11443e-05
2.18003e-05
2.24539e-05
1.40483e-05
1.40484e-05
1.40485e-05
1.40485e-05
1.40486e-05
1.40487e-05
1.40487e-05
1.40488e-05
1.40489e-05
1.4049e-05
1.40491e-05
1.40492e-05
1.40493e-05
1.40495e-05
1.40496e-05
1.40498e-05
1.40499e-05
1.40501e-05
1.40503e-05
1.40504e-05
1.40506e-05
1.40509e-05
1.40511e-05
1.40513e-05
1.40516e-05
1.40518e-05
1.40521e-05
1.40524e-05
1.40527e-05
1.40531e-05
1.40534e-05
1.40538e-05
1.40542e-05
1.40547e-05
1.40551e-05
1.40556e-05
1.40562e-05
1.40567e-05
1.40573e-05
1.4058e-05
1.40586e-05
1.40594e-05
1.40602e-05
1.4061e-05
1.40619e-05
1.4063e-05
1.40641e-05
1.40653e-05
1.40666e-05
1.4068e-05
1.40695e-05
1.40712e-05
1.40729e-05
1.40748e-05
1.40769e-05
1.40791e-05
1.40816e-05
1.40844e-05
1.40874e-05
1.40908e-05
1.40947e-05
1.40989e-05
1.41036e-05
1.41087e-05
1.41144e-05
1.41206e-05
1.41273e-05
1.41347e-05
1.41429e-05
1.4152e-05
1.41624e-05
1.41743e-05
1.41879e-05
1.42034e-05
1.42207e-05
1.42401e-05
1.42615e-05
1.4285e-05
1.43107e-05
1.43389e-05
1.43702e-05
1.44059e-05
1.44472e-05
1.44951e-05
1.45502e-05
1.46129e-05
1.46832e-05
1.4761e-05
1.48463e-05
1.49389e-05
1.50392e-05
1.51492e-05
1.52741e-05
1.54202e-05
1.55916e-05
1.57895e-05
1.60125e-05
1.62586e-05
1.65247e-05
1.68081e-05
1.71065e-05
1.74193e-05
1.7752e-05
1.81248e-05
1.85614e-05
1.90654e-05
1.96266e-05
2.02308e-05
2.0864e-05
2.15136e-05
2.21693e-05
2.28235e-05
2.34747e-05
2.41312e-05
2.48605e-05
2.57587e-05
2.67649e-05
2.7807e-05
2.8834e-05
2.98143e-05
3.0729e-05
3.1569e-05
3.23351e-05
1.40501e-05
1.40503e-05
1.40505e-05
1.40508e-05
1.40511e-05
1.40514e-05
1.40517e-05
1.4052e-05
1.40524e-05
1.40528e-05
1.40532e-05
1.40537e-05
1.40542e-05
1.40547e-05
1.40553e-05
1.40559e-05
1.40565e-05
1.40572e-05
1.40579e-05
1.40586e-05
1.40594e-05
1.40603e-05
1.40612e-05
1.40621e-05
1.40631e-05
1.40642e-05
1.40654e-05
1.40666e-05
1.40679e-05
1.40693e-05
1.40708e-05
1.40724e-05
1.40742e-05
1.4076e-05
1.40779e-05
1.408e-05
1.40822e-05
1.40845e-05
1.4087e-05
1.40896e-05
1.40924e-05
1.40954e-05
1.40987e-05
1.41023e-05
1.41062e-05
1.41105e-05
1.41151e-05
1.41202e-05
1.41257e-05
1.41316e-05
1.4138e-05
1.41449e-05
1.41524e-05
1.41603e-05
1.4169e-05
1.41785e-05
1.4189e-05
1.42008e-05
1.4214e-05
1.42288e-05
1.42454e-05
1.42637e-05
1.4284e-05
1.43062e-05
1.43304e-05
1.43567e-05
1.43853e-05
1.44165e-05
1.44511e-05
1.449e-05
1.45345e-05
1.45854e-05
1.46433e-05
1.47085e-05
1.47812e-05
1.48615e-05
1.49494e-05
1.50448e-05
1.5148e-05
1.52599e-05
1.53837e-05
1.5525e-05
1.56886e-05
1.58772e-05
1.60911e-05
1.63289e-05
1.65886e-05
1.68679e-05
1.71645e-05
1.74764e-05
1.78038e-05
1.81526e-05
1.85423e-05
1.89911e-05
1.95004e-05
2.0061e-05
2.06607e-05
2.12872e-05
2.19297e-05
2.25791e-05
2.32288e-05
2.38766e-05
2.45301e-05
2.5251e-05
2.61155e-05
2.70716e-05
2.80576e-05
2.90296e-05
2.99605e-05
3.08337e-05
3.16396e-05
3.23764e-05
3.30447e-05
3.36464e-05
3.418e-05
3.46386e-05
3.50374e-05
3.539e-05
3.5701e-05
3.59723e-05
3.62052e-05
3.64029e-05
3.6568e-05
1.4057e-05
1.40579e-05
1.40589e-05
1.40599e-05
1.40611e-05
1.40623e-05
1.40635e-05
1.40649e-05
1.40664e-05
1.4068e-05
1.40697e-05
1.40715e-05
1.40734e-05
1.40755e-05
1.40777e-05
1.40801e-05
1.40826e-05
1.40853e-05
1.40881e-05
1.40912e-05
1.40943e-05
1.40977e-05
1.41013e-05
1.4105e-05
1.4109e-05
1.41133e-05
1.41179e-05
1.41228e-05
1.41281e-05
1.41337e-05
1.41397e-05
1.41462e-05
1.4153e-05
1.41603e-05
1.41681e-05
1.41763e-05
1.41849e-05
1.41941e-05
1.42039e-05
1.42143e-05
1.42255e-05
1.42377e-05
1.4251e-05
1.42656e-05
1.42816e-05
1.42991e-05
1.43182e-05
1.43388e-05
1.43612e-05
1.43853e-05
1.44112e-05
1.4439e-05
1.44687e-05
1.45006e-05
1.45352e-05
1.45732e-05
1.46156e-05
1.46632e-05
1.47164e-05
1.47757e-05
1.48415e-05
1.49139e-05
1.49931e-05
1.50791e-05
1.51722e-05
1.52723e-05
1.53799e-05
1.54962e-05
1.56245e-05
1.57694e-05
1.59349e-05
1.61227e-05
1.63331e-05
1.65652e-05
1.68178e-05
1.70892e-05
1.73778e-05
1.76822e-05
1.80015e-05
1.8338e-05
1.87014e-05
1.9111e-05
1.95741e-05
2.00872e-05
2.06419e-05
2.12285e-05
2.18374e-05
2.24601e-05
2.30897e-05
2.37209e-05
2.43527e-05
2.49927e-05
2.57066e-05
2.65375e-05
2.74399e-05
2.83649e-05
2.92767e-05
3.01517e-05
3.09756e-05
3.17401e-05
3.24434e-05
3.30851e-05
3.36651e-05
3.41827e-05
3.46335e-05
3.50265e-05
3.53709e-05
3.56754e-05
3.59442e-05
3.6178e-05
3.63773e-05
3.65441e-05
3.66813e-05
3.67918e-05
3.68769e-05
3.69422e-05
3.69937e-05
3.70339e-05
3.70717e-05
3.7115e-05
3.716e-05
3.72032e-05
3.72439e-05
3.72808e-05
3.73119e-05
1.40843e-05
1.40878e-05
1.40916e-05
1.40957e-05
1.41001e-05
1.41048e-05
1.41098e-05
1.41151e-05
1.41208e-05
1.41269e-05
1.41335e-05
1.41405e-05
1.4148e-05
1.41561e-05
1.41646e-05
1.41738e-05
1.41835e-05
1.41938e-05
1.42047e-05
1.42162e-05
1.42283e-05
1.42411e-05
1.42546e-05
1.4269e-05
1.42843e-05
1.43007e-05
1.43183e-05
1.43372e-05
1.43575e-05
1.43793e-05
1.44025e-05
1.44272e-05
1.44535e-05
1.44814e-05
1.45108e-05
1.45419e-05
1.45746e-05
1.4609e-05
1.46455e-05
1.46845e-05
1.47267e-05
1.47727e-05
1.4823e-05
1.48778e-05
1.49376e-05
1.50026e-05
1.50728e-05
1.51485e-05
1.52298e-05
1.53167e-05
1.54093e-05
1.55077e-05
1.5612e-05
1.57229e-05
1.58425e-05
1.59741e-05
1.61209e-05
1.62848e-05
1.64665e-05
1.66662e-05
1.68832e-05
1.71171e-05
1.73669e-05
1.76319e-05
1.79112e-05
1.82039e-05
1.851e-05
1.88328e-05
1.91824e-05
1.95723e-05
2.00062e-05
2.04806e-05
2.09894e-05
2.1526e-05
2.20838e-05
2.26569e-05
2.32402e-05
2.38291e-05
2.44206e-05
2.50169e-05
2.56359e-05
2.63545e-05
2.71526e-05
2.7991e-05
2.88368e-05
2.96659e-05
3.04619e-05
3.12147e-05
3.19177e-05
3.25693e-05
3.31691e-05
3.37161e-05
3.42047e-05
3.46337e-05
3.50128e-05
3.53482e-05
3.56448e-05
3.59072e-05
3.61377e-05
3.63373e-05
3.65077e-05
3.66492e-05
3.67646e-05
3.68573e-05
3.69303e-05
3.69885e-05
3.70375e-05
3.70808e-05
3.71205e-05
3.71611e-05
3.72045e-05
3.72463e-05
3.72842e-05
3.73172e-05
3.73445e-05
3.73645e-05
3.73771e-05
3.73854e-05
3.73944e-05
3.7403e-05
3.74115e-05
3.74243e-05
3.74407e-05
3.74572e-05
3.74721e-05
1.41888e-05
1.42021e-05
1.42164e-05
1.42316e-05
1.4248e-05
1.42654e-05
1.42839e-05
1.43037e-05
1.43249e-05
1.43476e-05
1.43719e-05
1.43979e-05
1.44257e-05
1.44554e-05
1.4487e-05
1.45207e-05
1.45562e-05
1.45938e-05
1.46333e-05
1.46747e-05
1.47181e-05
1.47636e-05
1.48116e-05
1.48626e-05
1.49169e-05
1.49749e-05
1.5037e-05
1.51032e-05
1.51737e-05
1.52487e-05
1.53281e-05
1.54121e-05
1.55007e-05
1.55936e-05
1.5691e-05
1.57927e-05
1.58986e-05
1.60092e-05
1.61254e-05
1.62496e-05
1.63841e-05
1.65303e-05
1.66891e-05
1.68609e-05
1.70454e-05
1.72427e-05
1.74523e-05
1.76738e-05
1.79067e-05
1.81504e-05
1.84045e-05
1.86684e-05
1.89418e-05
1.92265e-05
1.95281e-05
1.98569e-05
2.02172e-05
2.0608e-05
2.10265e-05
2.14693e-05
2.19329e-05
2.24141e-05
2.29095e-05
2.34159e-05
2.39305e-05
2.44503e-05