/*--------------------------------*- C++ -*----------------------------------*\
| =========                 |                                                 |
| \\      /  F ield         | OpenFOAM: The Open Source CFD Toolbox           |
|  \\    /   O peration     | Version:  v1706                                 |
|   \\  /    A nd           | Web:      www.OpenFOAM.com                      |
|    \\/     M anipulation  |                                                 |
\*---------------------------------------------------------------------------*/
FoamFile
{
    version     2.0;
    format      ascii;
    class       volScalarField;
    location    "3.2e-05";
    object      kappave;
}
// * * * * * * * * * * * * * * * * * * * * * * * * * * * * * * * * * * * * * //

dimensions      [1 1 -3 -1 0 0 0];


internalField   nonuniform List<scalar> 
29871
(
1.46038e-10
1.46038e-10
1.46038e-10
1.46038e-10
1.46038e-10
1.46038e-10
1.46038e-10
1.46038e-10
1.46038e-10
1.46038e-10
1.46038e-10
1.46038e-10
1.46038e-10
1.46038e-10
1.46038e-10
1.46038e-10
1.46038e-10
1.46038e-10
1.46038e-10
1.46038e-10
1.46038e-10
1.46038e-10
1.46038e-10
1.46038e-10
1.46038e-10
1.46038e-10
1.46038e-10
1.46038e-10
1.46038e-10
1.46038e-10
1.46038e-10
1.46038e-10
1.46038e-10
1.46038e-10
1.46038e-10
1.46038e-10
1.46038e-10
1.46038e-10
1.46038e-10
1.46038e-10
1.46038e-10
1.46038e-10
1.46038e-10
1.46038e-10
1.46038e-10
1.46038e-10
1.46038e-10
1.46038e-10
1.46038e-10
1.46038e-10
1.46038e-10
1.46038e-10
1.46038e-10
1.46038e-10
1.46038e-10
1.46038e-10
1.46038e-10
1.46038e-10
1.46038e-10
1.46038e-10
1.46038e-10
1.46038e-10
1.46038e-10
1.46038e-10
1.46038e-10
1.46038e-10
1.46038e-10
1.46038e-10
1.46038e-10
1.46038e-10
1.46038e-10
1.46038e-10
1.46038e-10
1.46038e-10
1.46038e-10
1.46038e-10
1.46038e-10
1.46038e-10
1.46038e-10
1.46038e-10
1.46038e-10
1.46038e-10
1.46038e-10
1.46038e-10
1.46038e-10
1.46038e-10
1.46038e-10
1.46038e-10
1.46038e-10
1.46038e-10
1.46038e-10
1.46038e-10
1.46038e-10
1.46038e-10
1.46038e-10
1.46038e-10
1.46038e-10
1.46038e-10
1.46038e-10
1.46038e-10
1.46038e-10
1.46038e-10
1.46038e-10
1.46038e-10
1.46038e-10
1.46038e-10
1.46038e-10
1.46038e-10
1.46038e-10
1.46038e-10
1.46038e-10
1.46038e-10
1.46038e-10
1.46038e-10
1.46038e-10
1.46038e-10
1.46038e-10
1.46038e-10
1.46038e-10
1.46038e-10
1.46038e-10
1.46038e-10
1.46038e-10
1.46038e-10
1.46038e-10
1.46038e-10
1.46038e-10
1.46038e-10
1.46038e-10
1.46038e-10
1.46038e-10
1.46038e-10
1.46038e-10
1.46038e-10
1.46038e-10
1.46038e-10
1.46038e-10
1.46038e-10
1.46038e-10
1.46038e-10
1.46038e-10
1.46038e-10
1.46038e-10
1.46038e-10
1.46038e-10
1.46038e-10
1.46038e-10
1.46038e-10
1.46038e-10
1.46038e-10
1.46038e-10
1.46038e-10
1.46038e-10
1.46038e-10
1.46038e-10
1.46038e-10
1.46038e-10
1.46038e-10
1.46038e-10
1.46038e-10
1.46038e-10
1.46038e-10
1.46038e-10
1.46038e-10
1.46038e-10
1.46038e-10
1.46038e-10
1.46038e-10
1.46038e-10
1.46038e-10
1.46038e-10
1.46038e-10
1.46038e-10
1.46038e-10
1.46038e-10
1.46038e-10
1.46038e-10
1.46038e-10
1.46038e-10
1.46038e-10
1.46038e-10
1.46038e-10
1.46038e-10
1.46038e-10
1.46038e-10
1.46038e-10
1.46038e-10
1.46038e-10
1.46038e-10
1.46038e-10
1.46038e-10
1.46038e-10
1.46038e-10
1.46038e-10
1.46038e-10
1.46038e-10
1.46038e-10
1.46038e-10
1.46038e-10
1.46038e-10
1.46038e-10
1.46038e-10
1.46038e-10
1.46038e-10
1.46038e-10
1.46038e-10
1.46038e-10
1.46038e-10
1.46038e-10
1.46038e-10
1.46038e-10
1.46038e-10
1.46038e-10
1.46038e-10
1.46038e-10
1.46038e-10
1.46038e-10
1.46038e-10
1.46038e-10
1.46038e-10
1.46038e-10
1.46038e-10
1.46038e-10
1.46038e-10
1.46038e-10
1.46038e-10
1.46038e-10
1.46038e-10
1.46038e-10
1.46038e-10
1.46038e-10
1.46038e-10
1.46038e-10
1.46038e-10
1.46038e-10
1.46038e-10
1.46038e-10
1.46038e-10
1.46038e-10
1.46038e-10
1.46038e-10
1.46038e-10
1.46038e-10
1.46038e-10
1.46038e-10
1.46038e-10
1.46038e-10
1.46038e-10
1.46038e-10
1.46038e-10
1.46038e-10
1.46038e-10
1.46038e-10
1.46038e-10
1.46038e-10
1.46038e-10
1.46038e-10
1.46038e-10
1.46038e-10
1.46038e-10
1.46038e-10
1.46038e-10
1.46038e-10
1.46038e-10
1.46038e-10
1.46038e-10
1.46038e-10
1.46038e-10
1.46038e-10
1.46038e-10
1.46038e-10
1.46038e-10
1.46038e-10
1.46038e-10
1.46038e-10
1.46038e-10
1.46038e-10
1.46038e-10
1.46038e-10
1.46038e-10
1.46038e-10
1.46038e-10
1.46038e-10
1.46038e-10
1.46038e-10
1.46038e-10
1.46038e-10
1.46038e-10
1.46038e-10
1.46038e-10
1.46038e-10
1.46038e-10
1.46038e-10
1.46038e-10
1.46038e-10
1.46038e-10
1.46038e-10
1.46038e-10
1.46038e-10
1.46038e-10
1.46038e-10
1.46038e-10
1.46038e-10
1.46038e-10
1.46038e-10
1.46038e-10
1.46038e-10
1.46038e-10
1.46038e-10
1.46038e-10
1.46038e-10
1.46038e-10
1.46038e-10
1.46038e-10
1.46038e-10
1.46038e-10
1.46038e-10
1.46038e-10
1.46038e-10
1.46038e-10
1.46038e-10
1.46038e-10
1.46038e-10
1.46038e-10
1.46038e-10
1.46038e-10
1.46038e-10
1.46038e-10
1.46038e-10
1.46038e-10
1.46038e-10
1.46038e-10
1.46038e-10
1.46038e-10
1.46038e-10
1.46038e-10
1.46038e-10
1.46038e-10
1.46038e-10
1.46038e-10
1.46038e-10
1.46038e-10
1.46038e-10
1.46038e-10
1.46038e-10
1.46038e-10
1.46038e-10
1.46038e-10
1.46038e-10
1.46038e-10
1.46038e-10
1.46038e-10
1.46038e-10
1.46038e-10
1.46038e-10
1.46038e-10
1.46038e-10
1.46038e-10
1.46038e-10
1.46038e-10
1.46038e-10
1.46038e-10
1.46038e-10
1.46038e-10
1.46038e-10
1.46038e-10
1.46038e-10
1.46038e-10
1.46038e-10
1.46038e-10
1.46038e-10
1.46038e-10
1.46038e-10
1.46038e-10
1.46038e-10
1.46038e-10
1.46038e-10
1.46038e-10
1.46038e-10
1.46038e-10
1.46038e-10
1.46038e-10
1.46038e-10
1.46038e-10
1.46038e-10
1.46038e-10
1.46038e-10
1.46038e-10
1.46038e-10
1.46038e-10
1.46038e-10
1.46038e-10
1.46038e-10
1.46038e-10
1.46038e-10
1.46038e-10
1.46038e-10
1.46038e-10
1.46038e-10
1.46038e-10
1.46038e-10
1.46038e-10
1.46038e-10
1.46038e-10
1.46038e-10
1.46038e-10
1.46038e-10
1.46038e-10
1.46038e-10
1.46038e-10
1.46038e-10
1.46038e-10
1.46038e-10
1.46038e-10
1.46038e-10
1.46038e-10
1.46038e-10
1.46038e-10
1.46038e-10
1.46038e-10
1.46038e-10
1.46038e-10
1.46038e-10
1.46038e-10
1.46038e-10
1.46038e-10
1.46038e-10
1.46038e-10
1.46038e-10
1.46038e-10
1.46038e-10
1.46038e-10
1.46038e-10
1.46038e-10
1.46038e-10
1.46038e-10
1.46038e-10
1.46038e-10
1.46038e-10
1.46038e-10
1.46038e-10
1.46038e-10
1.46038e-10
1.46038e-10
1.46038e-10
1.46038e-10
1.46038e-10
1.46038e-10
1.46038e-10
1.46038e-10
1.46038e-10
1.46038e-10
1.46038e-10
1.46038e-10
1.46038e-10
1.46038e-10
1.46038e-10
1.46038e-10
1.46038e-10
1.46038e-10
1.46038e-10
1.46038e-10
1.46038e-10
1.46038e-10
1.46038e-10
1.46038e-10
1.46038e-10
1.46038e-10
1.46038e-10
1.46038e-10
1.46038e-10
1.46038e-10
1.46038e-10
1.46038e-10
1.46038e-10
1.46038e-10
1.46038e-10
1.46038e-10
1.46038e-10
1.46038e-10
1.46038e-10
1.46038e-10
1.46038e-10
1.46038e-10
1.46038e-10
1.46038e-10
1.46038e-10
1.46038e-10
1.46038e-10
1.46038e-10
1.46038e-10
1.46038e-10
1.46038e-10
1.46038e-10
1.46038e-10
1.46038e-10
1.46038e-10
1.46038e-10
1.46038e-10
1.46038e-10
1.46038e-10
1.46038e-10
1.46038e-10
1.46038e-10
1.46038e-10
1.46038e-10
1.46038e-10
1.46038e-10
1.46038e-10
1.46038e-10
1.46038e-10
1.46038e-10
1.46038e-10
1.46038e-10
1.46038e-10
1.46038e-10
1.46038e-10
1.46038e-10
1.46038e-10
1.46038e-10
1.46038e-10
1.46038e-10
1.46038e-10
1.46038e-10
1.46038e-10
1.46038e-10
1.46038e-10
1.46038e-10
1.46038e-10
1.46038e-10
1.46038e-10
1.46038e-10
1.46038e-10
1.46038e-10
1.46038e-10
1.46038e-10
1.46038e-10
1.46038e-10
1.46038e-10
1.46038e-10
1.46038e-10
1.46038e-10
1.46038e-10
1.46038e-10
1.46038e-10
1.46038e-10
1.46038e-10
1.46038e-10
1.46038e-10
1.46038e-10
1.46038e-10
1.46038e-10
1.46038e-10
1.46038e-10
1.46038e-10
1.46038e-10
1.46038e-10
1.46038e-10
1.46038e-10
1.46038e-10
1.46038e-10
1.46038e-10
1.46038e-10
1.46038e-10
1.46038e-10
1.46038e-10
1.46038e-10
1.46038e-10
1.46038e-10
1.46038e-10
1.46038e-10
1.46038e-10
1.46038e-10
1.46038e-10
1.46038e-10
1.46038e-10
1.46038e-10
1.46038e-10
1.46038e-10
1.46038e-10
1.46038e-10
1.46038e-10
1.46038e-10
1.46038e-10
1.46038e-10
1.46038e-10
1.46038e-10
1.46038e-10
1.46038e-10
1.46038e-10
1.46038e-10
1.46038e-10
1.46038e-10
1.46038e-10
1.46038e-10
1.46038e-10
1.46038e-10
1.46038e-10
1.46038e-10
1.46038e-10
1.46038e-10
1.46038e-10
1.46038e-10
1.46038e-10
1.46038e-10
1.46038e-10
1.46038e-10
1.46038e-10
1.46038e-10
1.46038e-10
1.46038e-10
1.46038e-10
1.46038e-10
1.46038e-10
1.46038e-10
1.46038e-10
1.46038e-10
1.46038e-10
1.46038e-10
1.46038e-10
1.46038e-10
1.46038e-10
1.46038e-10
1.46038e-10
1.46038e-10
1.46038e-10
1.46038e-10
1.46038e-10
1.46038e-10
1.46038e-10
1.46038e-10
1.46038e-10
1.46038e-10
1.46038e-10
1.46038e-10
1.46038e-10
1.46038e-10
1.46038e-10
1.46038e-10
1.46038e-10
1.46038e-10
1.46038e-10
1.46038e-10
1.46038e-10
1.46038e-10
1.46038e-10
1.46038e-10
1.46038e-10
1.46038e-10
1.46038e-10
1.46038e-10
1.46038e-10
1.46038e-10
1.46038e-10
1.46038e-10
1.46038e-10
1.46038e-10
1.46038e-10
1.46038e-10
1.46038e-10
1.46038e-10
1.46038e-10
1.46038e-10
1.46038e-10
1.46038e-10
1.46038e-10
1.46038e-10
1.46038e-10
1.46038e-10
1.46038e-10
1.46038e-10
1.46038e-10
1.46038e-10
1.46038e-10
1.46038e-10
1.46038e-10
1.46038e-10
1.46038e-10
1.46038e-10
1.46038e-10
1.46038e-10
1.46038e-10
1.46038e-10
1.46038e-10
1.46038e-10
1.46038e-10
1.46038e-10
1.46038e-10
1.46038e-10
1.46038e-10
1.46038e-10
1.46038e-10
1.46038e-10
1.46038e-10
1.46038e-10
1.46038e-10
1.46038e-10
1.46038e-10
1.46038e-10
1.46038e-10
1.46038e-10
1.46038e-10
1.46038e-10
1.46038e-10
1.46038e-10
1.46038e-10
1.46038e-10
1.46038e-10
1.46038e-10
1.46038e-10
1.46038e-10
1.46038e-10
1.46038e-10
1.46038e-10
1.46038e-10
1.46038e-10
1.46038e-10
1.46038e-10
1.46038e-10
1.46038e-10
1.46038e-10
1.46038e-10
1.46038e-10
1.46038e-10
1.46038e-10
1.46038e-10
1.46038e-10
1.46038e-10
1.46038e-10
1.46038e-10
1.46038e-10
1.46038e-10
1.46038e-10
1.46038e-10
1.46038e-10
1.46038e-10
1.46038e-10
1.46038e-10
1.46038e-10
1.46038e-10
1.46038e-10
1.46038e-10
1.46038e-10
1.46038e-10
1.46038e-10
1.46038e-10
1.46038e-10
1.46038e-10
1.46038e-10
1.46038e-10
1.46038e-10
1.46038e-10
1.46038e-10
1.46038e-10
1.46038e-10
1.46038e-10
1.46038e-10
1.46038e-10
1.46038e-10
1.46038e-10
1.46038e-10
1.46038e-10
1.46038e-10
1.46038e-10
1.46038e-10
1.46038e-10
1.46038e-10
1.46038e-10
1.46038e-10
1.46038e-10
1.46038e-10
1.46038e-10
1.46038e-10
1.46038e-10
1.46038e-10
1.46038e-10
1.46038e-10
1.46038e-10
1.46038e-10
1.46038e-10
1.46038e-10
1.46038e-10
1.46038e-10
1.46038e-10
1.46038e-10
1.46038e-10
1.46038e-10
1.46038e-10
1.46038e-10
1.46038e-10
1.46038e-10
1.46038e-10
1.46038e-10
1.46038e-10
1.46038e-10
1.46038e-10
1.46038e-10
1.46038e-10
1.46038e-10
1.46038e-10
1.46038e-10
1.46038e-10
1.46038e-10
1.46038e-10
1.46038e-10
1.46038e-10
1.46038e-10
1.46038e-10
1.46038e-10
1.46038e-10
1.46038e-10
1.46038e-10
1.46038e-10
1.46038e-10
1.46038e-10
1.46038e-10
1.46038e-10
1.46038e-10
1.46038e-10
1.46038e-10
1.46038e-10
1.46038e-10
1.46038e-10
1.46038e-10
1.46038e-10
1.46038e-10
1.46038e-10
1.46038e-10
1.46038e-10
1.46038e-10
1.46038e-10
1.46038e-10
1.46038e-10
1.46038e-10
1.46038e-10
1.46038e-10
1.46038e-10
1.46038e-10
1.46038e-10
1.46038e-10
1.46038e-10
1.46038e-10
1.46038e-10
1.46038e-10
1.46038e-10
1.46038e-10
1.46038e-10
1.46038e-10
1.46038e-10
1.46038e-10
1.46038e-10
1.46038e-10
1.46038e-10
1.46038e-10
1.46038e-10
1.46038e-10
1.46038e-10
1.46038e-10
1.46038e-10
1.46038e-10
1.46038e-10
1.46038e-10
1.46038e-10
1.46038e-10
1.46038e-10
1.46038e-10
1.46038e-10
1.46038e-10
1.46038e-10
1.46038e-10
1.46038e-10
1.46038e-10
1.46038e-10
1.46038e-10
1.46038e-10
1.46038e-10
1.46038e-10
1.46038e-10
1.46038e-10
1.46038e-10
1.46038e-10
1.46038e-10
1.46038e-10
1.46038e-10
1.46038e-10
1.46038e-10
1.46038e-10
1.46038e-10
1.46038e-10
1.46038e-10
1.46038e-10
1.46038e-10
1.46038e-10
1.46038e-10
1.46038e-10
1.46038e-10
1.46038e-10
1.46038e-10
1.46038e-10
1.46038e-10
1.46038e-10
1.46038e-10
1.46038e-10
1.46038e-10
1.46038e-10
1.46038e-10
1.46038e-10
1.46038e-10
1.46038e-10
1.46038e-10
1.46038e-10
1.46038e-10
1.46038e-10
1.46038e-10
1.46038e-10
1.46038e-10
1.46038e-10
1.46038e-10
1.46038e-10
1.46038e-10
1.46038e-10
1.46038e-10
1.46038e-10
1.46038e-10
1.46038e-10
1.46038e-10
1.46038e-10
1.46038e-10
1.46038e-10
1.46038e-10
1.46038e-10
1.46038e-10
1.46038e-10
1.46038e-10
1.46038e-10
1.46038e-10
1.46038e-10
1.46038e-10
1.46038e-10
1.46038e-10
1.46038e-10
1.46038e-10
1.46038e-10
1.46038e-10
1.46038e-10
1.46038e-10
1.46038e-10
1.46038e-10
1.46038e-10
1.46038e-10
1.46038e-10
1.46038e-10
1.46038e-10
1.46038e-10
1.46038e-10
1.46038e-10
1.46038e-10
1.46038e-10
1.46038e-10
1.46038e-10
1.46038e-10
1.46038e-10
1.46038e-10
1.46038e-10
1.46038e-10
1.46038e-10
1.46038e-10
1.46038e-10
1.46038e-10
1.46038e-10
1.46038e-10
1.46038e-10
1.46038e-10
1.46038e-10
1.46038e-10
1.46038e-10
1.46038e-10
1.46038e-10
1.46038e-10
1.46038e-10
1.46038e-10
1.46038e-10
1.46038e-10
1.46038e-10
1.46038e-10
1.46038e-10
1.46038e-10
1.46038e-10
1.46038e-10
1.46038e-10
1.46038e-10
1.46038e-10
1.46038e-10
1.46038e-10
1.46038e-10
1.46038e-10
1.46038e-10
1.46038e-10
1.46038e-10
1.46038e-10
1.46038e-10
1.46038e-10
1.46038e-10
1.46038e-10
1.46038e-10
1.46038e-10
1.46038e-10
1.46038e-10
1.46038e-10
1.46038e-10
1.46038e-10
1.46038e-10
1.46038e-10
1.46038e-10
1.46038e-10
1.46038e-10
1.46038e-10
1.46038e-10
1.46038e-10
1.46038e-10
1.46038e-10
1.46038e-10
1.46038e-10
1.46038e-10
1.46038e-10
1.46038e-10
1.46038e-10
1.46038e-10
1.46038e-10
1.46038e-10
1.46038e-10
1.46038e-10
1.46038e-10
1.46038e-10
1.46038e-10
1.46038e-10
1.46038e-10
1.46038e-10
1.46038e-10
1.46038e-10
1.46038e-10
1.46038e-10
1.46038e-10
1.46038e-10
1.46038e-10
1.46038e-10
1.46038e-10
1.46038e-10
1.46038e-10
1.46038e-10
1.46038e-10
1.46038e-10
1.46038e-10
1.46038e-10
1.46038e-10
1.46038e-10
1.46038e-10
1.46038e-10
1.46038e-10
1.46038e-10
1.46038e-10
1.46038e-10
1.46038e-10
1.46038e-10
1.46038e-10
1.46038e-10
1.46038e-10
1.46038e-10
1.46038e-10
1.46038e-10
1.46038e-10
1.46038e-10
1.46038e-10
1.46038e-10
1.46038e-10
1.46039e-10
1.46038e-10
1.46038e-10
1.46038e-10
1.46038e-10
1.46038e-10
1.46038e-10
1.46038e-10
1.46038e-10
1.46038e-10
1.46038e-10
1.46038e-10
1.46038e-10
1.46038e-10
1.46038e-10
1.46038e-10
1.46038e-10
1.46038e-10
1.46038e-10
1.46038e-10
1.46038e-10
1.46038e-10
1.46038e-10
1.46038e-10
1.46038e-10
1.46038e-10
1.46038e-10
1.46038e-10
1.46038e-10
1.46038e-10
1.46038e-10
1.46038e-10
1.46038e-10
1.46038e-10
1.46038e-10
1.46038e-10
1.46038e-10
1.46038e-10
1.46038e-10
1.46038e-10
1.46038e-10
1.46038e-10
1.46038e-10
1.46038e-10
1.46038e-10
1.46038e-10
1.46038e-10
1.46038e-10
1.46038e-10
1.46038e-10
1.46038e-10
1.46038e-10
1.46038e-10
1.46038e-10
1.46038e-10
1.46038e-10
1.46038e-10
1.46038e-10
1.46038e-10
1.46038e-10
1.46038e-10
1.46038e-10
1.46038e-10
1.46038e-10
1.46038e-10
1.46038e-10
1.46038e-10
1.46038e-10
1.46038e-10
1.46038e-10
1.46038e-10
1.46038e-10
1.46038e-10
1.46038e-10
1.46038e-10
1.46038e-10
1.46038e-10
1.46038e-10
1.46038e-10
1.46038e-10
1.46038e-10
1.46038e-10
1.46038e-10
1.46038e-10
1.46038e-10
1.46038e-10
1.46038e-10
1.46038e-10
1.46038e-10
1.46038e-10
1.46038e-10
1.46038e-10
1.46038e-10
1.46038e-10
1.46038e-10
1.46038e-10
1.46039e-10
1.46039e-10
1.46039e-10
1.46039e-10
1.46039e-10
1.46039e-10
1.46039e-10
1.4604e-10
1.4604e-10
1.4604e-10
1.46041e-10
1.46041e-10
1.46041e-10
1.46042e-10
1.46042e-10
1.46038e-10
1.46038e-10
1.46038e-10
1.46038e-10
1.46038e-10
1.46038e-10
1.46038e-10
1.46038e-10
1.46038e-10
1.46038e-10
1.46038e-10
1.46038e-10
1.46038e-10
1.46038e-10
1.46038e-10
1.46038e-10
1.46038e-10
1.46038e-10
1.46038e-10
1.46038e-10
1.46038e-10
1.46038e-10
1.46038e-10
1.46038e-10
1.46038e-10
1.46038e-10
1.46038e-10
1.46038e-10
1.46038e-10
1.46038e-10
1.46038e-10
1.46038e-10
1.46038e-10
1.46038e-10
1.46038e-10
1.46038e-10
1.46038e-10
1.46038e-10
1.46038e-10
1.46038e-10
1.46038e-10
1.46038e-10
1.46038e-10
1.46038e-10
1.46038e-10
1.46038e-10
1.46038e-10
1.46038e-10
1.46038e-10
1.46038e-10
1.46038e-10
1.46038e-10
1.46038e-10
1.46038e-10
1.46038e-10
1.46038e-10
1.46038e-10
1.46038e-10
1.46038e-10
1.46038e-10
1.46038e-10
1.46038e-10
1.46038e-10
1.46038e-10
1.46038e-10
1.46038e-10
1.46038e-10
1.46038e-10
1.46038e-10
1.46038e-10
1.46038e-10
1.46038e-10
1.46038e-10
1.46038e-10
1.46038e-10
1.46038e-10
1.46038e-10
1.46038e-10
1.46038e-10
1.46038e-10
1.46038e-10
1.46039e-10
1.46039e-10
1.46039e-10
1.46039e-10
1.46039e-10
1.46039e-10
1.46039e-10
1.46039e-10
1.4604e-10
1.4604e-10
1.4604e-10
1.46041e-10
1.46041e-10
1.46041e-10
1.46042e-10
1.46042e-10
1.46043e-10
1.46044e-10
1.46044e-10
1.46045e-10
1.46046e-10
1.46047e-10
1.46049e-10
1.4605e-10
1.46051e-10
1.46053e-10
1.46055e-10
1.46058e-10
1.46061e-10
1.46064e-10
1.46038e-10
1.46038e-10
1.46038e-10
1.46038e-10
1.46038e-10
1.46038e-10
1.46038e-10
1.46038e-10
1.46038e-10
1.46038e-10
1.46038e-10
1.46038e-10
1.46038e-10
1.46038e-10
1.46038e-10
1.46038e-10
1.46038e-10
1.46038e-10
1.46038e-10
1.46038e-10
1.46038e-10
1.46038e-10
1.46038e-10
1.46038e-10
1.46038e-10
1.46038e-10
1.46038e-10
1.46038e-10
1.46038e-10
1.46038e-10
1.46038e-10
1.46038e-10
1.46038e-10
1.46038e-10
1.46038e-10
1.46038e-10
1.46038e-10
1.46038e-10
1.46038e-10
1.46038e-10
1.46038e-10
1.46038e-10
1.46038e-10
1.46038e-10
1.46038e-10
1.46038e-10
1.46038e-10
1.46038e-10
1.46038e-10
1.46038e-10
1.46038e-10
1.46038e-10
1.46038e-10
1.46038e-10
1.46038e-10
1.46038e-10
1.46038e-10
1.46038e-10
1.46038e-10
1.46038e-10
1.46038e-10
1.46038e-10
1.46038e-10
1.46038e-10
1.46038e-10
1.46039e-10
1.46039e-10
1.46039e-10
1.46039e-10
1.46039e-10
1.46039e-10
1.46039e-10
1.46039e-10
1.46039e-10
1.4604e-10
1.4604e-10
1.4604e-10
1.4604e-10
1.46041e-10
1.46041e-10
1.46041e-10
1.46042e-10
1.46042e-10
1.46043e-10
1.46044e-10
1.46044e-10
1.46045e-10
1.46046e-10
1.46047e-10
1.46048e-10
1.4605e-10
1.46051e-10
1.46053e-10
1.46055e-10
1.46057e-10
1.46059e-10
1.46062e-10
1.46065e-10
1.46069e-10
1.46073e-10
1.46078e-10
1.46083e-10
1.46089e-10
1.46096e-10
1.46103e-10
1.46111e-10
1.46121e-10
1.46133e-10
1.46146e-10
1.46162e-10
1.4618e-10
1.46201e-10
1.46223e-10
1.46038e-10
1.46038e-10
1.46038e-10
1.46038e-10
1.46038e-10
1.46038e-10
1.46038e-10
1.46038e-10
1.46038e-10
1.46038e-10
1.46038e-10
1.46038e-10
1.46038e-10
1.46038e-10
1.46038e-10
1.46038e-10
1.46038e-10
1.46038e-10
1.46038e-10
1.46038e-10
1.46038e-10
1.46038e-10
1.46038e-10
1.46038e-10
1.46038e-10
1.46038e-10
1.46038e-10
1.46038e-10
1.46038e-10
1.46038e-10
1.46038e-10
1.46038e-10
1.46038e-10
1.46038e-10
1.46038e-10
1.46038e-10
1.46038e-10
1.46038e-10
1.46038e-10
1.46038e-10
1.46038e-10
1.46038e-10
1.46038e-10
1.46038e-10
1.46038e-10
1.46038e-10
1.46039e-10
1.46039e-10
1.46039e-10
1.46039e-10
1.46039e-10
1.46039e-10
1.46039e-10
1.46039e-10
1.46039e-10
1.46039e-10
1.4604e-10
1.4604e-10
1.4604e-10
1.4604e-10
1.4604e-10
1.4604e-10
1.46041e-10
1.46041e-10
1.46041e-10
1.46042e-10
1.46042e-10
1.46043e-10
1.46043e-10
1.46044e-10
1.46044e-10
1.46045e-10
1.46046e-10
1.46047e-10
1.46048e-10
1.46049e-10
1.4605e-10
1.46051e-10
1.46053e-10
1.46055e-10
1.46057e-10
1.46059e-10
1.46061e-10
1.46064e-10
1.46067e-10
1.46071e-10
1.46075e-10
1.4608e-10
1.46085e-10
1.46092e-10
1.46099e-10
1.46106e-10
1.46115e-10
1.46124e-10
1.46135e-10
1.46147e-10
1.46162e-10
1.46179e-10
1.46198e-10
1.46221e-10
1.46246e-10
1.46275e-10
1.46306e-10
1.46341e-10
1.46379e-10
1.46423e-10
1.46474e-10
1.46536e-10
1.46609e-10
1.46695e-10
1.46793e-10
1.46904e-10
1.47027e-10
1.46038e-10
1.46038e-10
1.46038e-10
1.46038e-10
1.46038e-10
1.46038e-10
1.46038e-10
1.46038e-10
1.46038e-10
1.46038e-10
1.46038e-10
1.46038e-10
1.46038e-10
1.46038e-10
1.46038e-10
1.46038e-10
1.46038e-10
1.46038e-10
1.46038e-10
1.46038e-10
1.46038e-10
1.46038e-10
1.46038e-10
1.46038e-10
1.46038e-10
1.46039e-10
1.46039e-10
1.46039e-10
1.46039e-10
1.46039e-10
1.46039e-10
1.46039e-10
1.46039e-10
1.46039e-10
1.46039e-10
1.46039e-10
1.46039e-10
1.4604e-10
1.4604e-10
1.4604e-10
1.4604e-10
1.4604e-10
1.4604e-10
1.4604e-10
1.46041e-10
1.46041e-10
1.46041e-10
1.46041e-10
1.46042e-10
1.46042e-10
1.46042e-10
1.46043e-10
1.46043e-10
1.46043e-10
1.46044e-10
1.46044e-10
1.46045e-10
1.46046e-10
1.46046e-10
1.46047e-10
1.46048e-10
1.46049e-10
1.4605e-10
1.46051e-10
1.46052e-10
1.46053e-10
1.46055e-10
1.46057e-10
1.46059e-10
1.46061e-10
1.46063e-10
1.46066e-10
1.46069e-10
1.46072e-10
1.46076e-10
1.4608e-10
1.46085e-10
1.46091e-10
1.46097e-10
1.46104e-10
1.46112e-10
1.46121e-10
1.46131e-10
1.46142e-10
1.46154e-10
1.46168e-10
1.46184e-10
1.46202e-10
1.46223e-10
1.46248e-10
1.46275e-10
1.46307e-10
1.46342e-10
1.46381e-10
1.46424e-10
1.46472e-10
1.46526e-10
1.46589e-10
1.46663e-10
1.46751e-10
1.46853e-10
1.46969e-10
1.47101e-10
1.47247e-10
1.47408e-10
1.47583e-10
1.47778e-10
1.48e-10
1.48265e-10
1.48583e-10
1.48962e-10
1.49404e-10
1.49908e-10
1.5047e-10
1.51086e-10
1.46038e-10
1.46038e-10
1.46038e-10
1.46038e-10
1.46039e-10
1.46039e-10
1.46039e-10
1.46039e-10
1.46039e-10
1.46039e-10
1.46039e-10
1.46039e-10
1.46039e-10
1.46039e-10
1.46039e-10
1.4604e-10
1.4604e-10
1.4604e-10
1.4604e-10
1.4604e-10
1.4604e-10
1.46041e-10
1.46041e-10
1.46041e-10
1.46041e-10
1.46041e-10
1.46042e-10
1.46042e-10
1.46042e-10
1.46043e-10
1.46043e-10
1.46043e-10
1.46044e-10
1.46044e-10
1.46044e-10
1.46045e-10
1.46045e-10
1.46046e-10
1.46046e-10
1.46047e-10
1.46048e-10
1.46048e-10
1.46049e-10
1.4605e-10
1.46051e-10
1.46052e-10
1.46053e-10
1.46054e-10
1.46055e-10
1.46056e-10
1.46058e-10
1.46059e-10
1.46061e-10
1.46063e-10
1.46065e-10
1.46068e-10
1.4607e-10
1.46073e-10
1.46076e-10
1.4608e-10
1.46084e-10
1.46088e-10
1.46093e-10
1.46098e-10
1.46104e-10
1.4611e-10
1.46118e-10
1.46126e-10
1.46136e-10
1.46147e-10
1.46158e-10
1.46171e-10
1.46185e-10
1.46201e-10
1.46219e-10
1.46239e-10
1.46263e-10
1.4629e-10
1.4632e-10
1.46355e-10
1.46394e-10
1.46438e-10
1.46486e-10
1.46539e-10
1.46598e-10
1.46665e-10
1.46742e-10
1.46832e-10
1.46937e-10
1.47058e-10
1.47197e-10
1.47354e-10
1.47527e-10
1.47718e-10
1.47927e-10
1.48159e-10
1.48423e-10
1.48732e-10
1.49099e-10
1.49531e-10
1.50033e-10
1.50603e-10
1.5124e-10
1.51939e-10
1.52698e-10
1.53518e-10
1.54419e-10
1.55454e-10
1.567e-10
1.58205e-10
1.59981e-10
1.62013e-10
1.6427e-10
1.66717e-10
1.6932e-10
1.72053e-10
1.46039e-10
1.46039e-10
1.46039e-10
1.46039e-10
1.4604e-10
1.4604e-10
1.4604e-10
1.4604e-10
1.4604e-10
1.46041e-10
1.46041e-10
1.46041e-10
1.46042e-10
1.46042e-10
1.46042e-10
1.46043e-10
1.46043e-10
1.46043e-10
1.46044e-10
1.46044e-10
1.46045e-10
1.46045e-10
1.46046e-10
1.46046e-10
1.46047e-10
1.46048e-10
1.46048e-10
1.46049e-10
1.4605e-10
1.46051e-10
1.46052e-10
1.46053e-10
1.46054e-10
1.46055e-10
1.46056e-10
1.46057e-10
1.46059e-10
1.4606e-10
1.46061e-10
1.46063e-10
1.46065e-10
1.46066e-10
1.46068e-10
1.4607e-10
1.46073e-10
1.46075e-10
1.46078e-10
1.46081e-10
1.46084e-10
1.46087e-10
1.46091e-10
1.46095e-10
1.46099e-10
1.46104e-10
1.46108e-10
1.46114e-10
1.4612e-10
1.46126e-10
1.46133e-10
1.46141e-10
1.4615e-10
1.4616e-10
1.46171e-10
1.46183e-10
1.46197e-10
1.46211e-10
1.46227e-10
1.46244e-10
1.46264e-10
1.46285e-10
1.46309e-10
1.46336e-10
1.46367e-10
1.46403e-10
1.46442e-10
1.46487e-10
1.46536e-10
1.46591e-10
1.4665e-10
1.46716e-10
1.4679e-10
1.46873e-10
1.46969e-10
1.47079e-10
1.47207e-10
1.47354e-10
1.4752e-10
1.47706e-10
1.47911e-10
1.48137e-10
1.48385e-10
1.48659e-10
1.4897e-10
1.49332e-10
1.49757e-10
1.50253e-10
1.50823e-10
1.51469e-10
1.52189e-10
1.5298e-10
1.5384e-10
1.5477e-10
1.55791e-10
1.56954e-10
1.58331e-10
1.5997e-10
1.61883e-10
1.64058e-10
1.66468e-10
1.69082e-10
1.71866e-10
1.74794e-10
1.77861e-10
1.81129e-10
1.84831e-10
1.89251e-10
1.9444e-10
2.00281e-10
2.06604e-10
2.1324e-10
2.20041e-10
2.26898e-10
2.33732e-10
1.46043e-10
1.46044e-10
1.46045e-10
1.46045e-10
1.46046e-10
1.46047e-10
1.46048e-10
1.46048e-10
1.46049e-10
1.4605e-10
1.46052e-10
1.46053e-10
1.46054e-10
1.46055e-10
1.46057e-10
1.46058e-10
1.4606e-10
1.46062e-10
1.46063e-10
1.46065e-10
1.46067e-10
1.4607e-10
1.46072e-10
1.46074e-10
1.46077e-10
1.4608e-10
1.46083e-10
1.46086e-10
1.46089e-10
1.46093e-10
1.46096e-10
1.46101e-10
1.46105e-10
1.46109e-10
1.46114e-10
1.4612e-10
1.46125e-10
1.46131e-10
1.46137e-10
1.46144e-10
1.46151e-10
1.46158e-10
1.46167e-10
1.46175e-10
1.46185e-10
1.46196e-10
1.46207e-10
1.4622e-10
1.46233e-10
1.46248e-10
1.46264e-10
1.46281e-10
1.463e-10
1.46319e-10
1.46341e-10
1.46364e-10
1.4639e-10
1.46419e-10
1.46451e-10
1.46486e-10
1.46526e-10
1.4657e-10
1.46619e-10
1.46673e-10
1.46732e-10
1.46796e-10
1.46866e-10
1.46943e-10
1.47028e-10
1.47123e-10
1.47232e-10
1.47356e-10
1.47498e-10
1.47659e-10
1.47839e-10
1.48041e-10
1.48264e-10
1.48509e-10
1.48777e-10
1.4907e-10
1.49397e-10
1.49769e-10
1.50199e-10
1.50698e-10
1.51273e-10
1.51926e-10
1.52659e-10
1.5347e-10
1.54359e-10
1.55324e-10
1.5637e-10
1.57517e-10
1.5882e-10
1.60344e-10
1.62131e-10
1.64195e-10
1.66522e-10
1.69088e-10
1.71865e-10
1.74823e-10
1.77938e-10
1.81204e-10
1.84679e-10
1.88574e-10
1.93135e-10
1.98402e-10
2.04269e-10
2.10588e-10
2.17213e-10
2.24014e-10
2.30884e-10
2.37744e-10
2.44579e-10
2.51475e-10
2.59137e-10
2.68574e-10
2.79151e-10
2.90118e-10
3.00942e-10
3.11296e-10
3.20979e-10
3.29898e-10
3.3806e-10
1.46061e-10
1.46064e-10
1.46066e-10
1.46069e-10
1.46072e-10
1.46075e-10
1.46079e-10
1.46082e-10
1.46086e-10
1.4609e-10
1.46095e-10
1.46099e-10
1.46104e-10
1.4611e-10
1.46116e-10
1.46122e-10
1.46129e-10
1.46136e-10
1.46143e-10
1.46151e-10
1.46159e-10
1.46168e-10
1.46177e-10
1.46187e-10
1.46198e-10
1.46209e-10
1.46221e-10
1.46234e-10
1.46248e-10
1.46262e-10
1.46278e-10
1.46295e-10
1.46313e-10
1.46332e-10
1.46352e-10
1.46374e-10
1.46397e-10
1.46421e-10
1.46446e-10
1.46474e-10
1.46503e-10
1.46534e-10
1.46569e-10
1.46606e-10
1.46647e-10
1.46691e-10
1.4674e-10
1.46793e-10
1.4685e-10
1.46912e-10
1.46979e-10
1.47051e-10
1.47128e-10
1.47212e-10
1.47302e-10
1.47401e-10
1.47511e-10
1.47634e-10
1.47772e-10
1.47926e-10
1.48099e-10
1.4829e-10
1.48501e-10
1.48733e-10
1.48986e-10
1.4926e-10
1.49559e-10
1.49884e-10
1.50245e-10
1.50651e-10
1.51116e-10
1.51647e-10
1.52251e-10
1.52931e-10
1.5369e-10
1.54528e-10
1.55446e-10
1.56442e-10
1.57519e-10
1.58688e-10
1.59981e-10
1.61456e-10
1.63166e-10
1.65136e-10
1.67371e-10
1.69856e-10
1.72571e-10
1.75491e-10
1.78593e-10
1.81857e-10
1.85284e-10
1.88936e-10
1.93018e-10
1.9772e-10
2.03057e-10
2.08936e-10
2.15229e-10
2.21807e-10
2.28559e-10
2.35392e-10
2.42234e-10
2.49066e-10
2.55965e-10
2.6358e-10
2.72713e-10
2.82821e-10
2.93261e-10
3.03575e-10
3.1348e-10
3.22801e-10
3.31438e-10
3.39371e-10
3.46607e-10
3.53164e-10
3.59029e-10
3.64137e-10
3.68647e-10
3.727e-10
3.76345e-10
3.79601e-10
3.82481e-10
3.85016e-10
3.87233e-10
1.46134e-10
1.46144e-10
1.46154e-10
1.46165e-10
1.46177e-10
1.46189e-10
1.46203e-10
1.46217e-10
1.46232e-10
1.46249e-10
1.46266e-10
1.46285e-10
1.46306e-10
1.46327e-10
1.46351e-10
1.46375e-10
1.46402e-10
1.4643e-10
1.4646e-10
1.46491e-10
1.46525e-10
1.4656e-10
1.46597e-10
1.46637e-10
1.46678e-10
1.46723e-10
1.46771e-10
1.46822e-10
1.46877e-10
1.46936e-10
1.46999e-10
1.47066e-10
1.47138e-10
1.47214e-10
1.47295e-10
1.47381e-10
1.47472e-10
1.47568e-10
1.4767e-10
1.47778e-10
1.47896e-10
1.48023e-10
1.48163e-10
1.48315e-10
1.48482e-10
1.48665e-10
1.48864e-10
1.4908e-10
1.49314e-10
1.49566e-10
1.49837e-10
1.50127e-10
1.50438e-10
1.50771e-10
1.51133e-10
1.51531e-10
1.51974e-10
1.52471e-10
1.53028e-10
1.53648e-10
1.54336e-10
1.55093e-10
1.55921e-10
1.56822e-10
1.57796e-10
1.58844e-10
1.5997e-10
1.61188e-10
1.62531e-10
1.64048e-10
1.65781e-10
1.67748e-10
1.69953e-10
1.72385e-10
1.75033e-10
1.7788e-10
1.80908e-10
1.84104e-10
1.87458e-10
1.90994e-10
1.94815e-10
1.99123e-10
2.03996e-10
2.09399e-10
2.15245e-10
2.21433e-10
2.27863e-10
2.34448e-10
2.41115e-10
2.47811e-10
2.54524e-10
2.61336e-10
2.68938e-10
2.77789e-10
2.87414e-10
2.97304e-10
3.0708e-10
3.16499e-10
3.25408e-10
3.3372e-10
3.41415e-10
3.48488e-10
3.54937e-10
3.60759e-10
3.65917e-10
3.70504e-10
3.74614e-10
3.78336e-10
3.81717e-10
3.84762e-10
3.87475e-10
3.89876e-10
3.91994e-10
3.93855e-10
3.95477e-10
3.96921e-10
3.98259e-10
3.99516e-10
4.00795e-10
4.02187e-10
4.03652e-10
4.05148e-10
4.06669e-10
4.082e-10
4.09713e-10
1.46421e-10
1.46458e-10
1.46498e-10
1.46541e-10
1.46587e-10
1.46636e-10
1.46688e-10
1.46745e-10
1.46805e-10
1.46869e-10
1.46938e-10
1.47011e-10
1.4709e-10
1.47175e-10
1.47265e-10
1.47361e-10
1.47463e-10
1.47571e-10
1.47685e-10
1.47806e-10
1.47934e-10
1.48068e-10
1.4821e-10
1.4836e-10
1.48521e-10
1.48693e-10
1.48878e-10
1.49077e-10
1.4929e-10
1.49517e-10
1.49761e-10
1.50021e-10
1.50296e-10
1.50589e-10
1.50898e-10
1.51224e-10
1.51567e-10
1.51928e-10
1.52311e-10
1.5272e-10
1.53163e-10
1.53646e-10
1.54173e-10
1.54749e-10
1.55377e-10
1.56058e-10
1.56796e-10
1.5759e-10
1.58444e-10
1.59357e-10
1.60329e-10
1.61363e-10
1.62459e-10
1.63625e-10
1.64882e-10
1.66266e-10
1.6781e-10
1.69534e-10
1.71446e-10
1.73547e-10
1.75832e-10
1.78295e-10
1.80928e-10
1.83722e-10
1.86669e-10
1.8976e-10
1.92995e-10
1.96408e-10
2.00108e-10
2.04236e-10
2.08832e-10
2.13863e-10
2.19265e-10
2.24969e-10
2.30908e-10
2.37021e-10
2.43254e-10
2.49561e-10
2.55909e-10
2.62325e-10
2.68997e-10
2.76743e-10
2.85358e-10
2.94429e-10
3.03612e-10
3.12654e-10
3.21382e-10
3.2969e-10
3.37506e-10
3.44814e-10
3.51609e-10
3.57878e-10
3.63569e-10
3.68678e-10
3.73307e-10
3.77519e-10
3.81364e-10
3.84892e-10
3.88123e-10
3.91068e-10
3.93743e-10
3.96151e-10
3.98316e-10
4.0028e-10
4.02082e-10
4.03778e-10
4.05431e-10
4.07079e-10
4.08749e-10
4.10496e-10
4.12342e-10
4.14237e-10
4.16154e-10
4.18079e-10
4.20002e-10
4.21906e-10
4.23794e-10
4.25708e-10
4.2772e-10
4.29837e-10
4.32063e-10
4.34446e-10
4.3698e-10
4.39628e-10
4.42366e-10
1.47527e-10
1.47667e-10
1.47818e-10
1.4798e-10
1.48153e-10
1.48337e-10
1.48533e-10
1.48742e-10
1.48966e-10
1.49206e-10
1.49463e-10
1.49738e-10
1.50032e-10
1.50346e-10
1.5068e-10
1.51036e-10
1.51412e-10
1.51809e-10
1.52226e-10
1.52664e-10
1.53123e-10
1.53604e-10
1.54112e-10
1.5465e-10
1.55224e-10
1.55838e-10
1.56494e-10
1.57193e-10
1.57939e-10
1.58732e-10
1.59572e-10
1.6046e-10
1.61397e-10
1.6238e-10
1.6341e-10
1.64486e-10
1.65608e-10
1.66779e-10
1.6801e-10
1.69326e-10
1.7075e-10
1.72299e-10
1.73982e-10
1.75803e-10
1.77761e-10
1.79854e-10
1.82079e-10
1.84432e-10
1.86908e-10
1.89501e-10
1.92207e-10
1.95019e-10
1.97937e-10
2.00977e-10
2.04199e-10
2.07716e-10
2.11573e-10
2.15761e-10
2.20251e-10
2.25009e-10
2.3e-10
2.35189e-10
2.40544e-10
2.46031e-10
2.51619e-10