/*--------------------------------*- C++ -*----------------------------------*\
| =========                 |                                                 |
| \\      /  F ield         | OpenFOAM: The Open Source CFD Toolbox           |
|  \\    /   O peration     | Version:  v1706                                 |
|   \\  /    A nd           | Web:      www.OpenFOAM.com                      |
|    \\/     M anipulation  |                                                 |
\*---------------------------------------------------------------------------*/
FoamFile
{
    version     2.0;
    format      ascii;
    class       volScalarField;
    location    "3.2e-05";
    object      kappatr;
}
// * * * * * * * * * * * * * * * * * * * * * * * * * * * * * * * * * * * * * //

dimensions      [1 1 -3 -1 0 0 0];


internalField   nonuniform List<scalar> 
29871
(
0.014593
0.014593
0.014593
0.014593
0.014593
0.014593
0.014593
0.014593
0.014593
0.014593
0.014593
0.014593
0.014593
0.014593
0.014593
0.014593
0.014593
0.014593
0.014593
0.014593
0.014593
0.014593
0.014593
0.014593
0.014593
0.014593
0.014593
0.014593
0.014593
0.014593
0.014593
0.014593
0.014593
0.014593
0.014593
0.014593
0.014593
0.014593
0.014593
0.014593
0.014593
0.014593
0.014593
0.014593
0.014593
0.014593
0.014593
0.014593
0.014593
0.014593
0.014593
0.014593
0.014593
0.014593
0.014593
0.014593
0.014593
0.014593
0.014593
0.014593
0.014593
0.014593
0.014593
0.014593
0.014593
0.014593
0.014593
0.014593
0.014593
0.014593
0.014593
0.014593
0.014593
0.014593
0.014593
0.014593
0.014593
0.014593
0.014593
0.014593
0.014593
0.014593
0.014593
0.014593
0.014593
0.014593
0.014593
0.014593
0.014593
0.014593
0.014593
0.014593
0.014593
0.014593
0.014593
0.014593
0.014593
0.014593
0.014593
0.014593
0.014593
0.014593
0.014593
0.014593
0.014593
0.014593
0.014593
0.014593
0.014593
0.014593
0.014593
0.014593
0.014593
0.014593
0.014593
0.014593
0.014593
0.014593
0.014593
0.014593
0.014593
0.014593
0.014593
0.014593
0.014593
0.014593
0.014593
0.014593
0.014593
0.014593
0.014593
0.014593
0.014593
0.014593
0.014593
0.014593
0.014593
0.014593
0.014593
0.014593
0.014593
0.014593
0.014593
0.014593
0.014593
0.014593
0.014593
0.014593
0.014593
0.014593
0.014593
0.014593
0.014593
0.014593
0.014593
0.014593
0.014593
0.014593
0.014593
0.014593
0.014593
0.014593
0.014593
0.014593
0.014593
0.014593
0.014593
0.014593
0.014593
0.014593
0.014593
0.014593
0.014593
0.014593
0.014593
0.014593
0.014593
0.014593
0.014593
0.014593
0.014593
0.014593
0.014593
0.014593
0.014593
0.014593
0.014593
0.014593
0.014593
0.014593
0.014593
0.014593
0.014593
0.014593
0.014593
0.014593
0.014593
0.014593
0.014593
0.014593
0.014593
0.014593
0.014593
0.014593
0.014593
0.014593
0.014593
0.014593
0.014593
0.014593
0.014593
0.014593
0.014593
0.014593
0.014593
0.014593
0.014593
0.014593
0.014593
0.014593
0.014593
0.014593
0.014593
0.014593
0.014593
0.014593
0.014593
0.014593
0.014593
0.014593
0.014593
0.014593
0.014593
0.014593
0.014593
0.014593
0.014593
0.014593
0.014593
0.014593
0.014593
0.014593
0.014593
0.014593
0.014593
0.014593
0.014593
0.014593
0.014593
0.014593
0.014593
0.014593
0.014593
0.014593
0.014593
0.014593
0.014593
0.014593
0.014593
0.014593
0.014593
0.014593
0.014593
0.014593
0.014593
0.014593
0.014593
0.014593
0.014593
0.014593
0.014593
0.014593
0.014593
0.014593
0.014593
0.014593
0.014593
0.014593
0.014593
0.014593
0.014593
0.014593
0.014593
0.014593
0.014593
0.014593
0.014593
0.014593
0.014593
0.014593
0.014593
0.014593
0.014593
0.014593
0.014593
0.014593
0.014593
0.014593
0.014593
0.014593
0.014593
0.014593
0.014593
0.014593
0.014593
0.014593
0.014593
0.014593
0.014593
0.014593
0.014593
0.014593
0.014593
0.014593
0.014593
0.014593
0.014593
0.014593
0.014593
0.014593
0.014593
0.014593
0.014593
0.014593
0.014593
0.014593
0.014593
0.014593
0.014593
0.014593
0.014593
0.014593
0.014593
0.014593
0.014593
0.014593
0.014593
0.014593
0.014593
0.014593
0.014593
0.014593
0.014593
0.014593
0.014593
0.014593
0.014593
0.014593
0.014593
0.014593
0.014593
0.014593
0.014593
0.014593
0.014593
0.014593
0.014593
0.014593
0.014593
0.014593
0.014593
0.014593
0.014593
0.014593
0.014593
0.014593
0.014593
0.014593
0.014593
0.014593
0.014593
0.014593
0.014593
0.014593
0.014593
0.014593
0.014593
0.014593
0.014593
0.014593
0.014593
0.014593
0.014593
0.014593
0.014593
0.014593
0.014593
0.014593
0.014593
0.014593
0.014593
0.014593
0.014593
0.014593
0.014593
0.014593
0.014593
0.014593
0.014593
0.014593
0.014593
0.014593
0.014593
0.014593
0.014593
0.014593
0.014593
0.014593
0.014593
0.014593
0.014593
0.014593
0.014593
0.014593
0.014593
0.014593
0.014593
0.014593
0.014593
0.014593
0.014593
0.014593
0.014593
0.014593
0.014593
0.014593
0.014593
0.014593
0.014593
0.014593
0.014593
0.014593
0.014593
0.014593
0.014593
0.014593
0.014593
0.014593
0.014593
0.014593
0.014593
0.014593
0.014593
0.014593
0.014593
0.014593
0.014593
0.014593
0.014593
0.014593
0.014593
0.014593
0.014593
0.014593
0.014593
0.014593
0.014593
0.014593
0.014593
0.014593
0.014593
0.014593
0.014593
0.014593
0.014593
0.014593
0.014593
0.014593
0.014593
0.014593
0.014593
0.014593
0.014593
0.014593
0.014593
0.014593
0.014593
0.014593
0.014593
0.014593
0.014593
0.014593
0.014593
0.014593
0.014593
0.014593
0.014593
0.014593
0.014593
0.014593
0.014593
0.014593
0.014593
0.014593
0.014593
0.014593
0.014593
0.014593
0.014593
0.014593
0.014593
0.014593
0.014593
0.014593
0.014593
0.014593
0.014593
0.014593
0.014593
0.014593
0.014593
0.014593
0.014593
0.014593
0.014593
0.014593
0.014593
0.014593
0.014593
0.014593
0.014593
0.014593
0.014593
0.014593
0.014593
0.014593
0.014593
0.014593
0.014593
0.014593
0.014593
0.014593
0.014593
0.014593
0.014593
0.014593
0.014593
0.014593
0.014593
0.014593
0.014593
0.014593
0.014593
0.014593
0.014593
0.014593
0.014593
0.014593
0.014593
0.014593
0.014593
0.014593
0.014593
0.014593
0.014593
0.014593
0.014593
0.014593
0.014593
0.014593
0.014593
0.014593
0.014593
0.014593
0.014593
0.014593
0.014593
0.014593
0.014593
0.014593
0.014593
0.014593
0.014593
0.014593
0.014593
0.014593
0.014593
0.014593
0.014593
0.014593
0.014593
0.014593
0.014593
0.014593
0.014593
0.014593
0.014593
0.014593
0.014593
0.014593
0.014593
0.014593
0.014593
0.014593
0.014593
0.014593
0.014593
0.014593
0.014593
0.014593
0.014593
0.014593
0.014593
0.014593
0.014593
0.014593
0.014593
0.014593
0.014593
0.014593
0.014593
0.014593
0.014593
0.014593
0.014593
0.014593
0.014593
0.014593
0.014593
0.014593
0.014593
0.014593
0.014593
0.014593
0.014593
0.014593
0.014593
0.014593
0.014593
0.014593
0.014593
0.014593
0.014593
0.014593
0.014593
0.014593
0.014593
0.014593
0.014593
0.014593
0.014593
0.014593
0.014593
0.014593
0.014593
0.014593
0.014593
0.014593
0.014593
0.014593
0.014593
0.014593
0.014593
0.014593
0.014593
0.014593
0.014593
0.014593
0.014593
0.014593
0.014593
0.014593
0.014593
0.014593
0.014593
0.014593
0.014593
0.014593
0.014593
0.014593
0.014593
0.014593
0.014593
0.014593
0.014593
0.014593
0.014593
0.014593
0.014593
0.014593
0.014593
0.014593
0.014593
0.014593
0.014593
0.014593
0.014593
0.014593
0.014593
0.014593
0.014593
0.014593
0.014593
0.014593
0.014593
0.014593
0.014593
0.014593
0.014593
0.014593
0.014593
0.014593
0.014593
0.014593
0.014593
0.014593
0.014593
0.014593
0.014593
0.014593
0.014593
0.014593
0.014593
0.014593
0.014593
0.014593
0.014593
0.014593
0.014593
0.014593
0.014593
0.014593
0.014593
0.014593
0.014593
0.014593
0.014593
0.014593
0.014593
0.014593
0.014593
0.014593
0.014593
0.014593
0.014593
0.014593
0.014593
0.014593
0.014593
0.014593
0.014593
0.014593
0.014593
0.014593
0.014593
0.014593
0.014593
0.014593
0.014593
0.014593
0.014593
0.014593
0.014593
0.014593
0.014593
0.014593
0.014593
0.014593
0.014593
0.014593
0.014593
0.014593
0.014593
0.014593
0.014593
0.014593
0.014593
0.014593
0.014593
0.014593
0.014593
0.014593
0.014593
0.014593
0.014593
0.014593
0.014593
0.014593
0.014593
0.014593
0.014593
0.014593
0.014593
0.014593
0.014593
0.014593
0.014593
0.014593
0.014593
0.014593
0.014593
0.014593
0.014593
0.014593
0.014593
0.014593
0.014593
0.014593
0.014593
0.014593
0.014593
0.014593
0.014593
0.014593
0.014593
0.014593
0.014593
0.014593
0.014593
0.014593
0.014593
0.014593
0.014593
0.014593
0.014593
0.014593
0.014593
0.014593
0.014593
0.014593
0.014593
0.014593
0.014593
0.014593
0.014593
0.014593
0.014593
0.014593
0.014593
0.014593
0.014593
0.014593
0.014593
0.014593
0.014593
0.014593
0.014593
0.014593
0.014593
0.014593
0.014593
0.014593
0.014593
0.014593
0.014593
0.014593
0.014593
0.014593
0.014593
0.014593
0.014593
0.014593
0.014593
0.014593
0.014593
0.014593
0.014593
0.014593
0.014593
0.014593
0.014593
0.014593
0.014593
0.014593
0.014593
0.014593
0.014593
0.014593
0.014593
0.014593
0.014593
0.014593
0.014593
0.014593
0.014593
0.014593
0.014593
0.014593
0.014593
0.014593
0.014593
0.014593
0.014593
0.014593
0.014593
0.014593
0.014593
0.014593
0.014593
0.014593
0.014593
0.014593
0.014593
0.014593
0.014593
0.014593
0.014593
0.014593
0.014593
0.014593
0.014593
0.014593
0.014593
0.014593
0.014593
0.014593
0.014593
0.014593
0.014593
0.014593
0.014593
0.014593
0.014593
0.014593
0.014593
0.014593
0.014593
0.014593
0.014593
0.014593
0.014593
0.014593
0.014593
0.014593
0.014593
0.014593
0.014593
0.014593
0.014593
0.014593
0.014593
0.014593
0.014593
0.014593
0.014593
0.014593
0.014593
0.014593
0.014593
0.014593
0.014593
0.014593
0.014593
0.014593
0.014593
0.014593
0.014593
0.014593
0.014593
0.014593
0.014593
0.014593
0.014593
0.014593
0.014593
0.014593
0.014593
0.014593
0.014593
0.014593
0.014593
0.014593
0.014593
0.014593
0.014593
0.014593
0.014593
0.014593
0.014593
0.014593
0.014593
0.014593
0.014593
0.014593
0.014593
0.014593
0.014593
0.014593
0.014593
0.014593
0.014593
0.014593
0.014593
0.014593
0.014593
0.014593
0.014593
0.014593
0.014593
0.014593
0.014593
0.014593
0.014593
0.014593
0.014593
0.014593
0.014593
0.014593
0.014593
0.014593
0.014593
0.014593
0.014593
0.014593
0.014593
0.014593
0.014593
0.014593
0.014593
0.014593
0.014593
0.014593
0.014593
0.014593
0.014593
0.014593
0.014593
0.014593
0.014593
0.014593
0.014593
0.014593
0.014593
0.014593
0.014593
0.014593
0.014593
0.014593
0.014593
0.014593
0.014593
0.014593
0.014593
0.014593
0.014593
0.014593
0.014593
0.014593
0.014593
0.014593
0.014593
0.014593
0.014593
0.014593
0.014593
0.014593
0.014593
0.014593
0.014593
0.014593
0.014593
0.014593
0.014593
0.014593
0.014593
0.014593
0.014593
0.014593
0.014593
0.014593
0.014593
0.014593
0.014593
0.014593
0.014593
0.014593
0.014593
0.014593
0.014593
0.014593
0.0145931
0.0145931
0.0145931
0.0145931
0.0145931
0.0145931
0.014593
0.014593
0.014593
0.014593
0.014593
0.014593
0.014593
0.014593
0.014593
0.014593
0.014593
0.014593
0.014593
0.014593
0.014593
0.014593
0.014593
0.014593
0.014593
0.014593
0.014593
0.014593
0.014593
0.014593
0.014593
0.014593
0.014593
0.014593
0.014593
0.014593
0.014593
0.014593
0.014593
0.014593
0.014593
0.014593
0.014593
0.014593
0.014593
0.014593
0.014593
0.014593
0.014593
0.014593
0.014593
0.014593
0.014593
0.014593
0.014593
0.014593
0.014593
0.014593
0.014593
0.014593
0.014593
0.014593
0.014593
0.014593
0.014593
0.014593
0.014593
0.014593
0.014593
0.014593
0.014593
0.014593
0.014593
0.014593
0.014593
0.014593
0.014593
0.014593
0.014593
0.014593
0.014593
0.014593
0.014593
0.014593
0.014593
0.014593
0.014593
0.014593
0.014593
0.014593
0.014593
0.014593
0.014593
0.014593
0.014593
0.014593
0.0145931
0.0145931
0.0145931
0.0145931
0.0145931
0.0145931
0.0145931
0.0145931
0.0145931
0.0145931
0.0145932
0.0145932
0.0145932
0.0145932
0.0145933
0.0145933
0.0145933
0.0145934
0.0145934
0.0145935
0.014593
0.014593
0.014593
0.014593
0.014593
0.014593
0.014593
0.014593
0.014593
0.014593
0.014593
0.014593
0.014593
0.014593
0.014593
0.014593
0.014593
0.014593
0.014593
0.014593
0.014593
0.014593
0.014593
0.014593
0.014593
0.014593
0.014593
0.014593
0.014593
0.014593
0.014593
0.014593
0.014593
0.014593
0.014593
0.014593
0.014593
0.014593
0.014593
0.014593
0.014593
0.014593
0.014593
0.014593
0.014593
0.014593
0.014593
0.014593
0.014593
0.014593
0.014593
0.014593
0.014593
0.014593
0.014593
0.014593
0.014593
0.014593
0.014593
0.014593
0.014593
0.014593
0.014593
0.014593
0.014593
0.014593
0.014593
0.014593
0.014593
0.014593
0.014593
0.014593
0.014593
0.014593
0.014593
0.014593
0.0145931
0.0145931
0.0145931
0.0145931
0.0145931
0.0145931
0.0145931
0.0145931
0.0145931
0.0145931
0.0145931
0.0145932
0.0145932
0.0145932
0.0145932
0.0145933
0.0145933
0.0145933
0.0145934
0.0145934
0.0145935
0.0145935
0.0145936
0.0145937
0.0145938
0.0145939
0.014594
0.0145941
0.0145942
0.0145944
0.0145946
0.0145948
0.014595
0.0145953
0.0145956
0.014593
0.014593
0.014593
0.014593
0.014593
0.014593
0.014593
0.014593
0.014593
0.014593
0.014593
0.014593
0.014593
0.014593
0.014593
0.014593
0.014593
0.014593
0.014593
0.014593
0.014593
0.014593
0.014593
0.014593
0.014593
0.014593
0.014593
0.014593
0.014593
0.014593
0.014593
0.014593
0.014593
0.014593
0.014593
0.014593
0.014593
0.014593
0.014593
0.014593
0.014593
0.014593
0.014593
0.014593
0.014593
0.014593
0.014593
0.014593
0.014593
0.014593
0.014593
0.014593
0.014593
0.014593
0.014593
0.014593
0.014593
0.014593
0.0145931
0.0145931
0.0145931
0.0145931
0.0145931
0.0145931
0.0145931
0.0145931
0.0145931
0.0145931
0.0145931
0.0145931
0.0145931
0.0145932
0.0145932
0.0145932
0.0145932
0.0145932
0.0145933
0.0145933
0.0145933
0.0145933
0.0145934
0.0145934
0.0145935
0.0145935
0.0145936
0.0145937
0.0145937
0.0145938
0.0145939
0.0145941
0.0145942
0.0145943
0.0145945
0.0145947
0.0145949
0.0145951
0.0145954
0.0145957
0.0145961
0.0145965
0.014597
0.0145975
0.0145981
0.0145988
0.0145995
0.0146004
0.0146013
0.0146025
0.0146038
0.0146054
0.0146072
0.0146093
0.0146116
0.014593
0.014593
0.014593
0.014593
0.014593
0.014593
0.014593
0.014593
0.014593
0.014593
0.014593
0.014593
0.014593
0.014593
0.014593
0.014593
0.014593
0.014593
0.014593
0.014593
0.014593
0.014593
0.014593
0.014593
0.014593
0.014593
0.014593
0.014593
0.014593
0.014593
0.014593
0.014593
0.014593
0.014593
0.014593
0.014593
0.014593
0.0145931
0.0145931
0.0145931
0.0145931
0.0145931
0.0145931
0.0145931
0.0145931
0.0145931
0.0145931
0.0145931
0.0145931
0.0145931
0.0145931
0.0145931
0.0145931
0.0145931
0.0145932
0.0145932
0.0145932
0.0145932
0.0145932
0.0145932
0.0145933
0.0145933
0.0145933
0.0145933
0.0145934
0.0145934
0.0145934
0.0145935
0.0145935
0.0145936
0.0145937
0.0145937
0.0145938
0.0145939
0.014594
0.0145941
0.0145942
0.0145944
0.0145945
0.0145947
0.0145949
0.0145951
0.0145954
0.0145956
0.014596
0.0145963
0.0145967
0.0145972
0.0145978
0.0145984
0.0145991
0.0145999
0.0146007
0.0146017
0.0146027
0.014604
0.0146054
0.0146071
0.014609
0.0146113
0.0146138
0.0146167
0.0146198
0.0146233
0.0146271
0.0146315
0.0146366
0.0146428
0.0146501
0.0146587
0.0146685
0.0146796
0.0146918
0.014593
0.014593
0.014593
0.014593
0.014593
0.014593
0.014593
0.014593
0.014593
0.014593
0.014593
0.014593
0.014593
0.014593
0.014593
0.014593
0.0145931
0.0145931
0.0145931
0.0145931
0.0145931
0.0145931
0.0145931
0.0145931
0.0145931
0.0145931
0.0145931
0.0145931
0.0145931
0.0145931
0.0145931
0.0145931
0.0145931
0.0145931
0.0145932
0.0145932
0.0145932
0.0145932
0.0145932
0.0145932
0.0145932
0.0145932
0.0145933
0.0145933
0.0145933
0.0145933
0.0145933
0.0145934
0.0145934
0.0145934
0.0145935
0.0145935
0.0145935
0.0145936
0.0145936
0.0145937
0.0145937
0.0145938
0.0145939
0.0145939
0.014594
0.0145941
0.0145942
0.0145943
0.0145944
0.0145946
0.0145947
0.0145949
0.0145951
0.0145953
0.0145956
0.0145958
0.0145961
0.0145965
0.0145968
0.0145973
0.0145977
0.0145983
0.0145989
0.0145996
0.0146004
0.0146013
0.0146023
0.0146034
0.0146047
0.014606
0.0146076
0.0146094
0.0146115
0.014614
0.0146167
0.0146199
0.0146234
0.0146273
0.0146316
0.0146364
0.0146418
0.014648
0.0146555
0.0146642
0.0146744
0.0146861
0.0146992
0.0147138
0.0147298
0.0147474
0.0147668
0.014789
0.0148154
0.0148472
0.014885
0.0149292
0.0149795
0.0150356
0.0150971
0.0145931
0.0145931
0.0145931
0.0145931
0.0145931
0.0145931
0.0145931
0.0145931
0.0145931
0.0145931
0.0145931
0.0145931
0.0145932
0.0145932
0.0145932
0.0145932
0.0145932
0.0145932
0.0145932
0.0145933
0.0145933
0.0145933
0.0145933
0.0145933
0.0145934
0.0145934
0.0145934
0.0145934
0.0145935
0.0145935
0.0145935
0.0145936
0.0145936
0.0145936
0.0145937
0.0145937
0.0145938
0.0145938
0.0145939
0.0145939
0.014594
0.0145941
0.0145941
0.0145942
0.0145943
0.0145944
0.0145945
0.0145946
0.0145947
0.0145949
0.014595
0.0145952
0.0145954
0.0145956
0.0145958
0.014596
0.0145963
0.0145966
0.0145969
0.0145972
0.0145976
0.014598
0.0145985
0.014599
0.0145996
0.0146003
0.014601
0.0146019
0.0146028
0.0146039
0.014605
0.0146063
0.0146078
0.0146093
0.0146111
0.0146131
0.0146155
0.0146182
0.0146212
0.0146247
0.0146286
0.0146329
0.0146378
0.0146431
0.0146489
0.0146556
0.0146633
0.0146723
0.0146828
0.0146949
0.0147088
0.0147244
0.0147417
0.0147608
0.0147817
0.0148048
0.0148311
0.0148619
0.0148986
0.0149417
0.0149918
0.0150487
0.0151123
0.0151821
0.0152578
0.0153397
0.0154295
0.0155328
0.0156572
0.0158074
0.0159846
0.0161874
0.0164125
0.0166566
0.0169163
0.0171889
0.0145931
0.0145932
0.0145932
0.0145932
0.0145932
0.0145932
0.0145932
0.0145933
0.0145933
0.0145933
0.0145933
0.0145934
0.0145934
0.0145934
0.0145935
0.0145935
0.0145935
0.0145936
0.0145936
0.0145937
0.0145937
0.0145938
0.0145938
0.0145939
0.0145939
0.014594
0.0145941
0.0145942
0.0145942
0.0145943
0.0145944
0.0145945
0.0145946
0.0145947
0.0145948
0.014595
0.0145951
0.0145952
0.0145954
0.0145955
0.0145957
0.0145959
0.0145961
0.0145963
0.0145965
0.0145967
0.014597
0.0145973
0.0145976
0.0145979
0.0145983
0.0145987
0.0145991
0.0145996
0.0146001
0.0146006
0.0146012
0.0146018
0.0146026
0.0146034
0.0146042
0.0146052
0.0146063
0.0146075
0.0146089
0.0146103
0.0146119
0.0146136
0.0146156
0.0146177
0.0146201
0.0146228
0.0146259
0.0146294
0.0146334
0.0146378
0.0146427
0.0146482
0.0146542
0.0146607
0.0146681
0.0146764
0.0146859
0.014697
0.0147097
0.0147244
0.0147409
0.0147595
0.01478
0.0148025
0.0148272
0.0148546
0.0148856
0.0149217
0.0149641
0.0150136
0.0150705
0.0151349
0.0152067
0.0152856
0.0153713
0.0154642
0.0155659
0.0156819
0.0158192
0.0159826
0.0161734
0.0163903
0.0166306
0.0168911
0.0171686
0.0174604
0.017766
0.0180916
0.0184602
0.0189005
0.0194172
0.0199988
0.0206282
0.0212885
0.0219649
0.0226464
0.0233254
0.0145936
0.0145936
0.0145937
0.0145938
0.0145938
0.0145939
0.014594
0.0145941
0.0145942
0.0145943
0.0145944
0.0145945
0.0145946
0.0145948
0.0145949
0.014595
0.0145952
0.0145954
0.0145956
0.0145958
0.014596
0.0145962
0.0145964
0.0145967
0.0145969
0.0145972
0.0145975
0.0145978
0.0145981
0.0145985
0.0145989
0.0145993
0.0145997
0.0146002
0.0146007
0.0146012
0.0146017
0.0146023
0.0146029
0.0146036
0.0146043
0.014605
0.0146059
0.0146067
0.0146077
0.0146088
0.0146099
0.0146112
0.0146125
0.014614
0.0146156
0.0146173
0.0146191
0.0146211
0.0146232
0.0146256
0.0146281
0.014631
0.0146342
0.0146377
0.0146417
0.0146461
0.014651
0.0146563
0.0146622
0.0146686
0.0146756
0.0146833
0.0146918
0.0147013
0.0147121
0.0147245
0.0147386
0.0147546
0.0147727
0.0147928
0.014815
0.0148394
0.0148661
0.0148954
0.014928
0.014965
0.0150079
0.0150576
0.0151149
0.01518
0.015253
0.0153339
0.0154225
0.0155187
0.0156229
0.0157371
0.0158669
0.0160187
0.0161968
0.0164023
0.016634
0.0168896
0.0171661
0.0174605
0.0177705
0.0180954
0.018441
0.0188283
0.0192818
0.0198053
0.0203883
0.021016
0.0216738
0.0223486
0.0230297
0.0237093
0.0243858
0.0250678
0.0258254
0.0267585
0.0278037
0.0288862
0.0299531
0.0309715
0.0319216
0.0327943
0.0335901
0.0145954
0.0145956
0.0145959
0.0145961
0.0145964
0.0145967
0.0145971
0.0145974
0.0145978
0.0145982
0.0145987
0.0145991
0.0145996
0.0146002
0.0146008
0.0146014
0.014602
0.0146027
0.0146035
0.0146043
0.0146051
0.014606
0.0146069
0.0146079
0.014609
0.0146101
0.0146113
0.0146125
0.0146139
0.0146154
0.0146169
0.0146186
0.0146204
0.0146223
0.0146243
0.0146265
0.0146287
0.0146311
0.0146337
0.0146364
0.0146393
0.0146425
0.0146459
0.0146496
0.0146537
0.0146581
0.014663
0.0146682
0.0146739
0.0146801
0.0146868
0.0146939
0.0147016
0.0147099
0.0147189
0.0147288
0.0147397
0.014752
0.0147657
0.0147811
0.0147983
0.0148173
0.0148384
0.0148614
0.0148866
0.0149139
0.0149436
0.0149761
0.0150119
0.0150524
0.0150986
0.0151515
0.0152116
0.0152794
0.0153549
0.0154383
0.0155296
0.0156287
0.0157359
0.0158522
0.0159808
0.0161275
0.0162975
0.0164934
0.0167156
0.0169626
0.0172324
0.0175226
0.0178306
0.0181547
0.0184948
0.0188571
0.019262
0.0197282
0.0202572
0.0208396
0.0214626
0.0221134
0.0227808
0.0234555
0.0241303
0.0248033
0.0254821
0.026231
0.0271291
0.0281223
0.0291465
0.0301563
0.0311233
0.0320304
0.0328676
0.0336329
0.0343272
0.0349522
0.0355066
0.0359829
0.0363973
0.0367635
0.0370866
0.0373685
0.0376104
0.0378158
0.0379872
0.0146026
0.0146035
0.0146045
0.0146056
0.0146068
0.014608
0.0146094
0.0146108
0.0146123
0.014614
0.0146157
0.0146176
0.0146196
0.0146218
0.0146241
0.0146265
0.0146292
0.014632
0.0146349
0.0146381
0.0146414
0.0146449
0.0146486
0.0146525
0.0146566
0.0146611
0.0146658
0.0146709
0.0146764
0.0146823
0.0146885
0.0146952
0.0147023
0.0147099
0.014718
0.0147265
0.0147355
0.014745
0.0147551
0.0147659
0.0147776
0.0147903
0.0148041
0.0148193
0.0148359
0.0148541
0.0148739
0.0148953
0.0149186
0.0149436
0.0149705
0.0149994
0.0150303
0.0150634
0.0150993
0.0151389
0.0151829
0.0152323
0.0152876
0.0153492
0.0154175
0.0154927
0.015575
0.0156644
0.015761
0.0158651
0.0159769
0.0160977
0.0162309
0.0163815
0.0165533
0.0167484
0.016967
0.0172081
0.0174705
0.0177524
0.0180523
0.0183685
0.0187002
0.0190498
0.0194272
0.0198527
0.0203338
0.0208668
0.0214431
0.0220524
0.0226849
0.0233318
0.0239859
0.0246415
0.0252979
0.0259627
0.0267043
0.0275674
0.0285049
0.0294658
0.0304129
0.0313219
0.0321778
0.032972
0.0337026
0.0343692
0.0349717
0.0355093
0.0359777
0.0363859
0.0367437
0.03706
0.0373393
0.0375822
0.0377891
0.0379624
0.038105
0.0382197
0.0383082
0.0383759
0.0384295
0.0384713
0.0385105
0.0385554
0.0386022
0.0386471
0.0386894
0.0387278
0.03876
0.014631
0.0146346
0.0146385
0.0146428
0.0146473
0.0146522
0.0146574
0.0146629
0.0146689
0.0146752
0.014682
0.0146893
0.0146971
0.0147055
0.0147144
0.0147239
0.014734
0.0147447
0.014756
0.014768
0.0147806
0.0147938
0.0148079
0.0148228
0.0148387
0.0148558
0.0148741
0.0148937
0.0149148
0.0149373
0.0149615
0.0149872
0.0150145
0.0150434
0.015074
0.0151063
0.0151402
0.015176
0.0152139
0.0152544
0.0152983
0.015346
0.0153983
0.0154553
0.0155174
0.0155848
0.0156578
0.0157364
0.0158209
0.0159112
0.0160074
0.0161095
0.0162179
0.0163331
0.0164573
0.0165941
0.0167465
0.0169168
0.0171056
0.017313
0.0175385
0.0177814
0.0180409
0.0183162
0.0186063
0.0189104
0.0192284
0.0195637
0.0199269
0.0203319
0.0207826
0.0212755
0.0218041
0.0223614
0.0229409
0.0235363
0.0241422
0.024754
0.0253685
0.0259879
0.0266309
0.0273773
0.0282065
0.0290774
0.029956
0.0308173
0.0316442
0.0324262
0.0331565
0.0338334
0.0344565
0.0350246
0.0355322
0.0359778
0.0363717
0.0367201
0.0370282
0.0373009
0.0375402
0.0377476
0.0379246
0.0380716
0.0381915
0.0382878
0.0383636
0.0384241
0.038475
0.0385199
0.0385612
0.0386034
0.0386484
0.0386919
0.0387312
0.0387655
0.0387939
0.0388147
0.0388278
0.0388364
0.0388458
0.0388547
0.0388635
0.0388768
0.0388938
0.0389109
0.0389265
0.0147395
0.0147533
0.0147681
0.014784
0.014801
0.0148191
0.0148383
0.0148589
0.0148809
0.0149044
0.0149297
0.0149567
0.0149856
0.0150164
0.0150493
0.0150842
0.0151212
0.0151602
0.0152012
0.0152443
0.0152893
0.0153366
0.0153865
0.0154394
0.0154958
0.0155561
0.0156206
0.0156893
0.0157626
0.0158405
0.0159231
0.0160103
0.0161023
0.0161988
0.0163
0.0164056
0.0165157
0.0166305
0.0167513
0.0168803
0.01702
0.0171719
0.0173369
0.0175153
0.017707
0.0179119
0.0181296
0.0183597
0.0186017
0.0188549
0.0191188
0.019393
0.019677
0.0199727
0.020286
0.0206276
0.0210018
0.0214078
0.0218426
0.0223025
0.0227842
0.023284
0.0237987
0.0243248
0.0248592
0.0253993
0.0259436
0.0264959
0.0270838
0.027754
0.0284843
0.0292459
0.0300151
0.0307747
0.0315125
0.0322204
0.0328927
0.0335258
0.0341184
0.034668
0.0351736
0.0356264
0.0360301
0.0363901
0.0367132
0.0370031
0.037261
0.037488
0.0376858
0.0378577
0.0380048
0.0381271
0.0382259
0.0383067
0.0383741
0.0384312
0.0384828
0.0385314
0.0385777
0.0386246
0.0386713
0.0387145
0.0387532
0.0387861
0.0388118
0.0388313
0.0388461
0.0388573
0.0388675
0.0388802
0.0388952
0.0389103
0.0389258
0.0389429
0.038959
0.0389717
0.0389815
0.0389883
0.0389953
0.0390011
0.0390062
0.0390127
0.0390227
0.0390345
0.0390465
0.0150887
0.0151347
0.015184
0.0152367
0.0152927
0.0153521
0.015415
0.0154816
0.0155522
0.0156274
0.0157074
0.0157925
0.0158829
0.0159786
0.0160797
0.0161861
0.0162979
0.0164147
0.0165365
0.0166631
0.0167941
0.0169297
0.0170704
0.0172178
0.0173736
0.0175387
0.0177138
0.0178991
0.0180945
0.0182996
0.018514
0.0187372
0.0189686
0.0192076
0.0194535
0.0197057
0.0199635
0.0202265
0.0204953
0.0207736
0.0210686
0.0213839
0.0217194
0.022074
0.0224461
0.0228341
0.0232365
0.0236514
0.0240771
0.0245117
0.0249533
0.0254001
0.0258506
0.0263037
0.0267612
0.0272337
0.0277642
0.0283427
0.0289516
0.0295758
0.0302042
0.030828
0.0314408
0.0320375
0.0326139
0.0331669
0.0336939
0.0341936
0.0346644
0.0351029
0.0355018
0.0358646
0.0361956
0.0364968
0.03677
0.0370179
0.037242
0.0374423
0.0376193
0.0377741
0.0379078
0.0380223
0.0381185
0.0381989
0.0382694
0.038333
0.03839
0.0384467
0.0385046
0.03856
0.0386114
0.03866
0.0387048
0.038743
0.0387743
0.0387996
0.0388212
0.0388393
0.038854
0.0388693
0.038888
0.0389074
0.0389262
0.0389454
0.038964
0.0389802
0.0389934
0.0390046
0.0390134
0.0390211
0.0390298
0.0390394
0.0390489
0.0390595
0.0390718
0.0390851
0.0390977
0.0391087
0.0391176
0.0391256
0.0391325
0.0391379
0.0391432
0.0391502
0.0391589
0.0391685
0.016297
0.0164409
0.0165926
0.0167519
0.0169184
0.0170918
0.0172724
0.0174609
0.0176586
0.0178665
0.018085
0.0183141
0.0185535
0.0188026
0.0190607
0.0193269
0.0196002
0.0198797
0.0201641
0.0204525
0.0207439
0.0210383
0.0213379
0.0216479
0.0219703
0.0223048
0.0226501
0.0230052
0.0233689
0.02374
0.0241172
0.0244994
0.024885
0.0252728
0.0256614
0.0260497
0.0264364
0.0268208
0.0272038
0.0275912
0.0280133
0.0284669
0.0289421
0.0294304
0.0299253
0.0304216
0.0309153
0.031403
0.0318816
0.0323488
0.0328023
0.0332405
0.033662
0.034066
0.0344515
0.0348168
0.0351555
0.0354697
0.0357616
0.0360333
0.0362861
0.0365209
0.0367385
0.0369391
0.037123
0.0372906
0.0374423
0.0375788
0.037701
0.0378089
0.0379035
0.0379882
0.038064
0.0381336
0.0382043
0.0382746
0.0383408
0.0384065
0.0384696
0.0385266
0.0385785
0.0386262
0.0386671
0.0387026
0.0387338
0.0387589
0.0387813
0.0388055
0.0388271
0.038847
0.0388698
0.0388957
0.0389203
0.0389427
0.0389626
0.0389795
0.0389975
0.0390129
0.039025
0.0390362
0.03905
0.0390635
0.039077
0.0390912
0.0391063
0.039121
0.0391344
0.0391464
0.0391566
0.0391653
0.0391736
0.0391815
0.0391893
0.0391978
0.0392075
0.0392183
0.0392297
0.039241
0.0392512
0.0392601
0.0392682
0.0392755
0.0392823
0.0392897
0.0392981
0.0393075
0.0393176
0.0393277
0.0195519
0.0198916
0.0202404
0.0205967
0.0209588
0.0213252
0.0216962
0.022075
0.0224638
0.0228621
0.0232683
0.0236804
0.0240966
0.0245153
0.0249351
0.0253546
0.0257722
0.0261866
0.0265964
0.0270002
0.0273969
0.0277864
0.0281738
0.0285824
0.0290079
0.0294438
0.0298844
0.030325
0.0307619
0.0311922
0.0316133
0.0320234
0.032421
0.0328048
0.0331739
0.0335276
0.0338652
0.0341867
0.0344921
0.0347815
0.0350509
0.0353028
0.0355394
0.0357622
0.0359723
0.0361703
0.0363566
0.0365312
0.0366944
0.0368463
0.0369874
0.0371179
0.0372381
0.0373489
0.0374503
0.0375428
0.0376272
0.0377061
0.0377828
0.0378584
0.0379331
0.0380079
0.0380812
0.0381513
0.0382196
0.0382855
0.0383465
0.0384039
0.0384577
0.0385061
0.0385502
0.0385896
0.0386216
0.0386513
0.0386814
0.0387074
0.0387349
0.0387666
0.0387947
0.0388207
0.0388509
0.0388803
0.038906
0.0389317
0.0389548
0.0389756
0.0389967
0.0390153
0.0390309
0.0390447
0.0390593
0.0390787
0.0390975
0.0391157
0.0391327
0.0391482
0.0391651
0.039181
0.0391937
0.0392053
0.0392169
0.039228
0.039239
0.0392505
0.0392628
0.0392756
0.0392882
0.0393001
0.0393108
0.0393205
0.0393294
0.0393378
0.0393461
0.0393547
0.0393641
0.0393746
0.0393859
0.0393975
0.0394089
0.0394196
0.0394296
0.039439
0.0394481
0.0394573
0.0394671
0.0394777
0.0394888
0.0394999
0.025691
0.0261988
0.0267007
0.0271948
0.0276795
0.0281536
0.0286182
0.0290883
0.02957
0.0300573
0.0305441
0.031025
0.0314957
0.0319527
0.0323935
0.032816
0.0332187
0.0336008
0.0339617
0.0343007
0.0346177
0.0349129
0.0351867
0.0354366
0.0356658
0.0358772
0.0360727
0.0362537
0.0364213
0.0365762
0.0367189
0.0368499
0.0369698
0.037079
0.0371782
0.0372678
0.0373484
0.0374207
0.0374863
0.0375475
0.0376065
0.0376648
0.0377235
0.0377826
0.037842
0.0379012
0.0379598
0.0380174
0.0380735
0.0381278
0.0381801
0.0382301
0.0382777
0.0383226
0.0383647
0.0384033
0.0384379
0.0384685
0.0384968
0.038524
0.0385526
0.038583
0.038613
0.0386441
0.0386777
0.0387102
0.0387423
0.0387757
0.0388078
0.0388392
0.0388706
0.0388996
0.038926
0.0389533
0.0389775
0.0389947
0.0390138
0.0390343
0.0390519
0.039068
0.03909
0.0391122
0.0391324
0.0391537
0.0391737
0.0391927
0.0392134
0.0392297
0.039244
0.0392553
0.0392672
0.039281
0.0392956
0.0393105
0.039325
0.0393389
0.0393533
0.0393679
0.0393813
0.0393934
0.0394048
0.0394158
0.0394265
0.0394374
0.0394488
0.039461
0.0394734
0.0394856
0.0394972
0.0395081
0.0395185
0.0395285
0.0395382
0.039548
0.0395583
0.0395695
0.0395815
0.0395941
0.0396067
0.0396189
0.0396306
0.0396417
0.0396524
0.0396632
0.0396744
0.0396861
0.0396984
0.0397107
0.0332037
0.0336986
0.0341652
0.034602
0.0350084
0.0353843
0.0357297
0.0360418
0.0363211
0.036571
0.0367947
0.0369953
0.0371754
0.0373368
0.037481
0.0376089
0.0377215
0.0378196
0.0379041
0.0379756
0.0380341
0.0380813
0.0381208
0.0381562
0.0381899
0.038223
0.0382556
0.0382879
0.0383194
0.0383501
0.0383797
0.0384079
0.0384345
0.0384596
0.0384827
0.0385033
0.0385211
0.0385352
0.0385457
0.0385538
0.0385611
0.0385685
0.038577
0.0385873
0.0385996
0.0386143
0.0386314
0.0386507
0.038672
0.0386951
0.0387196
0.0387453
0.0387719
0.0387991
0.0388268
0.0388547