/*--------------------------------*- C++ -*----------------------------------*\
| =========                 |                                                 |
| \\      /  F ield         | OpenFOAM: The Open Source CFD Toolbox           |
|  \\    /   O peration     | Version:  v1706                                 |
|   \\  /    A nd           | Web:      www.OpenFOAM.com                      |
|    \\/     M anipulation  |                                                 |
\*---------------------------------------------------------------------------*/
FoamFile
{
    version     2.0;
    format      ascii;
    class       volScalarField;
    location    "3.2e-05";
    object      mu;
}
// * * * * * * * * * * * * * * * * * * * * * * * * * * * * * * * * * * * * * //

dimensions      [1 -1 -1 0 0 0 0];


internalField   nonuniform List<scalar> 
29871
(
1.0351e-05
1.0351e-05
1.0351e-05
1.0351e-05
1.0351e-05
1.0351e-05
1.0351e-05
1.0351e-05
1.0351e-05
1.0351e-05
1.0351e-05
1.0351e-05
1.0351e-05
1.0351e-05
1.0351e-05
1.0351e-05
1.0351e-05
1.0351e-05
1.0351e-05
1.0351e-05
1.0351e-05
1.0351e-05
1.0351e-05
1.0351e-05
1.0351e-05
1.0351e-05
1.0351e-05
1.0351e-05
1.0351e-05
1.0351e-05
1.0351e-05
1.0351e-05
1.0351e-05
1.0351e-05
1.0351e-05
1.0351e-05
1.0351e-05
1.0351e-05
1.0351e-05
1.0351e-05
1.0351e-05
1.0351e-05
1.0351e-05
1.0351e-05
1.0351e-05
1.0351e-05
1.0351e-05
1.0351e-05
1.0351e-05
1.0351e-05
1.0351e-05
1.0351e-05
1.0351e-05
1.0351e-05
1.0351e-05
1.0351e-05
1.0351e-05
1.0351e-05
1.0351e-05
1.0351e-05
1.0351e-05
1.0351e-05
1.0351e-05
1.0351e-05
1.0351e-05
1.0351e-05
1.0351e-05
1.0351e-05
1.0351e-05
1.0351e-05
1.0351e-05
1.0351e-05
1.0351e-05
1.0351e-05
1.0351e-05
1.0351e-05
1.0351e-05
1.0351e-05
1.0351e-05
1.0351e-05
1.0351e-05
1.0351e-05
1.0351e-05
1.0351e-05
1.0351e-05
1.0351e-05
1.0351e-05
1.0351e-05
1.0351e-05
1.0351e-05
1.0351e-05
1.0351e-05
1.0351e-05
1.0351e-05
1.0351e-05
1.0351e-05
1.0351e-05
1.0351e-05
1.0351e-05
1.0351e-05
1.0351e-05
1.0351e-05
1.0351e-05
1.0351e-05
1.0351e-05
1.0351e-05
1.0351e-05
1.0351e-05
1.0351e-05
1.0351e-05
1.0351e-05
1.0351e-05
1.0351e-05
1.0351e-05
1.0351e-05
1.0351e-05
1.0351e-05
1.0351e-05
1.0351e-05
1.0351e-05
1.0351e-05
1.0351e-05
1.0351e-05
1.0351e-05
1.0351e-05
1.0351e-05
1.0351e-05
1.0351e-05
1.0351e-05
1.0351e-05
1.0351e-05
1.0351e-05
1.0351e-05
1.0351e-05
1.0351e-05
1.0351e-05
1.0351e-05
1.0351e-05
1.0351e-05
1.0351e-05
1.0351e-05
1.0351e-05
1.0351e-05
1.0351e-05
1.0351e-05
1.0351e-05
1.0351e-05
1.0351e-05
1.0351e-05
1.0351e-05
1.0351e-05
1.0351e-05
1.0351e-05
1.0351e-05
1.0351e-05
1.0351e-05
1.0351e-05
1.0351e-05
1.0351e-05
1.0351e-05
1.0351e-05
1.0351e-05
1.0351e-05
1.0351e-05
1.0351e-05
1.0351e-05
1.0351e-05
1.0351e-05
1.0351e-05
1.0351e-05
1.0351e-05
1.0351e-05
1.0351e-05
1.0351e-05
1.0351e-05
1.0351e-05
1.0351e-05
1.0351e-05
1.0351e-05
1.0351e-05
1.0351e-05
1.0351e-05
1.0351e-05
1.0351e-05
1.0351e-05
1.0351e-05
1.0351e-05
1.0351e-05
1.0351e-05
1.0351e-05
1.0351e-05
1.0351e-05
1.0351e-05
1.0351e-05
1.0351e-05
1.0351e-05
1.0351e-05
1.0351e-05
1.0351e-05
1.0351e-05
1.0351e-05
1.0351e-05
1.0351e-05
1.0351e-05
1.0351e-05
1.0351e-05
1.0351e-05
1.0351e-05
1.0351e-05
1.0351e-05
1.0351e-05
1.0351e-05
1.0351e-05
1.0351e-05
1.0351e-05
1.0351e-05
1.0351e-05
1.0351e-05
1.0351e-05
1.0351e-05
1.0351e-05
1.0351e-05
1.0351e-05
1.0351e-05
1.0351e-05
1.0351e-05
1.0351e-05
1.0351e-05
1.0351e-05
1.0351e-05
1.0351e-05
1.0351e-05
1.0351e-05
1.0351e-05
1.0351e-05
1.0351e-05
1.0351e-05
1.0351e-05
1.0351e-05
1.0351e-05
1.0351e-05
1.0351e-05
1.0351e-05
1.0351e-05
1.0351e-05
1.0351e-05
1.0351e-05
1.0351e-05
1.0351e-05
1.0351e-05
1.0351e-05
1.0351e-05
1.0351e-05
1.0351e-05
1.0351e-05
1.0351e-05
1.0351e-05
1.0351e-05
1.0351e-05
1.0351e-05
1.0351e-05
1.0351e-05
1.0351e-05
1.0351e-05
1.0351e-05
1.0351e-05
1.0351e-05
1.0351e-05
1.0351e-05
1.0351e-05
1.0351e-05
1.0351e-05
1.0351e-05
1.0351e-05
1.0351e-05
1.0351e-05
1.0351e-05
1.0351e-05
1.0351e-05
1.0351e-05
1.0351e-05
1.0351e-05
1.0351e-05
1.0351e-05
1.0351e-05
1.0351e-05
1.0351e-05
1.0351e-05
1.0351e-05
1.0351e-05
1.0351e-05
1.0351e-05
1.0351e-05
1.0351e-05
1.0351e-05
1.0351e-05
1.0351e-05
1.0351e-05
1.0351e-05
1.0351e-05
1.0351e-05
1.0351e-05
1.0351e-05
1.0351e-05
1.0351e-05
1.0351e-05
1.0351e-05
1.0351e-05
1.0351e-05
1.0351e-05
1.0351e-05
1.0351e-05
1.0351e-05
1.0351e-05
1.0351e-05
1.0351e-05
1.0351e-05
1.0351e-05
1.0351e-05
1.0351e-05
1.0351e-05
1.0351e-05
1.0351e-05
1.0351e-05
1.0351e-05
1.0351e-05
1.0351e-05
1.0351e-05
1.0351e-05
1.0351e-05
1.0351e-05
1.0351e-05
1.0351e-05
1.0351e-05
1.0351e-05
1.0351e-05
1.0351e-05
1.0351e-05
1.0351e-05
1.0351e-05
1.0351e-05
1.0351e-05
1.0351e-05
1.0351e-05
1.0351e-05
1.0351e-05
1.0351e-05
1.0351e-05
1.0351e-05
1.0351e-05
1.0351e-05
1.0351e-05
1.0351e-05
1.0351e-05
1.0351e-05
1.0351e-05
1.0351e-05
1.0351e-05
1.0351e-05
1.0351e-05
1.0351e-05
1.0351e-05
1.0351e-05
1.0351e-05
1.0351e-05
1.0351e-05
1.0351e-05
1.0351e-05
1.0351e-05
1.0351e-05
1.0351e-05
1.0351e-05
1.0351e-05
1.0351e-05
1.0351e-05
1.0351e-05
1.0351e-05
1.0351e-05
1.0351e-05
1.0351e-05
1.0351e-05
1.0351e-05
1.0351e-05
1.0351e-05
1.0351e-05
1.0351e-05
1.0351e-05
1.0351e-05
1.0351e-05
1.0351e-05
1.0351e-05
1.0351e-05
1.0351e-05
1.0351e-05
1.0351e-05
1.0351e-05
1.0351e-05
1.0351e-05
1.0351e-05
1.0351e-05
1.0351e-05
1.0351e-05
1.0351e-05
1.0351e-05
1.0351e-05
1.0351e-05
1.0351e-05
1.0351e-05
1.0351e-05
1.0351e-05
1.0351e-05
1.0351e-05
1.0351e-05
1.0351e-05
1.0351e-05
1.0351e-05
1.0351e-05
1.0351e-05
1.0351e-05
1.0351e-05
1.0351e-05
1.0351e-05
1.0351e-05
1.0351e-05
1.0351e-05
1.0351e-05
1.0351e-05
1.0351e-05
1.0351e-05
1.0351e-05
1.0351e-05
1.0351e-05
1.0351e-05
1.0351e-05
1.0351e-05
1.0351e-05
1.0351e-05
1.0351e-05
1.0351e-05
1.0351e-05
1.0351e-05
1.0351e-05
1.0351e-05
1.0351e-05
1.0351e-05
1.0351e-05
1.0351e-05
1.0351e-05
1.0351e-05
1.0351e-05
1.0351e-05
1.0351e-05
1.0351e-05
1.0351e-05
1.0351e-05
1.0351e-05
1.0351e-05
1.0351e-05
1.0351e-05
1.0351e-05
1.0351e-05
1.0351e-05
1.0351e-05
1.0351e-05
1.0351e-05
1.0351e-05
1.0351e-05
1.0351e-05
1.0351e-05
1.0351e-05
1.0351e-05
1.0351e-05
1.0351e-05
1.0351e-05
1.0351e-05
1.0351e-05
1.0351e-05
1.0351e-05
1.0351e-05
1.0351e-05
1.0351e-05
1.0351e-05
1.0351e-05
1.0351e-05
1.0351e-05
1.0351e-05
1.0351e-05
1.0351e-05
1.0351e-05
1.0351e-05
1.0351e-05
1.0351e-05
1.0351e-05
1.0351e-05
1.0351e-05
1.0351e-05
1.0351e-05
1.0351e-05
1.0351e-05
1.0351e-05
1.0351e-05
1.0351e-05
1.0351e-05
1.0351e-05
1.0351e-05
1.0351e-05
1.0351e-05
1.0351e-05
1.0351e-05
1.0351e-05
1.0351e-05
1.0351e-05
1.0351e-05
1.0351e-05
1.0351e-05
1.0351e-05
1.0351e-05
1.0351e-05
1.0351e-05
1.0351e-05
1.0351e-05
1.0351e-05
1.0351e-05
1.0351e-05
1.0351e-05
1.0351e-05
1.0351e-05
1.0351e-05
1.0351e-05
1.0351e-05
1.0351e-05
1.0351e-05
1.0351e-05
1.0351e-05
1.0351e-05
1.0351e-05
1.0351e-05
1.0351e-05
1.0351e-05
1.0351e-05
1.0351e-05
1.0351e-05
1.0351e-05
1.0351e-05
1.0351e-05
1.0351e-05
1.0351e-05
1.0351e-05
1.0351e-05
1.0351e-05
1.0351e-05
1.0351e-05
1.0351e-05
1.0351e-05
1.0351e-05
1.0351e-05
1.0351e-05
1.0351e-05
1.0351e-05
1.0351e-05
1.0351e-05
1.0351e-05
1.0351e-05
1.0351e-05
1.0351e-05
1.0351e-05
1.0351e-05
1.0351e-05
1.0351e-05
1.0351e-05
1.0351e-05
1.0351e-05
1.0351e-05
1.0351e-05
1.0351e-05
1.0351e-05
1.0351e-05
1.0351e-05
1.0351e-05
1.0351e-05
1.0351e-05
1.0351e-05
1.0351e-05
1.0351e-05
1.0351e-05
1.0351e-05
1.0351e-05
1.0351e-05
1.0351e-05
1.0351e-05
1.0351e-05
1.0351e-05
1.0351e-05
1.0351e-05
1.0351e-05
1.0351e-05
1.0351e-05
1.0351e-05
1.0351e-05
1.0351e-05
1.0351e-05
1.0351e-05
1.0351e-05
1.0351e-05
1.0351e-05
1.0351e-05
1.0351e-05
1.0351e-05
1.0351e-05
1.0351e-05
1.0351e-05
1.0351e-05
1.0351e-05
1.0351e-05
1.0351e-05
1.0351e-05
1.0351e-05
1.0351e-05
1.0351e-05
1.0351e-05
1.0351e-05
1.0351e-05
1.0351e-05
1.0351e-05
1.0351e-05
1.0351e-05
1.0351e-05
1.0351e-05
1.0351e-05
1.0351e-05
1.0351e-05
1.0351e-05
1.0351e-05
1.0351e-05
1.0351e-05
1.0351e-05
1.0351e-05
1.0351e-05
1.0351e-05
1.0351e-05
1.0351e-05
1.0351e-05
1.0351e-05
1.0351e-05
1.0351e-05
1.0351e-05
1.0351e-05
1.0351e-05
1.0351e-05
1.0351e-05
1.0351e-05
1.0351e-05
1.0351e-05
1.0351e-05
1.0351e-05
1.0351e-05
1.0351e-05
1.0351e-05
1.0351e-05
1.0351e-05
1.0351e-05
1.0351e-05
1.0351e-05
1.0351e-05
1.0351e-05
1.0351e-05
1.0351e-05
1.0351e-05
1.0351e-05
1.0351e-05
1.0351e-05
1.0351e-05
1.0351e-05
1.0351e-05
1.0351e-05
1.0351e-05
1.0351e-05
1.0351e-05
1.0351e-05
1.0351e-05
1.0351e-05
1.0351e-05
1.0351e-05
1.0351e-05
1.0351e-05
1.0351e-05
1.0351e-05
1.0351e-05
1.0351e-05
1.0351e-05
1.0351e-05
1.0351e-05
1.0351e-05
1.0351e-05
1.0351e-05
1.0351e-05
1.0351e-05
1.0351e-05
1.0351e-05
1.0351e-05
1.0351e-05
1.0351e-05
1.0351e-05
1.0351e-05
1.0351e-05
1.0351e-05
1.0351e-05
1.0351e-05
1.0351e-05
1.0351e-05
1.0351e-05
1.0351e-05
1.0351e-05
1.0351e-05
1.0351e-05
1.0351e-05
1.0351e-05
1.0351e-05
1.0351e-05
1.0351e-05
1.0351e-05
1.0351e-05
1.0351e-05
1.0351e-05
1.0351e-05
1.0351e-05
1.0351e-05
1.0351e-05
1.0351e-05
1.0351e-05
1.0351e-05
1.0351e-05
1.0351e-05
1.0351e-05
1.0351e-05
1.0351e-05
1.0351e-05
1.0351e-05
1.0351e-05
1.0351e-05
1.0351e-05
1.0351e-05
1.0351e-05
1.0351e-05
1.0351e-05
1.0351e-05
1.0351e-05
1.0351e-05
1.0351e-05
1.0351e-05
1.0351e-05
1.0351e-05
1.0351e-05
1.0351e-05
1.0351e-05
1.0351e-05
1.0351e-05
1.0351e-05
1.0351e-05
1.0351e-05
1.0351e-05
1.0351e-05
1.0351e-05
1.0351e-05
1.0351e-05
1.0351e-05
1.0351e-05
1.0351e-05
1.0351e-05
1.0351e-05
1.0351e-05
1.0351e-05
1.0351e-05
1.0351e-05
1.0351e-05
1.0351e-05
1.0351e-05
1.0351e-05
1.0351e-05
1.0351e-05
1.0351e-05
1.0351e-05
1.0351e-05
1.0351e-05
1.0351e-05
1.0351e-05
1.0351e-05
1.0351e-05
1.0351e-05
1.0351e-05
1.0351e-05
1.0351e-05
1.0351e-05
1.0351e-05
1.0351e-05
1.0351e-05
1.0351e-05
1.0351e-05
1.0351e-05
1.0351e-05
1.0351e-05
1.0351e-05
1.0351e-05
1.0351e-05
1.0351e-05
1.0351e-05
1.0351e-05
1.0351e-05
1.0351e-05
1.0351e-05
1.0351e-05
1.0351e-05
1.0351e-05
1.0351e-05
1.0351e-05
1.0351e-05
1.0351e-05
1.0351e-05
1.0351e-05
1.0351e-05
1.0351e-05
1.0351e-05
1.0351e-05
1.0351e-05
1.0351e-05
1.0351e-05
1.0351e-05
1.0351e-05
1.0351e-05
1.0351e-05
1.0351e-05
1.0351e-05
1.0351e-05
1.0351e-05
1.0351e-05
1.0351e-05
1.0351e-05
1.0351e-05
1.0351e-05
1.0351e-05
1.0351e-05
1.0351e-05
1.0351e-05
1.0351e-05
1.0351e-05
1.0351e-05
1.0351e-05
1.0351e-05
1.0351e-05
1.0351e-05
1.0351e-05
1.0351e-05
1.0351e-05
1.0351e-05
1.0351e-05
1.0351e-05
1.0351e-05
1.0351e-05
1.0351e-05
1.0351e-05
1.0351e-05
1.0351e-05
1.0351e-05
1.0351e-05
1.0351e-05
1.0351e-05
1.0351e-05
1.0351e-05
1.0351e-05
1.0351e-05
1.0351e-05
1.0351e-05
1.0351e-05
1.0351e-05
1.0351e-05
1.0351e-05
1.0351e-05
1.0351e-05
1.0351e-05
1.0351e-05
1.0351e-05
1.0351e-05
1.0351e-05
1.0351e-05
1.0351e-05
1.0351e-05
1.0351e-05
1.0351e-05
1.0351e-05
1.0351e-05
1.0351e-05
1.0351e-05
1.0351e-05
1.0351e-05
1.0351e-05
1.0351e-05
1.0351e-05
1.0351e-05
1.0351e-05
1.0351e-05
1.0351e-05
1.0351e-05
1.0351e-05
1.0351e-05
1.0351e-05
1.0351e-05
1.0351e-05
1.0351e-05
1.0351e-05
1.0351e-05
1.0351e-05
1.0351e-05
1.0351e-05
1.0351e-05
1.0351e-05
1.0351e-05
1.0351e-05
1.0351e-05
1.0351e-05
1.0351e-05
1.0351e-05
1.0351e-05
1.0351e-05
1.0351e-05
1.0351e-05
1.0351e-05
1.0351e-05
1.0351e-05
1.0351e-05
1.0351e-05
1.0351e-05
1.0351e-05
1.0351e-05
1.0351e-05
1.0351e-05
1.0351e-05
1.0351e-05
1.0351e-05
1.0351e-05
1.0351e-05
1.0351e-05
1.0351e-05
1.0351e-05
1.0351e-05
1.0351e-05
1.0351e-05
1.0351e-05
1.0351e-05
1.0351e-05
1.0351e-05
1.0351e-05
1.0351e-05
1.0351e-05
1.0351e-05
1.0351e-05
1.0351e-05
1.0351e-05
1.0351e-05
1.0351e-05
1.0351e-05
1.0351e-05
1.0351e-05
1.0351e-05
1.0351e-05
1.0351e-05
1.0351e-05
1.0351e-05
1.0351e-05
1.0351e-05
1.0351e-05
1.0351e-05
1.0351e-05
1.0351e-05
1.0351e-05
1.0351e-05
1.0351e-05
1.0351e-05
1.0351e-05
1.0351e-05
1.0351e-05
1.0351e-05
1.0351e-05
1.0351e-05
1.0351e-05
1.0351e-05
1.0351e-05
1.0351e-05
1.0351e-05
1.0351e-05
1.0351e-05
1.0351e-05
1.0351e-05
1.0351e-05
1.0351e-05
1.0351e-05
1.0351e-05
1.0351e-05
1.0351e-05
1.0351e-05
1.0351e-05
1.0351e-05
1.0351e-05
1.0351e-05
1.0351e-05
1.0351e-05
1.0351e-05
1.0351e-05
1.0351e-05
1.0351e-05
1.0351e-05
1.0351e-05
1.0351e-05
1.0351e-05
1.0351e-05
1.0351e-05
1.0351e-05
1.0351e-05
1.0351e-05
1.0351e-05
1.0351e-05
1.0351e-05
1.0351e-05
1.0351e-05
1.0351e-05
1.0351e-05
1.0351e-05
1.0351e-05
1.0351e-05
1.0351e-05
1.0351e-05
1.0351e-05
1.0351e-05
1.0351e-05
1.0351e-05
1.0351e-05
1.0351e-05
1.0351e-05
1.0351e-05
1.0351e-05
1.0351e-05
1.0351e-05
1.0351e-05
1.0351e-05
1.0351e-05
1.0351e-05
1.0351e-05
1.0351e-05
1.0351e-05
1.0351e-05
1.0351e-05
1.0351e-05
1.0351e-05
1.0351e-05
1.0351e-05
1.0351e-05
1.0351e-05
1.0351e-05
1.0351e-05
1.0351e-05
1.0351e-05
1.0351e-05
1.0351e-05
1.0351e-05
1.0351e-05
1.0351e-05
1.0351e-05
1.0351e-05
1.0351e-05
1.0351e-05
1.0351e-05
1.0351e-05
1.0351e-05
1.0351e-05
1.0351e-05
1.03511e-05
1.03511e-05
1.0351e-05
1.0351e-05
1.0351e-05
1.0351e-05
1.0351e-05
1.0351e-05
1.0351e-05
1.0351e-05
1.0351e-05
1.0351e-05
1.0351e-05
1.0351e-05
1.0351e-05
1.0351e-05
1.0351e-05
1.0351e-05
1.0351e-05
1.0351e-05
1.0351e-05
1.0351e-05
1.0351e-05
1.0351e-05
1.0351e-05
1.0351e-05
1.0351e-05
1.0351e-05
1.0351e-05
1.0351e-05
1.0351e-05
1.0351e-05
1.0351e-05
1.0351e-05
1.0351e-05
1.0351e-05
1.0351e-05
1.0351e-05
1.0351e-05
1.0351e-05
1.0351e-05
1.0351e-05
1.0351e-05
1.0351e-05
1.0351e-05
1.0351e-05
1.0351e-05
1.0351e-05
1.0351e-05
1.0351e-05
1.0351e-05
1.0351e-05
1.0351e-05
1.0351e-05
1.0351e-05
1.0351e-05
1.0351e-05
1.0351e-05
1.0351e-05
1.0351e-05
1.0351e-05
1.0351e-05
1.0351e-05
1.0351e-05
1.0351e-05
1.0351e-05
1.0351e-05
1.0351e-05
1.0351e-05
1.0351e-05
1.0351e-05
1.0351e-05
1.0351e-05
1.0351e-05
1.0351e-05
1.0351e-05
1.0351e-05
1.0351e-05
1.0351e-05
1.0351e-05
1.0351e-05
1.0351e-05
1.0351e-05
1.0351e-05
1.0351e-05
1.0351e-05
1.0351e-05
1.0351e-05
1.0351e-05
1.0351e-05
1.0351e-05
1.0351e-05
1.0351e-05
1.0351e-05
1.0351e-05
1.0351e-05
1.03511e-05
1.03511e-05
1.03511e-05
1.03511e-05
1.03511e-05
1.03511e-05
1.03511e-05
1.03511e-05
1.03511e-05
1.03512e-05
1.03512e-05
1.03512e-05
1.03512e-05
1.03513e-05
1.03513e-05
1.03513e-05
1.0351e-05
1.0351e-05
1.0351e-05
1.0351e-05
1.0351e-05
1.0351e-05
1.0351e-05
1.0351e-05
1.0351e-05
1.0351e-05
1.0351e-05
1.0351e-05
1.0351e-05
1.0351e-05
1.0351e-05
1.0351e-05
1.0351e-05
1.0351e-05
1.0351e-05
1.0351e-05
1.0351e-05
1.0351e-05
1.0351e-05
1.0351e-05
1.0351e-05
1.0351e-05
1.0351e-05
1.0351e-05
1.0351e-05
1.0351e-05
1.0351e-05
1.0351e-05
1.0351e-05
1.0351e-05
1.0351e-05
1.0351e-05
1.0351e-05
1.0351e-05
1.0351e-05
1.0351e-05
1.0351e-05
1.0351e-05
1.0351e-05
1.0351e-05
1.0351e-05
1.0351e-05
1.0351e-05
1.0351e-05
1.0351e-05
1.0351e-05
1.0351e-05
1.0351e-05
1.0351e-05
1.0351e-05
1.0351e-05
1.0351e-05
1.0351e-05
1.0351e-05
1.0351e-05
1.0351e-05
1.0351e-05
1.0351e-05
1.0351e-05
1.0351e-05
1.0351e-05
1.0351e-05
1.0351e-05
1.0351e-05
1.0351e-05
1.0351e-05
1.0351e-05
1.0351e-05
1.0351e-05
1.0351e-05
1.0351e-05
1.0351e-05
1.0351e-05
1.0351e-05
1.0351e-05
1.0351e-05
1.03511e-05
1.03511e-05
1.03511e-05
1.03511e-05
1.03511e-05
1.03511e-05
1.03511e-05
1.03511e-05
1.03511e-05
1.03511e-05
1.03512e-05
1.03512e-05
1.03512e-05
1.03512e-05
1.03513e-05
1.03513e-05
1.03513e-05
1.03514e-05
1.03514e-05
1.03515e-05
1.03515e-05
1.03516e-05
1.03517e-05
1.03518e-05
1.03519e-05
1.0352e-05
1.03521e-05
1.03523e-05
1.03524e-05
1.03526e-05
1.03529e-05
1.0351e-05
1.0351e-05
1.0351e-05
1.0351e-05
1.0351e-05
1.0351e-05
1.0351e-05
1.0351e-05
1.0351e-05
1.0351e-05
1.0351e-05
1.0351e-05
1.0351e-05
1.0351e-05
1.0351e-05
1.0351e-05
1.0351e-05
1.0351e-05
1.0351e-05
1.0351e-05
1.0351e-05
1.0351e-05
1.0351e-05
1.0351e-05
1.0351e-05
1.0351e-05
1.0351e-05
1.0351e-05
1.0351e-05
1.0351e-05
1.0351e-05
1.0351e-05
1.0351e-05
1.0351e-05
1.0351e-05
1.0351e-05
1.0351e-05
1.0351e-05
1.0351e-05
1.0351e-05
1.0351e-05
1.0351e-05
1.0351e-05
1.0351e-05
1.0351e-05
1.0351e-05
1.0351e-05
1.0351e-05
1.0351e-05
1.0351e-05
1.0351e-05
1.0351e-05
1.0351e-05
1.0351e-05
1.0351e-05
1.0351e-05
1.0351e-05
1.0351e-05
1.0351e-05
1.0351e-05
1.0351e-05
1.0351e-05
1.0351e-05
1.03511e-05
1.03511e-05
1.03511e-05
1.03511e-05
1.03511e-05
1.03511e-05
1.03511e-05
1.03511e-05
1.03511e-05
1.03511e-05
1.03511e-05
1.03511e-05
1.03512e-05
1.03512e-05
1.03512e-05
1.03512e-05
1.03512e-05
1.03513e-05
1.03513e-05
1.03513e-05
1.03514e-05
1.03514e-05
1.03515e-05
1.03515e-05
1.03516e-05
1.03517e-05
1.03517e-05
1.03518e-05
1.03519e-05
1.03521e-05
1.03522e-05
1.03523e-05
1.03525e-05
1.03527e-05
1.03529e-05
1.03532e-05
1.03535e-05
1.03538e-05
1.03542e-05
1.03546e-05
1.03551e-05
1.03556e-05
1.03562e-05
1.03569e-05
1.03577e-05
1.03587e-05
1.03598e-05
1.03611e-05
1.03625e-05
1.03642e-05
1.0351e-05
1.0351e-05
1.0351e-05
1.0351e-05
1.0351e-05
1.0351e-05
1.0351e-05
1.0351e-05
1.0351e-05
1.0351e-05
1.0351e-05
1.0351e-05
1.0351e-05
1.0351e-05
1.0351e-05
1.0351e-05
1.0351e-05
1.0351e-05
1.0351e-05
1.0351e-05
1.0351e-05
1.0351e-05
1.0351e-05
1.0351e-05
1.0351e-05
1.0351e-05
1.0351e-05
1.0351e-05
1.0351e-05
1.0351e-05
1.0351e-05
1.0351e-05
1.0351e-05
1.0351e-05
1.0351e-05
1.0351e-05
1.0351e-05
1.0351e-05
1.0351e-05
1.0351e-05
1.0351e-05
1.0351e-05
1.0351e-05
1.03511e-05
1.03511e-05
1.03511e-05
1.03511e-05
1.03511e-05
1.03511e-05
1.03511e-05
1.03511e-05
1.03511e-05
1.03511e-05
1.03511e-05
1.03511e-05
1.03511e-05
1.03511e-05
1.03511e-05
1.03512e-05
1.03512e-05
1.03512e-05
1.03512e-05
1.03512e-05
1.03512e-05
1.03513e-05
1.03513e-05
1.03513e-05
1.03513e-05
1.03514e-05
1.03514e-05
1.03515e-05
1.03515e-05
1.03516e-05
1.03516e-05
1.03517e-05
1.03518e-05
1.03519e-05
1.0352e-05
1.03521e-05
1.03522e-05
1.03523e-05
1.03525e-05
1.03527e-05
1.03529e-05
1.03531e-05
1.03534e-05
1.03536e-05
1.0354e-05
1.03544e-05
1.03548e-05
1.03553e-05
1.03559e-05
1.03565e-05
1.03571e-05
1.03579e-05
1.03588e-05
1.03598e-05
1.0361e-05
1.03624e-05
1.0364e-05
1.03658e-05
1.03678e-05
1.037e-05
1.03725e-05
1.03752e-05
1.03783e-05
1.03819e-05
1.03863e-05
1.03915e-05
1.03976e-05
1.04045e-05
1.04124e-05
1.04211e-05
1.0351e-05
1.0351e-05
1.0351e-05
1.0351e-05
1.0351e-05
1.0351e-05
1.0351e-05
1.0351e-05
1.0351e-05
1.0351e-05
1.0351e-05
1.0351e-05
1.0351e-05
1.0351e-05
1.0351e-05
1.0351e-05
1.0351e-05
1.0351e-05
1.0351e-05
1.0351e-05
1.0351e-05
1.0351e-05
1.03511e-05
1.03511e-05
1.03511e-05
1.03511e-05
1.03511e-05
1.03511e-05
1.03511e-05
1.03511e-05
1.03511e-05
1.03511e-05
1.03511e-05
1.03511e-05
1.03511e-05
1.03511e-05
1.03511e-05
1.03511e-05
1.03511e-05
1.03512e-05
1.03512e-05
1.03512e-05
1.03512e-05
1.03512e-05
1.03512e-05
1.03512e-05
1.03512e-05
1.03513e-05
1.03513e-05
1.03513e-05
1.03513e-05
1.03513e-05
1.03514e-05
1.03514e-05
1.03514e-05
1.03515e-05
1.03515e-05
1.03516e-05
1.03516e-05
1.03517e-05
1.03517e-05
1.03518e-05
1.03518e-05
1.03519e-05
1.0352e-05
1.03521e-05
1.03522e-05
1.03524e-05
1.03525e-05
1.03526e-05
1.03528e-05
1.0353e-05
1.03532e-05
1.03535e-05
1.03537e-05
1.0354e-05
1.03544e-05
1.03548e-05
1.03552e-05
1.03557e-05
1.03563e-05
1.03569e-05
1.03576e-05
1.03584e-05
1.03593e-05
1.03602e-05
1.03614e-05
1.03626e-05
1.03641e-05
1.03659e-05
1.03678e-05
1.03701e-05
1.03726e-05
1.03753e-05
1.03784e-05
1.03818e-05
1.03856e-05
1.039e-05
1.03953e-05
1.04015e-05
1.04087e-05
1.0417e-05
1.04263e-05
1.04367e-05
1.04481e-05
1.04605e-05
1.04742e-05
1.049e-05
1.05088e-05
1.05313e-05
1.05581e-05
1.05894e-05
1.06251e-05
1.06649e-05
1.07085e-05
1.0351e-05
1.0351e-05
1.03511e-05
1.03511e-05
1.03511e-05
1.03511e-05
1.03511e-05
1.03511e-05
1.03511e-05
1.03511e-05
1.03511e-05
1.03511e-05
1.03511e-05
1.03511e-05
1.03511e-05
1.03511e-05
1.03511e-05
1.03512e-05
1.03512e-05
1.03512e-05
1.03512e-05
1.03512e-05
1.03512e-05
1.03512e-05
1.03513e-05
1.03513e-05
1.03513e-05
1.03513e-05
1.03513e-05
1.03513e-05
1.03514e-05
1.03514e-05
1.03514e-05
1.03514e-05
1.03515e-05
1.03515e-05
1.03515e-05
1.03516e-05
1.03516e-05
1.03517e-05
1.03517e-05
1.03518e-05
1.03518e-05
1.03519e-05
1.03519e-05
1.0352e-05
1.03521e-05
1.03522e-05
1.03522e-05
1.03523e-05
1.03524e-05
1.03525e-05
1.03527e-05
1.03528e-05
1.0353e-05
1.03531e-05
1.03533e-05
1.03535e-05
1.03537e-05
1.0354e-05
1.03543e-05
1.03546e-05
1.03549e-05
1.03553e-05
1.03557e-05
1.03561e-05
1.03567e-05
1.03573e-05
1.0358e-05
1.03587e-05
1.03595e-05
1.03605e-05
1.03615e-05
1.03626e-05
1.03639e-05
1.03653e-05
1.03669e-05
1.03688e-05
1.0371e-05
1.03735e-05
1.03762e-05
1.03793e-05
1.03827e-05
1.03865e-05
1.03907e-05
1.03954e-05
1.04009e-05
1.04072e-05
1.04147e-05
1.04233e-05
1.04331e-05
1.04442e-05
1.04565e-05
1.047e-05
1.04848e-05
1.05012e-05
1.05199e-05
1.05418e-05
1.05677e-05
1.05984e-05
1.06339e-05
1.06743e-05
1.07193e-05
1.07688e-05
1.08225e-05
1.08806e-05
1.09443e-05
1.10176e-05
1.11058e-05
1.12124e-05
1.13381e-05
1.14819e-05
1.16416e-05
1.18148e-05
1.19989e-05
1.21923e-05
1.03511e-05
1.03511e-05
1.03511e-05
1.03511e-05
1.03511e-05
1.03512e-05
1.03512e-05
1.03512e-05
1.03512e-05
1.03512e-05
1.03512e-05
1.03513e-05
1.03513e-05
1.03513e-05
1.03513e-05
1.03513e-05
1.03514e-05
1.03514e-05
1.03514e-05
1.03515e-05
1.03515e-05
1.03515e-05
1.03516e-05
1.03516e-05
1.03517e-05
1.03517e-05
1.03518e-05
1.03518e-05
1.03519e-05
1.03519e-05
1.0352e-05
1.03521e-05
1.03521e-05
1.03522e-05
1.03523e-05
1.03524e-05
1.03525e-05
1.03526e-05
1.03527e-05
1.03528e-05
1.03529e-05
1.0353e-05
1.03532e-05
1.03533e-05
1.03535e-05
1.03537e-05
1.03538e-05
1.0354e-05
1.03543e-05
1.03545e-05
1.03548e-05
1.0355e-05
1.03553e-05
1.03557e-05
1.0356e-05
1.03564e-05
1.03568e-05
1.03573e-05
1.03578e-05
1.03583e-05
1.0359e-05
1.03597e-05
1.03605e-05
1.03613e-05
1.03623e-05
1.03633e-05
1.03644e-05
1.03656e-05
1.0367e-05
1.03685e-05
1.03702e-05
1.03721e-05
1.03743e-05
1.03768e-05
1.03796e-05
1.03828e-05
1.03863e-05
1.03901e-05
1.03944e-05
1.0399e-05
1.04042e-05
1.04101e-05
1.04169e-05
1.04247e-05
1.04338e-05
1.04442e-05
1.04559e-05
1.04691e-05
1.04836e-05
1.04996e-05
1.05171e-05
1.05365e-05
1.05586e-05
1.05842e-05
1.06142e-05
1.06493e-05
1.06897e-05
1.07354e-05
1.07863e-05
1.08423e-05
1.09031e-05
1.09689e-05
1.10411e-05
1.11234e-05
1.12208e-05
1.13367e-05
1.1472e-05
1.16258e-05
1.17963e-05
1.19811e-05
1.21779e-05
1.23849e-05
1.26017e-05
1.28326e-05
1.30941e-05
1.34064e-05
1.37729e-05
1.41854e-05
1.46318e-05
1.51002e-05
1.558e-05
1.60634e-05
1.6545e-05
1.03514e-05
1.03514e-05
1.03515e-05
1.03515e-05
1.03516e-05
1.03516e-05
1.03517e-05
1.03518e-05
1.03518e-05
1.03519e-05
1.0352e-05
1.03521e-05
1.03521e-05
1.03522e-05
1.03523e-05
1.03525e-05
1.03526e-05
1.03527e-05
1.03528e-05
1.0353e-05
1.03531e-05
1.03533e-05
1.03534e-05
1.03536e-05
1.03538e-05
1.0354e-05
1.03542e-05
1.03544e-05
1.03546e-05
1.03549e-05
1.03552e-05
1.03554e-05
1.03558e-05
1.03561e-05
1.03564e-05
1.03568e-05
1.03572e-05
1.03576e-05
1.0358e-05
1.03585e-05
1.0359e-05
1.03595e-05
1.03601e-05
1.03607e-05
1.03614e-05
1.03622e-05
1.0363e-05
1.03639e-05
1.03648e-05
1.03659e-05
1.0367e-05
1.03682e-05
1.03695e-05
1.03709e-05
1.03724e-05
1.03741e-05
1.03759e-05
1.03779e-05
1.03802e-05
1.03827e-05
1.03855e-05
1.03887e-05
1.03921e-05
1.03959e-05
1.04001e-05
1.04046e-05
1.04096e-05
1.0415e-05
1.04211e-05
1.04278e-05
1.04355e-05
1.04442e-05
1.04543e-05
1.04656e-05
1.04784e-05
1.04927e-05
1.05085e-05
1.05258e-05
1.05447e-05
1.05655e-05
1.05886e-05
1.06149e-05
1.06453e-05
1.06806e-05
1.07212e-05
1.07674e-05
1.08192e-05
1.08765e-05
1.09394e-05
1.10076e-05
1.10815e-05
1.11625e-05
1.12546e-05
1.13623e-05
1.14886e-05
1.16343e-05
1.17987e-05
1.198e-05
1.21761e-05
1.23849e-05
1.26048e-05
1.28353e-05
1.30804e-05
1.33551e-05
1.36768e-05
1.40482e-05
1.44617e-05
1.49069e-05
1.53735e-05
1.58521e-05
1.63352e-05
1.68173e-05
1.72971e-05
1.77809e-05
1.83183e-05
1.89801e-05
1.97215e-05
2.04894e-05
2.12461e-05
2.19685e-05
2.26424e-05
2.32614e-05
2.38258e-05
1.03527e-05
1.03528e-05
1.0353e-05
1.03532e-05
1.03534e-05
1.03536e-05
1.03539e-05
1.03541e-05
1.03544e-05
1.03547e-05
1.0355e-05
1.03554e-05
1.03557e-05
1.03561e-05
1.03565e-05
1.03569e-05
1.03574e-05
1.03579e-05
1.03584e-05
1.0359e-05
1.03596e-05
1.03602e-05
1.03609e-05
1.03616e-05
1.03623e-05
1.03631e-05
1.0364e-05
1.03649e-05
1.03658e-05
1.03669e-05
1.0368e-05
1.03692e-05
1.03704e-05
1.03718e-05
1.03732e-05
1.03747e-05
1.03764e-05
1.03781e-05
1.03799e-05
1.03818e-05
1.03839e-05
1.03861e-05
1.03885e-05
1.03911e-05
1.0394e-05
1.03972e-05
1.04006e-05
1.04043e-05
1.04084e-05
1.04128e-05
1.04175e-05
1.04226e-05
1.04281e-05
1.04339e-05
1.04403e-05
1.04473e-05
1.04551e-05
1.04637e-05
1.04735e-05
1.04844e-05
1.04966e-05
1.05101e-05
1.0525e-05
1.05414e-05
1.05592e-05
1.05786e-05
1.05997e-05
1.06227e-05
1.06482e-05
1.06769e-05
1.07097e-05
1.07472e-05
1.07898e-05
1.08379e-05
1.08914e-05
1.09506e-05
1.10153e-05
1.10856e-05
1.11617e-05
1.12441e-05
1.13354e-05
1.14394e-05
1.156e-05
1.1699e-05
1.18566e-05
1.20318e-05
1.22232e-05
1.2429e-05
1.26475e-05
1.28774e-05
1.31186e-05
1.33756e-05
1.36628e-05
1.39935e-05
1.43687e-05
1.47818e-05
1.52237e-05
1.56853e-05
1.61587e-05
1.66373e-05
1.71159e-05
1.75933e-05
1.80748e-05
1.8606e-05
1.9243e-05
1.99475e-05
2.0674e-05
2.13902e-05
2.20761e-05
2.27196e-05
2.33134e-05
2.38563e-05
2.43487e-05
2.47921e-05
2.51852e-05
2.55231e-05
2.5817e-05
2.60768e-05
2.6306e-05
2.65059e-05
2.66775e-05
2.68232e-05
2.69448e-05
1.03578e-05
1.03585e-05
1.03592e-05
1.036e-05
1.03608e-05
1.03617e-05
1.03626e-05
1.03636e-05
1.03647e-05
1.03659e-05
1.03671e-05
1.03684e-05
1.03699e-05
1.03714e-05
1.0373e-05
1.03748e-05
1.03766e-05
1.03786e-05
1.03807e-05
1.0383e-05
1.03853e-05
1.03878e-05
1.03904e-05
1.03932e-05
1.03961e-05
1.03993e-05
1.04027e-05
1.04063e-05
1.04102e-05
1.04143e-05
1.04187e-05
1.04235e-05
1.04285e-05
1.04339e-05
1.04396e-05
1.04457e-05
1.04521e-05
1.04588e-05
1.0466e-05
1.04737e-05
1.04819e-05
1.04909e-05
1.05008e-05
1.05115e-05
1.05233e-05
1.05362e-05
1.05502e-05
1.05654e-05
1.05819e-05
1.05997e-05
1.06188e-05
1.06392e-05
1.06611e-05
1.06847e-05
1.07101e-05
1.07382e-05
1.07694e-05
1.08044e-05
1.08437e-05
1.08874e-05
1.09358e-05
1.09892e-05
1.10475e-05
1.11109e-05
1.11795e-05
1.12533e-05
1.13326e-05
1.14183e-05
1.15128e-05
1.16196e-05
1.17415e-05
1.18799e-05
1.20349e-05
1.2206e-05
1.2392e-05
1.2592e-05
1.28047e-05
1.3029e-05
1.32643e-05
1.35122e-05
1.378e-05
1.40818e-05
1.4423e-05
1.48011e-05
1.52098e-05
1.56421e-05
1.60907e-05
1.65496e-05
1.70135e-05
1.74786e-05
1.79441e-05
1.84157e-05
1.89417e-05
1.95539e-05
2.02189e-05
2.09005e-05
2.15723e-05
2.2217e-05
2.28241e-05
2.33874e-05
2.39056e-05
2.43785e-05
2.48059e-05
2.51872e-05
2.55194e-05
2.5809e-05
2.60628e-05
2.62871e-05
2.64852e-05
2.66575e-05
2.68043e-05
2.69272e-05
2.70283e-05
2.71097e-05
2.71725e-05
2.72205e-05
2.72585e-05
2.72881e-05
2.7316e-05
2.73479e-05
2.73811e-05
2.74129e-05
2.74429e-05
2.74701e-05
2.7493e-05
1.03779e-05
1.03805e-05
1.03833e-05
1.03863e-05
1.03895e-05
1.0393e-05
1.03967e-05
1.04006e-05
1.04048e-05
1.04093e-05
1.04141e-05
1.04193e-05
1.04249e-05
1.04308e-05
1.04371e-05
1.04438e-05
1.0451e-05
1.04586e-05
1.04666e-05
1.04751e-05
1.0484e-05
1.04935e-05
1.05034e-05
1.0514e-05
1.05253e-05
1.05374e-05
1.05504e-05
1.05643e-05
1.05792e-05
1.05952e-05
1.06123e-05
1.06306e-05
1.06499e-05
1.06705e-05
1.06922e-05
1.07151e-05
1.07392e-05
1.07645e-05
1.07914e-05
1.08201e-05
1.08512e-05
1.08851e-05
1.09222e-05
1.09626e-05
1.10067e-05
1.10545e-05
1.11063e-05
1.11621e-05
1.12219e-05
1.1286e-05
1.13542e-05
1.14267e-05
1.15035e-05
1.15853e-05
1.16734e-05
1.17704e-05
1.18785e-05
1.19993e-05
1.21332e-05
1.22803e-05
1.24403e-05
1.26126e-05
1.27967e-05
1.29919e-05
1.31977e-05
1.34134e-05
1.3639e-05
1.38768e-05
1.41344e-05
1.44217e-05
1.47414e-05
1.5091e-05
1.54659e-05
1.58612e-05
1.62722e-05
1.66946e-05
1.71244e-05
1.75583e-05
1.79942e-05
1.84335e-05
1.88896e-05
1.94191e-05
2.00072e-05
2.0625e-05
2.12482e-05
2.18591e-05
2.24456e-05
2.30003e-05
2.35183e-05
2.39985e-05
2.44404e-05
2.48434e-05
2.52034e-05
2.55195e-05
2.57989e-05
2.6046e-05
2.62646e-05
2.6458e-05
2.66278e-05
2.67748e-05
2.69004e-05
2.70047e-05
2.70897e-05
2.7158e-05
2.72118e-05
2.72547e-05
2.72908e-05
2.73227e-05
2.73519e-05
2.73819e-05
2.74138e-05
2.74447e-05
2.74726e-05
2.74969e-05
2.7517e-05
2.75317e-05
2.7541e-05
2.75472e-05
2.75538e-05
2.75601e-05
2.75664e-05
2.75758e-05
2.75878e-05
2.76e-05
2.7611e-05
1.04549e-05
1.04647e-05
1.04752e-05
1.04865e-05
1.04985e-05
1.05113e-05
1.0525e-05
1.05396e-05
1.05552e-05
1.05719e-05
1.05898e-05
1.0609e-05
1.06295e-05
1.06514e-05
1.06747e-05
1.06994e-05
1.07256e-05
1.07533e-05
1.07824e-05
1.08129e-05
1.08449e-05
1.08785e-05
1.09138e-05
1.09514e-05
1.09914e-05
1.10342e-05
1.10799e-05
1.11287e-05
1.11806e-05
1.12359e-05
1.12944e-05
1.13563e-05
1.14215e-05
1.149e-05
1.15618e-05
1.16367e-05
1.17148e-05
1.17962e-05
1.18819e-05
1.19734e-05
1.20725e-05
1.21802e-05
1.22973e-05
1.24238e-05
1.25598e-05
1.27051e-05
1.28596e-05
1.30228e-05
1.31944e-05
1.3374e-05
1.35612e-05
1.37557e-05
1.39571e-05
1.41669e-05
1.43891e-05
1.46314e-05
1.48969e-05
1.51848e-05
1.54932e-05
1.58195e-05
1.61611e-05
1.65157e-05
1.68807e-05
1.72539e-05
1.7633e-05
1.8016e-05
1.84021e-05
1.87939e-05
1.92109e-05
1.96862e-05
2.02043e-05
2.07445e-05
2.12901e-05
2.18289e-05
2.23522e-05
2.28543e-05
2.33312e-05
2.37803e-05
2.42006e-05
2.45904e-05
2.49491e-05
2.52702e-05
2.55566e-05
2.5812e-05
2.60412e-05
2.62468e-05
2.64297e-05
2.65907e-05
2.6731e-05
2.68529e-05
2.69572e-05
2.7044e-05
2.71141e-05
2.71714e-05
2.72192e-05
2.72597e-05
2.72963e-05
2.73308e-05
2.73636e-05
2.73969e-05
2.743e-05
2.74606e-05
2.74881e-05
2.75114e-05
2.75297e-05
2.75435e-05
2.7554e-05
2.75619e-05
2.75692e-05
2.75782e-05
2.75889e-05
2.75996e-05
2.76105e-05
2.76227e-05
2.76341e-05
2.76431e-05
2.76501e-05
2.76549e-05
2.76598e-05
2.7664e-05
2.76676e-05
2.76722e-05
2.76793e-05
2.76877e-05
2.76962e-05
1.07026e-05
1.07352e-05
1.07702e-05
1.08076e-05
1.08473e-05
1.08895e-05
1.09341e-05
1.09813e-05
1.10314e-05
1.10847e-05
1.11415e-05
1.12018e-05
1.12659e-05
1.13338e-05
1.14055e-05
1.1481e-05
1.15603e-05
1.16432e-05
1.17296e-05
1.18193e-05
1.19123e-05
1.20084e-05
1.21082e-05
1.22128e-05
1.23233e-05
1.24404e-05
1.25646e-05
1.26961e-05
1.28346e-05
1.29801e-05
1.31322e-05
1.32905e-05
1.34547e-05
1.36242e-05
1.37986e-05
1.39775e-05
1.41604e-05
1.43469e-05
1.45376e-05
1.4735e-05
1.49442e-05
1.51679e-05
1.54059e-05
1.56574e-05
1.59213e-05
1.61965e-05
1.64819e-05
1.67762e-05
1.70782e-05
1.73865e-05
1.76997e-05
1.80166e-05
1.83362e-05
1.86576e-05