/*--------------------------------*- C++ -*----------------------------------*\
| =========                 |                                                 |
| \\      /  F ield         | OpenFOAM: The Open Source CFD Toolbox           |
|  \\    /   O peration     | Version:  v1706                                 |
|   \\  /    A nd           | Web:      www.OpenFOAM.com                      |
|    \\/     M anipulation  |                                                 |
\*---------------------------------------------------------------------------*/
FoamFile
{
    version     2.0;
    format      ascii;
    class       volScalarField;
    location    "3.2e-05";
    object      rho;
}
// * * * * * * * * * * * * * * * * * * * * * * * * * * * * * * * * * * * * * //

dimensions      [1 -3 0 0 0 0 0];


internalField   nonuniform List<scalar> 
29871
(
0.000511309
0.000511309
0.000511309
0.000511309
0.000511309
0.000511309
0.000511309
0.000511309
0.000511309
0.000511309
0.000511309
0.000511309
0.000511309
0.000511309
0.000511309
0.000511309
0.000511309
0.000511309
0.000511309
0.000511309
0.000511309
0.000511309
0.000511309
0.000511309
0.000511309
0.000511309
0.000511309
0.000511309
0.000511309
0.000511309
0.000511309
0.000511309
0.000511309
0.000511309
0.000511309
0.000511309
0.000511309
0.000511309
0.000511309
0.000511309
0.000511309
0.000511309
0.000511309
0.000511309
0.000511309
0.000511309
0.000511309
0.000511309
0.000511309
0.000511309
0.000511309
0.000511309
0.000511309
0.000511309
0.000511309
0.000511309
0.000511309
0.000511309
0.000511309
0.000511309
0.000511309
0.000511309
0.000511309
0.000511309
0.000511309
0.000511309
0.000511309
0.000511309
0.000511309
0.000511309
0.000511309
0.000511309
0.000511309
0.000511309
0.000511309
0.000511309
0.000511309
0.000511309
0.000511309
0.000511309
0.000511309
0.000511309
0.000511309
0.000511309
0.000511309
0.000511309
0.000511309
0.000511309
0.000511309
0.000511309
0.000511309
0.000511309
0.000511309
0.000511309
0.000511309
0.000511309
0.000511309
0.000511309
0.000511309
0.000511309
0.000511309
0.000511309
0.000511309
0.000511309
0.000511309
0.000511309
0.000511309
0.000511309
0.000511309
0.000511309
0.000511309
0.000511309
0.000511309
0.000511309
0.000511309
0.000511309
0.000511309
0.000511309
0.000511309
0.000511309
0.000511309
0.000511309
0.000511309
0.000511309
0.000511309
0.000511309
0.000511309
0.000511309
0.000511309
0.000511309
0.000511309
0.000511309
0.000511309
0.000511309
0.000511309
0.000511309
0.000511309
0.000511309
0.000511309
0.000511309
0.000511309
0.000511309
0.000511309
0.000511309
0.000511309
0.000511309
0.000511309
0.000511309
0.000511309
0.000511309
0.000511309
0.000511309
0.000511309
0.000511309
0.000511309
0.000511309
0.000511309
0.000511309
0.000511309
0.000511309
0.000511309
0.000511309
0.000511309
0.000511309
0.000511309
0.000511309
0.000511309
0.000511309
0.000511309
0.000511309
0.000511309
0.000511309
0.000511309
0.000511309
0.000511309
0.000511309
0.000511309
0.000511309
0.000511309
0.000511309
0.000511309
0.000511309
0.000511309
0.000511309
0.000511309
0.000511309
0.000511309
0.000511309
0.000511309
0.000511309
0.000511309
0.000511309
0.000511309
0.000511309
0.000511309
0.000511309
0.000511309
0.000511309
0.000511309
0.000511309
0.000511309
0.000511309
0.000511309
0.000511309
0.000511309
0.000511309
0.000511309
0.000511309
0.000511309
0.000511309
0.000511309
0.000511309
0.000511309
0.000511309
0.000511309
0.000511309
0.000511309
0.000511309
0.000511309
0.000511309
0.000511309
0.000511309
0.000511309
0.000511309
0.000511309
0.000511309
0.000511309
0.000511309
0.000511309
0.000511309
0.000511309
0.000511309
0.000511309
0.000511309
0.000511309
0.000511309
0.000511309
0.000511309
0.000511309
0.000511309
0.000511309
0.000511309
0.000511309
0.000511309
0.000511309
0.000511309
0.000511309
0.000511309
0.000511309
0.000511309
0.000511309
0.000511309
0.000511309
0.000511309
0.000511309
0.000511309
0.000511309
0.000511309
0.000511309
0.000511309
0.000511309
0.000511309
0.000511309
0.000511309
0.000511309
0.000511309
0.000511309
0.000511309
0.000511309
0.000511309
0.000511309
0.000511309
0.000511309
0.000511309
0.000511309
0.000511309
0.000511309
0.000511309
0.000511309
0.000511309
0.000511309
0.000511309
0.000511309
0.000511309
0.000511309
0.000511309
0.000511309
0.000511309
0.000511309
0.000511309
0.000511309
0.000511309
0.000511309
0.000511309
0.000511309
0.000511309
0.000511309
0.000511309
0.000511309
0.000511309
0.000511309
0.000511309
0.000511309
0.000511309
0.000511309
0.000511309
0.000511309
0.000511309
0.000511309
0.000511309
0.000511309
0.000511309
0.000511309
0.000511309
0.000511309
0.000511309
0.000511309
0.000511309
0.000511309
0.000511309
0.000511309
0.000511309
0.000511309
0.000511309
0.000511309
0.000511309
0.000511309
0.000511309
0.000511309
0.000511309
0.000511309
0.000511309
0.000511309
0.000511309
0.000511309
0.000511309
0.000511309
0.000511309
0.000511309
0.000511309
0.000511309
0.000511309
0.000511309
0.000511309
0.000511309
0.000511309
0.000511309
0.000511309
0.000511309
0.000511309
0.000511309
0.000511309
0.000511309
0.000511309
0.000511309
0.000511309
0.000511309
0.000511309
0.000511309
0.000511309
0.000511309
0.000511309
0.000511309
0.000511309
0.000511309
0.000511309
0.000511309
0.000511309
0.000511309
0.000511309
0.000511309
0.000511309
0.000511309
0.000511309
0.000511309
0.000511309
0.000511309
0.000511309
0.000511309
0.000511309
0.000511309
0.000511309
0.000511309
0.000511309
0.000511309
0.000511309
0.000511309
0.000511309
0.000511309
0.000511309
0.000511309
0.000511309
0.000511309
0.000511309
0.000511309
0.000511309
0.000511309
0.000511309
0.000511309
0.000511309
0.000511309
0.000511309
0.000511309
0.000511309
0.000511309
0.000511309
0.000511309
0.000511309
0.000511309
0.000511309
0.000511309
0.000511309
0.000511309
0.000511309
0.000511309
0.000511309
0.000511309
0.000511309
0.000511309
0.000511309
0.000511309
0.000511309
0.000511309
0.000511309
0.000511309
0.000511309
0.000511309
0.000511309
0.000511309
0.000511309
0.000511309
0.000511309
0.000511309
0.000511309
0.000511309
0.000511309
0.000511309
0.000511309
0.000511309
0.000511309
0.000511309
0.000511309
0.000511309
0.000511309
0.000511309
0.000511309
0.000511309
0.000511309
0.000511309
0.000511309
0.000511309
0.000511309
0.000511309
0.000511309
0.000511309
0.000511309
0.000511309
0.000511309
0.000511309
0.000511309
0.000511309
0.000511309
0.000511309
0.000511309
0.000511309
0.000511309
0.000511309
0.000511309
0.000511309
0.000511309
0.000511309
0.000511309
0.000511309
0.000511309
0.000511309
0.000511309
0.000511309
0.000511309
0.000511309
0.000511309
0.000511309
0.000511309
0.000511309
0.000511309
0.000511309
0.000511309
0.000511309
0.000511309
0.000511309
0.000511309
0.000511309
0.000511309
0.000511309
0.000511309
0.000511309
0.000511309
0.000511309
0.000511309
0.000511309
0.000511309
0.000511309
0.000511309
0.000511309
0.000511309
0.000511309
0.000511309
0.000511309
0.000511309
0.000511309
0.000511309
0.000511309
0.000511309
0.000511309
0.000511309
0.000511309
0.000511309
0.000511309
0.000511309
0.000511309
0.000511309
0.000511309
0.000511309
0.000511309
0.000511309
0.000511309
0.000511309
0.000511309
0.000511309
0.000511309
0.000511309
0.000511309
0.000511309
0.000511309
0.000511309
0.000511309
0.000511309
0.000511309
0.000511309
0.000511309
0.000511309
0.000511309
0.000511309
0.000511309
0.000511309
0.000511309
0.000511309
0.000511309
0.000511309
0.000511309
0.000511309
0.000511309
0.000511309
0.000511309
0.000511309
0.000511309
0.000511309
0.000511309
0.000511309
0.000511309
0.000511309
0.000511309
0.000511309
0.000511309
0.000511309
0.000511309
0.000511309
0.000511309
0.000511309
0.000511309
0.000511309
0.000511309
0.000511309
0.000511309
0.000511309
0.000511309
0.000511309
0.000511309
0.000511309
0.000511309
0.000511309
0.000511309
0.000511309
0.000511309
0.000511309
0.000511309
0.000511309
0.000511309
0.000511309
0.000511309
0.000511309
0.000511309
0.000511309
0.000511309
0.000511309
0.000511309
0.000511309
0.000511309
0.000511309
0.000511309
0.000511309
0.000511309
0.000511309
0.000511309
0.000511309
0.000511309
0.000511309
0.000511309
0.000511309
0.000511309
0.000511309
0.000511309
0.000511309
0.000511309
0.000511309
0.000511309
0.000511309
0.000511309
0.000511309
0.000511309
0.000511309
0.000511309
0.000511309
0.000511309
0.000511309
0.000511309
0.000511309
0.000511309
0.000511309
0.000511309
0.000511309
0.000511309
0.000511309
0.000511309
0.000511309
0.000511309
0.000511309
0.000511309
0.000511309
0.000511309
0.000511309
0.000511309
0.000511309
0.000511309
0.000511309
0.000511309
0.000511309
0.000511309
0.000511309
0.000511309
0.000511309
0.000511309
0.000511309
0.000511309
0.000511309
0.000511309
0.000511309
0.000511309
0.000511309
0.000511309
0.000511309
0.000511309
0.000511309
0.000511309
0.000511309
0.000511309
0.000511309
0.000511309
0.000511309
0.000511309
0.000511309
0.000511309
0.000511309
0.000511309
0.000511309
0.000511309
0.000511309
0.000511309
0.000511309
0.000511309
0.000511309
0.000511309
0.000511309
0.000511309
0.000511309
0.000511309
0.000511309
0.000511309
0.000511309
0.000511309
0.000511309
0.000511309
0.000511309
0.000511309
0.000511309
0.000511309
0.000511309
0.000511309
0.000511309
0.000511309
0.000511309
0.000511309
0.000511309
0.000511309
0.000511309
0.000511309
0.000511309
0.000511309
0.000511309
0.000511309
0.000511309
0.000511309
0.000511309
0.000511309
0.000511309
0.000511309
0.000511309
0.000511309
0.000511309
0.000511309
0.000511309
0.000511309
0.000511309
0.000511309
0.000511309
0.000511309
0.000511309
0.000511309
0.000511309
0.000511309
0.000511309
0.000511309
0.000511309
0.000511309
0.000511309
0.000511309
0.000511309
0.000511309
0.000511309
0.000511309
0.000511309
0.000511309
0.000511309
0.000511309
0.000511309
0.000511309
0.000511309
0.000511309
0.000511309
0.000511309
0.000511309
0.000511309
0.000511309
0.000511309
0.000511309
0.000511309
0.000511309
0.000511309
0.000511309
0.000511309
0.000511309
0.000511309
0.000511309
0.000511309
0.000511309
0.000511309
0.000511309
0.000511309
0.000511309
0.000511309
0.000511309
0.000511309
0.000511309
0.000511309
0.000511309
0.000511309
0.000511309
0.000511309
0.000511309
0.000511309
0.000511309
0.000511309
0.000511309
0.000511309
0.000511309
0.000511309
0.000511309
0.000511309
0.000511309
0.000511309
0.000511309
0.000511309
0.000511309
0.000511309
0.000511309
0.000511309
0.000511309
0.000511309
0.000511309
0.000511309
0.000511309
0.000511309
0.000511309
0.000511309
0.000511309
0.000511309
0.000511309
0.000511309
0.000511309
0.000511309
0.000511309
0.000511309
0.000511309
0.000511309
0.000511309
0.000511309
0.000511309
0.000511309
0.000511309
0.000511309
0.000511309
0.000511309
0.000511309
0.000511309
0.000511309
0.000511309
0.000511309
0.000511309
0.000511309
0.000511309
0.000511309
0.000511309
0.000511309
0.000511309
0.000511309
0.000511309
0.000511309
0.000511309
0.000511309
0.000511309
0.000511309
0.000511309
0.000511309
0.000511309
0.000511309
0.000511309
0.000511309
0.000511309
0.000511309
0.000511309
0.000511309
0.000511309
0.000511309
0.000511309
0.000511309
0.000511309
0.000511309
0.000511309
0.000511309
0.000511309
0.000511309
0.000511309
0.000511309
0.000511309
0.000511309
0.000511309
0.000511309
0.000511309
0.000511309
0.000511309
0.000511309
0.000511309
0.000511309
0.000511309
0.000511309
0.000511309
0.000511309
0.000511309
0.000511309
0.000511309
0.000511309
0.000511309
0.000511309
0.000511309
0.000511309
0.000511309
0.000511309
0.000511309
0.000511309
0.000511309
0.000511309
0.000511309
0.000511309
0.000511309
0.000511309
0.000511309
0.000511309
0.000511309
0.000511309
0.000511309
0.000511309
0.000511309
0.000511309
0.000511309
0.000511309
0.000511309
0.000511309
0.000511309
0.000511309
0.000511309
0.000511309
0.000511309
0.000511309
0.000511309
0.000511309
0.000511309
0.000511309
0.000511309
0.000511309
0.000511309
0.000511309
0.000511309
0.000511309
0.000511309
0.000511309
0.000511309
0.000511309
0.000511309
0.000511309
0.000511309
0.000511309
0.000511309
0.000511309
0.000511309
0.000511309
0.000511309
0.000511309
0.000511309
0.000511309
0.000511309
0.000511309
0.000511309
0.000511309
0.000511309
0.000511309
0.000511309
0.000511309
0.000511309
0.000511309
0.000511309
0.000511309
0.000511309
0.000511309
0.000511309
0.000511309
0.000511309
0.000511309
0.000511309
0.000511309
0.000511309
0.000511309
0.000511309
0.000511309
0.000511309
0.000511309
0.000511309
0.00051131
0.000511309
0.000511309
0.000511309
0.000511309
0.000511309
0.000511309
0.000511309
0.000511309
0.000511309
0.000511309
0.000511309
0.000511309
0.000511309
0.000511309
0.000511309
0.000511309
0.000511309
0.000511309
0.000511309
0.000511309
0.000511309
0.000511309
0.000511309
0.000511309
0.000511309
0.000511309
0.000511309
0.000511309
0.000511309
0.000511309
0.000511309
0.000511309
0.000511309
0.000511309
0.000511309
0.000511309
0.000511309
0.000511309
0.000511309
0.000511309
0.000511309
0.000511309
0.000511309
0.000511309
0.000511309
0.000511309
0.000511309
0.000511309
0.000511309
0.000511309
0.000511309
0.000511309
0.000511309
0.000511309
0.000511309
0.000511309
0.000511309
0.000511309
0.000511309
0.000511309
0.000511309
0.000511309
0.000511309
0.000511309
0.000511309
0.000511309
0.000511309
0.000511309
0.000511309
0.000511309
0.000511309
0.000511309
0.000511309
0.000511309
0.000511309
0.000511309
0.000511309
0.000511309
0.000511309
0.000511309
0.000511309
0.000511309
0.000511309
0.000511309
0.000511309
0.000511309
0.000511309
0.000511309
0.000511309
0.000511309
0.000511309
0.000511309
0.000511309
0.000511309
0.00051131
0.00051131
0.00051131
0.00051131
0.00051131
0.00051131
0.00051131
0.00051131
0.00051131
0.00051131
0.00051131
0.00051131
0.00051131
0.00051131
0.00051131
0.00051131
0.000511309
0.000511309
0.000511309
0.000511309
0.000511309
0.000511309
0.000511309
0.000511309
0.000511309
0.000511309
0.000511309
0.000511309
0.000511309
0.000511309
0.000511309
0.000511309
0.000511309
0.000511309
0.000511309
0.000511309
0.000511309
0.000511309
0.000511309
0.000511309
0.000511309
0.000511309
0.000511309
0.000511309
0.000511309
0.000511309
0.000511309
0.000511309
0.000511309
0.000511309
0.000511309
0.000511309
0.000511309
0.000511309
0.000511309
0.000511309
0.000511309
0.000511309
0.000511309
0.000511309
0.000511309
0.000511309
0.000511309
0.000511309
0.000511309
0.000511309
0.000511309
0.000511309
0.000511309
0.000511309
0.000511309
0.000511309
0.000511309
0.000511309
0.000511309
0.000511309
0.000511309
0.000511309
0.000511309
0.000511309
0.000511309
0.000511309
0.000511309
0.000511309
0.000511309
0.000511309
0.000511309
0.000511309
0.000511309
0.000511309
0.000511309
0.000511309
0.000511309
0.000511309
0.000511309
0.000511309
0.00051131
0.00051131
0.00051131
0.00051131
0.00051131
0.00051131
0.00051131
0.00051131
0.00051131
0.00051131
0.00051131
0.00051131
0.00051131
0.00051131
0.00051131
0.00051131
0.00051131
0.000511311
0.000511311
0.000511311
0.000511311
0.000511311
0.000511312
0.000511312
0.000511312
0.000511313
0.000511313
0.000511313
0.000511314
0.000511314
0.000511309
0.000511309
0.000511309
0.000511309
0.000511309
0.000511309
0.000511309
0.000511309
0.000511309
0.000511309
0.000511309
0.000511309
0.000511309
0.000511309
0.000511309
0.000511309
0.000511309
0.000511309
0.000511309
0.000511309
0.000511309
0.000511309
0.000511309
0.000511309
0.000511309
0.000511309
0.000511309
0.000511309
0.000511309
0.000511309
0.000511309
0.000511309
0.000511309
0.000511309
0.000511309
0.000511309
0.000511309
0.000511309
0.000511309
0.000511309
0.000511309
0.000511309
0.000511309
0.000511309
0.000511309
0.000511309
0.000511309
0.000511309
0.000511309
0.000511309
0.000511309
0.000511309
0.000511309
0.000511309
0.000511309
0.000511309
0.000511309
0.000511309
0.000511309
0.000511309
0.000511309
0.000511309
0.000511309
0.000511309
0.00051131
0.00051131
0.00051131
0.00051131
0.00051131
0.00051131
0.00051131
0.00051131
0.00051131
0.00051131
0.00051131
0.00051131
0.00051131
0.00051131
0.00051131
0.00051131
0.00051131
0.00051131
0.00051131
0.00051131
0.000511311
0.000511311
0.000511311
0.000511311
0.000511311
0.000511311
0.000511312
0.000511312
0.000511312
0.000511313
0.000511313
0.000511314
0.000511314
0.000511315
0.000511316
0.000511316
0.000511317
0.000511318
0.000511319
0.000511321
0.000511322
0.000511324
0.000511325
0.000511328
0.00051133
0.000511334
0.000511337
0.000511309
0.000511309
0.000511309
0.000511309
0.000511309
0.000511309
0.000511309
0.000511309
0.000511309
0.000511309
0.000511309
0.000511309
0.000511309
0.000511309
0.000511309
0.000511309
0.000511309
0.000511309
0.000511309
0.000511309
0.000511309
0.000511309
0.000511309
0.000511309
0.000511309
0.000511309
0.000511309
0.000511309
0.000511309
0.000511309
0.000511309
0.000511309
0.000511309
0.000511309
0.000511309
0.000511309
0.000511309
0.000511309
0.000511309
0.000511309
0.000511309
0.000511309
0.000511309
0.00051131
0.00051131
0.00051131
0.00051131
0.00051131
0.00051131
0.00051131
0.00051131
0.00051131
0.00051131
0.00051131
0.00051131
0.00051131
0.00051131
0.00051131
0.00051131
0.00051131
0.00051131
0.00051131
0.00051131
0.00051131
0.00051131
0.00051131
0.00051131
0.00051131
0.00051131
0.000511311
0.000511311
0.000511311
0.000511311
0.000511311
0.000511311
0.000511312
0.000511312
0.000511312
0.000511313
0.000511313
0.000511313
0.000511314
0.000511314
0.000511315
0.000511316
0.000511316
0.000511317
0.000511318
0.000511319
0.00051132
0.000511322
0.000511323
0.000511325
0.000511326
0.000511329
0.000511331
0.000511334
0.000511337
0.000511341
0.000511346
0.000511351
0.000511357
0.000511363
0.000511371
0.000511379
0.000511387
0.000511397
0.000511409
0.000511422
0.000511436
0.000511453
0.000511472
0.000511494
0.000511309
0.000511309
0.000511309
0.000511309
0.000511309
0.000511309
0.000511309
0.000511309
0.000511309
0.000511309
0.000511309
0.000511309
0.000511309
0.000511309
0.000511309
0.000511309
0.000511309
0.000511309
0.000511309
0.000511309
0.00051131
0.00051131
0.00051131
0.00051131
0.00051131
0.00051131
0.00051131
0.00051131
0.00051131
0.00051131
0.00051131
0.00051131
0.00051131
0.00051131
0.00051131
0.00051131
0.00051131
0.00051131
0.00051131
0.00051131
0.00051131
0.00051131
0.00051131
0.00051131
0.00051131
0.00051131
0.00051131
0.00051131
0.00051131
0.00051131
0.000511311
0.000511311
0.000511311
0.000511311
0.000511311
0.000511311
0.000511311
0.000511311
0.000511312
0.000511312
0.000511312
0.000511312
0.000511312
0.000511313
0.000511313
0.000511313
0.000511314
0.000511314
0.000511315
0.000511316
0.000511316
0.000511317
0.000511318
0.000511319
0.00051132
0.000511321
0.000511322
0.000511323
0.000511325
0.000511327
0.000511328
0.000511331
0.000511333
0.000511336
0.000511339
0.000511342
0.000511347
0.000511352
0.000511358
0.000511364
0.000511372
0.00051138
0.000511389
0.000511399
0.00051141
0.000511423
0.000511437
0.000511453
0.000511471
0.000511491
0.000511514
0.000511541
0.000511571
0.000511604
0.000511642
0.000511686
0.000511737
0.0005118
0.000511875
0.000511965
0.000512067
0.000512183
0.00051231
0.000511309
0.000511309
0.000511309
0.00051131
0.00051131
0.00051131
0.00051131
0.00051131
0.00051131
0.00051131
0.00051131
0.00051131
0.00051131
0.00051131
0.00051131
0.00051131
0.00051131
0.00051131
0.00051131
0.00051131
0.00051131
0.00051131
0.00051131
0.00051131
0.00051131
0.00051131
0.00051131
0.00051131
0.00051131
0.00051131
0.000511311
0.000511311
0.000511311
0.000511311
0.000511311
0.000511311
0.000511311
0.000511311
0.000511311
0.000511312
0.000511312
0.000511312
0.000511312
0.000511312
0.000511312
0.000511313
0.000511313
0.000511313
0.000511313
0.000511314
0.000511314
0.000511314
0.000511315
0.000511315
0.000511316
0.000511316
0.000511317
0.000511317
0.000511318
0.000511319
0.00051132
0.000511321
0.000511322
0.000511323
0.000511324
0.000511326
0.000511327
0.000511329
0.000511331
0.000511333
0.000511335
0.000511338
0.00051134
0.000511344
0.000511347
0.000511351
0.000511356
0.000511362
0.000511368
0.000511376
0.000511384
0.000511394
0.000511404
0.000511416
0.000511428
0.000511442
0.000511458
0.000511476
0.000511496
0.000511518
0.000511543
0.000511571
0.000511603
0.000511639
0.00051168
0.000511725
0.000511778
0.000511839
0.000511913
0.000512002
0.000512106
0.000512226
0.000512361
0.000512511
0.000512674
0.000512851
0.000513046
0.000513264
0.000513513
0.000513797
0.000514121
0.000514493
0.000514925
0.000515424
0.000515992
0.00051131
0.00051131
0.00051131
0.00051131
0.00051131
0.00051131
0.00051131
0.00051131
0.00051131
0.00051131
0.000511311
0.000511311
0.000511311
0.000511311
0.000511311
0.000511311
0.000511311
0.000511311
0.000511312
0.000511312
0.000511312
0.000511312
0.000511312
0.000511313
0.000511313
0.000511313
0.000511313
0.000511314
0.000511314
0.000511314
0.000511314
0.000511315
0.000511315
0.000511315
0.000511316
0.000511316
0.000511317
0.000511317
0.000511318
0.000511319
0.000511319
0.00051132
0.000511321
0.000511322
0.000511323
0.000511324
0.000511325
0.000511326
0.000511327
0.000511329
0.00051133
0.000511332
0.000511334
0.000511335
0.000511337
0.00051134
0.000511342
0.000511345
0.000511348
0.000511351
0.000511355
0.000511359
0.000511363
0.000511368
0.000511374
0.000511381
0.000511388
0.000511397
0.000511407
0.000511418
0.000511431
0.000511444
0.000511459
0.000511475
0.000511492
0.000511512
0.000511534
0.000511559
0.000511586
0.000511617
0.000511652
0.00051169
0.000511734
0.000511784
0.00051184
0.000511903
0.000511976
0.000512064
0.000512169
0.000512292
0.000512433
0.000512591
0.000512766
0.000512958
0.000513166
0.000513395
0.000513651
0.00051394
0.000514267
0.000514636
0.000515057
0.000515541
0.000516098
0.000516733
0.000517448
0.000518244
0.000519124
0.000520148
0.000521427
0.00052303
0.000524969
0.000527219
0.000529749
0.000532528
0.00053553
0.000538739
0.000511311
0.000511311
0.000511311
0.000511311
0.000511311
0.000511311
0.000511311
0.000511312
0.000511312
0.000511312
0.000511312
0.000511313
0.000511313
0.000511313
0.000511314
0.000511314
0.000511314
0.000511315
0.000511315
0.000511316
0.000511316
0.000511316
0.000511317
0.000511318
0.000511318
0.000511319
0.000511319
0.00051132
0.000511321
0.000511322
0.000511323
0.000511324
0.000511325
0.000511326
0.000511327
0.000511329
0.00051133
0.000511332
0.000511333
0.000511335
0.000511337
0.000511338
0.00051134
0.000511342
0.000511345
0.000511347
0.00051135
0.000511352
0.000511355
0.000511358
0.000511362
0.000511365
0.000511369
0.000511374
0.000511378
0.000511384
0.000511389
0.000511396
0.000511403
0.000511411
0.00051142
0.00051143
0.000511442
0.000511455
0.000511468
0.000511483
0.0005115
0.000511517
0.000511536
0.000511557
0.000511581
0.000511607
0.000511635
0.000511666
0.000511701
0.00051174
0.000511783
0.000511832
0.000511886
0.000511947
0.000512016
0.000512094
0.000512184
0.000512292
0.000512418
0.000512565
0.000512731
0.000512917
0.000513123
0.000513347
0.000513591
0.000513858
0.000514157
0.000514492
0.000514869
0.000515292
0.00051577
0.000516315
0.00051694
0.000517651
0.000518452
0.000519346
0.000520334
0.000521476
0.000522879
0.000524617
0.000526708
0.00052913
0.000531854
0.000534849
0.000538091
0.000541565
0.000545256
0.000549251
0.000553662
0.000558546
0.000564021
0.000570371
0.000577866
0.000586629
0.000596661
0.000607907
0.000620281
0.000511314
0.000511315
0.000511315
0.000511316
0.000511317
0.000511317
0.000511318
0.000511319
0.00051132
0.000511321
0.000511322
0.000511323
0.000511324
0.000511325
0.000511326
0.000511328
0.000511329
0.000511331
0.000511333
0.000511335
0.000511337
0.000511339
0.000511342
0.000511344
0.000511347
0.00051135
0.000511353
0.000511356
0.000511359
0.000511363
0.000511366
0.00051137
0.000511374
0.000511378
0.000511383
0.000511387
0.000511392
0.000511398
0.000511404
0.00051141
0.000511417
0.000511424
0.000511432
0.000511441
0.000511451
0.000511462
0.000511474
0.000511487
0.000511502
0.000511517
0.000511534
0.000511551
0.00051157
0.00051159
0.000511612
0.000511635
0.000511661
0.000511688
0.000511718
0.000511751
0.000511786
0.000511824
0.000511866
0.000511913
0.000511966
0.000512024
0.000512088
0.000512159
0.000512238
0.000512327
0.000512429
0.000512548
0.000512687
0.000512847
0.000513028
0.000513229
0.000513451
0.000513693
0.000513956
0.000514242
0.000514557
0.000514909
0.000515301
0.000515737
0.000516223
0.000516771
0.000517392
0.0005181
0.0005189
0.000519799
0.000520801
0.000521908
0.000523187
0.000524739
0.00052664
0.000528906
0.00053152
0.000534452
0.000537674
0.000541163
0.000544907
0.000548896
0.00055322
0.000557963
0.00056316
0.000568909
0.00057547
0.000583122
0.000592026
0.000602219
0.000613662
0.000626284
0.000640144
0.000655001
0.000673875
0.000702637
0.000741775
0.000789871
0.000845496
0.000907663
0.000975582
0.00104856
0.0011263
0.000511329
0.000511331
0.000511333
0.000511336
0.000511339
0.000511341
0.000511345
0.000511348
0.000511352
0.000511356
0.00051136
0.000511365
0.00051137
0.000511375
0.000511381
0.000511386
0.000511392
0.000511399
0.000511405
0.000511412
0.00051142
0.000511427
0.000511436
0.000511445
0.000511455
0.000511465
0.000511477
0.000511489
0.000511503
0.000511518
0.000511534
0.000511551
0.00051157
0.00051159
0.000511611
0.000511634
0.000511657
0.000511682
0.000511708
0.000511735
0.000511764
0.000511795
0.000511828
0.000511863
0.000511901
0.00051194
0.000511983
0.000512029
0.000512079
0.000512134
0.000512194
0.000512259
0.00051233
0.000512408
0.000512492
0.000512584
0.000512688
0.000512805
0.000512939
0.000513092
0.000513265
0.000513457
0.000513669
0.000513901
0.000514151
0.000514422
0.000514715
0.000515032
0.00051538
0.000515764
0.000516187
0.000516654
0.000517169
0.000517742
0.000518387
0.000519115
0.000519936
0.000520854
0.000521877
0.000523004
0.000524261
0.000525731
0.000527507
0.00052964
0.000532138
0.000534979
0.000538137
0.00054159
0.000545322
0.000549324
0.000553597
0.000558243
0.000563307
0.000568803
0.000574837
0.000581657
0.000589529
0.000598619
0.00060899
0.000620641
0.000633513
0.000647664
0.00066287
0.000682033
0.000710285
0.000748118
0.000794306
0.000847563
0.000907028
0.000972081
0.00104211
0.00111669
0.00119531
0.00127789
0.00136132
0.00143923
0.00151246
0.00158279
0.00165029
0.00171429
0.00177431
0.00183035
0.00188234
0.000511392
0.0005114
0.000511409
0.000511419
0.000511429
0.000511439
0.000511451
0.000511463
0.000511476
0.00051149
0.000511505
0.000511522
0.00051154
0.00051156
0.000511582
0.000511606
0.000511632
0.00051166
0.00051169
0.000511721
0.000511755
0.00051179
0.000511827
0.000511866
0.000511907
0.00051195
0.000511996
0.000512043
0.000512093
0.000512145
0.0005122
0.000512259
0.000512321
0.000512388
0.00051246
0.000512538
0.000512621
0.00051271
0.000512805
0.000512907
0.000513017
0.000513138
0.000513273
0.000513424
0.000513592
0.000513777
0.00051398
0.0005142
0.000514437
0.000514691
0.000514962
0.000515252
0.00051556
0.00051589
0.000516245
0.00051663
0.000517049
0.000517502
0.000517992
0.000518527
0.000519114
0.000519766
0.000520494
0.000521305
0.000522206
0.000523199
0.000524292
0.000525484
0.00052681
0.000528347
0.000530175
0.000532338
0.000534842
0.000537672
0.000540806
0.000544229
0.000547928
0.000551904
0.000556148
0.000560716
0.000565691
0.000571066
0.000576855
0.000583203
0.000590363
0.00059857
0.00060796
0.000618585
0.000630454
0.000643552
0.000657936
0.000673402
0.000693386
0.000721803
0.000758845
0.000803483
0.000854675
0.000911673
0.000973952
0.00104101
0.00111252
0.00118807
0.00126745
0.0013478
0.00142401
0.00149603
0.00156474
0.00163092
0.00169458
0.00175491
0.00181125
0.00186344
0.00191169
0.00195642
0.00199645
0.00203086
0.00205957
0.002082
0.00210065
0.00211838
0.00213482
0.00214961
0.00216319
0.00217596
0.00218794
0.00051162
0.000511652
0.000511687
0.000511726
0.000511768
0.000511814
0.000511863
0.000511917
0.000511973
0.000512034
0.000512097
0.000512165
0.000512236
0.00051231
0.000512388
0.000512469
0.000512556
0.000512647
0.000512744
0.000512848
0.00051296
0.000513079
0.000513206
0.000513343
0.00051349
0.000513651
0.000513828
0.000514021
0.000514233
0.000514463
0.00051471
0.000514975
0.000515257
0.000515554
0.000515867
0.000516196
0.000516542
0.000516905
0.000517288
0.000517696
0.000518129
0.000518589
0.000519076
0.000519592
0.000520144
0.000520739
0.000521388
0.000522098
0.000522877
0.000523728
0.000524656
0.000525662
0.00052675
0.000527922
0.000529192
0.000530611
0.000532249
0.000534154
0.000536348
0.000538826
0.000541575
0.000544583
0.00054784
0.000551346
0.0005551
0.000559109
0.00056337
0.000567962
0.000572928
0.000578237
0.000583898
0.000590046
0.0005969
0.000604662
0.000613469
0.00062339
0.000634456
0.000646663
0.000660057
0.000674573
0.000690827
0.000713428
0.00074366
0.000781103
0.000824913
0.000874371
0.000929
0.000988487
0.00105248
0.00112072
0.00119287
0.00126882
0.001345
0.00141771
0.00148739
0.00155449
0.00161905
0.00168116
0.00174046
0.00179647
0.00184888
0.00189734
0.00194223
0.00198308
0.00201849
0.00204823
0.00207324
0.00209408
0.00211135
0.00212702
0.00214238
0.00215676
0.00216987
0.002182
0.00219345
0.00220369
0.00221183
0.00221821
0.00222433
0.00222811
0.0022295
0.00223106
0.00223295
0.00223446
0.00223539
0.000512535
0.000512652
0.000512776
0.000512907
0.000513047
0.000513196
0.000513355
0.000513527
0.000513714
0.000513917
0.000514141
0.000514386
0.000514655
0.00051495
0.000515271
0.000515618
0.000515989
0.000516382
0.000516797
0.000517232
0.000517688
0.000518166
0.000518668
0.000519196
0.000519749
0.000520328
0.000520933
0.000521565
0.00052223
0.000522935
0.000523688
0.000524497
0.000525367
0.000526302
0.000527303
0.000528371
0.00052951
0.000530717
0.000531997
0.000533382
0.00053492
0.000536656
0.000538614
0.000540803
0.000543215
0.000545839
0.000548666
0.00055169
0.000554911
0.000558331
0.000561952
0.000565781
0.000569813
0.000574093
0.000578674
0.00058352
0.0005886
0.000593966
0.000599763
0.000606167
0.000613326
0.000621338
0.000630259
0.000640118
0.000650941
0.000662735
0.000675581
0.000689332
0.000705387
0.000727127
0.000755173
0.000789065
0.000828179
0.000872061
0.00092042
0.0009731
0.00102997
0.00109089
0.00115569
0.00122415
0.00129563
0.00136556
0.00143292
0.00149799