/*--------------------------------*- C++ -*----------------------------------*\
| =========                 |                                                 |
| \\      /  F ield         | OpenFOAM: The Open Source CFD Toolbox           |
|  \\    /   O peration     | Version:  v1706                                 |
|   \\  /    A nd           | Web:      www.OpenFOAM.com                      |
|    \\/     M anipulation  |                                                 |
\*---------------------------------------------------------------------------*/
FoamFile
{
    version     2.0;
    format      ascii;
    class       volScalarField;
    location    "3.2e-05";
    object      Tv;
}
// * * * * * * * * * * * * * * * * * * * * * * * * * * * * * * * * * * * * * //

dimensions      [0 0 0 1 0 0 0];


internalField   nonuniform List<scalar> 
29871
(
144.4
144.4
144.4
144.4
144.4
144.4
144.4
144.4
144.4
144.4
144.4
144.4
144.4
144.4
144.4
144.4
144.4
144.4
144.4
144.4
144.4
144.4
144.4
144.4
144.4
144.4
144.4
144.4
144.4
144.4
144.4
144.4
144.4
144.4
144.4
144.4
144.4
144.4
144.4
144.4
144.4
144.4
144.4
144.4
144.4
144.4
144.4
144.4
144.4
144.4
144.4
144.4
144.4
144.4
144.4
144.4
144.4
144.4
144.4
144.4
144.4
144.4
144.4
144.4
144.4
144.4
144.4
144.4
144.4
144.4
144.4
144.4
144.4
144.4
144.4
144.4
144.4
144.4
144.4
144.4
144.4
144.4
144.4
144.4
144.4
144.4
144.4
144.4
144.4
144.4
144.4
144.4
144.4
144.4
144.4
144.4
144.4
144.4
144.4
144.4
144.4
144.4
144.4
144.4
144.4
144.4
144.4
144.4
144.4
144.4
144.4
144.4
144.4
144.4
144.4
144.4
144.4
144.4
144.4
144.4
144.4
144.4
144.4
144.4
144.4
144.4
144.4
144.4
144.4
144.4
144.4
144.4
144.4
144.4
144.4
144.4
144.4
144.4
144.4
144.4
144.4
144.4
144.4
144.4
144.4
144.4
144.4
144.4
144.4
144.4
144.4
144.4
144.4
144.4
144.4
144.4
144.4
144.4
144.4
144.4
144.4
144.4
144.4
144.4
144.4
144.4
144.4
144.4
144.4
144.4
144.4
144.4
144.4
144.4
144.4
144.4
144.4
144.4
144.4
144.4
144.4
144.4
144.4
144.4
144.4
144.4
144.4
144.4
144.4
144.4
144.4
144.4
144.4
144.4
144.4
144.4
144.4
144.4
144.4
144.4
144.4
144.4
144.4
144.4
144.4
144.4
144.4
144.4
144.4
144.4
144.4
144.4
144.4
144.4
144.4
144.4
144.4
144.4
144.4
144.4
144.4
144.4
144.4
144.4
144.4
144.4
144.4
144.4
144.4
144.4
144.4
144.4
144.4
144.4
144.4
144.4
144.4
144.4
144.4
144.4
144.4
144.4
144.4
144.4
144.4
144.4
144.4
144.4
144.4
144.4
144.4
144.4
144.4
144.4
144.4
144.4
144.4
144.4
144.4
144.4
144.4
144.4
144.4
144.4
144.4
144.4
144.4
144.4
144.4
144.4
144.4
144.4
144.4
144.4
144.4
144.4
144.4
144.4
144.4
144.4
144.4
144.4
144.4
144.4
144.4
144.4
144.4
144.4
144.4
144.4
144.4
144.4
144.4
144.4
144.4
144.4
144.4
144.4
144.4
144.4
144.4
144.4
144.4
144.4
144.4
144.4
144.4
144.4
144.4
144.4
144.4
144.4
144.4
144.4
144.4
144.4
144.4
144.4
144.4
144.4
144.4
144.4
144.4
144.4
144.4
144.4
144.4
144.4
144.4
144.4
144.4
144.4
144.4
144.4
144.4
144.4
144.4
144.4
144.4
144.4
144.4
144.4
144.4
144.4
144.4
144.4
144.4
144.4
144.4
144.4
144.4
144.4
144.4
144.4
144.4
144.4
144.4
144.4
144.4
144.4
144.4
144.4
144.4
144.4
144.4
144.4
144.4
144.4
144.4
144.4
144.4
144.4
144.4
144.4
144.4
144.4
144.4
144.4
144.4
144.4
144.4
144.4
144.4
144.4
144.4
144.4
144.4
144.4
144.4
144.4
144.4
144.4
144.4
144.4
144.4
144.4
144.4
144.4
144.4
144.4
144.4
144.4
144.4
144.4
144.4
144.4
144.4
144.4
144.4
144.4
144.4
144.4
144.4
144.4
144.4
144.4
144.4
144.4
144.4
144.4
144.4
144.4
144.4
144.4
144.4
144.4
144.4
144.4
144.4
144.4
144.4
144.4
144.4
144.4
144.4
144.4
144.4
144.4
144.4
144.4
144.4
144.4
144.4
144.4
144.4
144.4
144.4
144.4
144.4
144.4
144.4
144.4
144.4
144.4
144.4
144.4
144.4
144.4
144.4
144.4
144.4
144.4
144.4
144.4
144.4
144.4
144.4
144.4
144.4
144.4
144.4
144.4
144.4
144.4
144.4
144.4
144.4
144.4
144.4
144.4
144.4
144.4
144.4
144.4
144.4
144.4
144.4
144.4
144.4
144.4
144.4
144.4
144.4
144.4
144.4
144.4
144.4
144.4
144.4
144.4
144.4
144.4
144.4
144.4
144.4
144.4
144.4
144.4
144.4
144.4
144.4
144.4
144.4
144.4
144.4
144.4
144.4
144.4
144.4
144.4
144.4
144.4
144.4
144.4
144.4
144.4
144.4
144.4
144.4
144.4
144.4
144.4
144.4
144.4
144.4
144.4
144.4
144.4
144.4
144.4
144.4
144.4
144.4
144.4
144.4
144.4
144.4
144.4
144.4
144.4
144.4
144.4
144.4
144.4
144.4
144.4
144.4
144.4
144.4
144.4
144.4
144.4
144.4
144.4
144.4
144.4
144.4
144.4
144.4
144.4
144.4
144.4
144.4
144.4
144.4
144.4
144.4
144.4
144.4
144.4
144.4
144.4
144.4
144.4
144.4
144.4
144.4
144.4
144.4
144.4
144.4
144.4
144.4
144.4
144.4
144.4
144.4
144.4
144.4
144.4
144.4
144.4
144.4
144.4
144.4
144.4
144.4
144.4
144.4
144.4
144.4
144.4
144.4
144.4
144.4
144.4
144.4
144.4
144.4
144.4
144.4
144.4
144.4
144.4
144.4
144.4
144.4
144.4
144.4
144.4
144.4
144.4
144.4
144.4
144.4
144.4
144.4
144.4
144.4
144.4
144.4
144.4
144.4
144.4
144.4
144.4
144.4
144.4
144.4
144.4
144.4
144.4
144.4
144.4
144.4
144.4
144.4
144.4
144.4
144.4
144.4
144.4
144.4
144.4
144.4
144.4
144.4
144.4
144.4
144.4
144.4
144.4
144.4
144.4
144.4
144.4
144.4
144.4
144.4
144.4
144.4
144.4
144.4
144.4
144.4
144.4
144.4
144.4
144.4
144.4
144.4
144.4
144.4
144.4
144.4
144.4
144.4
144.4
144.4
144.4
144.4
144.4
144.4
144.4
144.4
144.4
144.4
144.4
144.4
144.4
144.4
144.4
144.4
144.4
144.4
144.4
144.4
144.4
144.4
144.4
144.4
144.4
144.4
144.4
144.4
144.4
144.4
144.4
144.4
144.4
144.4
144.4
144.4
144.4
144.4
144.4
144.4
144.4
144.4
144.4
144.4
144.4
144.4
144.4
144.4
144.4
144.4
144.4
144.4
144.4
144.4
144.4
144.4
144.4
144.4
144.4
144.4
144.4
144.4
144.4
144.4
144.4
144.4
144.4
144.4
144.4
144.4
144.4
144.4
144.4
144.4
144.4
144.4
144.4
144.4
144.4
144.4
144.4
144.4
144.4
144.4
144.4
144.4
144.4
144.4
144.4
144.4
144.4
144.4
144.4
144.4
144.4
144.4
144.4
144.4
144.4
144.4
144.4
144.4
144.4
144.4
144.4
144.4
144.4
144.4
144.4
144.4
144.4
144.4
144.4
144.4
144.4
144.4
144.4
144.4
144.4
144.4
144.4
144.4
144.4
144.4
144.4
144.4
144.4
144.4
144.4
144.4
144.4
144.4
144.4
144.4
144.4
144.4
144.4
144.4
144.4
144.4
144.4
144.4
144.4
144.4
144.4
144.4
144.4
144.4
144.4
144.4
144.4
144.4
144.4
144.4
144.4
144.4
144.4
144.4
144.4
144.4
144.4
144.4
144.4
144.4
144.4
144.4
144.4
144.4
144.4
144.4
144.4
144.4
144.4
144.4
144.4
144.4
144.4
144.4
144.4
144.4
144.4
144.4
144.4
144.4
144.4
144.4
144.4
144.4
144.4
144.4
144.4
144.4
144.4
144.4
144.4
144.4
144.4
144.4
144.4
144.4
144.4
144.4
144.4
144.4
144.4
144.4
144.4
144.4
144.4
144.4
144.4
144.4
144.4
144.4
144.4
144.4
144.4
144.4
144.4
144.4
144.4
144.4
144.4
144.4
144.4
144.4
144.4
144.4
144.4
144.4
144.4
144.4
144.4
144.4
144.4
144.4
144.4
144.4
144.4
144.4
144.4
144.4
144.4
144.4
144.4
144.4
144.4
144.4
144.4
144.4
144.4
144.4
144.4
144.4
144.4
144.4
144.4
144.4
144.4
144.4
144.4
144.4
144.4
144.4
144.4
144.4
144.4
144.4
144.4
144.4
144.4
144.4
144.4
144.4
144.4
144.4
144.4
144.4
144.4
144.4
144.4
144.4
144.4
144.4
144.4
144.4
144.4
144.4
144.4
144.4
144.4
144.4
144.4
144.4
144.4
144.4
144.4
144.4
144.4
144.4
144.4
144.4
144.4
144.4
144.4
144.4
144.4
144.4
144.4
144.4
144.4
144.4
144.4
144.4
144.4
144.4
144.4
144.4
144.4
144.4
144.4
144.4
144.4
144.4
144.4
144.4
144.4
144.4
144.4
144.4
144.4
144.4
144.4
144.4
144.4
144.4
144.4
144.4
144.4
144.4
144.4
144.4
144.4
144.4
144.4
144.4
144.4
144.4
144.4
144.4
144.4
144.4
144.4
144.4
144.4
144.4
144.4
144.4
144.4
144.4
144.4
144.4
144.4
144.4
144.4
144.4
144.4
144.4
144.4
144.4
144.4
144.4
144.4
144.4
144.4
144.4
144.4
144.4
144.4
144.4
144.4
144.4
144.4
144.4
144.4
144.4
144.4
144.4
144.4
144.4
144.4
144.4
144.4
144.4
144.4
144.4
144.4
144.4
144.4
144.4
144.4
144.4
144.4
144.4
144.4
144.4
144.4
144.4
144.4
144.4
144.4
144.4
144.4
144.4
144.4
144.4
144.4
144.4
144.4
144.4
144.4
144.4
144.4
144.4
144.4
144.4
144.4
144.4
144.4
144.4
144.4
144.4
144.4
144.4
144.4
144.4
144.4
144.4
144.4
144.4
144.4
144.4
144.4
144.4
144.4
144.4
144.4
144.4
144.4
144.4
144.4
144.4
144.4
144.4
144.4
144.4
144.4
144.4
144.4
144.4
144.4
144.4
144.4
144.4
144.4
144.4
144.4
144.4
144.4
144.4
144.4
144.4
144.4
144.4
144.4
144.4
144.4
144.4
144.4
144.4
144.4
144.4
144.4
144.4
144.4
144.4
144.4
144.4
144.4
144.4
144.4
144.4
144.4
144.4
144.4
144.4
144.4
144.4
144.4
144.4
144.4
144.4
144.4
144.4
144.4
144.4
144.4
144.4
144.4
144.4
144.4
144.4
144.4
144.4
144.4
144.4
144.4
144.4
144.4
144.4
144.4
144.4
144.4
144.4
144.4
144.4
144.4
144.4
144.4
144.4
144.4
144.4
144.4
144.4
144.4
144.4
144.4
144.4
144.4
144.4
144.4
144.4
144.4
144.4
144.4
144.4
144.4
144.4
144.4
144.4
144.4
144.4
144.4
144.4
144.4
144.4
144.4
144.4
144.4
144.4
144.4
144.4
144.4
144.4
144.4
144.4
144.4
144.4
144.4
144.4
144.4
144.4
144.4
144.4
144.4
144.4
144.4
144.4
144.4
144.4
144.4
144.4
144.4
144.4
144.4
144.4
144.4
144.4
144.4
144.4
144.4
144.4
144.4
144.4
144.4
144.4
144.4
144.4
144.4
144.4
144.4
144.4
144.4
144.4
144.4
144.4
144.4
144.4
144.4
144.4
144.4
144.4
144.4
144.4
144.4
144.4
144.4
144.4
144.4
144.4
144.4
144.4
144.4
144.4
144.4
144.4
144.4
144.4
144.4
144.4
144.4
144.4
144.4
144.4
144.4
144.4
144.4
144.4
144.4
144.4
144.4
144.4
144.4
144.4
144.4
144.4
144.4
144.4
144.4
144.4
144.4
144.4
144.4
144.4
144.4
144.4
144.4
144.4
144.4
144.4
144.4
144.4
144.4
144.4
144.4
144.4
144.4
144.4
144.4
144.4
144.4
144.4
144.4
144.4
144.4
144.4
144.4
144.4
144.4
144.4
144.4
144.4
144.4
144.4
144.4
144.4
144.4
144.4
144.4
144.4
144.4
144.4
144.4
144.4
144.4
144.4
144.4
144.4
144.4
144.4
144.4
144.4
144.4
144.4
144.4
144.4
144.4
144.4
144.4
144.4
144.4
144.4
144.4
144.4
144.4
144.4
144.4
144.4
144.4
144.4
144.4
144.4
144.4
144.4
144.4
144.4
144.4
144.4
144.4
144.4
144.4
144.4
144.4
144.4
144.4
144.4
144.4
144.4
144.4
144.4
144.4
144.4
144.4
144.4
144.4
144.4
144.4
144.4
144.4
144.4
144.4
144.4
144.4
144.4
144.4
144.4
144.4
144.4
144.4
144.4
144.4
144.4
144.4
144.4
144.4
144.4
144.4
144.4
144.4
144.4
144.4
144.4
144.4
144.4
144.4
144.4
144.4
144.4
144.4
144.4
144.4
144.4
144.4
144.4
144.4
144.4
144.4
144.4
144.4
144.4
144.4
144.4
144.4
144.4
144.4
144.4
144.4
144.4
144.4
144.4
144.4
144.4
144.4
144.4
144.4
144.4
144.4
144.4
144.4
144.4
144.4
144.4
144.4
144.4
144.4
144.4
144.4
144.4
144.4
144.4
144.4
144.4
144.4
144.4
144.4
144.4
144.4
144.4
144.4
144.4
144.4
144.4
144.4
144.4
144.4
144.4
144.4
144.4
144.4
144.4
144.4
144.4
144.4
144.4
144.4
144.4
144.4
144.4
144.4
144.4
144.4
144.4
144.4
144.4
144.4
144.4
144.4
144.4
144.4
144.4
144.4
144.4
144.4
144.4
144.4
144.4
144.4
144.4
144.4
144.4
144.4
144.4
144.4
144.4
144.4
144.4
144.4
144.4
144.4
144.4
144.4
144.4
144.4
144.4
144.4
144.4
144.4
144.4
144.4
144.4
144.4
144.4
144.4
144.4
144.4
144.4
144.4
144.4
144.4
144.4
144.4
144.4
144.4
144.4
144.4
144.4
144.4
144.4
144.4
144.4
144.4
144.4
144.4
144.4
144.4
144.4
144.4
144.4
144.4
144.4
144.4
144.4
144.4
144.4
144.4
144.4
144.4
144.4
144.4
144.4
144.4
144.4
144.4
144.4
144.4
144.4
144.4
144.4
144.4
144.4
144.4
144.4
144.4
144.4
144.4
144.4
144.4
144.4
144.4
144.4
144.4
144.4
144.4
144.4
144.4
144.4
144.4
144.4
144.4
144.4
144.4
144.4
144.4
144.4
144.4
144.4
144.4
144.4
144.4
144.4
144.4
144.4
144.4
144.4
144.4
144.4
144.4
144.4
144.4
144.4
144.4
144.4
144.4
144.4
144.4
144.4
144.4
144.4
144.4
144.4
144.4
144.4
144.4
144.4
144.4
144.4
144.4
144.4
144.4
144.4
144.4
144.4
144.4
144.4
144.4
144.4
144.4
144.4
144.4
144.4
144.4
144.4
144.4
144.4
144.4
144.4
144.4
144.4
144.4
144.4
144.4
144.4
144.4
144.4
144.4
144.4
144.4
144.4
144.4
144.4
144.4
144.4
144.4
144.4
144.4
144.4
144.4
144.4
144.4
144.4
144.4
144.4
144.4
144.4
144.4
144.4
144.4
144.4
144.4
144.401
144.401
144.401
144.401
144.401
144.401
144.401
144.401
144.4
144.4
144.4
144.4
144.4
144.4
144.4
144.4
144.4
144.4
144.4
144.4
144.4
144.4
144.4
144.4
144.4
144.4
144.4
144.4
144.4
144.4
144.4
144.4
144.4
144.4
144.4
144.4
144.4
144.4
144.4
144.4
144.4
144.4
144.4
144.4
144.4
144.4
144.4
144.4
144.4
144.4
144.4
144.4
144.4
144.4
144.4
144.4
144.4
144.4
144.4
144.4
144.4
144.4
144.4
144.4
144.4
144.4
144.4
144.4
144.4
144.4
144.4
144.4
144.4
144.4
144.4
144.4
144.4
144.4
144.4
144.4
144.4
144.4
144.4
144.4
144.4
144.4
144.4
144.4
144.4
144.4
144.4
144.4
144.4
144.4
144.4
144.4
144.4
144.4
144.4
144.4
144.4
144.4
144.4
144.4
144.4
144.4
144.4
144.4
144.401
144.401
144.401
144.401
144.401
144.401
144.401
144.401
144.402
144.402
144.402
144.402
144.403
144.403
144.403
144.404
144.404
144.405
144.406
144.406
144.407
144.408
144.409
144.4
144.4
144.4
144.4
144.4
144.4
144.4
144.4
144.4
144.4
144.4
144.4
144.4
144.4
144.4
144.4
144.4
144.4
144.4
144.4
144.4
144.4
144.4
144.4
144.4
144.4
144.4
144.4
144.4
144.4
144.4
144.4
144.4
144.4
144.4
144.4
144.4
144.4
144.4
144.4
144.4
144.4
144.4
144.4
144.4
144.4
144.4
144.4
144.4
144.4
144.4
144.4
144.4
144.4
144.4
144.4
144.4
144.4
144.4
144.4
144.4
144.4
144.4
144.4
144.4
144.4
144.4
144.4
144.4
144.4
144.4
144.4
144.4
144.4
144.4
144.4
144.4
144.4
144.4
144.4
144.4
144.4
144.4
144.4
144.401
144.401
144.401
144.401
144.401
144.401
144.401
144.401
144.401
144.402
144.402
144.402
144.402
144.403
144.403
144.403
144.404
144.404
144.405
144.405
144.406
144.407
144.408
144.409
144.41
144.411
144.412
144.414
144.415
144.416
144.418
144.42
144.422
144.424
144.427
144.429
144.432
144.435
144.438
144.4
144.4
144.4
144.4
144.4
144.4
144.4
144.4
144.4
144.4
144.4
144.4
144.4
144.4
144.4
144.4
144.4
144.4
144.4
144.4
144.4
144.4
144.4
144.4
144.4
144.4
144.4
144.4
144.4
144.4
144.4
144.4
144.4
144.4
144.4
144.4
144.4
144.4
144.4
144.4
144.4
144.4
144.4
144.4
144.4
144.4
144.4
144.4
144.4
144.4
144.4
144.4
144.4
144.4
144.4
144.4
144.4
144.4
144.4
144.4
144.4
144.4
144.4
144.4
144.4
144.4
144.401
144.401
144.401
144.401
144.401
144.401
144.401
144.401
144.401
144.401
144.402
144.402
144.402
144.402
144.402
144.403
144.403
144.403
144.404
144.404
144.405
144.405
144.406
144.407
144.407
144.408
144.409
144.41
144.411
144.412
144.414
144.416
144.417
144.419
144.421
144.423
144.425
144.428
144.43
144.433
144.437
144.44
144.444
144.448
144.452
144.456
144.46
144.465
144.47
144.475
144.481
144.488
144.494
144.501
144.509
144.517
144.525
144.4
144.4
144.4
144.4
144.4
144.4
144.4
144.4
144.4
144.4
144.4
144.4
144.4
144.4
144.4
144.4
144.4
144.4
144.4
144.4
144.4
144.4
144.4
144.4
144.4
144.4
144.4
144.4
144.4
144.4
144.4
144.4
144.4
144.4
144.4
144.4
144.4
144.4
144.4
144.4
144.4
144.401
144.401
144.401
144.401
144.401
144.401
144.401
144.401
144.401
144.401
144.401
144.401
144.401
144.401
144.401
144.401
144.402
144.402
144.402
144.402
144.402
144.402
144.403
144.403
144.403
144.404
144.404
144.404
144.405
144.405
144.406
144.406
144.407
144.408
144.409
144.409
144.41
144.411
144.413
144.414
144.415
144.417
144.419
144.421
144.423
144.425
144.428
144.43
144.433
144.436
144.439
144.443
144.447
144.451
144.455
144.46
144.465
144.471
144.477
144.483
144.489
144.495
144.502
144.509
144.517
144.526
144.535
144.544
144.554
144.564
144.575
144.587
144.598
144.611
144.623
144.637
144.651
144.665
144.681
144.698
144.715
144.733
144.752
144.771
144.4
144.4
144.4
144.4
144.4
144.4
144.4
144.4
144.4
144.4
144.4
144.4
144.4
144.401
144.401
144.401
144.401
144.401
144.401
144.401
144.401
144.401
144.401
144.401
144.401
144.401
144.401
144.401
144.401
144.402
144.402
144.402
144.402
144.402
144.402
144.402
144.402
144.402
144.403
144.403
144.403
144.403
144.403
144.404
144.404
144.404
144.404
144.405
144.405
144.405
144.406
144.406
144.407
144.407
144.408
144.408
144.409
144.41
144.41
144.411
144.412
144.413
144.414
144.416
144.417
144.418
144.42
144.422
144.423
144.425
144.428
144.43
144.433
144.436
144.439
144.442
144.446
144.45
144.454
144.458
144.463
144.468
144.474
144.479
144.486
144.493
144.5
144.507
144.515
144.523
144.532
144.541
144.55
144.56
144.571
144.583
144.595
144.607
144.621
144.635
144.649
144.664
144.68
144.696
144.713
144.731
144.75
144.769
144.79
144.812
144.834
144.858
144.882
144.908
144.934
144.961
144.989
145.018
145.049
145.081
145.115
145.15
145.187
145.225
145.265
144.401
144.401
144.401
144.401
144.402
144.402
144.402
144.402
144.402
144.402
144.403
144.403
144.403
144.403
144.403
144.404
144.404
144.404
144.405
144.405
144.405
144.405
144.406
144.406
144.407
144.407
144.407
144.408
144.408
144.409
144.409
144.41
144.411
144.411
144.412
144.413
144.413
144.414
144.415
144.416
144.417
144.418
144.419
144.42
144.421
144.423
144.424
144.426
144.427
144.429
144.431
144.433
144.435
144.437
144.44
144.442
144.445
144.448
144.451
144.455
144.459
144.463
144.467
144.472
144.477
144.482
144.487
144.493
144.499
144.506
144.513
144.521
144.529
144.538
144.547
144.557
144.567
144.578
144.589
144.601
144.613
144.625
144.639
144.654
144.669
144.685
144.702
144.719
144.738
144.757
144.777
144.798
144.819
144.842
144.865
144.89
144.916
144.943
144.972
145.001
145.032
145.064
145.098
145.132
145.167
145.204
145.243
145.282
145.324
145.367
145.412
145.459
145.507
145.558
145.61
145.663
145.719
145.776
145.835
145.897
145.961
146.028
146.098
146.17
146.244
144.406
144.406
144.407
144.408
144.408
144.409
144.41
144.411
144.412
144.412
144.413
144.414
144.416
144.417
144.418
144.419
144.421
144.422
144.423
144.425
144.426
144.428
144.43
144.432
144.433
144.435
144.437
144.439
144.441
144.444
144.446
144.449
144.451
144.454
144.457
144.46
144.463
144.466
144.469
144.472
144.475
144.479
144.483
144.487
144.492
144.496
144.501
144.506
144.512
144.518
144.524
144.53
144.536
144.543
144.55
144.557
144.565
144.574
144.583
144.592
144.602
144.613
144.624
144.636
144.648
144.661
144.674
144.688
144.702
144.718
144.734
144.751
144.769
144.788
144.808
144.828
144.85
144.873
144.897
144.922
144.947
144.974
145.002
145.031
145.062
145.094
145.127
145.162
145.199
145.237
145.276
145.317
145.36
145.404
145.449
145.496
145.545
145.595
145.648
145.703
145.76
145.819
145.881
145.944
146.009
146.077
146.146
146.218
146.291
146.367
146.446
146.527
146.612
146.699
146.789
146.881
146.976
147.074
147.174
147.277
147.383
147.493
147.606
147.723
147.844
147.968
144.432
144.435
144.438
144.441
144.445
144.448
144.452
144.456
144.46
144.464
144.469
144.473
144.478
144.483
144.488
144.494
144.499
144.505
144.511
144.516
144.522
144.528
144.535
144.541
144.547
144.554
144.561
144.568
144.575
144.583
144.591
144.599
144.607
144.615
144.623
144.632
144.64
144.649
144.658
144.667
144.676
144.687
144.697
144.708
144.719
144.731
144.743
144.756
144.769
144.783
144.797
144.812
144.827
144.843
144.859
144.876
144.894
144.912
144.932
144.953
144.974
144.997
145.021
145.045
145.071
145.098
145.126
145.156
145.186
145.218
145.251
145.286
145.322
145.36
145.4
145.442
145.485
145.531
145.578
145.626
145.677
145.729
145.783
145.839
145.897
145.957
146.019
146.084
146.152
146.222
146.294
146.369
146.446
146.526
146.607
146.691
146.778
146.867
146.959
147.053
147.151
147.252
147.356
147.463
147.573
147.685
147.8
147.918
148.038
148.162
148.288
148.418
148.551
148.688
148.828
148.971
149.117
149.266
149.418
149.573
149.732
149.894
150.06
150.231
150.405
150.582
150.763
150.948
144.551
144.563
144.575
144.587
144.6
144.613
144.626
144.64
144.653
144.668
144.682
144.697
144.712
144.727
144.743
144.758
144.774
144.79
144.805
144.821
144.836
144.852
144.867
144.883
144.899
144.915
144.931
144.948
144.964
144.981
144.998
145.015
145.032
145.05
145.067
145.085
145.103
145.121
145.139
145.158
145.177
145.197
145.217
145.238
145.26
145.283
145.307
145.331
145.357
145.383
145.411
145.439
145.469
145.499
145.531
145.564
145.598
145.633
145.671
145.71
145.751
145.793
145.838
145.885
145.933
145.984
146.037
146.091
146.148
146.207
146.268
146.331
146.397
146.464
146.535
146.609
146.685
146.764
146.846
146.931
147.018
147.108
147.2
147.294
147.392
147.492
147.595
147.701
147.81
147.923
148.04
148.159
148.281
148.406
148.535
148.666
148.799
148.936
149.076
149.219
149.366
149.516
149.669
149.825
149.985
150.148
150.313
150.481
150.652
150.825
151.001
151.181
151.364
151.55
151.739
151.932
152.126
152.324
152.524
152.727
152.934
153.144
153.357
153.574
153.794
154.018
154.245
154.474
144.959
144.99
145.022
145.054
145.086
145.118
145.15
145.182
145.214
145.246
145.278
145.31
145.342
145.373
145.404
145.435
145.465
145.496
145.525
145.555
145.583
145.612
145.639
145.667
145.695
145.722
145.75
145.778
145.806
145.834
145.863
145.891
145.92
145.95
145.979
146.009
146.04
146.071
146.102
146.133
146.165
146.199
146.233
146.269
146.307
146.345
146.386
146.428
146.471
146.516
146.563
146.612
146.663
146.716
146.771
146.827
146.886
146.947
147.01
147.076
147.145
147.216
147.291
147.368
147.449
147.532
147.619
147.708
147.8
147.895
147.993
148.095
148.199
148.305
148.415
148.529
148.647
148.767
148.891
149.018
149.149
149.282
149.418
149.558
149.7
149.846
149.994
150.146
150.301
150.46
150.622
150.788
150.956
151.128
151.303
151.481
151.661
151.844
152.031
152.22
152.412
152.607
152.805
153.007
153.211
153.418
153.627
153.838
154.051
154.267
154.484
154.705
154.928
155.153
155.382
155.612
155.845
156.08
156.317
156.557
156.799
157.044
157.292
157.542
157.796
158.053
158.312
158.574
145.94
145.999
146.057
146.114
146.171
146.226
146.28
146.333
146.386
146.437
146.488
146.538
146.586
146.634
146.682
146.728
146.774
146.819
146.863
146.907
146.95
146.991
147.032
147.072
147.112
147.152
147.192
147.232
147.272
147.314
147.355
147.397
147.44
147.483
147.527
147.572
147.617
147.663
147.71
147.758
147.807
147.858
147.911
147.966
148.023
148.082
148.144
148.208
148.274
148.344
148.416
148.491
148.569
148.649
148.733
148.819
148.908
149
149.095
149.194
149.295
149.401
149.511
149.623
149.74
149.861
149.984
150.112
150.243
150.377
150.515
150.657
150.801
150.948
151.099
151.254
151.411
151.573
151.737
151.905
152.076
152.251
152.428
152.609
152.792
152.979
153.168
153.36
153.555
153.753
153.955
154.159
154.367
154.577
154.79
155.006
155.224
155.445
155.668
155.893
156.121
156.351
156.583
156.818
157.055
157.295
157.536
157.779
158.023
158.268
158.516
158.765
159.016
159.269
159.524
159.781
160.04
160.3
160.562
160.826
161.092
161.36
161.631
161.904
162.18
162.458
162.739
163.022
163.306
147.754
147.835
147.915
147.993
148.069
148.142
148.214
148.283
148.35
148.415
148.479
148.542
148.604
148.664
148.724
148.783
148.84
148.897
148.952
149.007
149.06
149.111
149.162
149.212
149.263
149.315
149.366
149.419
149.473
149.527
149.583
149.639
149.697
149.757
149.818
149.88
149.943
150.008
150.075
150.143
150.213
150.286
150.362
150.441
150.523
150.609
150.698
150.79
150.886
150.985
151.088
151.194
151.305
151.418
151.536
151.657
151.782
151.91
152.041
152.176
152.315
152.458
152.605
152.755
152.911
153.069
153.231
153.397
153.566
153.739
153.916
154.096
154.278
154.463
154.652
154.844
155.039
155.237
155.438
155.641
155.848
156.058
156.27
156.486
156.704
156.924
157.147
157.372
157.6
157.831
158.064
158.3
158.539
158.78
159.023
159.268
159.515
159.764
160.014
160.267
160.522
160.778
161.036
161.296
161.557
161.82
162.084
162.348
162.614
162.881
163.149
163.419
163.689
163.962
164.236
164.511
164.787
165.065
165.344
165.625
165.908
166.193
166.48
166.77
167.062
167.356
167.652
167.95
150.218
150.314
150.408
150.499
150.588
150.674
150.756
150.834
150.909
150.983
151.055
151.126
151.195
151.264
151.332
151.398
151.464
151.53
151.594
151.658
151.72
151.781
151.841
151.9
151.961
152.022
152.084
152.148
152.213
152.28
152.348
152.419
152.492
152.567
152.644
152.724
152.807
152.891
152.978
153.067
153.159
153.253
153.351
153.452
153.558
153.667
153.78
153.897
154.018
154.144
154.274
154.408
154.546
154.688
154.834
154.985
155.139
155.296
155.457
155.621
155.789
155.961
156.136
156.316
156.5
156.686
156.876
157.071
157.268
157.468
157.673
157.879
158.089
158.301
158.516
158.734
158.953
159.176
159.401
159.629
159.86
160.093
160.329
160.567
160.807
161.05
161.295
161.542
161.791
162.042
162.296
162.552
162.81
163.07
163.332
163.596
163.861
164.128
164.396
164.666
164.937
165.21
165.483
165.758
166.034
166.311
166.589
166.867
167.146
167.425
167.705
167.986
168.268
168.551
168.835
169.121
169.407
169.695
169.983
170.274
170.565
170.859
171.155
171.453
171.753
172.055
172.359
172.665
153.287
153.386
153.482
153.575
153.666
153.753
153.835
153.914
153.991
154.067
154.141
154.214
154.286
154.358
154.43
154.501
154.572
154.644
154.715
154.787
154.858
154.928
154.998
155.068
155.14
155.213
155.288
155.365
155.444
155.526
155.611
155.699
155.79
155.885
155.983
156.084
156.188
156.296
156.406
156.52
156.636
156.756
156.88
157.008
157.14
157.276
157.417
157.562
157.711
157.865
158.023
158.186
158.353
158.524
158.699
158.878
159.061
159.246
159.435
159.627
159.823
160.021
160.223
160.43
160.639
160.851
161.067
161.286
161.507
161.732
161.96
162.189
162.422
162.656
162.893
163.131
163.372
163.615
163.861
164.109
164.359
164.612
164.866
165.123
165.382
165.643
165.905
166.169
166.435
166.703
166.973
167.245
167.519
167.794
168.071
168.349
168.628
168.909
169.191
169.473
169.756
170.041
170.325
170.611
170.897
171.184
171.471
171.758
172.045
172.333
172.621
172.909
173.199
173.489
173.78
174.072
174.366
174.66
174.955
175.252
175.55
175.851
176.153
176.457
176.763
177.072
177.381
156.625
156.721
156.814
156.906
156.995
157.081
157.164
157.244
157.322
157.399
157.475
157.551
157.627
157.703
157.779
157.856
157.934
158.013
158.093
158.175
158.256
158.338
158.421
158.506
158.592
158.68
158.771
158.864
158.961
159.061
159.165
159.273
159.385
159.5
159.62
159.744
159.872
160.004
160.138
160.277
160.419
160.564
160.714
160.867
161.025
161.187
161.354
161.525
161.7
161.88
162.064
162.252
162.444
162.64
162.84
163.043
163.249
163.459
163.671
163.886
164.103
164.324
164.549
164.775
165.005
165.238
165.473
165.712
165.953
166.196
166.441
166.689
166.938
167.189
167.442
167.697
167.954
168.212
168.473
168.737
169.002
169.269
169.537
169.808
170.081
170.355
170.631
170.908
171.186
171.467
171.749
172.033
172.317
172.604
172.891
173.179
173.468
173.758
174.049
174.34
174.631
174.923
175.214
175.507
175.799
176.091
176.383
176.675
176.967
177.259
177.551
177.844
178.137
178.43
178.725
179.021
179.317
179.615
179.913
180.213
180.515
180.819
181.124
181.432
181.741
182.051
182.363
182.675
159.979
160.072
160.165
160.256
160.346
160.434
160.521
160.606
160.689
160.771
160.852
160.933
161.015
161.097
161.18
161.265
161.35
161.438
161.528
161.62
161.714
161.809
161.906
162.006
162.107
162.21
162.317
162.426
162.539
162.656
162.777
162.902
163.031
163.165
163.303
163.446
163.593
163.745
163.9
164.06
164.222
164.389
164.559
164.733
164.911
165.093
165.279
165.47
165.664
165.863
166.066
166.272
166.482
166.696
166.914
167.135
167.358
167.585
167.814
168.044
168.278
168.515
168.754
168.995
169.239
169.486
169.735
169.986
170.24
170.496
170.754
171.014
171.275
171.538
171.802
172.068
172.336
172.605
172.876
173.15
173.424
173.701
173.979
174.259
174.541
174.824
175.109
175.394
175.681
175.97
176.259
176.55
176.842
177.135
177.429
177.724
178.019
178.315
178.611
178.907
179.203
179.498
179.794
180.09
180.385
180.68
180.975
181.269
181.562
181.856
182.149
182.442
182.735
183.029
183.324
183.619
183.915
184.212
184.51
184.81
185.111
185.413
185.717
186.023
186.331
186.64
186.95
187.261
163.359
163.453
163.546
163.638
163.73
163.821
163.912
164.002
164.091
164.181
164.27
164.359
164.448
164.539
164.632
164.726
164.821
164.92
165.021
165.124
165.231
165.341
165.453
165.568
165.685
165.806
165.929
166.056
166.187
166.321
166.46
166.602
166.75
166.901
167.058
167.219
167.385
167.556
167.73
167.909
168.092
168.278
168.468
168.661
168.857
169.058
169.262
169.47
169.682
169.897
170.116
170.339
170.565
170.795
171.028
171.264
171.502
171.743
171.987
172.231
172.479
172.729
172.98
173.233
173.489
173.748
174.008
174.271
174.535
174.802
175.07
175.34
175.611
175.884
176.157
176.432
176.709
176.987
177.267
177.548
177.831
178.115
178.401
178.688
178.977
179.267
179.559
179.851
180.144
180.439
180.734
181.03
181.328
181.626
181.924
182.223
182.523
182.822
183.122
183.421
183.719
184.017
184.315
184.612
184.908
185.204
185.498
185.793
186.086
186.378
186.67
186.962
187.254
187.545
187.837
188.13
188.424
188.718
189.013
189.309
189.607
189.906
190.207
190.509
190.813
191.118
191.425
191.732
166.819
166.915
167.01
167.105
167.201
167.297
167.394
167.491
167.588
167.687
167.786
167.886
167.988
168.091
168.197
168.305
168.416
168.529
168.647
168.767
168.891
169.019
169.15
169.285
169.423
169.564
169.709
169.858
170.01
170.167
170.327
170.493
170.663
170.837
171.016
171.2
171.388
171.581
171.778
171.978
172.183
172.39
172.601
172.815
173.032
173.253
173.477
173.704
173.935
174.169
174.406
174.646
174.889
175.136
175.385
175.636
175.89
176.146
176.403
176.662
176.924
177.186
177.45
177.716
177.984
178.254
178.526
178.799
179.074
179.351
179.629
179.909
180.19
180.471
180.754
181.038
181.324
181.61
181.898
182.187
182.477
182.769
183.062
183.356
183.652
183.949
184.247
184.545
184.844
185.143
185.443
185.744
186.046
186.347
186.649
186.951
187.252
187.553
187.854
188.153
188.452
188.749
189.045
189.341
189.635
189.928
190.221
190.512
190.801
191.09
191.379
191.666
191.954
192.242
192.53
192.818
193.107
193.398
193.689
193.981
194.275
194.57
194.866
195.165
195.464
195.765
196.066
170.146
170.248
170.349
170.451
170.553
170.656
170.76
170.866
170.973
171.082
171.192
171.305
171.419
171.536
171.655
171.776
171.901
172.029
172.161
172.296
172.436
172.579
172.727
172.878
173.034
173.193
173.356
173.523
173.693
173.868
174.046
174.229
174.417
174.608
174.805
175.005
175.21
175.42
175.633
175.85
176.071
176.295
176.522
176.752
176.985
177.22
177.459
177.7
177.944
178.191
178.441
178.694
178.949
179.207
179.467
179.73
179.995
180.261
180.529
180.799
181.07
181.342
181.615
181.89
182.167
182.445
182.724
183.005
183.288
183.571
183.857
184.143
184.431
184.719
185.008
185.298
185.59
185.882
186.175
186.469
186.764
187.06
187.358
187.656
187.956
188.257
188.558
188.86
189.162
189.464
189.767
190.07
190.373
190.676
190.979
191.281
191.583
191.885
192.185
192.483
192.781
193.076
193.371
193.664
193.955
194.245
194.533
194.82
195.105
195.389
195.672
195.954
196.236
196.517
196.798
197.08
197.362
197.645
197.929
198.214
198.5
198.788
199.077
199.368
199.66
199.953
200.247
200.542
200.836
173.427
173.536
173.644
173.754
173.865
173.977
174.091
174.207
174.325
174.445
174.568
174.693
174.82
174.951
175.084
175.221
175.361
175.504
175.651
175.802