/*--------------------------------*- C++ -*----------------------------------*\
| =========                 |                                                 |
| \\      /  F ield         | OpenFOAM: The Open Source CFD Toolbox           |
|  \\    /   O peration     | Version:  v1706                                 |
|   \\  /    A nd           | Web:      www.OpenFOAM.com                      |
|    \\/     M anipulation  |                                                 |
\*---------------------------------------------------------------------------*/
FoamFile
{
    version     2.0;
    format      ascii;
    class       volVectorField;
    location    "3.2e-05";
    object      U;
}
// * * * * * * * * * * * * * * * * * * * * * * * * * * * * * * * * * * * * * //

dimensions      [0 1 -1 0 0 0 0];


internalField   nonuniform List<vector> 
29871
(
(1760 -6.52513e-11 5.86009e-15)
(1760 -6.44776e-11 2.82112e-15)
(1760 -6.36905e-11 3.70157e-15)
(1760 -6.26428e-11 3.99237e-15)
(1760 -6.22986e-11 2.47817e-15)
(1760 -6.22161e-11 2.27565e-15)
(1760 -6.18072e-11 3.17251e-15)
(1760 -6.1112e-11 3.23285e-15)
(1760 -6.07909e-11 3.77736e-15)
(1760 -6.06429e-11 3.77964e-15)
(1760 -6.07881e-11 3.36908e-15)
(1760 -6.02688e-11 6.22121e-15)
(1760 -6.01918e-11 4.19623e-15)
(1760 -6.08191e-11 4.9641e-15)
(1760 -6.10866e-11 4.22652e-15)
(1760 -6.23869e-11 2.02814e-15)
(1760 -6.29005e-11 1.87225e-15)
(1760 -6.42323e-11 3.43279e-15)
(1760 -6.50072e-11 3.64269e-15)
(1760 -6.5159e-11 4.35146e-15)
(1760 -6.47893e-11 3.79912e-15)
(1760 -6.5603e-11 3.73961e-15)
(1760 -6.62235e-11 1.9511e-15)
(1760 -6.93442e-11 3.80306e-15)
(1760 -7.08415e-11 5.29617e-15)
(1760 -7.15873e-11 5.07781e-15)
(1760 -7.21067e-11 6.07136e-15)
(1760 -7.26152e-11 3.02873e-15)
(1760 -7.34891e-11 2.88682e-15)
(1760 -7.47137e-11 4.24547e-15)
(1760 -7.59875e-11 3.84122e-15)
(1760 -7.65503e-11 2.68671e-15)
(1760 -7.66195e-11 3.36481e-15)
(1760 -7.55449e-11 5.82663e-15)
(1760 -7.45615e-11 3.7449e-15)
(1760 -7.21738e-11 1.50127e-15)
(1760 -6.87119e-11 1.02177e-15)
(1760 -6.67606e-11 3.73888e-15)
(1760 -6.29424e-11 3.86873e-15)
(1760 -5.92149e-11 3.8251e-15)
(1760 -5.50549e-11 5.2443e-15)
(1760 -5.1027e-11 5.80128e-15)
(1760 -4.75635e-11 6.87238e-15)
(1760 -4.34377e-11 2.5116e-15)
(1760 -4.0577e-11 2.82093e-15)
(1760 -3.93558e-11 3.21677e-15)
(1760 -3.86856e-11 1.59734e-15)
(1760 -3.75699e-11 -1.03681e-16)
(1760 -3.64827e-11 5.75902e-16)
(1760 -3.26382e-11 4.68137e-15)
(1760 -3.01746e-11 3.29652e-15)
(1760 -2.85883e-11 1.27796e-15)
(1760 -2.79186e-11 2.33447e-15)
(1760 -2.86031e-11 4.44704e-15)
(1760 -2.94551e-11 3.92068e-15)
(1760 -3.16754e-11 4.00676e-15)
(1760 -3.39635e-11 4.34552e-15)
(1760 -3.65661e-11 5.85472e-15)
(1760 -3.96128e-11 4.92605e-15)
(1760 -4.63556e-11 3.69313e-15)
(1760 -5.31148e-11 2.01277e-15)
(1760 -5.99912e-11 9.69092e-16)
(1760 -6.92296e-11 3.02286e-15)
(1760 -7.88878e-11 -5.60691e-16)
(1760 -8.61907e-11 3.9605e-15)
(1760 -9.38938e-11 5.7484e-15)
(1760 -1.01947e-10 3.00437e-15)
(1760 -1.07733e-10 2.76569e-15)
(1760 -1.13574e-10 2.09986e-15)
(1760 -1.18991e-10 2.47082e-15)
(1760 -1.24373e-10 3.35159e-15)
(1760 -1.28052e-10 3.88047e-15)
(1760 -1.3157e-10 1.94601e-15)
(1760 -1.33079e-10 2.74072e-15)
(1760 -1.34174e-10 2.44323e-15)
(1760 -1.34425e-10 4.54471e-15)
(1760 -1.30845e-10 1.62113e-15)
(1760 -1.23051e-10 2.18557e-15)
(1760 -1.15181e-10 1.69718e-15)
(1760 -1.02834e-10 4.28173e-15)
(1760 -8.67866e-11 4.78481e-15)
(1760 -7.02552e-11 3.17308e-15)
(1760 -4.71968e-11 4.56081e-15)
(1760 -1.52636e-11 1.66589e-15)
(1760 1.19225e-11 4.41645e-15)
(1760 3.35869e-11 3.70656e-15)
(1760 5.51664e-11 2.09145e-15)
(1760 7.23772e-11 3.70053e-15)
(1760 8.70933e-11 4.09694e-15)
(1760 1.03796e-10 3.21659e-15)
(1760 1.23962e-10 2.76304e-15)
(1760 1.29979e-10 1.74294e-15)
(1760 1.26729e-10 2.5942e-15)
(1760 1.13728e-10 3.10145e-15)
(1760 9.48867e-11 1.55446e-15)
(1760 6.45641e-11 2.16961e-15)
(1760 2.73305e-11 2.61052e-15)
(1760 -2.20615e-12 2.80893e-15)
(1760 -3.33147e-11 3.20143e-15)
(1760 -8.51048e-11 2.74568e-15)
(1760 -1.25657e-10 4.30611e-15)
(1760 -1.48163e-10 3.85322e-15)
(1760 -1.71014e-10 1.21662e-15)
(1760 -1.94287e-10 2.42138e-15)
(1760 -2.16772e-10 2.27119e-16)
(1760 -1.93313e-10 9.63919e-15)
(1760 -1.93311e-10 9.65427e-15)
(1760 -1.94352e-10 1.19977e-14)
(1760 -1.9584e-10 1.23017e-14)
(1760 -1.96327e-10 1.09259e-14)
(1760 -1.96506e-10 1.32056e-14)
(1760 -1.97691e-10 1.27793e-14)
(1760 -1.99736e-10 1.19975e-14)
(1760 -2.00771e-10 1.20512e-14)
(1760 -2.0107e-10 1.1647e-14)
(1760 -2.0125e-10 1.17036e-14)
(1760 -2.01762e-10 1.21553e-14)
(1760 -2.00661e-10 1.3773e-14)
(1760 -1.98681e-10 9.216e-15)
(1760 -1.96173e-10 5.81097e-15)
(1760 -1.92234e-10 7.50272e-15)
(1760 -1.88066e-10 1.00735e-14)
(1760 -1.83157e-10 1.03887e-14)
(1760 -1.79315e-10 8.54552e-15)
(1760 -1.74783e-10 7.39884e-15)
(1760 -1.72767e-10 7.95495e-15)
(1760 -1.67678e-10 9.61133e-15)
(1760 -1.63549e-10 1.13385e-14)
(1760 -1.59037e-10 1.21278e-14)
(1760 -1.56824e-10 9.7551e-15)
(1760 -1.5407e-10 1.01853e-14)
(1760 -1.51253e-10 1.10047e-14)
(1760 -1.50631e-10 1.02566e-14)
(1760 -1.47536e-10 1.07806e-14)
(1760 -1.44173e-10 1.04842e-14)
(1760 -1.44534e-10 1.14819e-14)
(1760 -1.45121e-10 6.5737e-15)
(1760 -1.50091e-10 8.94946e-15)
(1760 -1.56421e-10 1.3253e-14)
(1760 -1.62284e-10 1.29675e-14)
(1760 -1.78069e-10 1.29135e-14)
(1760 -1.86846e-10 8.99176e-15)
(1760 -1.98325e-10 1.19404e-14)
(1760 -2.06823e-10 1.10585e-14)
(1760 -2.1733e-10 1.27811e-14)
(1760 -2.29548e-10 1.34162e-14)
(1760 -2.41619e-10 1.12293e-14)
(1760 -2.50645e-10 1.20781e-14)
(1760 -2.55813e-10 1.11533e-14)
(1760 -2.59885e-10 1.08975e-14)
(1760 -2.63726e-10 1.11685e-14)
(1760 -2.68375e-10 1.16564e-14)
(1760 -2.72033e-10 7.94338e-15)
(1760 -2.79183e-10 1.06587e-14)
(1760 -2.84296e-10 9.32147e-15)
(1760 -2.90421e-10 7.89979e-15)
(1760 -2.93824e-10 1.056e-14)
(1760 -2.95367e-10 1.18665e-14)
(1760 -2.93526e-10 9.42891e-15)
(1760 -2.8829e-10 9.86038e-15)
(1760 -2.79104e-10 9.58246e-15)
(1760 -2.70733e-10 1.03669e-14)
(1760 -2.60446e-10 1.17028e-14)
(1760 -2.4776e-10 7.57998e-15)
(1760 -2.19244e-10 5.8207e-15)
(1760 -1.91299e-10 1.02434e-14)
(1760 -1.69673e-10 5.40286e-15)
(1760 -1.42351e-10 7.72604e-15)
(1760 -1.10096e-10 5.71821e-15)
(1760 -8.2791e-11 7.38857e-15)
(1760 -6.05933e-11 7.84392e-15)
(1760 -3.88848e-11 6.52826e-15)
(1760 -1.78366e-11 8.97722e-15)
(1760 -1.64625e-13 1.03817e-14)
(1760 1.86606e-11 6.38542e-15)
(1760 3.11968e-11 9.95048e-15)
(1760 4.54361e-11 6.03984e-15)
(1760 5.56045e-11 5.59361e-15)
(1760 5.91739e-11 8.35834e-15)
(1760 5.65647e-11 6.87597e-15)
(1760 4.92163e-11 7.87591e-15)
(1760 2.87196e-11 6.48425e-15)
(1760 7.11113e-12 8.06581e-15)
(1760 -1.80437e-11 7.83566e-15)
(1760 -6.72239e-11 1.02788e-14)
(1760 -1.29546e-10 8.95136e-15)
(1760 -1.78124e-10 8.44729e-15)
(1760 -2.29812e-10 8.76644e-15)
(1760 -2.93576e-10 9.57204e-15)
(1760 -3.46524e-10 1.07039e-14)
(1760 -3.88211e-10 1.11109e-14)
(1760 -4.19846e-10 1.15343e-14)
(1760 -4.51447e-10 1.07352e-14)
(1760 -4.81596e-10 1.10505e-14)
(1760 -5.16638e-10 1.10764e-14)
(1760 -5.47239e-10 9.74038e-15)
(1760 -5.72898e-10 7.75774e-15)
(1760 -5.88244e-10 1.18468e-14)
(1760 -5.42003e-10 1.1308e-14)
(1760 -4.7495e-10 9.70096e-15)
(1760 -3.56938e-10 9.28563e-15)
(1760 -9.75679e-11 1.05985e-14)
(1760 1.53423e-11 1.14058e-14)
(1760 1.68338e-10 1.0917e-14)
(1760 4.17041e-10 7.83052e-15)
(1760 5.88002e-10 1.06219e-14)
(1760 7.23472e-10 1.23685e-14)
(1760 8.72083e-10 9.7084e-15)
(1760 1.01198e-09 1.02181e-14)
(1760 1.14218e-09 8.29143e-15)
(1760 -3.21968e-10 2.28342e-14)
(1760 -3.18976e-10 2.24985e-14)
(1760 -3.16158e-10 1.81932e-14)
(1760 -3.11908e-10 1.84758e-14)
(1760 -3.08219e-10 2.25481e-14)
(1760 -3.04894e-10 1.95061e-14)
(1760 -3.02175e-10 1.93154e-14)
(1760 -2.99987e-10 1.84418e-14)
(1760 -2.98475e-10 2.17049e-14)
(1760 -2.98276e-10 2.05387e-14)
(1760 -3.00366e-10 1.79245e-14)
(1760 -3.0227e-10 1.57988e-14)
(1760 -3.07394e-10 1.3662e-14)
(1760 -3.14343e-10 1.74895e-14)
(1760 -3.22475e-10 1.83301e-14)
(1760 -3.29632e-10 1.95535e-14)
(1760 -3.39817e-10 1.72631e-14)
(1760 -3.48333e-10 1.83138e-14)
(1760 -3.52942e-10 1.71356e-14)
(1760 -3.58312e-10 1.67985e-14)
(1760 -3.64716e-10 1.66936e-14)
(1760 -3.69613e-10 1.40558e-14)
(1760 -3.7166e-10 1.58083e-14)
(1760 -3.75678e-10 2.26977e-14)
(1760 -3.78849e-10 1.51772e-14)
(1760 -3.80542e-10 1.78944e-14)
(1760 -3.82549e-10 1.9613e-14)
(1760 -3.83051e-10 1.83214e-14)
(1760 -3.84742e-10 1.81395e-14)
(1760 -3.84372e-10 1.81906e-14)
(1760 -3.81764e-10 1.78634e-14)
(1760 -3.77783e-10 1.85552e-14)
(1760 -3.65131e-10 1.71586e-14)
(1760 -3.55712e-10 1.74137e-14)
(1760 -3.40003e-10 1.78524e-14)
(1760 -3.1743e-10 1.82728e-14)
(1760 -2.9286e-10 1.79331e-14)
(1760 -2.70166e-10 1.75332e-14)
(1760 -2.57152e-10 1.70383e-14)
(1760 -2.42416e-10 1.88901e-14)
(1760 -2.3322e-10 1.88068e-14)
(1760 -2.17495e-10 1.66106e-14)
(1760 -2.014e-10 1.63645e-14)
(1760 -1.908e-10 1.60969e-14)
(1760 -1.84525e-10 1.66125e-14)
(1760 -1.74216e-10 1.60363e-14)
(1760 -1.62059e-10 1.81686e-14)
(1760 -1.47372e-10 1.80223e-14)
(1760 -1.38364e-10 1.49515e-14)
(1760 -1.32031e-10 1.43588e-14)
(1760 -1.28153e-10 1.34196e-14)
(1760 -1.23842e-10 1.56731e-14)
(1760 -1.24031e-10 1.38028e-14)
(1760 -1.30636e-10 1.28771e-14)
(1760 -1.41048e-10 1.37067e-14)
(1760 -1.51373e-10 1.72378e-14)
(1760 -1.62448e-10 1.44071e-14)
(1760 -1.81779e-10 1.85151e-14)
(1760 -2.09587e-10 1.98007e-14)
(1760 -2.5001e-10 1.6104e-14)
(1760 -3.06315e-10 1.43875e-14)
(1760 -3.53934e-10 1.27872e-14)
(1760 -3.82573e-10 1.52058e-14)
(1760 -3.98472e-10 1.84152e-14)
(1760 -4.14683e-10 1.36741e-14)
(1760 -4.36495e-10 1.429e-14)
(1760 -4.55422e-10 1.4094e-14)
(1760 -4.72685e-10 1.42891e-14)
(1760 -4.87569e-10 1.47525e-14)
(1760 -5.06738e-10 1.54121e-14)
(1760 -5.16097e-10 1.41416e-14)
(1760 -5.22664e-10 1.59938e-14)
(1760 -5.3165e-10 1.3559e-14)
(1760 -5.45374e-10 1.47431e-14)
(1760 -5.60728e-10 1.54233e-14)
(1760 -5.71877e-10 1.1155e-14)
(1760 -5.35612e-10 1.58137e-14)
(1760 -4.88776e-10 1.72047e-14)
(1760 -4.11869e-10 1.42242e-14)
(1760 -2.87184e-10 1.45364e-14)
(1760 -3.16576e-11 1.8102e-14)
(1760 1.44855e-10 1.72947e-14)
(1760 2.78566e-10 1.78584e-14)
(1760 4.13987e-10 1.6317e-14)
(1760 5.34954e-10 1.92426e-14)
(1760 6.41005e-10 1.96626e-14)
(1760 7.3952e-10 1.63589e-14)
(1760 8.57046e-10 1.6813e-14)
(1760 9.95815e-10 1.95122e-14)
(1760 1.13532e-09 1.76802e-14)
(1760 1.2803e-09 1.83824e-14)
(1760 1.4455e-09 1.7725e-14)
(1760 1.6148e-09 1.60615e-14)
(1760 1.75979e-09 1.8573e-14)
(1760 1.95945e-09 1.91736e-14)
(1760 2.14329e-09 1.68936e-14)
(1760 2.22548e-09 1.52127e-14)
(1760 2.29052e-09 1.82787e-14)
(1760 2.61881e-09 1.7212e-14)
(1760 2.90517e-09 1.60418e-14)
(1760 3.23198e-09 1.55529e-14)
(1760 3.55883e-09 1.60792e-14)
(1760 3.93723e-09 1.66394e-14)
(1760 4.38718e-09 1.51378e-14)
(1760 4.87796e-09 1.52077e-14)
(1760 5.40932e-09 1.5415e-14)
(1760 -4.7945e-10 3.01345e-14)
(1760 -4.83154e-10 3.41885e-14)
(1760 -4.89697e-10 2.84778e-14)
(1760 -4.94594e-10 2.79363e-14)
(1760 -4.97315e-10 2.92998e-14)
(1760 -5.01761e-10 2.65665e-14)
(1760 -5.06401e-10 2.98939e-14)
(1760 -5.0808e-10 2.83034e-14)
(1760 -5.05949e-10 2.62834e-14)
(1760 -4.97969e-10 2.51964e-14)
(1760 -4.85613e-10 2.73684e-14)
(1760 -4.70538e-10 2.64118e-14)
(1760 -4.48133e-10 2.58372e-14)
(1760 -4.29212e-10 2.4886e-14)
(1760 -4.07957e-10 2.49961e-14)
(1760 -3.89596e-10 2.27564e-14)
(1760 -3.76724e-10 2.24136e-14)
(1760 -3.67302e-10 2.32442e-14)
(1760 -3.51726e-10 2.26574e-14)
(1760 -3.40662e-10 2.24728e-14)
(1760 -3.23474e-10 2.1875e-14)
(1760 -3.06178e-10 2.48232e-14)
(1760 -2.95131e-10 2.50981e-14)
(1760 -2.87564e-10 2.42951e-14)
(1760 -2.7541e-10 2.27999e-14)
(1760 -2.67103e-10 2.36133e-14)
(1760 -2.6238e-10 2.60037e-14)
(1760 -2.59798e-10 2.44368e-14)
(1760 -2.6349e-10 2.16242e-14)
(1760 -2.72845e-10 2.41274e-14)
(1760 -2.84477e-10 2.43377e-14)
(1760 -3.07834e-10 2.53595e-14)
(1760 -3.35999e-10 2.39566e-14)
(1760 -3.57481e-10 2.69084e-14)
(1760 -3.81753e-10 2.61968e-14)
(1760 -4.12663e-10 2.55515e-14)
(1760 -4.50837e-10 2.69565e-14)
(1760 -4.80143e-10 2.42098e-14)
(1760 -4.95197e-10 2.49581e-14)
(1760 -5.0064e-10 2.21605e-14)
(1760 -5.19324e-10 2.46295e-14)
(1760 -5.37846e-10 2.81448e-14)
(1760 -5.57452e-10 2.42066e-14)
(1760 -5.70052e-10 2.5854e-14)
(1760 -5.89234e-10 2.63115e-14)
(1760 -6.06501e-10 2.39417e-14)
(1760 -6.28687e-10 2.30257e-14)
(1760 -6.42312e-10 2.29395e-14)
(1760 -6.49169e-10 2.87456e-14)
(1760 -6.6179e-10 2.30034e-14)
(1760 -6.71033e-10 2.11683e-14)
(1760 -6.77541e-10 2.12011e-14)
(1760 -6.80541e-10 2.18713e-14)
(1760 -6.79388e-10 2.52981e-14)
(1760 -6.72992e-10 2.0587e-14)
(1760 -6.30064e-10 2.11811e-14)
(1760 -5.85952e-10 2.42532e-14)
(1760 -5.12455e-10 2.44908e-14)
(1760 -4.17725e-10 2.34322e-14)
(1760 -1.3668e-10 2.38115e-14)
(1760 1.07929e-10 2.57593e-14)
(1760 2.0379e-10 2.33472e-14)
(1760 2.96987e-10 2.25042e-14)
(1760 3.77148e-10 2.31915e-14)
(1760 4.60303e-10 2.38312e-14)
(1760 5.45902e-10 2.38857e-14)
(1760 6.39764e-10 2.34612e-14)
(1760 7.32652e-10 2.26364e-14)
(1760 8.26123e-10 2.26906e-14)
(1760 9.34342e-10 2.28224e-14)
(1760 1.04997e-09 2.38824e-14)
(1760 1.18508e-09 2.4013e-14)
(1760 1.3431e-09 2.4061e-14)
(1760 1.52849e-09 2.43829e-14)
(1760 1.68845e-09 2.24776e-14)
(1760 1.77369e-09 2.14915e-14)
(1760 1.91122e-09 2.40014e-14)
(1760 2.04898e-09 2.40328e-14)
(1760 2.20718e-09 2.37459e-14)
(1760 2.29237e-09 2.54217e-14)
(1760 2.36571e-09 2.41813e-14)
(1760 2.55158e-09 2.18502e-14)
(1760 2.84333e-09 2.08357e-14)
(1760 3.2156e-09 2.15844e-14)
(1760 3.59872e-09 2.33551e-14)
(1760 3.97881e-09 2.03315e-14)
(1760 4.38257e-09 2.21924e-14)
(1760 4.83328e-09 2.50116e-14)
(1760 5.34016e-09 2.3965e-14)
(1760 5.88068e-09 2.15486e-14)
(1760 6.47201e-09 2.24863e-14)
(1760 7.13703e-09 2.25444e-14)
(1760 7.84053e-09 2.2742e-14)
(1760 8.66503e-09 2.39483e-14)
(1760 9.61754e-09 2.13726e-14)
(1760 1.06532e-08 2.08938e-14)
(1760 1.18288e-08 2.51635e-14)
(1760 1.33105e-08 2.46281e-14)
(1760 1.49634e-08 2.08431e-14)
(1760 1.66483e-08 2.2798e-14)
(1760 1.85331e-08 2.21659e-14)
(1760 2.07679e-08 2.07557e-14)
(1760 2.33908e-08 2.24201e-14)
(1760 2.63274e-08 2.19153e-14)
(1760 2.95531e-08 2.00707e-14)
(1760 3.312e-08 2.11771e-14)
(1760 -5.07063e-10 3.49062e-14)
(1760 -4.90784e-10 3.59368e-14)
(1760 -4.76231e-10 3.50067e-14)
(1760 -4.61694e-10 3.42529e-14)
(1760 -4.50091e-10 3.67218e-14)
(1760 -4.3917e-10 3.30625e-14)
(1760 -4.31835e-10 3.21044e-14)
(1760 -4.31071e-10 3.63888e-14)
(1760 -4.36532e-10 3.77415e-14)
(1760 -4.55716e-10 3.78115e-14)
(1760 -4.88784e-10 3.51907e-14)
(1760 -5.26031e-10 3.36866e-14)
(1760 -5.67258e-10 3.65613e-14)
(1760 -5.87712e-10 3.34576e-14)
(1760 -6.16973e-10 3.3888e-14)
(1760 -6.31679e-10 3.76413e-14)
(1760 -6.44287e-10 3.57592e-14)
(1760 -6.54216e-10 3.79438e-14)
(1760 -6.68872e-10 3.72299e-14)
(1760 -6.83933e-10 3.42154e-14)
(1760 -7.01852e-10 3.38975e-14)
(1760 -7.16241e-10 3.28658e-14)
(1760 -7.24516e-10 3.51333e-14)
(1760 -7.32698e-10 3.76318e-14)
(1760 -7.39959e-10 3.40139e-14)
(1760 -7.41842e-10 3.33761e-14)
(1760 -7.40175e-10 3.33373e-14)
(1760 -7.33297e-10 2.8839e-14)
(1760 -7.23155e-10 2.81966e-14)
(1760 -6.98635e-10 3.14478e-14)
(1760 -6.62531e-10 3.17373e-14)
(1760 -6.12233e-10 3.17968e-14)
(1760 -5.51268e-10 3.23307e-14)
(1760 -4.33518e-10 3.25712e-14)
(1760 -3.30552e-10 3.35212e-14)
(1760 -2.6029e-10 3.39842e-14)
(1760 -1.49893e-10 3.54106e-14)
(1760 5.27849e-11 3.68156e-14)
(1760 2.07778e-10 3.12857e-14)
(1760 3.09839e-10 3.19887e-14)
(1760 3.98262e-10 3.5804e-14)
(1760 4.75667e-10 3.62188e-14)
(1760 5.50899e-10 3.45176e-14)
(1760 6.28466e-10 3.34097e-14)
(1760 7.00192e-10 3.60288e-14)
(1760 7.77866e-10 3.60715e-14)
(1760 8.63437e-10 3.53482e-14)
(1760 9.47749e-10 3.50675e-14)
(1760 1.03925e-09 3.23438e-14)
(1760 1.13811e-09 3.4547e-14)
(1760 1.24168e-09 3.31243e-14)
(1760 1.34999e-09 3.10709e-14)
(1760 1.48128e-09 3.13431e-14)
(1760 1.63558e-09 3.46764e-14)
(1760 1.71116e-09 3.52646e-14)
(1760 1.7704e-09 3.28201e-14)
(1760 1.87763e-09 3.29068e-14)
(1760 1.98859e-09 3.35925e-14)
(1760 2.12638e-09 3.26767e-14)
(1760 2.1714e-09 3.08455e-14)
(1760 2.13502e-09 3.00531e-14)
(1760 2.2751e-09 3.1945e-14)
(1760 2.46403e-09 3.00186e-14)
(1760 2.71008e-09 2.96776e-14)
(1760 2.98272e-09 3.08678e-14)
(1760 3.27734e-09 3.0185e-14)
(1760 3.58462e-09 2.78137e-14)
(1760 3.91762e-09 2.86398e-14)
(1760 4.27195e-09 2.80131e-14)
(1760 4.65891e-09 2.92736e-14)
(1760 5.08957e-09 2.96585e-14)
(1760 5.55883e-09 2.91419e-14)
(1760 6.07666e-09 3.11685e-14)
(1760 6.67032e-09 2.94941e-14)
(1760 7.33965e-09 2.80794e-14)
(1760 8.03209e-09 2.91954e-14)
(1760 8.82111e-09 2.85126e-14)
(1760 9.64988e-09 2.90249e-14)
(1760 1.05393e-08 2.9653e-14)
(1760 1.15075e-08 2.97408e-14)
(1760 1.25446e-08 3.05144e-14)
(1760 1.37406e-08 3.00142e-14)
(1760 1.50601e-08 2.77007e-14)
(1760 1.65095e-08 2.65261e-14)
(1760 1.8129e-08 2.85401e-14)
(1760 1.99503e-08 2.97343e-14)
(1760 2.20376e-08 2.83982e-14)
(1760 2.44583e-08 2.86877e-14)
(1760 2.72616e-08 2.99049e-14)
(1760 3.04633e-08 2.847e-14)
(1760 3.40681e-08 2.85403e-14)
(1760 3.81266e-08 3.09029e-14)
(1760 4.26548e-08 2.81868e-14)
(1760 4.76921e-08 2.78274e-14)
(1760 5.33378e-08 2.87728e-14)
(1760 5.96201e-08 2.69627e-14)
(1760 6.65844e-08 2.75094e-14)
(1760 7.42889e-08 2.89008e-14)
(1760 8.26934e-08 2.64946e-14)
(1760 9.1695e-08 2.71581e-14)
(1760 1.01445e-07 2.8245e-14)
(1760 1.12377e-07 2.54256e-14)
(1760 1.24856e-07 2.67611e-14)
(1760 1.39077e-07 2.87666e-14)
(1760 1.55277e-07 2.74428e-14)
(1760 1.73897e-07 2.65851e-14)
(1760 1.95552e-07 2.8583e-14)
(1760 -7.74738e-10 4.74835e-14)
(1760 -7.83771e-10 4.51515e-14)
(1760 -7.92872e-10 4.60157e-14)
(1760 -7.95552e-10 4.40814e-14)
(1760 -7.92625e-10 4.44722e-14)
(1760 -7.83139e-10 4.54543e-14)
(1760 -7.65108e-10 4.87118e-14)
(1760 -7.34664e-10 4.66076e-14)
(1760 -6.80494e-10 4.60903e-14)
(1760 -5.70502e-10 4.65234e-14)
(1760 -3.56035e-10 4.42923e-14)
(1760 -1.22848e-10 4.63402e-14)
(1760 6.29443e-11 4.65608e-14)
(1760 1.70628e-10 4.48915e-14)
(1760 2.63924e-10 4.78146e-14)
(1760 3.5517e-10 4.62516e-14)
(1760 4.51714e-10 4.37392e-14)
(1760 5.50326e-10 4.5173e-14)
(1760 6.50273e-10 4.51132e-14)
(1760 7.45066e-10 4.49673e-14)
(1760 8.3729e-10 4.48597e-14)
(1760 9.39615e-10 4.48141e-14)
(1760 1.05208e-09 4.74022e-14)
(1760 1.16998e-09 4.60844e-14)
(1760 1.29682e-09 4.0565e-14)
(1760 1.42696e-09 4.21899e-14)
(1760 1.57575e-09 4.23714e-14)
(1760 1.71018e-09 4.1376e-14)
(1760 1.77047e-09 4.33887e-14)
(1760 1.83086e-09 4.23524e-14)
(1760 1.91419e-09 4.28344e-14)
(1760 2.02037e-09 4.27904e-14)
(1760 2.13597e-09 4.32349e-14)
(1760 2.19599e-09 4.19169e-14)
(1760 2.30813e-09 4.36698e-14)
(1760 2.54558e-09 4.24472e-14)
(1760 2.6019e-09 4.14675e-14)
(1760 2.6969e-09 4.03153e-14)
(1760 2.8444e-09 3.94183e-14)
(1760 3.04502e-09 4.11098e-14)
(1760 3.29671e-09 4.08669e-14)
(1760 3.55263e-09 4.0876e-14)
(1760 3.80122e-09 4.11408e-14)
(1760 4.04675e-09 3.99788e-14)
(1760 4.29322e-09 4.26378e-14)
(1760 4.54971e-09 4.18867e-14)
(1760 4.83046e-09 4.08008e-14)
(1760 5.13114e-09 4.07002e-14)
(1760 5.45234e-09 3.93266e-14)
(1760 5.7932e-09 4.18751e-14)
(1760 6.17098e-09 3.98433e-14)
(1760 6.58067e-09 3.65965e-14)
(1760 7.04956e-09 3.88339e-14)
(1760 7.56922e-09 4.08628e-14)
(1760 8.12397e-09 4.32421e-14)
(1760 8.73441e-09 4.20282e-14)
(1760 9.38277e-09 4.00706e-14)
(1760 1.01017e-08 3.62831e-14)
(1760 1.09153e-08 3.63559e-14)
(1760 1.17213e-08 3.79515e-14)
(1760 1.26042e-08 3.76928e-14)
(1760 1.3583e-08 3.63429e-14)
(1760 1.46888e-08 3.63652e-14)
(1760 1.59321e-08 3.8891e-14)
(1760 1.72939e-08 3.4718e-14)
(1760 1.87519e-08 3.51954e-14)
(1760 2.0309e-08 4.14166e-14)
(1760 2.19816e-08 3.73309e-14)
(1760 2.3785e-08 3.28663e-14)
(1760 2.5748e-08 3.707e-14)
(1760 2.79118e-08 3.67392e-14)
(1760 3.02959e-08 3.37089e-14)
(1760 3.29478e-08 3.49562e-14)
(1760 3.59628e-08 3.59407e-14)
(1760 3.93874e-08 3.57947e-14)
(1760 4.32806e-08 3.5382e-14)
(1760 4.77302e-08 3.57893e-14)
(1760 5.27804e-08 3.61144e-14)
(1760 5.85149e-08 3.59206e-14)
(1760 6.49559e-08 3.319e-14)
(1760 7.21367e-08 3.25025e-14)
(1760 8.01861e-08 3.53468e-14)
(1760 8.91121e-08 3.63548e-14)
(1760 9.89938e-08 3.52493e-14)
(1760 1.09946e-07 3.44021e-14)
(1760 1.22054e-07 3.37171e-14)
(1760 1.35381e-07 3.39118e-14)
(1760 1.4995e-07 3.49848e-14)
(1760 1.65802e-07 3.56091e-14)
(1760 1.83063e-07 3.38847e-14)
(1760 2.02009e-07 3.49565e-14)
(1760 2.23077e-07 3.33615e-14)
(1760 2.468e-07 3.33508e-14)
(1760 2.73819e-07 3.56455e-14)
(1760 3.0486e-07 3.5405e-14)
(1760 3.40752e-07 3.24071e-14)
(1760 3.82429e-07 3.21486e-14)
(1760 4.30781e-07 3.43688e-14)
(1760 4.86479e-07 3.19608e-14)
(1760 5.50024e-07 3.23832e-14)
(1760 6.21902e-07 3.47357e-14)
(1760 7.02562e-07 3.37945e-14)
(1760 7.92487e-07 3.46224e-14)
(1760 8.92635e-07 3.34607e-14)
(1760 1.00457e-06 3.17027e-14)
(1760 1.12985e-06 3.14382e-14)
(1760 1.26952e-06 3.44502e-14)
(1760 3.86324e-10 5.55016e-14)
(1760 5.33589e-10 5.60894e-14)
(1760 6.84047e-10 5.74351e-14)
(1760 8.40444e-10 5.3206e-14)
(1760 1.00771e-09 5.42283e-14)
(1760 1.18212e-09 5.46798e-14)
(1760 1.36442e-09 5.54679e-14)
(1760 1.5578e-09 5.8034e-14)
(1760 1.78027e-09 5.66112e-14)
(1760 1.96552e-09 5.70514e-14)
(1760 2.08791e-09 5.26435e-14)
(1760 2.19795e-09 5.41285e-14)
(1760 2.29896e-09 5.7366e-14)
(1760 2.20196e-09 5.28759e-14)
(1760 2.32649e-09 5.15063e-14)
(1760 2.55306e-09 5.17009e-14)
(1760 2.83801e-09 5.16725e-14)
(1760 3.13649e-09 5.27294e-14)
(1760 3.43433e-09 5.24141e-14)
(1760 3.74542e-09 5.2059e-14)
(1760 4.07107e-09 5.13446e-14)
(1760 4.40916e-09 5.16234e-14)
(1760 4.75685e-09 5.12931e-14)
(1760 5.11417e-09 5.01694e-14)
(1760 5.49391e-09 5.03458e-14)
(1760 5.89107e-09 5.31585e-14)
(1760 6.31075e-09 5.29115e-14)
(1760 6.75657e-09 5.13595e-14)
(1760 7.22151e-09 5.192e-14)
(1760 7.7103e-09 5.08526e-14)
(1760 8.22614e-09 4.97795e-14)
(1760 8.77314e-09 4.93326e-14)
(1760 9.31681e-09 5.14872e-14)
(1760 9.85214e-09 5.24954e-14)
(1760 1.03954e-08 5.06342e-14)
(1760 1.09434e-08 4.84895e-14)
(1760 1.15289e-08 4.63311e-14)
(1760 1.22153e-08 4.77361e-14)
(1760 1.29603e-08 4.75991e-14)
(1760 1.3665e-08 4.7794e-14)
(1760 1.44337e-08 4.80702e-14)
(1760 1.53105e-08 4.82517e-14)
(1760 1.63211e-08 4.62556e-14)
(1760 1.74349e-08 4.64938e-14)
(1760 1.86214e-08 4.83735e-14)
(1760 1.98954e-08 4.84451e-14)
(1760 2.12774e-08 4.75149e-14)
(1760 2.27771e-08 4.83937e-14)
(1760 2.43886e-08 4.95405e-14)
(1760 2.61167e-08 4.91207e-14)
(1760 2.79535e-08 4.66275e-14)
(1760 2.99051e-08 4.62356e-14)
(1760 3.19714e-08 4.71573e-14)
(1760 3.41751e-08 4.64121e-14)
(1760 3.65299e-08 4.89174e-14)
(1760 3.90663e-08 4.48394e-14)
(1760 4.17634e-08 4.30189e-14)
(1760 4.46217e-08 4.80339e-14)
(1760 4.7656e-08 4.7118e-14)
(1760 5.08883e-08 4.39745e-14)
(1760 5.4366e-08 4.42185e-14)
(1760 5.81422e-08 4.64732e-14)
(1760 6.22807e-08 4.29643e-14)
(1760 6.69031e-08 4.35622e-14)
(1760 7.21076e-08 4.38127e-14)
(1760 7.79525e-08 4.19973e-14)
(1760 8.45059e-08 4.76529e-14)
(1760 9.18678e-08 4.44088e-14)
(1760 1.00182e-07 4.38111e-14)
(1760 1.09574e-07 4.56465e-14)
(1760 1.20137e-07 4.31228e-14)
(1760 1.31954e-07 4.24966e-14)
(1760 1.45085e-07 4.12386e-14)
(1760 1.59591e-07 4.19461e-14)
(1760 1.75553e-07 4.32346e-14)
(1760 1.93108e-07 4.24649e-14)
(1760 2.12435e-07 4.25741e-14)
(1760 2.33667e-07 4.32508e-14)
(1760 2.56899e-07 4.09016e-14)
(1760 2.82164e-07 4.19764e-14)
(1760 3.09546e-07 4.09452e-14)
(1760 3.39291e-07 4.11138e-14)
(1760 3.71784e-07 3.97685e-14)
(1760 4.07662e-07 3.89146e-14)
(1760 4.47816e-07 4.19664e-14)
(1760 4.93229e-07 4.09213e-14)
(1760 5.45082e-07 4.14609e-14)
(1760 6.047e-07 4.01071e-14)
(1760 6.73487e-07 3.82009e-14)
(1760 7.52934e-07 3.86173e-14)
(1760 8.44488e-07 3.89332e-14)
(1760 9.4925e-07 4.05941e-14)
(1760 1.06783e-06 4.07303e-14)
(1760 1.20066e-06 3.76281e-14)
(1760 1.34856e-06 3.85831e-14)
(1760 1.51312e-06 4.21235e-14)
(1760 1.69656e-06 4.04508e-14)
(1760 1.90108e-06 4.21709e-14)
(1760 2.12834e-06 4.01853e-14)
(1760 2.37914e-06 3.86495e-14)
(1760 2.65363e-06 3.86117e-14)
(1760 2.95297e-06 3.81212e-14)
(1760 3.28126e-06 4.05668e-14)
(1760 3.64566e-06 3.85774e-14)
(1760 4.05524e-06 4.0946e-14)
(1760 4.52084e-06 4.00849e-14)
(1760 5.0557e-06 3.90934e-14)
(1760 5.6769e-06 3.86463e-14)
(1760 6.40598e-06 3.64479e-14)
(1760 7.26558e-06 3.86743e-14)
(1760 4.01012e-09 6.08994e-14)
(1760 4.48791e-09 6.26277e-14)
(1760 4.99176e-09 6.35932e-14)
(1760 5.51924e-09 6.07076e-14)
(1760 6.07656e-09 6.28029e-14)
(1760 6.66522e-09 6.37221e-14)
(1760 7.29754e-09 6.3569e-14)
(1760 7.97434e-09 6.17538e-14)
(1760 8.70376e-09 6.3922e-14)
(1760 9.52606e-09 6.39812e-14)
(1760 1.04201e-08 6.1393e-14)
(1760 1.13777e-08 6.37555e-14)
(1760 1.23818e-08 6.42177e-14)
(1760 1.33285e-08 6.11407e-14)
(1760 1.43357e-08 5.7707e-14)
(1760 1.53666e-08 5.93875e-14)
(1760 1.6479e-08 6.29608e-14)
(1760 1.76687e-08 6.18781e-14)
(1760 1.89324e-08 6.09003e-14)
(1760 2.02826e-08 5.76265e-14)
(1760 2.17094e-08 5.87771e-14)
(1760 2.31971e-08 5.86368e-14)
(1760 2.47318e-08 6.08104e-14)
(1760 2.63308e-08 6.21153e-14)
(1760 2.80271e-08 5.90854e-14)
(1760 2.98394e-08 5.87993e-14)
(1760 3.17876e-08 6.10905e-14)
(1760 3.38925e-08 6.1747e-14)
(1760 3.61811e-08 5.95008e-14)
(1760 3.86573e-08 5.50895e-14)
(1760 4.13451e-08 5.40524e-14)
(1760 4.42678e-08 5.88934e-14)
(1760 4.74098e-08 5.89488e-14)
(1760 5.0745e-08 5.43444e-14)
(1760 5.4251e-08 5.47308e-14)
(1760 5.79218e-08 5.67164e-14)
(1760 6.17896e-08 5.54741e-14)
(1760 6.58464e-08 5.53817e-14)
(1760 7.0047e-08 5.44268e-14)
(1760 7.44326e-08 5.64182e-14)
(1760 7.90995e-08 5.57841e-14)
(1760 8.40364e-08 5.47833e-14)
(1760 8.9174e-08 5.37362e-14)
(1760 9.44683e-08 5.51206e-14)
(1760 9.99354e-08 5.44418e-14)
(1760 1.05666e-07 5.42035e-14)
(1760 1.11759e-07 5.59719e-14)
(1760 1.18301e-07 5.58193e-14)
(1760 1.2537e-07 5.34073e-14)
(1760 1.33058e-07 5.41037e-14)
(1760 1.41468e-07 5.32621e-14)
(1760 1.50712e-07 5.4534e-14)
(1760 1.60905e-07 5.19226e-14)
(1760 1.72202e-07 5.42562e-14)
(1760 1.84766e-07 5.50153e-14)
(1760 1.98771e-07 5.17281e-14)
(1760 2.14368e-07 5.33529e-14)
(1760 2.31693e-07 5.16659e-14)
(1760 2.50849e-07 5.34805e-14)
(1760 2.71915e-07 5.4375e-14)
(1760 2.94926e-07 5.24581e-14)
(1760 3.19919e-07 5.3186e-14)
(1760 3.47032e-07 5.19105e-14)
(1760 3.76513e-07 5.08551e-14)
(1760 4.08597e-07 4.83368e-14)
(1760 4.43475e-07 5.17638e-14)
(1760 4.81302e-07 5.32419e-14)
(1760 5.22217e-07 4.8107e-14)
(1760 5.66322e-07 5.12156e-14)
(1760 6.13826e-07 5.29519e-14)
(1760 6.65204e-07 4.98263e-14)
(1760 7.21292e-07 4.87757e-14)
(1760 7.83255e-07 4.87047e-14)
(1760 8.52478e-07 5.14802e-14)
(1760 9.30507e-07 4.8246e-14)
(1760 1.01909e-06 4.75473e-14)
(1760 1.1202e-06 4.92272e-14)
(1760 1.23605e-06 4.82108e-14)
(1760 1.36901e-06 4.72572e-14)
(1760 1.52138e-06 4.71503e-14)
(1760 1.69501e-06 4.59198e-14)
(1760 1.89105e-06 4.60824e-14)
(1760 2.11027e-06 4.79702e-14)
(1760 2.35374e-06 4.71848e-14)
(1760 2.62359e-06 4.80177e-14)
(1760 2.92296e-06 4.86586e-14)
(1760 3.2552e-06 4.71929e-14)
(1760 3.6231e-06 4.35603e-14)
(1760 4.02831e-06 4.44592e-14)
(1760 4.4715e-06 4.49914e-14)
(1760 4.95415e-06 4.62329e-14)
(1760 5.48114e-06 4.54936e-14)
(1760 6.06198e-06 4.77141e-14)
(1760 6.71011e-06 4.51179e-14)
(1760 7.44222e-06 4.57814e-14)
(1760 8.27789e-06 4.58021e-14)
(1760 9.24072e-06 4.59464e-14)
(1760 1.03605e-05 4.65869e-14)
(1760 1.16705e-05 4.37949e-14)
(1760 1.32039e-05 4.60274e-14)
(1760 1.49891e-05 4.63054e-14)
(1760 1.70414e-05 4.52161e-14)
(1760 1.93606e-05 4.47261e-14)
(1760 2.19435e-05 4.33697e-14)
(1760 2.48044e-05 4.52711e-14)
(1760 2.79835e-05 4.37358e-14)
(1760 3.15413e-05 4.42802e-14)
(1760 3.55363e-05 4.41438e-14)
(1760 4.00002e-05 4.40042e-14)
(1760 4.49485e-05 4.22278e-14)
(1760 2.23175e-08 7.25096e-14)
(1760 2.45274e-08 7.10297e-14)
(1760 2.69611e-08 7.04538e-14)
(1760 2.96046e-08 7.13276e-14)
(1760 3.24445e-08 7.30971e-14)
(1760 3.54536e-08 7.07143e-14)
(1760 3.86321e-08 6.9401e-14)
(1760 4.19725e-08 7.15837e-14)
(1760 4.54608e-08 7.36834e-14)
(1760 4.91473e-08 7.24945e-14)
(1760 5.30381e-08 7.21154e-14)
(1760 5.71941e-08 7.0331e-14)
(1760 6.16319e-08 7.14216e-14)
(1760 6.63623e-08 6.93633e-14)
(1760 7.14295e-08 6.9453e-14)
(1760 7.6861e-08 7.04918e-14)
(1760 8.27014e-08 7.02457e-14)
(1760 8.89972e-08 6.98148e-14)
(1760 9.58228e-08 6.82737e-14)
(1760 1.03239e-07 6.80295e-14)
(1760 1.11251e-07 7.11987e-14)
(1760 1.19803e-07 6.80034e-14)
(1760 1.28844e-07 6.85656e-14)
(1760 1.38347e-07 6.82262e-14)
(1760 1.48298e-07 6.79204e-14)
(1760 1.58657e-07 6.78055e-14)
(1760 1.69368e-07 6.58749e-14)
(1760 1.804e-07 6.57487e-14)
(1760 1.9174e-07 6.91927e-14)
(1760 2.03381e-07 6.35768e-14)
(1760 2.15366e-07 6.40719e-14)
(1760 2.27788e-07 6.49448e-14)
(1760 2.4078e-07 6.55647e-14)
(1760 2.54486e-07 6.61781e-14)
(1760 2.69065e-07 6.45339e-14)
(1760 2.84696e-07 6.44005e-14)
(1760 3.01581e-07 6.38608e-14)
(1760 3.19861e-07 6.34916e-14)
(1760 3.39688e-07 6.2557e-14)
(1760 3.61326e-07 6.31536e-14)
(1760 3.85057e-07 6.43852e-14)
(1760 4.11067e-07 6.30086e-14)
(1760 4.39499e-07 6.27581e-14)
(1760 4.70496e-07 6.07936e-14)
(1760 5.04203e-07 5.87645e-14)
(1760 5.40699e-07 6.11212e-14)
(1760 5.79962e-07 6.2516e-14)
(1760 6.2194e-07 5.95287e-14)
(1760 6.66662e-07 5.88214e-14)
(1760 7.1429e-07 6.17547e-14)
(1760 7.65096e-07 6.27967e-14)
(1760 8.19416e-07 6.27897e-14)
(1760 8.77556e-07 5.95535e-14)
(1760 9.39753e-07 6.04894e-14)
(1760 1.00614e-06 6.1942e-14)
(1760 1.0768e-06 6.11062e-14)
(1760 1.15189e-06 5.8942e-14)
(1760 1.23189e-06 5.87816e-14)
(1760 1.31773e-06 5.88241e-14)
(1760 1.41086e-06 6.25064e-14)
(1760 1.51306e-06 5.96977e-14)
(1760 1.62631e-06 5.83661e-14)
(1760 1.75272e-06 5.92858e-14)
(1760 1.89461e-06 5.83225e-14)
(1760 2.05458e-06 5.64268e-14)
(1760 2.23566e-06 5.79928e-14)
(1760 2.44124e-06 5.76549e-14)
(1760 2.67488e-06 5.69215e-14)
(1760 2.93973e-06 5.72644e-14)
(1760 3.23797e-06 5.56856e-14)
(1760 3.5708e-06 5.68348e-14)
(1760 3.93917e-06 5.77114e-14)
(1760 4.34482e-06 5.56591e-14)
(1760 4.79109e-06 5.86126e-14)
(1760 5.28275e-06 5.31283e-14)
(1760 5.82487e-06 5.27832e-14)
(1760 6.4217e-06 5.55403e-14)
(1760 7.07586e-06 5.3864e-14)