/*--------------------------------*- C++ -*----------------------------------*\
| =========                 |                                                 |
| \\      /  F ield         | OpenFOAM: The Open Source CFD Toolbox           |
|  \\    /   O peration     | Version:  v1706                                 |
|   \\  /    A nd           | Web:      www.OpenFOAM.com                      |
|    \\/     M anipulation  |                                                 |
\*---------------------------------------------------------------------------*/
FoamFile
{
    version     2.0;
    format      ascii;
    class       volVectorField;
    location    "1.1e-05";
    object      U;
}
// * * * * * * * * * * * * * * * * * * * * * * * * * * * * * * * * * * * * * //

dimensions      [0 1 -1 0 0 0 0];


internalField   nonuniform List<vector> 
29987
(
(978.58 -2.17582e-08 3.79673e-11)
(978.58 -8.57129e-09 1.4286e-11)
(978.58 -3.87765e-09 6.46062e-12)
(978.58 -2.16643e-09 3.64726e-12)
(978.58 -1.41557e-09 2.39e-12)
(978.58 -1.01817e-09 1.71978e-12)
(978.58 -7.75725e-10 1.30443e-12)
(978.58 -6.14973e-10 1.02202e-12)
(978.58 -5.0163e-10 8.27849e-13)
(978.58 -4.17697e-10 6.88742e-13)
(978.58 -3.54748e-10 5.21123e-13)
(978.58 -3.06666e-10 4.59735e-13)
(978.58 -2.68625e-10 4.11964e-13)
(978.58 -2.38143e-10 3.50763e-13)
(978.58 -2.13213e-10 3.02386e-13)
(978.58 -1.92949e-10 2.64334e-13)
(978.58 -1.76184e-10 2.22294e-13)
(978.58 -1.62066e-10 1.98154e-13)
(978.58 -1.50013e-10 1.85855e-13)
(978.58 -1.3903e-10 1.72754e-13)
(978.58 -1.29787e-10 1.61089e-13)
(978.58 -1.22753e-10 1.38551e-13)
(978.58 -1.16315e-10 1.30765e-13)
(978.58 -1.09718e-10 1.13948e-13)
(978.58 -1.04636e-10 1.17356e-13)
(978.58 -9.95836e-11 1.11038e-13)
(978.58 -9.52604e-11 9.1472e-14)
(978.58 -9.15919e-11 8.30565e-14)
(978.58 -8.90323e-11 8.90306e-14)
(978.58 -8.54081e-11 8.1488e-14)
(978.58 -8.26249e-11 8.19109e-14)
(978.58 -8.06331e-11 7.43622e-14)
(978.58 -7.83825e-11 6.4486e-14)
(978.58 -7.5926e-11 6.08371e-14)
(978.58 -7.45152e-11 5.98048e-14)
(978.58 -7.20616e-11 5.55965e-14)
(978.58 -6.99156e-11 5.31541e-14)
(978.58 -6.95073e-11 4.44411e-14)
(978.58 -6.77398e-11 4.22305e-14)
(978.58 -6.73709e-11 4.21194e-14)
(978.58 -6.5813e-11 3.54197e-14)
(978.58 -6.44337e-11 3.98313e-14)
(978.58 -6.35369e-11 4.47752e-14)
(978.58 -6.27999e-11 3.74025e-14)
(978.58 -6.19234e-11 3.35637e-14)
(978.58 -6.19924e-11 3.266e-14)
(978.58 -6.05265e-11 4.10095e-14)
(978.58 -6.00782e-11 3.06433e-14)
(978.58 -5.94029e-11 2.96298e-14)
(978.58 -5.94664e-11 3.33931e-14)
(978.58 -5.86442e-11 3.2507e-14)
(978.58 -5.83473e-11 2.93309e-14)
(978.58 -5.77644e-11 2.7268e-14)
(978.58 -5.76665e-11 2.30286e-14)
(978.58 -5.71639e-11 2.38519e-14)
(978.58 -5.66477e-11 2.05566e-14)
(978.58 -5.6315e-11 1.79482e-14)
(978.58 -5.65235e-11 1.94623e-14)
(978.58 -5.59793e-11 2.31526e-14)
(978.58 -5.57233e-11 2.61053e-14)
(978.58 -5.5502e-11 2.29302e-14)
(978.58 -5.56753e-11 1.41561e-14)
(978.58 -5.51682e-11 1.99693e-14)
(978.58 -5.53288e-11 2.08263e-14)
(978.58 -5.46806e-11 1.63987e-14)
(978.58 -5.4696e-11 1.4823e-14)
(978.58 -5.49917e-11 1.59851e-14)
(978.58 -5.51523e-11 1.86768e-14)
(978.58 -5.55087e-11 1.85855e-14)
(978.58 -5.50394e-11 1.62047e-14)
(978.58 -5.49371e-11 1.46967e-14)
(978.58 -5.53895e-11 1.55881e-14)
(978.58 -5.57843e-11 1.35973e-14)
(978.58 -5.56696e-11 1.46713e-14)
(978.58 -5.55905e-11 1.81694e-14)
(978.58 -5.60542e-11 1.67318e-14)
(978.58 -5.5745e-11 1.56109e-14)
(978.58 -5.63179e-11 1.57127e-14)
(978.58 -5.60841e-11 1.0148e-14)
(978.58 -5.65629e-11 6.97647e-15)
(978.58 -5.67787e-11 1.0608e-14)
(978.58 -5.69097e-11 1.07892e-14)
(978.58 -5.71817e-11 8.46035e-15)
(978.58 -5.70717e-11 1.07418e-14)
(978.58 -5.73268e-11 1.22942e-14)
(978.58 -5.75244e-11 1.16221e-14)
(978.58 -5.8026e-11 1.03799e-14)
(978.58 -5.80895e-11 1.07172e-14)
(978.58 -5.83173e-11 1.12923e-14)
(978.58 -5.8384e-11 7.87662e-15)
(978.58 -5.85194e-11 7.30973e-15)
(978.58 -5.86711e-11 7.9575e-15)
(978.58 -5.93397e-11 1.10459e-14)
(978.58 -5.90792e-11 1.19826e-14)
(978.58 -5.90879e-11 1.25474e-14)
(978.58 -5.92588e-11 1.08834e-14)
(978.58 -5.98688e-11 7.87907e-15)
(978.58 -6.03579e-11 1.02153e-14)
(978.58 -6.08399e-11 9.80451e-15)
(978.58 -6.12775e-11 7.11074e-15)
(978.58 -6.16795e-11 7.20104e-15)
(978.58 -6.23471e-11 1.28521e-14)
(978.58 -6.28224e-11 1.18973e-14)
(978.58 -6.3006e-11 8.55957e-15)
(978.58 -6.31754e-11 8.79132e-15)
(978.58 -6.3001e-11 6.81211e-15)
(978.58 -6.31331e-11 5.4177e-15)
(978.58 -6.33743e-11 6.08176e-15)
(978.58 -6.36175e-11 8.49725e-15)
(978.58 -6.40451e-11 6.19082e-15)
(978.58 -6.4879e-11 7.11522e-15)
(978.58 -6.61291e-11 7.6575e-15)
(978.58 -6.7752e-11 9.02179e-15)
(978.58 -6.97601e-11 8.27621e-15)
(978.58 -7.10401e-11 9.95187e-15)
(978.58 -7.19285e-11 7.66902e-15)
(978.58 -7.10488e-11 9.40477e-15)
(978.58 -6.89666e-11 1.17978e-14)
(978.58 -6.41242e-11 1.09297e-14)
(978.58 -5.71361e-11 5.571e-15)
(978.58 -5.1202e-11 6.95515e-15)
(978.58 -4.58561e-11 8.14485e-15)
(978.58 -4.25751e-11 6.04467e-15)
(978.58 -4.29878e-11 7.37159e-15)
(978.58 -4.51755e-11 7.41606e-15)
(978.58 -4.80876e-11 7.05449e-15)
(978.58 -4.78583e-11 8.52095e-15)
(978.58 -4.63635e-11 7.55917e-15)
(978.58 -3.56432e-11 8.56838e-15)
(978.58 -9.25606e-12 8.21695e-15)
(978.58 3.76815e-11 1.10172e-14)
(978.58 8.18043e-11 9.9619e-15)
(978.58 1.39214e-10 6.50035e-15)
(978.58 2.9559e-10 7.11124e-15)
(978.58 5.45947e-10 9.47006e-15)
(978.58 7.26761e-10 9.1734e-15)
(978.58 8.95221e-10 1.17986e-14)
(978.58 1.0645e-09 1.08543e-14)
(978.58 1.27992e-09 9.63842e-15)
(978.58 1.56382e-09 1.00715e-14)
(978.58 1.93156e-09 5.22645e-15)
(978.58 2.40404e-09 7.93079e-15)
(978.58 3.00951e-09 9.91591e-15)
(978.58 3.7867e-09 8.39536e-15)
(978.58 4.78118e-09 9.37461e-15)
(978.58 6.05665e-09 9.75907e-15)
(978.58 7.69254e-09 1.02107e-14)
(978.58 9.79086e-09 9.955e-15)
(978.58 1.24848e-08 8.36928e-15)
(978.58 1.59454e-08 6.49738e-15)
(978.58 2.03977e-08 6.02808e-15)
(978.58 2.61324e-08 5.89027e-15)
(978.58 3.35234e-08 6.92753e-15)
(978.58 4.30563e-08 8.57232e-15)
(978.58 5.53663e-08 7.68183e-15)
(978.58 7.12781e-08 8.92993e-15)
(978.58 -5.20917e-08 8.68352e-11)
(978.58 -2.79335e-08 4.3081e-11)
(978.58 -1.50576e-08 2.16725e-11)
(978.58 -8.80023e-09 1.23317e-11)
(978.58 -5.6502e-09 7.8595e-12)
(978.58 -3.9344e-09 5.48991e-12)
(978.58 -2.91725e-09 4.07887e-12)
(978.58 -2.26805e-09 3.12781e-12)
(978.58 -1.82646e-09 2.50946e-12)
(978.58 -1.51024e-09 2.03123e-12)
(978.58 -1.27436e-09 1.6596e-12)
(978.58 -1.09277e-09 1.42271e-12)
(978.58 -9.51967e-10 1.20069e-12)
(978.58 -8.40043e-10 1.04518e-12)
(978.58 -7.4905e-10 9.05332e-13)
(978.58 -6.75518e-10 8.17674e-13)
(978.58 -6.13439e-10 7.06568e-13)
(978.58 -5.60181e-10 6.42329e-13)
(978.58 -5.16137e-10 5.839e-13)
(978.58 -4.78245e-10 5.29226e-13)
(978.58 -4.44871e-10 4.7891e-13)
(978.58 -4.16779e-10 4.1627e-13)
(978.58 -3.92942e-10 3.93647e-13)
(978.58 -3.71675e-10 3.60158e-13)
(978.58 -3.51917e-10 3.4904e-13)
(978.58 -3.34328e-10 3.31166e-13)
(978.58 -3.19205e-10 3.06791e-13)
(978.58 -3.05369e-10 2.85898e-13)
(978.58 -2.9409e-10 2.66094e-13)
(978.58 -2.83006e-10 2.43753e-13)
(978.58 -2.73211e-10 2.16914e-13)
(978.58 -2.64167e-10 2.1113e-13)
(978.58 -2.56082e-10 1.8067e-13)
(978.58 -2.49949e-10 1.74147e-13)
(978.58 -2.43309e-10 1.7278e-13)
(978.58 -2.36751e-10 1.65635e-13)
(978.58 -2.30048e-10 1.53197e-13)
(978.58 -2.25305e-10 1.54124e-13)
(978.58 -2.18555e-10 1.4597e-13)
(978.58 -2.15585e-10 1.29409e-13)
(978.58 -2.11932e-10 1.19558e-13)
(978.58 -2.09382e-10 1.22325e-13)
(978.58 -2.03968e-10 1.24362e-13)
(978.58 -2.00049e-10 1.09595e-13)
(978.58 -1.97562e-10 9.34565e-14)
(978.58 -1.96447e-10 1.04296e-13)
(978.58 -1.94324e-10 1.00747e-13)
(978.58 -1.90851e-10 9.20384e-14)
(978.58 -1.87476e-10 9.13411e-14)
(978.58 -1.8562e-10 9.86268e-14)
(978.58 -1.85188e-10 9.38781e-14)
(978.58 -1.83692e-10 8.24526e-14)
(978.58 -1.81986e-10 7.78979e-14)
(978.58 -1.80846e-10 6.69126e-14)
(978.58 -1.79961e-10 6.83092e-14)
(978.58 -1.77946e-10 6.55504e-14)
(978.58 -1.77172e-10 6.56056e-14)
(978.58 -1.76174e-10 6.50006e-14)
(978.58 -1.74752e-10 7.28871e-14)
(978.58 -1.73965e-10 6.92163e-14)
(978.58 -1.72947e-10 5.9893e-14)
(978.58 -1.7311e-10 5.65945e-14)
(978.58 -1.7258e-10 6.38696e-14)
(978.58 -1.72356e-10 5.54817e-14)
(978.58 -1.70722e-10 5.43815e-14)
(978.58 -1.6968e-10 5.36108e-14)
(978.58 -1.68824e-10 4.8136e-14)
(978.58 -1.69049e-10 5.22738e-14)
(978.58 -1.70564e-10 5.07534e-14)
(978.58 -1.69442e-10 4.76083e-14)
(978.58 -1.68497e-10 4.97932e-14)
(978.58 -1.69109e-10 5.00781e-14)
(978.58 -1.69784e-10 4.53884e-14)
(978.58 -1.70206e-10 4.58727e-14)
(978.58 -1.68918e-10 4.9022e-14)
(978.58 -1.69938e-10 5.02305e-14)
(978.58 -1.71211e-10 4.50275e-14)
(978.58 -1.70787e-10 4.17579e-14)
(978.58 -1.69782e-10 3.44693e-14)
(978.58 -1.69648e-10 3.38251e-14)
(978.58 -1.71146e-10 3.69535e-14)
(978.58 -1.71991e-10 3.46192e-14)
(978.58 -1.73065e-10 3.23955e-14)
(978.58 -1.72889e-10 3.64261e-14)
(978.58 -1.73695e-10 3.89603e-14)
(978.58 -1.73399e-10 3.68805e-14)
(978.58 -1.73557e-10 3.30109e-14)
(978.58 -1.74481e-10 3.5312e-14)
(978.58 -1.74812e-10 3.27395e-14)
(978.58 -1.75489e-10 3.09674e-14)
(978.58 -1.76096e-10 3.24041e-14)
(978.58 -1.77628e-10 3.00351e-14)
(978.58 -1.79336e-10 3.5939e-14)
(978.58 -1.79713e-10 3.72953e-14)
(978.58 -1.79554e-10 3.86521e-14)
(978.58 -1.80021e-10 2.98915e-14)
(978.58 -1.81754e-10 2.3858e-14)
(978.58 -1.82078e-10 2.50735e-14)
(978.58 -1.82522e-10 2.53725e-14)
(978.58 -1.83523e-10 2.56401e-14)
(978.58 -1.82749e-10 2.51419e-14)
(978.58 -1.82546e-10 2.65179e-14)
(978.58 -1.83194e-10 2.70398e-14)
(978.58 -1.8482e-10 2.14458e-14)
(978.58 -1.86984e-10 2.25858e-14)
(978.58 -1.89551e-10 2.19883e-14)
(978.58 -1.92471e-10 2.2051e-14)
(978.58 -1.9629e-10 2.01674e-14)
(978.58 -1.99352e-10 1.85007e-14)
(978.58 -2.00564e-10 2.15621e-14)
(978.58 -1.99801e-10 2.39729e-14)
(978.58 -1.96734e-10 2.3354e-14)
(978.58 -1.89455e-10 2.34633e-14)
(978.58 -1.7947e-10 2.39233e-14)
(978.58 -1.69112e-10 2.6598e-14)
(978.58 -1.59512e-10 2.43373e-14)
(978.58 -1.50739e-10 2.41656e-14)
(978.58 -1.46776e-10 2.35734e-14)
(978.58 -1.49674e-10 1.80908e-14)
(978.58 -1.55786e-10 1.46384e-14)
(978.58 -1.64775e-10 1.73108e-14)
(978.58 -1.68724e-10 1.93248e-14)
(978.58 -1.63236e-10 2.11852e-14)
(978.58 -1.36729e-10 2.30096e-14)
(978.58 -8.29669e-11 2.46366e-14)
(978.58 6.89301e-12 2.2919e-14)
(978.58 9.03603e-11 2.25564e-14)
(978.58 2.4608e-10 2.26758e-14)
(978.58 5.54514e-10 2.57101e-14)
(978.58 8.87313e-10 2.95574e-14)
(978.58 1.19166e-09 2.9016e-14)
(978.58 1.48284e-09 2.38293e-14)
(978.58 1.77175e-09 2.44263e-14)
(978.58 2.02095e-09 2.42951e-14)
(978.58 2.33394e-09 2.25852e-14)
(978.58 2.87087e-09 2.16317e-14)
(978.58 3.61087e-09 2.16455e-14)
(978.58 4.59059e-09 2.0159e-14)
(978.58 5.83979e-09 2.36396e-14)
(978.58 7.42068e-09 2.24783e-14)
(978.58 9.42274e-09 1.94611e-14)
(978.58 1.1962e-08 2.09782e-14)
(978.58 1.51891e-08 1.97662e-14)
(978.58 1.92986e-08 1.97059e-14)
(978.58 2.45371e-08 2.00329e-14)
(978.58 3.12252e-08 2.20756e-14)
(978.58 3.97705e-08 2.13605e-14)
(978.58 5.07041e-08 2.24114e-14)
(978.58 6.47066e-08 2.23483e-14)
(978.58 8.26565e-08 1.91181e-14)
(978.58 1.05692e-07 1.757e-14)
(978.58 1.35279e-07 1.64408e-14)
(978.58 1.73324e-07 1.99872e-14)
(978.58 2.22289e-07 1.94752e-14)
(978.58 2.85368e-07 2.00825e-14)
(978.58 3.66707e-07 2.1393e-14)
(978.58 -7.11555e-08 1.1757e-10)
(978.58 -4.52409e-08 6.78208e-11)
(978.58 -2.73597e-08 3.74227e-11)
(978.58 -1.69423e-08 2.17696e-11)
(978.58 -1.10816e-08 1.37214e-11)
(978.58 -7.69691e-09 9.37685e-12)
(978.58 -5.64731e-09 6.9277e-12)
(978.58 -4.33901e-09 5.30367e-12)
(978.58 -3.45932e-09 4.22004e-12)
(978.58 -2.83879e-09 3.41451e-12)
(978.58 -2.38149e-09 2.83962e-12)
(978.58 -2.0349e-09 2.41978e-12)
(978.58 -1.76573e-09 2.06532e-12)
(978.58 -1.55172e-09 1.77621e-12)
(978.58 -1.38038e-09 1.56909e-12)
(978.58 -1.24029e-09 1.36548e-12)
(978.58 -1.12324e-09 1.18943e-12)
(978.58 -1.02406e-09 1.074e-12)
(978.58 -9.398e-10 9.55382e-13)
(978.58 -8.68783e-10 8.87507e-13)
(978.58 -8.07677e-10 7.9568e-13)
(978.58 -7.55078e-10 7.15019e-13)
(978.58 -7.08784e-10 6.74772e-13)
(978.58 -6.66966e-10 6.177e-13)
(978.58 -6.30931e-10 5.8939e-13)
(978.58 -5.99099e-10 5.44965e-13)
(978.58 -5.71056e-10 5.12882e-13)
(978.58 -5.45464e-10 4.70374e-13)
(978.58 -5.23063e-10 4.30605e-13)
(978.58 -5.02299e-10 4.0315e-13)
(978.58 -4.83514e-10 3.74598e-13)
(978.58 -4.67028e-10 3.59284e-13)
(978.58 -4.52334e-10 3.3319e-13)
(978.58 -4.39711e-10 3.24417e-13)
(978.58 -4.27822e-10 3.0715e-13)
(978.58 -4.16409e-10 2.71887e-13)
(978.58 -4.05165e-10 2.58752e-13)
(978.58 -3.94809e-10 2.53077e-13)
(978.58 -3.83677e-10 2.4981e-13)
(978.58 -3.76009e-10 2.2897e-13)
(978.58 -3.68766e-10 2.21242e-13)
(978.58 -3.63193e-10 2.12232e-13)
(978.58 -3.55614e-10 2.05737e-13)
(978.58 -3.49136e-10 1.89523e-13)
(978.58 -3.43373e-10 1.80969e-13)
(978.58 -3.39725e-10 1.76912e-13)
(978.58 -3.35024e-10 1.72106e-13)
(978.58 -3.28533e-10 1.69412e-13)
(978.58 -3.24125e-10 1.68295e-13)
(978.58 -3.20549e-10 1.69016e-13)
(978.58 -3.17992e-10 1.54481e-13)
(978.58 -3.1609e-10 1.43656e-13)
(978.58 -3.11899e-10 1.34811e-13)
(978.58 -3.08545e-10 1.30648e-13)
(978.58 -3.0747e-10 1.21989e-13)
(978.58 -3.04862e-10 1.20888e-13)
(978.58 -3.03752e-10 1.14847e-13)
(978.58 -3.01831e-10 1.14485e-13)
(978.58 -2.98395e-10 1.2007e-13)
(978.58 -2.9604e-10 1.15923e-13)
(978.58 -2.94571e-10 1.09337e-13)
(978.58 -2.93926e-10 1.11027e-13)
(978.58 -2.93367e-10 1.00396e-13)
(978.58 -2.92625e-10 8.89069e-14)
(978.58 -2.9082e-10 9.7383e-14)
(978.58 -2.88623e-10 9.28238e-14)
(978.58 -2.87297e-10 8.73349e-14)
(978.58 -2.87113e-10 9.0049e-14)
(978.58 -2.87406e-10 8.06046e-14)
(978.58 -2.86142e-10 7.63166e-14)
(978.58 -2.85027e-10 7.53278e-14)
(978.58 -2.84959e-10 7.68321e-14)
(978.58 -2.86027e-10 7.46976e-14)
(978.58 -2.85858e-10 7.69317e-14)
(978.58 -2.84873e-10 7.95054e-14)
(978.58 -2.85843e-10 7.50993e-14)
(978.58 -2.86643e-10 6.9759e-14)
(978.58 -2.8629e-10 7.04644e-14)
(978.58 -2.85344e-10 7.03972e-14)
(978.58 -2.85382e-10 6.87002e-14)
(978.58 -2.86359e-10 6.38546e-14)
(978.58 -2.86847e-10 6.14094e-14)
(978.58 -2.87846e-10 5.95492e-14)
(978.58 -2.89343e-10 5.85241e-14)
(978.58 -2.9132e-10 5.54021e-14)
(978.58 -2.91384e-10 5.61037e-14)
(978.58 -2.92662e-10 6.14424e-14)
(978.58 -2.93687e-10 6.16081e-14)
(978.58 -2.94824e-10 5.74621e-14)
(978.58 -2.95989e-10 5.5862e-14)
(978.58 -2.96472e-10 5.30617e-14)
(978.58 -2.97294e-10 5.51173e-14)
(978.58 -2.98327e-10 6.22382e-14)
(978.58 -2.9894e-10 6.58245e-14)
(978.58 -2.97798e-10 5.90798e-14)
(978.58 -2.97327e-10 4.68108e-14)
(978.58 -2.97762e-10 4.53944e-14)
(978.58 -2.98726e-10 4.81864e-14)
(978.58 -3.00321e-10 4.7911e-14)
(978.58 -3.02971e-10 4.61501e-14)
(978.58 -3.06061e-10 4.14077e-14)
(978.58 -3.09433e-10 4.54271e-14)
(978.58 -3.13757e-10 4.29767e-14)
(978.58 -3.1753e-10 4.33935e-14)
(978.58 -3.19359e-10 4.77491e-14)
(978.58 -3.19392e-10 4.55343e-14)
(978.58 -3.16752e-10 4.20018e-14)
(978.58 -3.0993e-10 3.9985e-14)
(978.58 -2.99631e-10 4.06682e-14)
(978.58 -2.89738e-10 4.00487e-14)
(978.58 -2.7749e-10 3.47018e-14)
(978.58 -2.66192e-10 3.32887e-14)
(978.58 -2.58344e-10 3.42194e-14)
(978.58 -2.56726e-10 3.54095e-14)
(978.58 -2.60835e-10 3.68467e-14)
(978.58 -2.67469e-10 4.23036e-14)
(978.58 -2.71738e-10 4.46934e-14)
(978.58 -2.67635e-10 4.33003e-14)
(978.58 -2.43689e-10 3.72096e-14)
(978.58 -1.94133e-10 3.78512e-14)
(978.58 -1.09681e-10 3.9564e-14)
(978.58 -2.00737e-11 3.95942e-14)
(978.58 1.65431e-10 3.88959e-14)
(978.58 4.68971e-10 3.98573e-14)
(978.58 7.85489e-10 4.3454e-14)
(978.58 1.09775e-09 4.49788e-14)
(978.58 1.41597e-09 4.38959e-14)
(978.58 1.73902e-09 4.42767e-14)
(978.58 2.05765e-09 4.5757e-14)
(978.58 2.47945e-09 4.16709e-14)
(978.58 3.0708e-09 3.72605e-14)
(978.58 3.80722e-09 3.97676e-14)
(978.58 4.68926e-09 3.99458e-14)
(978.58 5.77841e-09 3.54506e-14)
(978.58 7.1879e-09 3.65504e-14)
(978.58 9.02206e-09 3.09747e-14)
(978.58 1.13819e-08 3.33105e-14)
(978.58 1.43913e-08 3.81242e-14)
(978.58 1.82093e-08 3.92433e-14)
(978.58 2.30456e-08 3.35501e-14)
(978.58 2.91723e-08 3.07036e-14)
(978.58 3.69387e-08 3.13478e-14)
(978.58 4.67955e-08 3.2947e-14)
(978.58 5.93241e-08 3.26135e-14)
(978.58 7.52662e-08 3.41186e-14)
(978.58 9.55729e-08 3.22231e-14)
(978.58 1.21468e-07 3.40306e-14)
(978.58 1.54524e-07 3.56526e-14)
(978.58 1.96763e-07 3.52946e-14)
(978.58 2.50791e-07 3.21729e-14)
(978.58 3.19966e-07 3.17533e-14)
(978.58 4.08619e-07 3.18381e-14)
(978.58 5.22343e-07 3.21732e-14)
(978.58 6.68365e-07 3.08838e-14)
(978.58 8.56029e-07 3.54239e-14)
(978.58 1.09743e-06 3.44886e-14)
(978.58 -8.35647e-08 1.37761e-10)
(978.58 -5.95603e-08 8.79532e-11)
(978.58 -3.94995e-08 5.23961e-11)
(978.58 -2.594e-08 3.15281e-11)
(978.58 -1.7491e-08 2.00712e-11)
(978.58 -1.22792e-08 1.36771e-11)
(978.58 -9.00098e-09 9.93025e-12)
(978.58 -6.87144e-09 7.58377e-12)
(978.58 -5.43505e-09 6.00511e-12)
(978.58 -4.42741e-09 4.89082e-12)
(978.58 -3.69299e-09 4.03241e-12)
(978.58 -3.14117e-09 3.41265e-12)
(978.58 -2.71506e-09 2.90976e-12)
(978.58 -2.37895e-09 2.53223e-12)
(978.58 -2.10973e-09 2.24434e-12)
(978.58 -1.8894e-09 1.94196e-12)
(978.58 -1.70812e-09 1.70895e-12)
(978.58 -1.55513e-09 1.52204e-12)
(978.58 -1.42354e-09 1.36509e-12)
(978.58 -1.31175e-09 1.25622e-12)
(978.58 -1.21655e-09 1.12848e-12)
(978.58 -1.13499e-09 1.05162e-12)
(978.58 -1.06312e-09 9.57556e-13)
(978.58 -9.99267e-10 8.89335e-13)
(978.58 -9.43539e-10 8.12306e-13)
(978.58 -8.94388e-10 7.58878e-13)
(978.58 -8.50932e-10 7.03743e-13)
(978.58 -8.11824e-10 6.58896e-13)
(978.58 -7.76101e-10 6.29758e-13)
(978.58 -7.4354e-10 5.80113e-13)
(978.58 -7.14646e-10 5.47044e-13)
(978.58 -6.89455e-10 5.09393e-13)
(978.58 -6.67313e-10 4.87282e-13)
(978.58 -6.46667e-10 4.55935e-13)
(978.58 -6.26983e-10 4.27627e-13)
(978.58 -6.1066e-10 4.00931e-13)
(978.58 -5.94351e-10 3.78959e-13)
(978.58 -5.78038e-10 3.53954e-13)
(978.58 -5.62928e-10 3.42599e-13)
(978.58 -5.48424e-10 3.19468e-13)
(978.58 -5.37046e-10 3.11389e-13)
(978.58 -5.27005e-10 2.94321e-13)
(978.58 -5.16643e-10 2.84073e-13)
(978.58 -5.07628e-10 2.69015e-13)
(978.58 -4.98932e-10 2.69979e-13)
(978.58 -4.91248e-10 2.50963e-13)
(978.58 -4.83941e-10 2.44221e-13)
(978.58 -4.75092e-10 2.36869e-13)
(978.58 -4.6871e-10 2.31826e-13)
(978.58 -4.6282e-10 2.16541e-13)
(978.58 -4.57751e-10 2.05547e-13)
(978.58 -4.53751e-10 2.00726e-13)
(978.58 -4.48662e-10 1.91633e-13)
(978.58 -4.4351e-10 1.83549e-13)
(978.58 -4.40126e-10 1.7525e-13)
(978.58 -4.36115e-10 1.76313e-13)
(978.58 -4.35006e-10 1.68095e-13)
(978.58 -4.32765e-10 1.64892e-13)
(978.58 -4.28724e-10 1.68583e-13)
(978.58 -4.24116e-10 1.61416e-13)
(978.58 -4.21123e-10 1.50698e-13)
(978.58 -4.19974e-10 1.4023e-13)
(978.58 -4.17864e-10 1.35853e-13)
(978.58 -4.15721e-10 1.42531e-13)
(978.58 -4.13812e-10 1.44836e-13)
(978.58 -4.11359e-10 1.35348e-13)
(978.58 -4.09616e-10 1.30081e-13)
(978.58 -4.09056e-10 1.25599e-13)
(978.58 -4.08123e-10 1.15648e-13)
(978.58 -4.05756e-10 1.12863e-13)
(978.58 -4.03333e-10 1.13012e-13)
(978.58 -4.03814e-10 1.15103e-13)
(978.58 -4.0306e-10 1.11168e-13)
(978.58 -4.03327e-10 1.10824e-13)
(978.58 -4.02458e-10 1.07892e-13)
(978.58 -4.0342e-10 1.04771e-13)
(978.58 -4.04085e-10 1.08078e-13)
(978.58 -4.04292e-10 1.07434e-13)
(978.58 -4.03687e-10 9.84289e-14)
(978.58 -4.04937e-10 9.20588e-14)
(978.58 -4.04441e-10 9.08694e-14)
(978.58 -4.04245e-10 9.59969e-14)
(978.58 -4.06088e-10 9.21731e-14)
(978.58 -4.07452e-10 9.18368e-14)
(978.58 -4.08847e-10 8.90599e-14)
(978.58 -4.0945e-10 8.8412e-14)
(978.58 -4.10969e-10 8.49145e-14)
(978.58 -4.10566e-10 7.89623e-14)
(978.58 -4.11278e-10 7.92125e-14)
(978.58 -4.10842e-10 8.2441e-14)
(978.58 -4.11073e-10 8.1146e-14)
(978.58 -4.11438e-10 8.18731e-14)
(978.58 -4.11889e-10 8.37101e-14)
(978.58 -4.14763e-10 8.33037e-14)
(978.58 -4.17021e-10 7.24656e-14)
(978.58 -4.19373e-10 7.24624e-14)
(978.58 -4.22563e-10 7.31097e-14)
(978.58 -4.26291e-10 6.89887e-14)
(978.58 -4.29531e-10 6.84376e-14)
(978.58 -4.31354e-10 6.49195e-14)
(978.58 -4.30841e-10 6.13846e-14)
(978.58 -4.27135e-10 6.2413e-14)
(978.58 -4.20615e-10 6.37627e-14)
(978.58 -4.12146e-10 6.53807e-14)
(978.58 -4.01738e-10 6.33614e-14)
(978.58 -3.90655e-10 6.11677e-14)
(978.58 -3.79727e-10 5.82283e-14)
(978.58 -3.72353e-10 5.58399e-14)
(978.58 -3.70778e-10 5.19282e-14)
(978.58 -3.73059e-10 4.79572e-14)
(978.58 -3.75597e-10 4.92284e-14)
(978.58 -3.75468e-10 5.13644e-14)
(978.58 -3.67271e-10 5.77898e-14)
(978.58 -3.42289e-10 5.77773e-14)
(978.58 -2.93711e-10 5.99455e-14)
(978.58 -2.16549e-10 5.92215e-14)
(978.58 -1.28986e-10 5.93084e-14)
(978.58 5.41809e-11 5.68448e-14)
(978.58 3.42169e-10 5.85437e-14)
(978.58 6.25624e-10 6.34362e-14)
(978.58 9.10562e-10 6.23677e-14)
(978.58 1.19657e-09 5.86892e-14)
(978.58 1.47707e-09 5.65528e-14)
(978.58 1.77218e-09 5.81927e-14)
(978.58 2.19766e-09 5.78502e-14)
(978.58 2.77857e-09 5.73372e-14)
(978.58 3.48275e-09 6.0476e-14)
(978.58 4.31986e-09 5.90013e-14)
(978.58 5.34871e-09 5.36198e-14)
(978.58 6.64627e-09 5.16599e-14)
(978.58 8.26613e-09 5.15886e-14)
(978.58 1.02734e-08 5.3145e-14)
(978.58 1.27854e-08 5.02387e-14)
(978.58 1.59726e-08 4.99374e-14)
(978.58 2.00289e-08 5.09355e-14)
(978.58 2.51681e-08 4.98616e-14)
(978.58 3.1663e-08 5.41471e-14)
(978.58 3.98668e-08 5.16548e-14)
(978.58 5.02327e-08 4.98971e-14)
(978.58 6.33385e-08 4.66822e-14)
(978.58 7.99216e-08 4.72038e-14)
(978.58 1.00923e-07 4.69759e-14)
(978.58 1.27546e-07 4.69707e-14)
(978.58 1.61335e-07 4.86758e-14)
(978.58 2.04262e-07 4.95787e-14)
(978.58 2.58858e-07 5.00576e-14)
(978.58 3.28364e-07 4.87161e-14)
(978.58 4.16942e-07 4.72677e-14)
(978.58 5.29937e-07 4.48018e-14)
(978.58 6.74223e-07 4.47141e-14)
(978.58 8.5864e-07 4.51749e-14)
(978.58 1.09457e-06 4.76149e-14)
(978.58 1.39669e-06 4.5767e-14)
(978.58 1.78393e-06 4.28953e-14)
(978.58 2.28072e-06 4.57851e-14)
(978.58 2.91863e-06 4.64513e-14)
(978.58 -9.21853e-08 1.51931e-10)
(978.58 -7.10975e-08 1.04336e-10)
(978.58 -5.076e-08 6.59999e-11)
(978.58 -3.52047e-08 4.13019e-11)
(978.58 -2.45721e-08 2.67885e-11)
(978.58 -1.75682e-08 1.83013e-11)
(978.58 -1.29586e-08 1.32148e-11)
(978.58 -9.88071e-09 1.0009e-11)
(978.58 -7.77936e-09 7.89796e-12)
(978.58 -6.29997e-09 6.41867e-12)
(978.58 -5.22568e-09 5.31683e-12)
(978.58 -4.424e-09 4.45348e-12)
(978.58 -3.80917e-09 3.77979e-12)
(978.58 -3.32694e-09 3.28338e-12)
(978.58 -2.94069e-09 2.86819e-12)
(978.58 -2.62719e-09 2.51819e-12)
(978.58 -2.36937e-09 2.23032e-12)
(978.58 -2.15321e-09 2.00441e-12)
(978.58 -1.96844e-09 1.81863e-12)
(978.58 -1.80902e-09 1.62651e-12)
(978.58 -1.67334e-09 1.48647e-12)
(978.58 -1.55782e-09 1.36786e-12)
(978.58 -1.45616e-09 1.23999e-12)
(978.58 -1.36716e-09 1.14145e-12)
(978.58 -1.28901e-09 1.05171e-12)
(978.58 -1.21931e-09 1.00088e-12)
(978.58 -1.15875e-09 9.25421e-13)
(978.58 -1.10399e-09 8.77945e-13)
(978.58 -1.05385e-09 8.22574e-13)
(978.58 -1.00758e-09 7.60877e-13)
(978.58 -9.66739e-10 7.08518e-13)
(978.58 -9.31471e-10 6.63776e-13)
(978.58 -8.99754e-10 6.1528e-13)
(978.58 -8.69967e-10 5.79132e-13)
(978.58 -8.42999e-10 5.50991e-13)
(978.58 -8.19997e-10 5.17472e-13)
(978.58 -7.97322e-10 4.93865e-13)
(978.58 -7.74057e-10 4.69797e-13)
(978.58 -7.54172e-10 4.36381e-13)
(978.58 -7.35793e-10 4.233e-13)
(978.58 -7.18141e-10 4.12458e-13)
(978.58 -7.01855e-10 3.94079e-13)
(978.58 -6.88759e-10 3.74981e-13)
(978.58 -6.75373e-10 3.64453e-13)
(978.58 -6.63522e-10 3.47926e-13)
(978.58 -6.52296e-10 3.41208e-13)
(978.58 -6.41665e-10 3.20053e-13)
(978.58 -6.3016e-10 3.07564e-13)
(978.58 -6.20905e-10 2.92574e-13)
(978.58 -6.12759e-10 2.71236e-13)
(978.58 -6.06224e-10 2.70837e-13)
(978.58 -5.98458e-10 2.61168e-13)
(978.58 -5.9146e-10 2.52358e-13)
(978.58 -5.8508e-10 2.44519e-13)
(978.58 -5.7898e-10 2.40165e-13)
(978.58 -5.74368e-10 2.28619e-13)
(978.58 -5.70681e-10 2.15047e-13)
(978.58 -5.67393e-10 2.13603e-13)
(978.58 -5.6263e-10 2.10496e-13)
(978.58 -5.57442e-10 1.95298e-13)
(978.58 -5.52377e-10 1.8949e-13)
(978.58 -5.50021e-10 1.85445e-13)
(978.58 -5.46855e-10 1.84572e-13)
(978.58 -5.43621e-10 1.87387e-13)
(978.58 -5.39698e-10 1.74894e-13)
(978.58 -5.36535e-10 1.76174e-13)
(978.58 -5.34604e-10 1.69568e-13)
(978.58 -5.32962e-10 1.56644e-13)
(978.58 -5.31366e-10 1.61408e-13)
(978.58 -5.29839e-10 1.58923e-13)
(978.58 -5.27579e-10 1.52415e-13)
(978.58 -5.26362e-10 1.49701e-13)
(978.58 -5.24321e-10 1.44816e-13)
(978.58 -5.23741e-10 1.39372e-13)
(978.58 -5.23816e-10 1.4068e-13)
(978.58 -5.24678e-10 1.37991e-13)
(978.58 -5.2479e-10 1.36137e-13)
(978.58 -5.24551e-10 1.28198e-13)
(978.58 -5.25177e-10 1.23323e-13)
(978.58 -5.25392e-10 1.25422e-13)
(978.58 -5.23433e-10 1.30035e-13)
(978.58 -5.21414e-10 1.19675e-13)
(978.58 -5.23107e-10 1.16216e-13)
(978.58 -5.23644e-10 1.15173e-13)
(978.58 -5.22766e-10 1.13755e-13)
(978.58 -5.22297e-10 1.08342e-13)
(978.58 -5.24245e-10 1.07594e-13)
(978.58 -5.25966e-10 1.09429e-13)
(978.58 -5.28966e-10 1.1162e-13)
(978.58 -5.30614e-10 1.07065e-13)
(978.58 -5.34029e-10 1.01751e-13)
(978.58 -5.38643e-10 1.02466e-13)
(978.58 -5.40517e-10 1.00789e-13)
(978.58 -5.43057e-10 9.66394e-14)
(978.58 -5.43548e-10 9.57746e-14)
(978.58 -5.40875e-10 9.61156e-14)
(978.58 -5.34414e-10 8.96268e-14)
(978.58 -5.25795e-10 9.11665e-14)
(978.58 -5.17079e-10 9.15566e-14)
(978.58 -5.06561e-10 8.55756e-14)
(978.58 -4.95504e-10 8.18927e-14)
(978.58 -4.86231e-10 8.30039e-14)
(978.58 -4.8062e-10 8.15504e-14)
(978.58 -4.79759e-10 7.33834e-14)
(978.58 -4.82466e-10 7.41932e-14)
(978.58 -4.85468e-10 7.65399e-14)
(978.58 -4.85526e-10 7.68514e-14)
(978.58 -4.76158e-10 7.65005e-14)
(978.58 -4.5067e-10 7.66765e-14)
(978.58 -4.0445e-10 8.00377e-14)
(978.58 -3.33234e-10 7.88992e-14)
(978.58 -2.40234e-10 7.82116e-14)
(978.58 -7.20291e-11 7.75629e-14)
(978.58 1.98507e-10 7.39431e-14)
(978.58 4.79606e-10 7.82088e-14)
(978.58 7.47525e-10 8.18091e-14)
(978.58 1.01567e-09 8.34388e-14)
(978.58 1.25548e-09 8.14478e-14)
(978.58 1.50639e-09 8.11486e-14)
(978.58 1.88681e-09 7.85373e-14)
(978.58 2.39987e-09 7.24151e-14)
(978.58 3.02179e-09 7.18561e-14)
(978.58 3.77082e-09 7.5996e-14)
(978.58 4.69923e-09 7.35104e-14)
(978.58 5.86313e-09 6.99278e-14)
(978.58 7.2998e-09 7.37478e-14)
(978.58 9.06475e-09 7.34963e-14)
(978.58 1.12576e-08 6.77617e-14)
(978.58 1.40026e-08 6.64725e-14)
(978.58 1.74282e-08 6.523e-14)
(978.58 2.16875e-08 6.65092e-14)
(978.58 2.70048e-08 6.95018e-14)
(978.58 3.36881e-08 6.64682e-14)
(978.58 4.21176e-08 6.77678e-14)
(978.58 5.27445e-08 6.66575e-14)
(978.58 6.61245e-08 6.54786e-14)
(978.58 8.29678e-08 6.50096e-14)
(978.58 1.04187e-07 6.17159e-14)
(978.58 1.30948e-07 6.12796e-14)
(978.58 1.64735e-07 5.96157e-14)
(978.58 2.07434e-07 6.19221e-14)
(978.58 2.61451e-07 6.10319e-14)
(978.58 3.29856e-07 6.28697e-14)
(978.58 4.16569e-07 6.26982e-14)
(978.58 5.26602e-07 6.13239e-14)
(978.58 6.66372e-07 6.0558e-14)
(978.58 8.44092e-07 5.80249e-14)
(978.58 1.07029e-06 5.64322e-14)
(978.58 1.35847e-06 5.77857e-14)
(978.58 1.72598e-06 5.78686e-14)
(978.58 2.19509e-06 5.82956e-14)
(978.58 2.79447e-06 6.0398e-14)
(978.58 3.56098e-06 5.47114e-14)
(978.58 4.54213e-06 5.70472e-14)
(978.58 5.79913e-06 6.02711e-14)
(978.58 7.41097e-06 5.82696e-14)
(978.58 -9.85217e-08 1.62736e-10)
(978.58 -8.03692e-08 1.17664e-10)
(978.58 -6.08442e-08 7.81473e-11)
(978.58 -4.42968e-08 5.09008e-11)
(978.58 -3.20109e-08 3.36816e-11)
(978.58 -2.33958e-08 2.31511e-11)
(978.58 -1.7456e-08 1.67348e-11)
(978.58 -1.33581e-08 1.25834e-11)
(978.58 -1.05017e-08 9.82837e-12)
(978.58 -8.47278e-09 7.92283e-12)
(978.58 -6.99766e-09 6.55583e-12)
(978.58 -5.89866e-09 5.50608e-12)
(978.58 -5.05791e-09 4.70888e-12)
(978.58 -4.40186e-09 4.07742e-12)
(978.58 -3.87978e-09 3.51437e-12)
(978.58 -3.45646e-09 3.09496e-12)
(978.58 -3.10854e-09 2.76581e-12)
(978.58 -2.81865e-09 2.46115e-12)
(978.58 -2.57253e-09 2.23193e-12)
(978.58 -2.36132e-09 2.00002e-12)
(978.58 -2.18069e-09 1.82336e-12)
(978.58 -2.02532e-09 1.66256e-12)
(978.58 -1.89011e-09 1.52536e-12)
(978.58 -1.7711e-09 1.38892e-12)
(978.58 -1.66747e-09 1.30412e-12)
(978.58 -1.57625e-09 1.21889e-12)
(978.58 -1.4943e-09 1.13975e-12)
(978.58 -1.42104e-09 1.06642e-12)
(978.58 -1.35442e-09 9.78773e-13)
(978.58 -1.29408e-09 9.04577e-13)
(978.58 -1.24003e-09 8.6102e-13)
(978.58 -1.19217e-09 8.04921e-13)
(978.58 -1.15004e-09 7.57659e-13)
(978.58 -1.11064e-09 7.20532e-13)
(978.58 -1.0752e-09 6.74991e-13)
(978.58 -1.04404e-09 6.26563e-13)
(978.58 -1.0142e-09 6.15459e-13)
(978.58 -9.83732e-10 5.79642e-13)
(978.58 -9.56978e-10 5.52661e-13)
(978.58 -9.34354e-10 5.32269e-13)
(978.58 -9.11083e-10 4.93768e-13)
(978.58 -8.89926e-10 4.72098e-13)
(978.58 -8.71165e-10 4.56014e-13)
(978.58 -8.52728e-10 4.4151e-13)
(978.58 -8.36072e-10 4.23925e-13)
(978.58 -8.2134e-10 4.09413e-13)
(978.58 -8.07826e-10 3.86552e-13)
(978.58 -7.93178e-10 3.76104e-13)
(978.58 -7.81464e-10 3.61473e-13)
(978.58 -7.69274e-10 3.41078e-13)
(978.58 -7.60814e-10 3.30654e-13)
(978.58 -7.50493e-10 3.18983e-13)
(978.58 -7.3999e-10 3.0639e-13)
(978.58 -7.3192e-10 2.96101e-13)
(978.58 -7.24306e-10 2.84216e-13)
(978.58 -7.17599e-10 2.72815e-13)
(978.58 -7.10869e-10 2.68082e-13)
(978.58 -7.0469e-10 2.66877e-13)
(978.58 -6.99664e-10 2.51328e-13)
(978.58 -6.94318e-10 2.43142e-13)
(978.58 -6.87873e-10 2.39731e-13)
(978.58 -6.83909e-10 2.32986e-13)
(978.58 -6.79072e-10 2.299e-13)
(978.58 -6.76168e-10 2.20647e-13)
(978.58 -6.71368e-10 2.19119e-13)
(978.58 -6.67138e-10 2.15198e-13)
(978.58 -6.63905e-10 2.03489e-13)
(978.58 -6.61164e-10 1.96333e-13)
(978.58 -6.59248e-10 1.99449e-13)
(978.58 -6.56537e-10 1.91284e-13)
(978.58 -6.54742e-10 1.85435e-13)
(978.58 -6.52592e-10 1.81808e-13)
(978.58 -6.4948e-10 1.77112e-13)
(978.58 -6.46834e-10 1.69632e-13)
(978.58 -6.45198e-10 1.70824e-13)
(978.58 -6.44495e-10 1.64043e-13)
(978.58 -6.44531e-10 1.59484e-13)
(978.58 -6.43143e-10 1.58212e-13)
(978.58 -6.42474e-10 1.66817e-13)
(978.58 -6.40862e-10 1.58285e-13)
(978.58 -6.39225e-10 1.5286e-13)
(978.58 -6.3782e-10 1.47121e-13)
(978.58 -6.40891e-10 1.44445e-13)
(978.58 -6.4437e-10 1.36747e-13)
(978.58 -6.46782e-10 1.38151e-13)
(978.58 -6.48697e-10 1.32816e-13)
(978.58 -6.52055e-10 1.35913e-13)