/*--------------------------------*- C++ -*----------------------------------*\
| =========                 |                                                 |
| \\      /  F ield         | OpenFOAM: The Open Source CFD Toolbox           |
|  \\    /   O peration     | Version:  v1706                                 |
|   \\  /    A nd           | Web:      www.OpenFOAM.com                      |
|    \\/     M anipulation  |                                                 |
\*---------------------------------------------------------------------------*/
FoamFile
{
    version     2.0;
    format      ascii;
    class       volScalarField;
    location    "3.2e-05";
    object      p;
}
// * * * * * * * * * * * * * * * * * * * * * * * * * * * * * * * * * * * * * //

dimensions      [1 -1 -2 0 0 0 0];


internalField   nonuniform List<scalar> 
30104
(
21.9139
21.9139
21.9139
21.9139
21.9139
21.9139
21.9139
21.9139
21.9139
21.9139
21.9139
21.9139
21.9139
21.9139
21.9139
21.9139
21.9139
21.9139
21.9139
21.9139
21.9139
21.9139
21.9139
21.9139
21.9139
21.9139
21.9139
21.9139
21.9139
21.9139
21.9139
21.9139
21.9139
21.9139
21.9139
21.9139
21.9139
21.9139
21.9139
21.9139
21.9139
21.9139
21.9139
21.9139
21.9139
21.9139
21.9139
21.9139
21.9139
21.9139
21.9139
21.9139
21.9139
21.9139
21.9139
21.9139
21.9139
21.9139
21.9139
21.9139
21.9139
21.9139
21.9139
21.9139
21.9139
21.9139
21.9139
21.9139
21.9139
21.9139
21.9139
21.9139
21.9139
21.9139
21.9139
21.9139
21.9139
21.9139
21.9139
21.9139
21.9139
21.9139
21.9139
21.9139
21.9139
21.9139
21.9139
21.9139
21.9139
21.9139
21.9139
21.9139
21.9139
21.9139
21.9139
21.9139
21.9139
21.9139
21.9139
21.9139
21.9139
21.9139
21.9139
21.9139
21.9139
21.9139
21.9139
21.9139
21.9139
21.9139
21.9139
21.9139
21.9139
21.9139
21.9139
21.9139
21.9139
21.9139
21.9139
21.9139
21.9139
21.9139
21.9139
21.9139
21.9139
21.9139
21.9139
21.9139
21.9139
21.9139
21.9139
21.9139
21.9139
21.9139
21.9139
21.9139
21.9139
21.9139
21.9139
21.9139
21.9139
21.9139
21.9139
21.9139
21.9139
21.9139
21.9139
21.9139
21.9139
21.9139
21.9139
21.9139
21.9139
21.9139
21.9139
21.9139
21.9139
21.9139
21.9139
21.9139
21.9139
21.9139
21.9139
21.9139
21.9139
21.9139
21.9139
21.9139
21.9139
21.9139
21.9139
21.9139
21.9139
21.9139
21.9139
21.9139
21.9139
21.9139
21.9139
21.9139
21.9139
21.9139
21.9139
21.9139
21.9139
21.9139
21.9139
21.9139
21.9139
21.9139
21.9139
21.9139
21.9139
21.9139
21.9139
21.9139
21.9139
21.9139
21.9139
21.9139
21.9139
21.9139
21.9139
21.9139
21.9139
21.9139
21.9139
21.9139
21.9139
21.9139
21.9139
21.9139
21.9139
21.9139
21.9139
21.9139
21.9139
21.9139
21.9139
21.9139
21.9139
21.9139
21.9139
21.9139
21.9139
21.9139
21.9139
21.9139
21.9139
21.9139
21.9139
21.9139
21.9139
21.9139
21.9139
21.9139
21.9139
21.9139
21.9139
21.9139
21.9139
21.9139
21.9139
21.9139
21.9139
21.9139
21.9139
21.9139
21.9139
21.9139
21.9139
21.9139
21.9139
21.9139
21.9139
21.9139
21.9139
21.9139
21.9139
21.9139
21.9139
21.9139
21.9139
21.9139
21.9139
21.9139
21.9139
21.9139
21.9139
21.9139
21.9139
21.9139
21.9139
21.9139
21.9139
21.9139
21.9139
21.9139
21.9139
21.9139
21.9139
21.9139
21.9139
21.9139
21.9139
21.9139
21.9139
21.9139
21.9139
21.9139
21.9139
21.9139
21.9139
21.9139
21.9139
21.9139
21.9139
21.9139
21.9139
21.9139
21.9139
21.9139
21.9139
21.9139
21.9139
21.9139
21.9139
21.9139
21.9139
21.9139
21.9139
21.9139
21.9139
21.9139
21.9139
21.9139
21.9139
21.9139
21.9139
21.9139
21.9139
21.9139
21.9139
21.9139
21.9139
21.9139
21.9139
21.9139
21.9139
21.9139
21.9139
21.9139
21.9139
21.9139
21.9139
21.9139
21.9139
21.9139
21.9139
21.9139
21.9139
21.9139
21.9139
21.9139
21.9139
21.9139
21.9139
21.9139
21.9139
21.9139
21.9139
21.9139
21.9139
21.9139
21.9139
21.9139
21.9139
21.9139
21.9139
21.9139
21.9139
21.9139
21.9139
21.9139
21.9139
21.9139
21.9139
21.9139
21.9139
21.9139
21.9139
21.9139
21.9139
21.9139
21.9139
21.9139
21.9139
21.9139
21.9139
21.9139
21.9139
21.9139
21.9139
21.9139
21.9139
21.9139
21.9139
21.9139
21.9139
21.9139
21.9139
21.9139
21.9139
21.9139
21.9139
21.9139
21.9139
21.9139
21.9139
21.9139
21.9139
21.9139
21.9139
21.9139
21.9139
21.9139
21.9139
21.9139
21.9139
21.9139
21.9139
21.9139
21.9139
21.9139
21.9139
21.9139
21.9139
21.9139
21.9139
21.9139
21.9139
21.9139
21.9139
21.9139
21.9139
21.9139
21.9139
21.9139
21.9139
21.9139
21.9139
21.9139
21.9139
21.9139
21.9139
21.9139
21.9139
21.9139
21.9139
21.9139
21.9139
21.9139
21.9139
21.9139
21.9139
21.9139
21.9139
21.9139
21.9139
21.9139
21.9139
21.9139
21.9139
21.9139
21.9139
21.9139
21.9139
21.9139
21.9139
21.9139
21.9139
21.9139
21.9139
21.9139
21.9139
21.9139
21.9139
21.9139
21.9139
21.9139
21.9139
21.9139
21.9139
21.9139
21.9139
21.9139
21.9139
21.9139
21.9139
21.9139
21.9139
21.9139
21.9139
21.9139
21.9139
21.9139
21.9139
21.9139
21.9139
21.9139
21.9139
21.9139
21.9139
21.9139
21.9139
21.9139
21.9139
21.9139
21.9139
21.9139
21.9139
21.9139
21.9139
21.9139
21.9139
21.9139
21.9139
21.9139
21.9139
21.9139
21.9139
21.9139
21.9139
21.9139
21.9139
21.9139
21.9139
21.9139
21.9139
21.9139
21.9139
21.9139
21.9139
21.9139
21.9139
21.9139
21.9139
21.9139
21.9139
21.9139
21.9139
21.9139
21.9139
21.9139
21.9139
21.9139
21.9139
21.9139
21.9139
21.9139
21.9139
21.9139
21.9139
21.9139
21.9139
21.9139
21.9139
21.9139
21.9139
21.9139
21.9139
21.9139
21.9139
21.9139
21.9139
21.9139
21.9139
21.9139
21.9139
21.9139
21.9139
21.9139
21.9139
21.9139
21.9139
21.9139
21.9139
21.9139
21.9139
21.9139
21.9139
21.9139
21.9139
21.9139
21.9139
21.9139
21.9139
21.9139
21.9139
21.9139
21.9139
21.9139
21.9139
21.9139
21.9139
21.9139
21.9139
21.9139
21.9139
21.9139
21.9139
21.9139
21.9139
21.9139
21.9139
21.9139
21.9139
21.9139
21.9139
21.9139
21.9139
21.9139
21.9139
21.9139
21.9139
21.9139
21.9139
21.9139
21.9139
21.9139
21.9139
21.9139
21.9139
21.9139
21.9139
21.9139
21.9139
21.9139
21.9139
21.9139
21.9139
21.9139
21.9139
21.9139
21.9139
21.9139
21.9139
21.9139
21.9139
21.9139
21.9139
21.9139
21.9139
21.9139
21.9139
21.9139
21.9139
21.9139
21.9139
21.9139
21.9139
21.9139
21.9139
21.9139
21.9139
21.9139
21.9139
21.9139
21.9139
21.9139
21.9139
21.9139
21.9139
21.9139
21.9139
21.9139
21.9139
21.9139
21.9139
21.9139
21.9139
21.9139
21.9139
21.9139
21.9139
21.9139
21.9139
21.9139
21.9139
21.9139
21.9139
21.9139
21.9139
21.9139
21.9139
21.9139
21.9139
21.9139
21.9139
21.9139
21.9139
21.9139
21.9139
21.9139
21.9139
21.9139
21.9139
21.9139
21.9139
21.9139
21.9139
21.9139
21.9139
21.9139
21.9139
21.9139
21.9139
21.9139
21.9139
21.9139
21.9139
21.9139
21.9139
21.9139
21.9139
21.9139
21.9139
21.9139
21.9139
21.9139
21.9139
21.9139
21.9139
21.9139
21.9139
21.9139
21.9139
21.9139
21.9139
21.9139
21.9139
21.9139
21.9139
21.9139
21.9139
21.9139
21.9139
21.9139
21.9139
21.9139
21.9139
21.9139
21.9139
21.9139
21.9139
21.9139
21.9139
21.9139
21.9139
21.9139
21.9139
21.9139
21.9139
21.9139
21.9139
21.9139
21.9139
21.9139
21.9139
21.9139
21.9139
21.9139
21.9139
21.9139
21.9139
21.9139
21.9139
21.9139
21.9139
21.9139
21.9139
21.9139
21.9139
21.9139
21.9139
21.9139
21.9139
21.9139
21.9139
21.9139
21.9139
21.9139
21.9139
21.9139
21.9139
21.9139
21.9139
21.9139
21.9139
21.9139
21.9139
21.9139
21.9139
21.9139
21.9139
21.9139
21.9139
21.9139
21.9139
21.9139
21.9139
21.9139
21.9139
21.9139
21.9139
21.9139
21.9139
21.9139
21.9139
21.9139
21.9139
21.9139
21.9139
21.9139
21.9139
21.9139
21.9139
21.9139
21.9139
21.9139
21.9139
21.9139
21.9139
21.9139
21.9139
21.9139
21.9139
21.9139
21.9139
21.9139
21.9139
21.9139
21.9139
21.9139
21.9139
21.9139
21.9139
21.9139
21.9139
21.9139
21.9139
21.9139
21.9139
21.9139
21.9139
21.9139
21.9139
21.9139
21.9139
21.9139
21.9139
21.9139
21.9139
21.9139
21.9139
21.9139
21.9139
21.9139
21.9139
21.9139
21.9139
21.9139
21.9139
21.9139
21.9139
21.9139
21.9139
21.9139
21.9139
21.9139
21.9139
21.9139
21.9139
21.9139
21.9139
21.9139
21.9139
21.9139
21.9139
21.9139
21.9139
21.9139
21.9139
21.9139
21.9139
21.9139
21.9139
21.9139
21.9139
21.9139
21.9139
21.9139
21.9139
21.9139
21.9139
21.9139
21.9139
21.9139
21.9139
21.9139
21.9139
21.9139
21.9139
21.9139
21.9139
21.9139
21.9139
21.9139
21.9139
21.9139
21.9139
21.9139
21.9139
21.9139
21.9139
21.9139
21.9139
21.9139
21.9139
21.9139
21.9139
21.9139
21.9139
21.9139
21.9139
21.9139
21.9139
21.9139
21.9139
21.9139
21.9139
21.9139
21.9139
21.9139
21.9139
21.9139
21.9139
21.9139
21.9139
21.9139
21.9139
21.9139
21.9139
21.9139
21.9139
21.9139
21.9139
21.9139
21.9139
21.9139
21.9139
21.9139
21.9139
21.9139
21.9139
21.9139
21.9139
21.9139
21.9139
21.9139
21.9139
21.9139
21.9139
21.9139
21.9139
21.9139
21.9139
21.9139
21.9139
21.9139
21.9139
21.9139
21.9139
21.9139
21.9139
21.9139
21.9139
21.9139
21.9139
21.9139
21.9139
21.9139
21.9139
21.9139
21.9139
21.9139
21.9139
21.9139
21.9139
21.9139
21.9139
21.9139
21.9139
21.9139
21.9139
21.9139
21.9139
21.9139
21.9139
21.9139
21.9139
21.9139
21.9139
21.9139
21.9139
21.9139
21.9139
21.9139
21.9139
21.9139
21.9139
21.9139
21.9139
21.9139
21.9139
21.9139
21.9139
21.9139
21.9139
21.9139
21.9139
21.9139
21.9139
21.9139
21.9139
21.9139
21.9139
21.9139
21.9139
21.9139
21.9139
21.9139
21.9139
21.9139
21.9139
21.9139
21.9139
21.9139
21.9139
21.9139
21.9139
21.9139
21.9139
21.9139
21.9139
21.9139
21.9139
21.9139
21.9139
21.9139
21.9139
21.9139
21.9139
21.9139
21.9139
21.9139
21.9139
21.9139
21.9139
21.9139
21.9139
21.9139
21.9139
21.9139
21.9139
21.9139
21.9139
21.9139
21.9139
21.9139
21.9139
21.9139
21.9139
21.9139
21.9139
21.9139
21.9139
21.9139
21.9139
21.9139
21.9139
21.9139
21.9139
21.9139
21.9139
21.9139
21.9139
21.9139
21.9139
21.9139
21.9139
21.9139
21.9139
21.9139
21.9139
21.9139
21.9139
21.9139
21.9139
21.9139
21.9139
21.9139
21.9139
21.9139
21.9139
21.9139
21.9139
21.9139
21.9139
21.9139
21.9139
21.9139
21.9139
21.9139
21.9139
21.9139
21.9139
21.9139
21.9139
21.9139
21.9139
21.9139
21.9139
21.9139
21.9139
21.9139
21.9139
21.9139
21.9139
21.9139
21.9139
21.9139
21.9139
21.9139
21.9139
21.9139
21.9139
21.9139
21.9139
21.9139
21.9139
21.9139
21.9139
21.9139
21.9139
21.9139
21.9139
21.9139
21.9139
21.9139
21.9139
21.9139
21.9139
21.9139
21.9139
21.9139
21.9139
21.9139
21.9139
21.9139
21.9139
21.9139
21.9139
21.9139
21.9139
21.9139
21.9139
21.9139
21.9139
21.9139
21.9139
21.9139
21.9139
21.9139
21.9139
21.9139
21.9139
21.9139
21.9139
21.9139
21.9139
21.9139
21.9139
21.9139
21.9139
21.9139
21.9139
21.9139
21.9139
21.9139
21.9139
21.9139
21.9139
21.9139
21.9139
21.9139
21.9139
21.9139
21.9139
21.9139
21.9139
21.9139
21.9139
21.9139
21.9139
21.9139
21.9139
21.9139
21.9139
21.9139
21.9139
21.9139
21.9139
21.9139
21.9139
21.9139
21.9139
21.9139
21.9139
21.9139
21.9139
21.9139
21.9139
21.9139
21.9139
21.9139
21.9139
21.9139
21.9139
21.9139
21.9139
21.9139
21.9139
21.9139
21.9139
21.9139
21.9139
21.9139
21.9139
21.9139
21.9139
21.9139
21.9139
21.9139
21.9139
21.9139
21.9139
21.9139
21.9139
21.9139
21.9139
21.9139
21.9139
21.9139
21.9139
21.9139
21.9139
21.9139
21.9139
21.9139
21.9139
21.9139
21.9139
21.9139
21.9139
21.9139
21.9139
21.9139
21.9139
21.9139
21.9139
21.9139
21.9139
21.9139
21.9139
21.9139
21.9139
21.9139
21.9139
21.9139
21.9139
21.9139
21.9139
21.9139
21.9139
21.9139
21.9139
21.9139
21.9139
21.9139
21.9139
21.9139
21.9139
21.9139
21.9139
21.9139
21.9139
21.9139
21.9139
21.9139
21.9139
21.9139
21.9139
21.9139
21.9139
21.9139
21.9139
21.9139
21.9139
21.9139
21.9139
21.914
21.914
21.914
21.914
21.914
21.914
21.914
21.914
21.914
21.914
21.914
21.914
21.914
21.914
21.914
21.914
21.914
21.914
21.914
21.914
21.914
21.914
21.914
21.914
21.9141
21.9141
21.9141
21.9141
21.9141
21.9141
21.9141
21.9141
21.9141
21.9141
21.9141
21.9141
21.9141
21.9141
21.9141
21.9141
21.9141
21.9141
21.9141
21.9141
21.9141
21.9141
21.9141
21.914
21.914
21.914
21.914
21.914
21.914
21.914
21.914
21.914
21.914
21.914
21.914
21.914
21.9139
21.9139
21.9139
21.9139
21.9139
21.9139
21.9139
21.9139
21.9139
21.9139
21.9139
21.9139
21.9139
21.9139
21.9139
21.9139
21.9139
21.9139
21.9139
21.9139
21.9139
21.9139
21.9139
21.9139
21.9139
21.9139
21.9139
21.9139
21.9139
21.9139
21.9139
21.9139
21.9139
21.9139
21.9139
21.9139
21.9139
21.9139
21.9139
21.9139
21.9139
21.9139
21.9139
21.9139
21.9139
21.9139
21.9139
21.9139
21.9139
21.9139
21.9139
21.9139
21.9139
21.9139
21.9139
21.9139
21.9139
21.9139
21.9139
21.9139
21.9139
21.9139
21.9139
21.9139
21.9139
21.9139
21.9139
21.9139
21.9139
21.9139
21.9139
21.9139
21.9139
21.9139
21.9139
21.9139
21.9139
21.9139
21.9139
21.9139
21.9139
21.9139
21.9139
21.9139
21.9139
21.9139
21.9139
21.9139
21.9139
21.9139
21.9139
21.9139
21.9139
21.9139
21.9139
21.9139
21.9139
21.9139
21.9139
21.9139
21.9139
21.9139
21.9139
21.9139
21.9139
21.9139
21.9139
21.9139
21.9139
21.9139
21.9139
21.9139
21.9139
21.9139
21.9139
21.9139
21.9139
21.9139
21.9139
21.9139
21.9139
21.9139
21.9139
21.9139
21.9139
21.9139
21.9139
21.9139
21.9139
21.914
21.914
21.914
21.914
21.914
21.914
21.914
21.914
21.914
21.9141
21.9141
21.9141
21.9141
21.9141
21.9141
21.9142
21.9142
21.9142
21.9143
21.9143
21.9143
21.9144
21.9144
21.9144
21.9145
21.9145
21.9145
21.9145
21.9146
21.9146
21.9146
21.9146
21.9146
21.9147
21.9147
21.9147
21.9147
21.9147
21.9148
21.9148
21.9148
21.9149
21.9149
21.9149
21.915
21.915
21.915
21.915
21.9151
21.9151
21.9151
21.9151
21.9151
21.9151
21.9151
21.9151
21.9151
21.9151
21.9151
21.915
21.915
21.915
21.915
21.9149
21.9149
21.9148
21.9148
21.9147
21.9147
21.9146
21.9145
21.9145
21.9144
21.9144
21.9143
21.9143
21.9143
21.9142
21.9142
21.9142
21.9141
21.9141
21.9141
21.9141
21.914
21.914
21.914
21.914
21.914
21.914
21.9139
21.9139
21.9139
21.9139
21.9139
21.9139
21.9139
21.9139
21.9139
21.9139
21.9139
21.9139
21.9139
21.9139
21.9139
21.9139
21.9139
21.9139
21.9139
21.9139
21.9139
21.9139
21.9139
21.9139
21.9139
21.9139
21.9139
21.9139
21.9139
21.9139
21.9139
21.9139
21.9139
21.9139
21.9139
21.9139
21.9139
21.9139
21.9139
21.9139
21.9139
21.9139
21.9139
21.9139
21.9139
21.9139
21.9139
21.9139
21.9139
21.9139
21.9139
21.9139
21.9139
21.9139
21.9139
21.9139
21.9139
21.9139
21.9139
21.9139
21.9139
21.9139
21.9139
21.9139
21.9139
21.9139
21.9139
21.9139
21.9139
21.9139
21.9139
21.9139
21.9139
21.9139
21.9139
21.9139
21.9139
21.9139
21.9139
21.9139
21.9139
21.9139
21.9139
21.9139
21.9139
21.9139
21.9139
21.9139
21.9139
21.9139
21.9139
21.9139
21.9139
21.9139
21.9139
21.9139
21.9139
21.9139
21.9139
21.9139
21.9139
21.9139
21.9139
21.914
21.914
21.914
21.914
21.914
21.914
21.914
21.914
21.914
21.9141
21.9141
21.9141
21.9141
21.9142
21.9142
21.9142
21.9143
21.9143
21.9144
21.9145
21.9145
21.9146
21.9147
21.9148
21.9149
21.915
21.9151
21.9152
21.9154
21.9155
21.9157
21.9159
21.9161
21.9163
21.9165
21.9167
21.917
21.9172
21.9174
21.9176
21.9178
21.9179
21.9181
21.9182
21.9183
21.9185
21.9186
21.9187
21.9188
21.9189
21.919
21.9191
21.9193
21.9195
21.9197
21.9199
21.9201
21.9203
21.9205
21.9206
21.9208
21.9209
21.921
21.9211
21.9211
21.9212
21.9212
21.9212
21.9212
21.9212
21.9212
21.9211
21.921
21.9209
21.9207
21.9206
21.9203
21.9201
21.9199
21.9196
21.9193
21.9189
21.9186
21.9182
21.9179
21.9175
21.9172
21.9169
21.9167
21.9164
21.9162
21.916
21.9158
21.9156
21.9154
21.9152
21.915
21.9149
21.9147
21.9146
21.9145
21.9144
21.9143
21.9142
21.9142
21.9141
21.9141
21.9141
21.914
21.914
21.914
21.914
21.9139
21.9139
21.9139
21.9139
21.9139
21.9139
21.9139
21.9139
21.9139
21.9139
21.9139
21.9139
21.9139
21.9139
21.9139
21.9139
21.9139
21.9139
21.9139
21.9139
21.9139
21.9139
21.9139
21.9139
21.9139
21.9139
21.9139
21.9139
21.9139
21.9139
21.9139
21.9139
21.9139
21.9139
21.9139
21.9139
21.9139
21.9139
21.9139
21.9139
21.9139
21.9139
21.9139
21.9139
21.9139
21.9139
21.9139
21.9139
21.9139
21.9139
21.9139
21.9139
21.9139
21.9139
21.9139
21.9139
21.9139
21.9139
21.9139
21.9139
21.9139
21.9139
21.9139
21.9139
21.9139
21.9139
21.9139
21.9139
21.9139
21.9139
21.9139
21.9139
21.9139
21.9139
21.9139
21.9139
21.9139
21.9139
21.9139
21.9139
21.9139
21.9139
21.9139
21.9139
21.9139
21.9139
21.9139
21.9139
21.9139
21.9139
21.9139
21.9139
21.9139
21.9141
21.9142
21.9142
21.9142
21.9143
21.9143
21.9144
21.9145
21.9146
21.9146
21.9147
21.9149
21.915
21.9152
21.9153
21.9155
21.9157
21.9159
21.9162
21.9165
21.9169
21.9173
21.9178
21.9183
21.9189
21.9194
21.92
21.9206
21.9212
21.9219
21.9227
21.9236
21.9246
21.9258
21.927
21.9283
21.9296
21.9309
21.9322
21.9335
21.9347
21.9358
21.9369
21.9379
21.9388
21.9397
21.9404
21.9412
21.9418
21.9425
21.9431
21.9437
21.9443
21.9451
21.9461
21.9473
21.9486
21.9501
21.9515
21.9528
21.9541
21.9551
21.9561
21.9569
21.9575
21.9581
21.9585
21.9589
21.9591
21.9592
21.9593
21.9592
21.959
21.9586
21.958
21.9572
21.9563
21.9552
21.9539
21.9525
21.9508
21.949
21.947
21.9449
21.9427
21.9405
21.9383
21.9362
21.9343
21.9325
21.9308
21.9293
21.928
21.9267
21.9254
21.9243
21.9232
21.9221
21.921
21.92
21.9191
21.9183
21.9176
21.917
21.9165
21.9161
21.9157
21.9154
21.9151
21.9149
21.9147
21.9146
21.9144
21.9143
21.9142
21.9142
21.9141
21.9141
21.914
21.914
21.914
21.914
21.9139
21.9139
21.9139
21.9139
21.9139
21.9139
21.9139
21.9139
21.9139
21.9139
21.9139
21.9139
21.9139
21.9139
21.9139
21.9139
21.9139
21.9139
21.9139
21.9139
21.9139
21.9139
21.9139
21.9139
21.9139
21.9139
21.9139
21.9139
21.9139
21.9139
21.9139
21.9139
21.9139
21.9139
21.9139
21.9139
21.9139
21.9139
21.9139
21.9139
21.9139
21.9139
21.9139
21.9139
21.9139
21.9139
21.9139
21.9139
21.9139
21.9139
21.9139
21.9139
21.9139
21.9139
21.9139
21.9139
21.9139
21.9139
21.9139
21.9139
21.9139
21.9139
21.9139
21.9139
21.9139
21.9139
21.9139
21.9139
21.9139
21.9139
21.9139
21.9139
21.9139
21.9139
21.9139
21.9139
21.9139
21.9139
21.9139
21.9139
21.9139
21.9139
21.9139
21.9139
21.9139
21.9152
21.9154
21.9156
21.9159
21.9161
21.9164
21.9167
21.9171
21.9176
21.9182
21.9188
21.9195
21.9203
21.9212
21.9221
21.9232
21.9244
21.9257
21.9273
21.9292
21.9314
21.9339
21.9366
21.9395
21.9427
21.9459
21.9493
21.9527
21.9564
21.9604
21.9652
21.9708
21.9772
21.9844
21.992
22
22.0081
22.0162
22.0241
22.0317
22.0389
22.0456
22.0519
22.0578
22.0632
22.0682
22.0729
22.0772
22.0811
22.0848
22.0883
22.0917
22.0953
22.0995
22.1048
22.1114
22.1188
22.1267
22.1346
22.142
22.1488
22.1548
22.1602
22.1647
22.1686
22.1718
22.1744
22.1765
22.1779
22.1787
22.179
22.1785
22.1771
22.1748
22.1714
22.167
22.1616
22.1552
22.1477
22.1392
22.1295
22.1188
22.1071
22.0948
22.0822
22.0698
22.058
22.0468
22.0364
22.0267
22.0177
22.0093
22.0013
21.9937
21.9864
21.9793
21.9724
21.9656
21.9589
21.9526
21.9466
21.9413
21.9367
21.9329
21.9297
21.9272
21.925
21.9232
21.9215
21.9201
21.9189
21.9179
21.9171
21.9164
21.9159
21.9155
21.9152
21.9149
21.9147
21.9145
21.9144
21.9142
21.9142
21.9141
21.9141
21.914
21.914
21.914
21.914
21.9139
21.9139
21.9139
21.9139
21.9139
21.9139
21.9139
21.9139
21.9139
21.9139
21.9139
21.9139
21.9139
21.9139
21.9139
21.9139
21.9139
21.9139
21.9139
21.9139
21.9139
21.9139
21.9139
21.9139
21.9139
21.9139
21.9139
21.9139
21.9139
21.9139
21.9139
21.9139
21.9139
21.9139
21.9139
21.9139
21.9139
21.9139
21.9139
21.9139
21.9139
21.9139
21.9139
21.9139
21.9139
21.9139
21.9139
21.9139
21.9139
21.9139
21.9139
21.9139
21.9139
21.9139
21.9139
21.9139
21.9139
21.9139
21.9139
21.9139
21.9139
21.9139
21.9139
21.9139
21.9139
21.9139
21.9139
21.9139
21.9139
21.9139
21.9139
21.9139
21.9139
21.9139
21.9139
21.9139
21.9139
21.9213
21.9224
21.9236
21.9248
21.9262
21.9279
21.9298
21.932
21.9346
21.9377
21.9412
21.9452
21.9497
21.9545
21.9598
21.9656
21.9722
21.9801
21.9897
22.0011
22.0143
22.0292
22.0455
22.0629
22.0811
22.0999
22.1189
22.1384
22.159
22.1821
22.2093
22.2412
22.2775
22.3176
22.3605
22.4053
22.4508
22.496
22.5403
22.5828
22.6233
22.6613
22.6969
22.7302
22.7612
22.7902
22.8174
22.8427
22.8664
22.8885
22.9095
22.9297
22.9505
22.9738
23.0026
23.0398
23.0854
23.1356
23.186
23.2335
23.2767
23.3151
23.3489
23.3782
23.4032
23.4243
23.4416
23.4554
23.4656
23.4721
23.4754
23.474
23.467
23.4536
23.4337
23.4077
23.3758
23.3378
23.2934
23.2422
23.1839
23.1185
23.0467
22.9711
22.8951
22.8218
22.7531
22.6896
22.6313
22.5776
22.5275
22.4801
22.4346
22.3904
22.3471
22.3044
22.2622
22.2208
22.1803
22.1414
22.1056
22.0744
22.0485
22.0275
22.0102
21.9957
21.9832
21.9721
21.9621
21.9531
21.9452
21.9387
21.9335
21.9294
21.9262
21.9237
21.9217
21.92
21.9186
21.9175
21.9167
21.9161
21.9156
21.9152
21.9149
21.9147
21.9145
21.9143
21.9142
21.9141
21.9141
21.914
21.914
21.914
21.914
21.9139
21.9139
21.9139
21.9139
21.9139
21.9139
21.9139
21.9139
21.9139
21.9139
21.9139
21.9139
21.9139
21.9139
21.9139
21.9139
21.9139
21.9139
21.9139
21.9139
21.9139
21.9139
21.9139
21.9139
21.9139
21.9139
21.9139
21.9139
21.9139
21.9139
21.9139
21.9139
21.9139
21.9139
21.9139
21.9139
21.9139
21.9139
21.9139
21.9139
21.9139
21.9139
21.9139
21.9139
21.9139
21.9139
21.9139
21.9139
21.9139
21.9139
21.9139
21.9139
21.9139
21.9139
21.9139
21.9139
21.9139
21.9139
21.9139
21.9139
21.9139
21.9139
21.9139
21.9139
21.9139
21.9139
21.9139
21.9139
21.9139
21.9139
21.9139
21.9656
21.9724
21.98
21.9888
21.9993
22.0119
22.0272
22.0451
22.0656
22.0884
22.1135
22.1406
22.1698
22.2017
22.2384
22.2822
22.3351
22.3977
22.47
22.5512
22.64
22.7348
22.8339
22.9359
23.0395
23.1447
23.2555
23.3837
23.5416
23.7326
23.9517
24.1912
24.443
24.7003
24.9574
25.2099
25.4543
25.6875
25.9074
26.1133
26.3053
26.4844
26.6516
26.8077
26.9533
27.0891
27.2158
27.3341
27.4453
27.5511
27.6556
27.7676
27.9031
28.0763
28.2857
28.5162
28.7495
28.9724
29.1772
29.3607
29.5229
29.6645
29.7863
29.8893
29.9742
30.0414
30.0913
30.1262
30.1423
30.1337
30.0983
30.0321
29.9337
29.8033
29.6425
29.4515
29.2273
28.968
28.673
28.3413
27.9801
27.6126
27.256
26.9187
26.6032
26.3081
26.0301
25.765
25.5092
25.2593
25.0122
24.7657
24.5182
24.2693
24.0192
23.7691
23.521
23.279
23.0547
22.8614
22.7043
22.5798
22.4798
22.3964
22.3238
22.2583
22.1982
22.1438
22.0971
22.0595
22.0304
22.0079
21.99
21.9752
21.9626
21.9519
21.9432
21.9363
21.9311
21.9272
21.9242
21.9218
21.92
21.9185
21.9174
21.9166
21.916
21.9155
21.9151
21.9148
21.9146
21.9144
21.9143
21.9142
21.9141
21.9141
21.914
21.914
21.914
21.914
21.914
21.9139
21.9139
21.9139
21.9139
21.9139
21.9139
21.9139
21.9139
21.9139
21.9139
21.9139
21.9139
21.9139
21.9139
21.9139
21.9139
21.9139
21.9139
21.9139
21.9139
21.9139
21.9139
21.9139
21.9139
21.9139
21.9139
21.9139
21.9139
21.9139
21.9139
21.9139
21.9139
21.9139
21.9139
21.9139
21.9139
21.9139
21.9139
21.9139
21.9139
21.9139
21.9139
21.9139
21.9139
21.9139
21.9139
21.9139
21.9139
21.9139
21.9139
21.9139
21.9139
21.9139
21.9139
21.9139
21.9139
21.9139
21.9139
21.9139
21.9139
21.9139
21.9139
22.191
22.2273
22.2676
22.3142
22.37
22.4374
22.5179
22.6119
22.7193
22.8393
22.9707
23.1124
23.2645
23.4303
23.6236
23.864
24.1632
24.5208
24.9296
25.3797
25.8612
26.3647
26.8812
27.4037
27.9269
28.4495
28.9925
29.6209
30.3872
31.2897
32.3026
33.3946
34.5342
35.6917
36.8423
37.9681
39.056
40.0936
41.0725
41.9921
42.857
43.673
44.4462
45.1802
45.8768
46.5386
47.1691
47.7701
48.3437
48.8935
49.4304
49.9837
50.6146
51.4433
52.661
54.177
55.7486
57.2517
58.644
59.9129
61.0669
62.1115
63.0471
63.8725
64.5871
65.1826
65.6473
66.0172
66.3184
66.4682
66.3489
65.9923
65.4594
64.7218
63.7763
62.6337
61.2558
59.6133
57.7285
55.5964
53.2857
51.1176
49.1671
47.4347
45.8895
44.4855
43.1733
41.9105
40.6672
39.4254
38.1758
36.9135
35.636
34.3444
33.042
31.735
30.434
29.1631
28.0109
27.0621
26.314
25.7163
25.2163
24.7762
24.3727
23.9928
23.6315
23.2953
23.004
22.7718
22.5961
22.4637
22.3601
22.2742
22.2
22.1366
22.0852
22.0461
22.0171
21.9952
21.9779
21.9636
21.9519
21.9426
21.9355
21.9303
21.9265
21.9236
21.9213
21.9195
21.9182
21.9171
21.9164
21.9159
21.9154
21.9151
21.9148
21.9146
21.9145
21.9143
21.9143
21.9142
21.9141
21.9141
21.9141
21.9141
21.914
21.914
21.914
21.914
21.914
21.914
21.914
21.914
21.914
21.914
21.9139
21.9139
21.9139
21.9139
21.9139
21.9139
21.9139
21.9139
21.9139
21.9139
21.9139
21.9139
21.9139
21.9139
21.9139
21.914
21.914
21.914
21.914
21.914
21.914
21.914
21.9141
21.9141
21.9141
21.9142
21.9142
21.9142
21.9143
21.9143
21.9143
21.9143
21.9143
21.9143
21.9142
21.9139
21.9139
21.9139
21.9139
21.9139
21.9139
21.9139
21.9139
21.9139
21.9139
23.3183
23.4996
23.7
23.9354
24.2276
24.5905
25.0269
25.5319
26.0976
26.7153
27.3765
28.0751
28.8083
29.5938
30.5003
31.6174
32.9709
34.5474
36.3159
38.2391
40.2787
42.3976
44.5638
46.7524
48.943
51.1253
53.3307
56.1795
60.3888
65.7371
71.8445
78.4376
85.3456
92.4433
99.6151
106.765
113.827
120.716
127.35
133.702
139.786
145.608
151.155
156.448
161.473
166.198
170.645
174.871
178.921
182.766
186.422
190.037
193.632
196.941
199.714
202.133
204.336
206.318
208.108
209.699
211.094
212.239
213.162
213.92
214.535
214.987
215.309
215.557
215.648
215.488
215.107
214.563
213.767
212.594
211.289
209.741
207.88
205.781
203.301
200.326
196.784
192.592
187.596
181.842
175.537
168.813
161.665
154.105
146.203
137.9
129.198
120.168
110.796
101.217
91.5619
81.8556
72.2399
62.8243
54.6646
48.7645
44.6434
41.5976
39.1164
36.917
34.8643
32.8999
31.0087
29.2426
27.7558
26.621
25.7747
25.1161
24.5675
24.0827
23.6415
23.2498
22.9301
22.6904
22.5176
22.39
22.2895
22.206
22.1368
22.0825
22.0423
22.0133
21.9916
21.9745
21.9606
21.9493
21.9405
21.934
21.9294
21.926
21.9234
21.9213
21.9196
21.9183
21.9174
21.9167
21.9162
21.9158
21.9155
21.9153
21.9151
21.9149
21.9148
21.9147
21.9146
21.9145
21.9144
21.9144
21.9143
21.9143
21.9143
21.9142
21.9142
21.9142
21.9142
21.9142
21.9142
21.9142
21.9142
21.9142
21.9142
21.9142
21.9142
21.9142
21.9142
21.9142
21.9143
21.9143
21.9144
21.9145
21.9146
21.9148
21.9149
21.9151
21.9152
21.9154
21.9157
21.916
21.9163
21.9166
21.9169
21.9172
21.9173
21.9174
21.9174
21.9173
21.9167
21.914
21.914
21.914
21.914
21.914
21.914
21.914
21.914
21.914
29.6337
30.5397
31.5923
32.8793
34.4321
36.2482
38.3092
40.5878
43.0532
45.6777
48.4383
51.333
54.3716
58.0475
63.57
70.9305
79.7819
89.7887
100.705
112.354
124.572
137.167
150.023
163.07
176.119
189.123
201.44
212.336
222.059
230.814
238.636
245.531
251.553
256.772
261.313
265.374
268.887
271.804
274.33
276.701
278.998
281.195
283.282
285.173
286.852
288.413
289.804
291.084
292.238
293.23
294.181
295.028
295.709
296.28
296.57
296.651
296.689
296.657
296.611
296.563
296.513
296.488
296.471
296.409
296.193
295.924
295.608
295.102
294.505
294.133
293.442
292.583
292.025
291.143
289.917
288.785
287.544
286.023
284.736
283.729
282.282
280.328
278.061
275.518
272.547
268.96
264.783
260.114
254.981
249.849
244.605
239.209
233.655
227.461
220.74
213.382
204.783
194.317
181.707
167.567
152.585
137.239
121.894
106.72
91.7914
77.2814
63.6986
53.1931
46.3061
41.7792
38.4834
35.7676
33.3243
31.0496
29.0135
27.403
26.238
25.3911
24.7297
24.171
23.6777
23.2513
22.9137
22.669
22.4968
22.3707
22.2712
22.189
22.122
22.0711
22.0346
22.0085
21.9891
21.9736
21.9609
21.9503
21.9419
21.9357
21.9313
21.9282
21.9259
21.9241
21.9227
21.9215
21.9205
21.9196
21.9188
21.9182
21.9177
21.9172
21.9169
21.9167
21.9165
21.9164
21.9162
21.9162
21.9161
21.916
21.9159
21.9159
21.9158
21.9158
21.9158
21.9158
21.9158
21.9158
21.9159
21.916
21.9162
21.9165
21.917
21.9176
21.9184
21.9194
21.9204
21.9215
21.9226
21.924
21.9257
21.9279
21.9306
21.9335
21.9364
21.9391
21.9412
21.9428
21.9435
21.9435
21.9427
21.9382
21.9142
21.9142
53.1873
56.4961
60.606
66.6044
74.5257
84.1088
95.0943
107.282
120.497
134.595
149.495
165.026
181.03
197.034
211.874
225.675
238.597
250.633
261.695
271.694
280.513
288.122
294.682
300.213
304.509
308.012
310.963
313.678
316.234
318.594
320.744
322.598
324.009
324.99
325.622
325.902
325.923
325.708
325.157
324.41
323.696
323.092
322.186
321.325
320.689
319.785
318.715
317.94
317.413
317.002
316.392
315.852
315.436
314.798
313.912
313.246
312.591
311.78
311.1
310.542
310.086
309.384
308.612
307.958
307.5
307.005
306.149
305.363
304.775
304.236
303.201
302.054
301.265
300.334
299.33
298.467
297.789
297.168
296.068
294.992
294.045
293.167
292.291
291.397
290.501
289.641
288.643
287.386
286.566
285.586
284.012
282.461
280.802
279.265
277.803
275.97
274.047
271.748
268.258
263.253
256.828
249.23
241.294
233.18
224.711
215.249
204.011
189.735
172.461
153.456
133.865
114.402
95.5735
77.7318
61.8999
50.863
44.1245
39.7857
36.5414
33.7673
31.2507
29.0445
27.3448
26.1492
25.2945
24.6305
24.0704
23.5795
23.1645
22.8476
22.6256
22.4721
22.3593
22.2692
22.1933
22.1299
22.0806
22.0452
22.0208
22.0034
21.9902
21.9796
21.9707
21.963
21.9564
21.9508
21.9459
21.9418
21.9383
21.9354
21.9333
21.9317
21.9306
21.9298
21.9292
21.9286
21.9282
21.9278
21.9275
21.9272
21.927
21.9268
21.9267
21.9268
21.9268
21.927
21.9274
21.9283
21.93
21.9328
21.9367
21.942
21.9484
21.9557
21.9635
21.9716
21.9801
21.9903
22.0037
22.021
22.0419
22.065
22.0881
22.1092
22.1269
22.1399
22.1468
22.1475
22.1428
22.1108
164.33
180.421
196.61
211.854
226.197
239.857
252.934
265.291
276.696
287.062
296.374
304.575
311.722
317.721
322.418
325.947
328.872
331.701
334.369
336.712
338.736
340.446
341.803
342.837
343.461
343.409
342.872
342.316
341.473
340.417
339.358
338.327
337.326
336.399
335.411
334.295
333.227
332.219
330.989
329.631
328.667
327.869
326.701
325.739
325.072
324.098
322.911
322.036
321.439
320.981
320.311
319.684
319.187
318.441
317.413
316.675
315.939
315.063
314.374
313.838
313.398
312.62
311.775
311.112
310.677
310.179
309.253
308.442
307.908
307.352
306.279
305.095
304.224
303.291
302.36
301.552
300.947
300.424
299.381
298.276
297.446
296.718
295.998
295.261
294.544
293.935
293.103
292.071
291.263
290.449
289.015
287.534
286.235
285.14
284.134
283.274
282.529
281.948
281.673
281.141
280.289
279.706
278.441
276.436
273.997
271.262
268.255
264.539
259.259
252.44
244.873
236.726
227.482
216.358
202.794
185.36
164.712
142.548
120.229
98.801
79.0081
61.9622
50.4553
43.6814
39.359
36.0958
33.2931
30.7751
28.631
27.0486
25.9665
25.1948
24.5889
24.0734
23.6185
23.2248
22.9144
22.6965
22.5512
22.4505
22.3743
22.312
22.2589
22.213
22.1733
22.1393
22.1102
22.0856
22.0648
22.0484
22.0364
22.0279
22.0219
22.0174
22.0138
22.0108
22.0083
22.0061
22.0041
22.0026
22.0014
22.0008
22.0008
22.0011
22.0019
22.0035
22.0068
22.0137
22.0263
22.0465
22.0756
22.1137
22.1602
22.213
22.2696
22.3276
22.3888
22.4686
22.5812
22.73
22.9077
23.0988