/*--------------------------------*- C++ -*----------------------------------*\
| =========                 |                                                 |
| \\      /  F ield         | OpenFOAM: The Open Source CFD Toolbox           |
|  \\    /   O peration     | Version:  v1706                                 |
|   \\  /    A nd           | Web:      www.OpenFOAM.com                      |
|    \\/     M anipulation  |                                                 |
\*---------------------------------------------------------------------------*/
FoamFile
{
    version     2.0;
    format      ascii;
    class       volScalarField;
    location    "3.2e-05";
    object      Tt;
}
// * * * * * * * * * * * * * * * * * * * * * * * * * * * * * * * * * * * * * //

dimensions      [0 0 0 1 0 0 0];


internalField   nonuniform List<scalar> 
30104
(
144.4
144.4
144.4
144.4
144.4
144.4
144.4
144.4
144.4
144.4
144.4
144.4
144.4
144.4
144.4
144.4
144.4
144.4
144.4
144.4
144.4
144.4
144.4
144.4
144.4
144.4
144.4
144.4
144.4
144.4
144.4
144.4
144.4
144.4
144.4
144.4
144.4
144.4
144.4
144.4
144.4
144.4
144.4
144.4
144.4
144.4
144.4
144.4
144.4
144.4
144.4
144.4
144.4
144.4
144.4
144.4
144.4
144.4
144.4
144.4
144.4
144.4
144.4
144.4
144.4
144.4
144.4
144.4
144.4
144.4
144.4
144.4
144.4
144.4
144.4
144.4
144.4
144.4
144.4
144.4
144.4
144.4
144.4
144.4
144.4
144.4
144.4
144.4
144.4
144.4
144.4
144.4
144.4
144.4
144.4
144.4
144.4
144.4
144.4
144.4
144.4
144.4
144.4
144.4
144.4
144.4
144.4
144.4
144.4
144.4
144.4
144.4
144.4
144.4
144.4
144.4
144.4
144.4
144.4
144.4
144.4
144.4
144.4
144.4
144.4
144.4
144.4
144.4
144.4
144.4
144.4
144.4
144.4
144.4
144.4
144.4
144.4
144.4
144.4
144.4
144.4
144.4
144.4
144.4
144.4
144.4
144.4
144.4
144.4
144.4
144.4
144.4
144.4
144.4
144.4
144.4
144.4
144.4
144.4
144.4
144.4
144.4
144.4
144.4
144.4
144.4
144.4
144.4
144.4
144.4
144.4
144.4
144.4
144.4
144.4
144.4
144.4
144.4
144.4
144.4
144.4
144.4
144.4
144.4
144.4
144.4
144.4
144.4
144.4
144.4
144.4
144.4
144.4
144.4
144.4
144.4
144.4
144.4
144.4
144.4
144.4
144.4
144.4
144.4
144.4
144.4
144.4
144.4
144.4
144.4
144.4
144.4
144.4
144.4
144.4
144.4
144.4
144.4
144.4
144.4
144.4
144.4
144.4
144.4
144.4
144.4
144.4
144.4
144.4
144.4
144.4
144.4
144.4
144.4
144.4
144.4
144.4
144.4
144.4
144.4
144.4
144.4
144.4
144.4
144.4
144.4
144.4
144.4
144.4
144.4
144.4
144.4
144.4
144.4
144.4
144.4
144.4
144.4
144.4
144.4
144.4
144.4
144.4
144.4
144.4
144.4
144.4
144.4
144.4
144.4
144.4
144.4
144.4
144.4
144.4
144.4
144.4
144.4
144.4
144.4
144.4
144.4
144.4
144.4
144.4
144.4
144.4
144.4
144.4
144.4
144.4
144.4
144.4
144.4
144.4
144.4
144.4
144.4
144.4
144.4
144.4
144.4
144.4
144.4
144.4
144.4
144.4
144.4
144.4
144.4
144.4
144.4
144.4
144.4
144.4
144.4
144.4
144.4
144.4
144.4
144.4
144.4
144.4
144.4
144.4
144.4
144.4
144.4
144.4
144.4
144.4
144.4
144.4
144.4
144.4
144.4
144.4
144.4
144.4
144.4
144.4
144.4
144.4
144.4
144.4
144.4
144.4
144.4
144.4
144.4
144.4
144.4
144.4
144.4
144.4
144.4
144.4
144.4
144.4
144.4
144.4
144.4
144.4
144.4
144.4
144.4
144.4
144.4
144.4
144.4
144.4
144.4
144.4
144.4
144.4
144.4
144.4
144.4
144.4
144.4
144.4
144.4
144.4
144.4
144.4
144.4
144.4
144.4
144.4
144.4
144.4
144.4
144.4
144.4
144.4
144.4
144.4
144.4
144.4
144.4
144.4
144.4
144.4
144.4
144.4
144.4
144.4
144.4
144.4
144.4
144.4
144.4
144.4
144.4
144.4
144.4
144.4
144.4
144.4
144.4
144.4
144.4
144.4
144.4
144.4
144.4
144.4
144.4
144.4
144.4
144.4
144.4
144.4
144.4
144.4
144.4
144.4
144.4
144.4
144.4
144.4
144.4
144.4
144.4
144.4
144.4
144.4
144.4
144.4
144.4
144.4
144.4
144.4
144.4
144.4
144.4
144.4
144.4
144.4
144.4
144.4
144.4
144.4
144.4
144.4
144.4
144.4
144.4
144.4
144.4
144.4
144.4
144.4
144.4
144.4
144.4
144.4
144.4
144.4
144.4
144.4
144.4
144.4
144.4
144.4
144.4
144.4
144.4
144.4
144.4
144.4
144.4
144.4
144.4
144.4
144.4
144.4
144.4
144.4
144.4
144.4
144.4
144.4
144.4
144.4
144.4
144.4
144.4
144.4
144.4
144.4
144.4
144.4
144.4
144.4
144.4
144.4
144.4
144.4
144.4
144.4
144.4
144.4
144.4
144.4
144.4
144.4
144.4
144.4
144.4
144.4
144.4
144.4
144.4
144.4
144.4
144.4
144.4
144.4
144.4
144.4
144.4
144.4
144.4
144.4
144.4
144.4
144.4
144.4
144.4
144.4
144.4
144.4
144.4
144.4
144.4
144.4
144.4
144.4
144.4
144.4
144.4
144.4
144.4
144.4
144.4
144.4
144.4
144.4
144.4
144.4
144.4
144.4
144.4
144.4
144.4
144.4
144.4
144.4
144.4
144.4
144.4
144.4
144.4
144.4
144.4
144.4
144.4
144.4
144.4
144.4
144.4
144.4
144.4
144.4
144.4
144.4
144.4
144.4
144.4
144.4
144.4
144.4
144.4
144.4
144.4
144.4
144.4
144.4
144.4
144.4
144.4
144.4
144.4
144.4
144.4
144.4
144.4
144.4
144.4
144.4
144.4
144.4
144.4
144.4
144.4
144.4
144.4
144.4
144.4
144.4
144.4
144.4
144.4
144.4
144.4
144.4
144.4
144.4
144.4
144.4
144.4
144.4
144.4
144.4
144.4
144.4
144.4
144.4
144.4
144.4
144.4
144.4
144.4
144.4
144.4
144.4
144.4
144.4
144.4
144.4
144.4
144.4
144.4
144.4
144.4
144.4
144.4
144.4
144.4
144.4
144.4
144.4
144.4
144.4
144.4
144.4
144.4
144.4
144.4
144.4
144.4
144.4
144.4
144.4
144.4
144.4
144.4
144.4
144.4
144.4
144.4
144.4
144.4
144.4
144.4
144.4
144.4
144.4
144.4
144.4
144.4
144.4
144.4
144.4
144.4
144.4
144.4
144.4
144.4
144.4
144.4
144.4
144.4
144.4
144.4
144.4
144.4
144.4
144.4
144.4
144.4
144.4
144.4
144.4
144.4
144.4
144.4
144.4
144.4
144.4
144.4
144.4
144.4
144.4
144.4
144.4
144.4
144.4
144.4
144.4
144.4
144.4
144.4
144.4
144.4
144.4
144.4
144.4
144.4
144.4
144.4
144.4
144.4
144.4
144.4
144.4
144.4
144.4
144.4
144.4
144.4
144.4
144.4
144.4
144.4
144.4
144.4
144.4
144.4
144.4
144.4
144.4
144.4
144.4
144.4
144.4
144.4
144.4
144.4
144.4
144.4
144.4
144.4
144.4
144.4
144.4
144.4
144.4
144.4
144.4
144.4
144.4
144.4
144.4
144.4
144.4
144.4
144.4
144.4
144.4
144.4
144.4
144.4
144.4
144.4
144.4
144.4
144.4
144.4
144.4
144.4
144.4
144.4
144.4
144.4
144.4
144.4
144.4
144.4
144.4
144.4
144.4
144.4
144.4
144.4
144.4
144.4
144.4
144.4
144.4
144.4
144.4
144.4
144.4
144.4
144.4
144.4
144.4
144.4
144.4
144.4
144.4
144.4
144.4
144.4
144.4
144.4
144.4
144.4
144.4
144.4
144.4
144.4
144.4
144.4
144.4
144.4
144.4
144.4
144.4
144.4
144.4
144.4
144.4
144.4
144.4
144.4
144.4
144.4
144.4
144.4
144.4
144.4
144.4
144.4
144.4
144.4
144.4
144.4
144.4
144.4
144.4
144.4
144.4
144.4
144.4
144.4
144.4
144.4
144.4
144.4
144.4
144.4
144.4
144.4
144.4
144.4
144.4
144.4
144.4
144.4
144.4
144.4
144.4
144.4
144.4
144.4
144.4
144.4
144.4
144.4
144.4
144.4
144.4
144.4
144.4
144.4
144.4
144.4
144.4
144.4
144.4
144.4
144.4
144.4
144.4
144.4
144.4
144.4
144.4
144.4
144.4
144.4
144.4
144.4
144.4
144.4
144.4
144.4
144.4
144.4
144.4
144.4
144.4
144.4
144.4
144.4
144.4
144.4
144.4
144.4
144.4
144.4
144.4
144.4
144.4
144.4
144.4
144.4
144.4
144.4
144.4
144.4
144.4
144.4
144.4
144.4
144.4
144.4
144.4
144.4
144.4
144.4
144.4
144.4
144.4
144.4
144.4
144.4
144.4
144.4
144.4
144.4
144.4
144.4
144.4
144.4
144.4
144.4
144.4
144.4
144.4
144.4
144.4
144.4
144.4
144.4
144.4
144.4
144.4
144.4
144.4
144.4
144.4
144.4
144.4
144.4
144.4
144.4
144.4
144.4
144.4
144.4
144.4
144.4
144.4
144.4
144.4
144.4
144.4
144.4
144.4
144.4
144.4
144.4
144.4
144.4
144.4
144.4
144.4
144.4
144.4
144.4
144.4
144.4
144.4
144.4
144.4
144.4
144.4
144.4
144.4
144.4
144.4
144.4
144.4
144.4
144.4
144.4
144.4
144.4
144.4
144.4
144.4
144.4
144.4
144.4
144.4
144.4
144.4
144.4
144.4
144.4
144.4
144.4
144.4
144.4
144.4
144.4
144.4
144.4
144.4
144.4
144.4
144.4
144.4
144.4
144.4
144.4
144.4
144.4
144.4
144.4
144.4
144.4
144.4
144.4
144.4
144.4
144.4
144.4
144.4
144.4
144.4
144.4
144.4
144.4
144.4
144.4
144.4
144.4
144.4
144.4
144.4
144.4
144.4
144.4
144.4
144.4
144.4
144.4
144.4
144.4
144.4
144.4
144.4
144.4
144.4
144.4
144.4
144.4
144.4
144.4
144.4
144.4
144.4
144.4
144.4
144.4
144.4
144.4
144.4
144.4
144.4
144.4
144.4
144.4
144.4
144.4
144.4
144.4
144.4
144.4
144.4
144.4
144.4
144.4
144.4
144.4
144.4
144.4
144.4
144.4
144.4
144.4
144.4
144.4
144.4
144.4
144.4
144.4
144.4
144.4
144.4
144.4
144.4
144.4
144.4
144.4
144.4
144.4
144.4
144.4
144.4
144.4
144.4
144.4
144.4
144.4
144.4
144.4
144.4
144.4
144.4
144.4
144.4
144.4
144.4
144.4
144.4
144.4
144.4
144.4
144.4
144.4
144.4
144.4
144.4
144.4
144.4
144.4
144.4
144.4
144.4
144.4
144.4
144.4
144.4
144.4
144.4
144.4
144.4
144.4
144.4
144.4
144.4
144.4
144.4
144.4
144.4
144.4
144.4
144.4
144.4
144.4
144.4
144.4
144.4
144.4
144.4
144.4
144.4
144.4
144.4
144.4
144.4
144.4
144.4
144.4
144.4
144.4
144.4
144.4
144.4
144.4
144.4
144.4
144.4
144.4
144.4
144.4
144.4
144.4
144.4
144.4
144.4
144.4
144.4
144.4
144.4
144.4
144.4
144.4
144.4
144.4
144.4
144.4
144.4
144.4
144.4
144.4
144.4
144.4
144.4
144.4
144.4
144.4
144.4
144.4
144.4
144.4
144.4
144.4
144.4
144.4
144.4
144.4
144.4
144.4
144.4
144.4
144.4
144.4
144.4
144.4
144.4
144.4
144.4
144.4
144.4
144.4
144.4
144.4
144.4
144.4
144.4
144.4
144.4
144.4
144.401
144.401
144.401
144.401
144.401
144.401
144.401
144.401
144.401
144.401
144.401
144.401
144.401
144.401
144.401
144.401
144.401
144.401
144.401
144.401
144.401
144.401
144.401
144.401
144.401
144.401
144.401
144.401
144.401
144.401
144.401
144.401
144.401
144.401
144.401
144.401
144.401
144.401
144.401
144.401
144.401
144.401
144.401
144.401
144.4
144.4
144.4
144.4
144.4
144.4
144.4
144.4
144.4
144.4
144.4
144.4
144.4
144.4
144.4
144.4
144.4
144.4
144.4
144.4
144.4
144.4
144.4
144.4
144.4
144.4
144.4
144.4
144.4
144.4
144.4
144.4
144.4
144.4
144.4
144.4
144.4
144.4
144.4
144.4
144.4
144.4
144.4
144.4
144.4
144.4
144.4
144.4
144.4
144.4
144.4
144.4
144.4
144.4
144.4
144.4
144.4
144.4
144.4
144.4
144.4
144.4
144.4
144.4
144.4
144.4
144.4
144.4
144.4
144.4
144.4
144.4
144.4
144.4
144.4
144.4
144.4
144.4
144.4
144.4
144.4
144.4
144.4
144.4
144.4
144.4
144.4
144.4
144.4
144.4
144.4
144.4
144.4
144.4
144.4
144.4
144.4
144.4
144.4
144.4
144.4
144.4
144.4
144.4
144.4
144.4
144.4
144.4
144.4
144.4
144.4
144.4
144.4
144.4
144.4
144.4
144.4
144.4
144.4
144.4
144.4
144.4
144.4
144.4
144.4
144.4
144.4
144.4
144.4
144.4
144.4
144.4
144.4
144.4
144.4
144.4
144.4
144.4
144.4
144.4
144.4
144.4
144.401
144.401
144.401
144.401
144.401
144.401
144.401
144.401
144.401
144.401
144.402
144.402
144.402
144.402
144.402
144.402
144.403
144.403
144.403
144.403
144.403
144.403
144.403
144.404
144.404
144.404
144.404
144.404
144.404
144.404
144.404
144.404
144.404
144.405
144.405
144.405
144.405
144.405
144.405
144.406
144.406
144.406
144.406
144.406
144.406
144.406
144.406
144.406
144.406
144.406
144.406
144.406
144.406
144.406
144.406
144.405
144.405
144.405
144.405
144.405
144.404
144.404
144.404
144.403
144.403
144.403
144.403
144.402
144.402
144.402
144.402
144.402
144.401
144.401
144.401
144.401
144.401
144.401
144.401
144.401
144.4
144.4
144.4
144.4
144.4
144.4
144.4
144.4
144.4
144.4
144.4
144.4
144.4
144.4
144.4
144.4
144.4
144.4
144.4
144.4
144.4
144.4
144.4
144.4
144.4
144.4
144.4
144.4
144.4
144.4
144.4
144.4
144.4
144.4
144.4
144.4
144.4
144.4
144.4
144.4
144.4
144.4
144.4
144.4
144.4
144.4
144.4
144.4
144.4
144.4
144.4
144.4
144.4
144.4
144.4
144.4
144.4
144.4
144.4
144.4
144.4
144.4
144.4
144.4
144.4
144.4
144.4
144.4
144.4
144.4
144.4
144.4
144.4
144.4
144.4
144.4
144.4
144.4
144.4
144.4
144.4
144.4
144.4
144.4
144.4
144.4
144.4
144.4
144.4
144.4
144.4
144.4
144.4
144.4
144.4
144.4
144.4
144.4
144.4
144.4
144.4
144.4
144.4
144.4
144.4
144.4
144.4
144.4
144.4
144.4
144.4
144.4
144.401
144.401
144.401
144.401
144.401
144.401
144.401
144.401
144.401
144.402
144.402
144.402
144.402
144.403
144.403
144.403
144.404
144.404
144.405
144.405
144.406
144.406
144.407
144.408
144.409
144.409
144.41
144.411
144.413
144.414
144.415
144.416
144.417
144.418
144.419
144.42
144.421
144.422
144.422
144.423
144.424
144.424
144.425
144.425
144.426
144.426
144.427
144.428
144.429
144.43
144.431
144.432
144.433
144.434
144.435
144.436
144.436
144.437
144.437
144.437
144.438
144.438
144.438
144.438
144.438
144.437
144.437
144.437
144.436
144.435
144.434
144.433
144.432
144.43
144.429
144.427
144.425
144.424
144.422
144.42
144.418
144.417
144.415
144.414
144.412
144.411
144.41
144.409
144.408
144.407
144.406
144.406
144.405
144.404
144.403
144.403
144.402
144.402
144.402
144.401
144.401
144.401
144.401
144.401
144.4
144.4
144.4
144.4
144.4
144.4
144.4
144.4
144.4
144.4
144.4
144.4
144.4
144.4
144.4
144.4
144.4
144.4
144.4
144.4
144.4
144.4
144.4
144.4
144.4
144.4
144.4
144.4
144.4
144.4
144.4
144.4
144.4
144.4
144.4
144.4
144.4
144.4
144.4
144.4
144.4
144.4
144.4
144.4
144.4
144.4
144.4
144.4
144.4
144.4
144.4
144.4
144.4
144.4
144.4
144.4
144.4
144.4
144.4
144.4
144.4
144.4
144.4
144.4
144.4
144.4
144.4
144.4
144.4
144.4
144.4
144.4
144.4
144.4
144.4
144.4
144.4
144.4
144.4
144.4
144.4
144.4
144.4
144.4
144.4
144.4
144.4
144.4
144.4
144.4
144.4
144.4
144.4
144.4
144.4
144.4
144.401
144.401
144.402
144.402
144.402
144.402
144.403
144.403
144.403
144.404
144.405
144.405
144.406
144.407
144.408
144.409
144.41
144.411
144.412
144.414
144.416
144.418
144.421
144.424
144.426
144.429
144.432
144.436
144.439
144.443
144.447
144.452
144.457
144.463
144.47
144.477
144.484
144.491
144.498
144.504
144.511
144.517
144.522
144.527
144.532
144.536
144.54
144.544
144.547
144.55
144.553
144.556
144.56
144.564
144.568
144.574
144.581
144.588
144.595
144.602
144.608
144.613
144.618
144.622
144.625
144.628
144.63
144.632
144.632
144.633
144.633
144.632
144.631
144.628
144.625
144.621
144.616
144.61
144.603
144.596
144.587
144.578
144.567
144.556
144.545
144.534
144.523
144.512
144.503
144.494
144.486
144.478
144.471
144.465
144.458
144.453
144.447
144.441
144.436
144.431
144.426
144.422
144.418
144.415
144.413
144.411
144.409
144.407
144.406
144.405
144.404
144.403
144.402
144.402
144.402
144.401
144.401
144.401
144.401
144.4
144.4
144.4
144.4
144.4
144.4
144.4
144.4
144.4
144.4
144.4
144.4
144.4
144.4
144.4
144.4
144.4
144.4
144.4
144.4
144.4
144.4
144.4
144.4
144.4
144.4
144.4
144.4
144.4
144.4
144.4
144.4
144.4
144.4
144.4
144.4
144.4
144.4
144.4
144.4
144.4
144.4
144.4
144.4
144.4
144.4
144.4
144.4
144.4
144.4
144.4
144.4
144.4
144.4
144.4
144.4
144.4
144.4
144.4
144.4
144.4
144.4
144.4
144.4
144.4
144.4
144.4
144.4
144.4
144.4
144.4
144.4
144.4
144.4
144.4
144.4
144.4
144.4
144.4
144.4
144.4
144.4
144.4
144.4
144.4
144.4
144.4
144.4
144.407
144.408
144.409
144.411
144.412
144.413
144.415
144.417
144.42
144.423
144.426
144.43
144.434
144.439
144.444
144.449
144.456
144.463
144.472
144.482
144.494
144.508
144.522
144.538
144.555
144.573
144.59
144.609
144.628
144.65
144.675
144.704
144.738
144.776
144.816
144.858
144.901
144.943
144.985
145.024
145.062
145.097
145.13
145.16
145.188
145.214
145.238
145.26
145.28
145.299
145.317
145.335
145.353
145.375
145.402
145.435
145.475
145.518
145.561
145.601
145.637
145.669
145.696
145.72
145.74
145.757
145.77
145.78
145.786
145.789
145.791
145.787
145.779
145.765
145.746
145.721
145.691
145.656
145.616
145.569
145.517
145.46
145.397
145.33
145.263
145.197
145.134
145.076
145.022
144.972
144.926
144.883
144.843
144.804
144.767
144.73
144.695
144.66
144.626
144.593
144.563
144.536
144.513
144.494
144.479
144.466
144.456
144.446
144.438
144.431
144.425
144.42
144.416
144.412
144.41
144.408
144.406
144.405
144.404
144.403
144.402
144.402
144.401
144.401
144.401
144.401
144.4
144.4
144.4
144.4
144.4
144.4
144.4
144.4
144.4
144.4
144.4
144.4
144.4
144.4
144.4
144.4
144.4
144.4
144.4
144.4
144.4
144.4
144.4
144.4
144.4
144.4
144.4
144.4
144.4
144.4
144.4
144.4
144.4
144.4
144.4
144.4
144.4
144.4
144.4
144.4
144.4
144.4
144.4
144.4
144.4
144.4
144.4
144.4
144.4
144.4
144.4
144.4
144.4
144.4
144.4
144.4
144.4
144.4
144.4
144.4
144.4
144.4
144.4
144.4
144.4
144.4
144.4
144.4
144.4
144.4
144.4
144.4
144.4
144.4
144.4
144.4
144.4
144.4
144.4
144.4
144.44
144.446
144.452
144.459
144.466
144.475
144.485
144.497
144.512
144.529
144.548
144.57
144.594
144.62
144.649
144.68
144.716
144.758
144.81
144.871
144.941
145.021
145.108
145.201
145.298
145.398
145.499
145.603
145.713
145.837
145.984
146.159
146.359
146.58
146.816
147.059
147.305
147.547
147.783
148.008
148.221
148.421
148.606
148.779
148.94
149.089
149.228
149.357
149.477
149.588
149.693
149.794
149.897
150.012
150.154
150.337
150.561
150.81
151.059
151.292
151.504
151.691
151.854
151.994
152.113
152.212
152.292
152.353
152.397
152.421
152.43
152.415
152.37
152.293
152.183
152.043
151.872
151.672
151.439
151.171
150.869
150.531
150.162
149.777
149.395
149.029
148.687
148.373
148.083
147.814
147.562
147.322
147.09
146.864
146.64
146.419
146.2
145.983
145.771
145.567
145.378
145.214
145.079
144.97
144.882
144.809
144.746
144.691
144.64
144.594
144.555
144.522
144.497
144.477
144.461
144.449
144.439
144.43
144.423
144.418
144.414
144.411
144.408
144.406
144.405
144.404
144.403
144.402
144.402
144.401
144.401
144.401
144.401
144.4
144.4
144.4
144.4
144.4
144.4
144.4
144.4
144.4
144.4
144.4
144.4
144.4
144.4
144.4
144.4
144.4
144.4
144.4
144.4
144.4
144.4
144.4
144.4
144.4
144.4
144.4
144.4
144.4
144.4
144.4
144.4
144.4
144.4
144.4
144.4
144.4
144.4
144.4
144.4
144.4
144.4
144.4
144.4
144.4
144.4
144.4
144.4
144.4
144.4
144.4
144.4
144.4
144.4
144.4
144.4
144.4
144.4
144.4
144.4
144.4
144.4
144.4
144.4
144.4
144.4
144.4
144.4
144.4
144.4
144.4
144.4
144.4
144.682
144.719
144.76
144.807
144.864
144.932
145.014
145.11
145.221
145.344
145.478
145.624
145.781
145.953
146.151
146.39
146.681
147.028
147.428
147.875
148.361
148.875
149.408
149.953
150.503
151.06
151.646
152.322
153.147
154.137
155.268
156.499
157.788
159.098
160.398
161.667
162.888
164.046
165.131
166.142
167.079
167.95
168.761
169.515
170.217
170.869
171.477
172.042
172.572
173.074
173.568
174.092
174.714
175.519
176.545
177.707
178.875
179.969
180.954
181.825
182.586
183.244
183.804
184.272
184.65
184.939
185.143
185.273
185.323
185.258
185.048
184.684
184.17
183.51
182.707
181.76
180.652
179.37
177.908
176.26
174.459
172.631
170.869
169.219
167.691
166.272
164.939
163.664
162.423
161.198
159.976
158.746
157.505
156.25
154.986
153.719
152.461
151.236
150.11
149.151
148.38
147.772
147.281
146.867
146.501
146.167
145.857
145.574
145.33
145.134
144.983
144.868
144.778
144.704
144.642
144.588
144.544
144.51
144.485
144.466
144.451
144.44
144.43
144.423
144.417
144.413
144.41
144.408
144.406
144.404
144.403
144.403
144.402
144.401
144.401
144.401
144.401
144.401
144.4
144.4
144.4
144.4
144.4
144.4
144.4
144.4
144.4
144.4
144.4
144.4
144.4
144.4
144.4
144.4
144.4
144.4
144.4
144.4
144.4
144.4
144.4
144.4
144.4
144.4
144.4
144.4
144.4
144.4
144.4
144.4
144.4
144.4
144.4
144.4
144.4
144.4
144.4
144.4
144.4
144.4
144.4
144.4
144.4
144.4
144.4
144.4
144.4
144.4
144.4
144.4
144.4
144.4
144.4
144.4
144.4
144.4
144.4
144.4
144.4
144.4
144.4
144.4
144.4
145.901
146.097
146.315
146.567
146.872
147.244
147.69
148.212
148.804
149.461
150.175
150.939
151.754
152.64
153.669
154.938
156.502
158.36
160.471
162.779
165.229
167.769
170.351
172.939
175.505
178.049
180.675
183.733
187.531
192.025
196.994
202.206
207.475
212.662
217.667
222.427
226.905
231.066
234.893
238.4
241.621
244.591
247.341
249.894
252.261
254.456
256.497
258.4
260.181
261.851
263.444
265.042
266.787
268.946
271.989
275.659
279.327
282.701
285.698
288.309
290.582
292.554
294.241
295.651
296.79
297.649
298.219
298.601
298.801
298.658
298.028
296.878
295.354
293.393
290.993
288.161
284.795
280.804
276.183
270.871
265.052
259.512
254.37
249.601
245.133
240.86
236.658
232.415
228.047
223.501
218.747
213.772
208.568
203.145
197.518
191.706
185.754
179.78
174.246
169.654
166.044
163.176
160.778
158.648
156.668
154.781
152.971
151.284
149.833
148.69
147.834
147.188
146.676
146.243
145.863
145.534
145.266
145.064
144.915
144.804
144.718
144.647
144.588
144.542
144.507
144.481
144.463
144.448
144.437
144.428
144.421
144.416
144.412
144.41
144.408
144.406
144.405
144.403
144.403
144.402
144.402
144.401
144.401
144.401
144.401
144.401
144.401
144.401
144.4
144.4
144.4
144.4
144.4
144.4
144.4
144.4
144.4
144.4
144.4
144.4
144.4
144.4
144.4
144.4
144.4
144.4
144.4
144.4
144.4
144.4
144.4
144.4
144.4
144.4
144.4
144.401
144.401
144.401
144.401
144.401
144.401
144.401
144.402
144.402
144.402
144.402
144.402
144.402
144.402
144.402
144.402
144.4
144.4
144.4
144.4
144.4
144.4
144.4
144.4
144.4
144.4
152.072
153.044
154.117
155.371
156.912
158.807
161.068
163.666
166.553
169.676
172.987
176.446
180.039
183.851
188.24
193.705
200.334
207.907
216.114
224.669
233.342
241.95
250.355
258.47
266.238
273.656
280.935
289.609
301.068
314.081
327.421
340.381
352.609
363.926
374.245
383.561
391.935
399.373
405.918
411.685
416.812
421.4
425.505
429.198
432.503
435.428
438.034
440.389
442.549
444.502
446.258
447.903
449.43
450.697
451.639
452.376
452.965
453.406
453.71
453.796
453.754
453.621
453.416
453.118
452.72
452.223
451.642
451.017
450.304
449.488
448.571
447.547
446.337
444.918
443.452
441.871
440.144
438.302
436.244
433.9
431.232
428.267
424.91
421.141
416.991
412.411
407.256
401.391
394.731
387.108
378.418
368.611
357.541
345.209
331.572
316.426
299.717
281.501
263.906
249.77
238.685
229.45
221.067
212.948
204.809
196.537
188.159
179.985
172.898
167.431
163.364
160.206
157.559
155.186
152.999
151.049
149.466
148.294
147.452
146.824
146.32
145.893
145.535
145.252
145.045
144.896
144.787
144.702
144.632
144.575
144.532
144.5
144.477
144.46
144.448
144.437
144.429
144.422
144.417
144.414
144.411
144.409
144.408
144.407
144.406
144.405
144.404
144.404
144.403
144.403
144.403
144.402
144.402
144.402
144.402
144.402
144.402
144.402
144.402
144.401
144.401
144.401
144.401
144.401
144.401
144.401
144.401
144.401
144.401
144.402
144.402
144.402
144.403
144.403
144.404
144.404
144.405
144.406
144.407
144.408
144.409
144.411
144.413
144.414
144.416
144.417
144.418
144.418
144.418
144.418
144.414
144.4
144.4
144.4
144.4
144.401
144.401
144.401
144.401
144.401
184.165
188.517
193.559
199.771
207.244
215.793
225.141
235.01
245.165
255.423
265.654
275.807
286.008
297.44
312.583
330.192
348.643
366.81
384.053
400.05
414.632
427.722
439.407
449.802
458.895
466.84
473.699
479.462
484.317
488.369
491.674
494.286
496.281
497.726
498.732
499.452
499.725
499.651
499.476
499.229
498.952
498.636
498.28
497.875
497.408
496.909
496.363
495.807
495.243
494.641
494.034
493.428
492.809
492.195
491.525
490.806
490.074
489.3
488.489
487.658
486.818
485.968
485.102
484.23
483.341
482.441
481.521
480.568
479.57
478.663
477.66
476.554
475.563
474.425
473.16
471.984
470.779
469.472
468.218
467.039
465.663
464.152
462.618
461.072
459.466
457.746
455.913
453.973
451.862
449.684
447.326
444.737
441.912
438.611
434.841
430.514
425.325
419.16
411.877
403.207
392.771
380.24
365.484
348.362
328.63
306.178
281.585
259.338
242.37
229.352
218.397
208.231
198.227
188.26
178.851
171.172
165.57
161.51
158.333
155.616
153.183
151.065
149.395
148.197
147.355
146.732
146.231
145.809
145.461
145.195
145.007
144.874
144.776
144.699
144.635
144.581
144.539
144.508
144.487
144.472
144.461
144.452
144.445
144.439
144.433
144.429
144.425
144.422
144.419
144.417
144.415
144.414
144.413
144.412
144.412
144.411
144.411
144.411
144.41
144.41
144.41
144.41
144.41
144.41
144.41
144.41
144.41
144.411
144.412
144.413
144.416
144.42
144.424
144.429
144.434
144.44
144.446
144.453
144.462
144.473
144.487
144.502
144.517
144.531
144.543
144.551
144.554
144.554
144.549
144.524
144.401
144.402
282.732
293.614
306.041
321.97
340.254
359.447
378.503
396.765
413.835
429.523
443.821
456.686
468.091
478.108
486.656
494.016
500.369
505.816
510.405
514.162
517.097
519.239
520.761
521.688
521.764
521.616
521.359
521.159
521.063
521.018
520.973
520.867
520.622
520.208
519.651
518.959
518.113
517.127
516.053
514.917
513.783
512.707
511.524
510.389
509.352
508.209
507.049
505.989
505.029
504.123
503.174
502.266
501.436
500.545
499.588
498.737
497.896
497.001
496.136
495.27
494.432
493.476
492.501
491.549
490.672
489.793
488.763
487.767
486.819
485.907
484.778
483.651
482.662
481.603
480.502
479.423
478.351
477.287
476.01
474.784
473.573
472.326
471.041
469.732
468.416
467.117
465.762
464.354
463.127
461.846
460.361
458.976
457.59
456.25
454.917
453.417
451.91
450.351
448.515
446.374
443.97
441.277
438.453
435.315
431.567
426.799
420.667
412.804
402.803
390.173
374.456
355.311
332.58
306.29
277.845
253.893
236.369
222.92
211.24
200.095
189.168
179.014
170.924
165.183
161.086
157.888
155.15
152.718
150.653
149.088
148.002
147.249
146.687
146.229
145.838
145.507
145.249
145.065
144.94
144.852
144.786
144.733
144.687
144.648
144.615
144.586
144.561
144.541
144.523
144.509
144.498
144.491
144.485
144.481
144.478
144.476
144.473
144.471
144.47
144.468
144.467
144.466
144.466
144.466
144.466
144.467
144.47
144.475
144.483
144.498
144.519
144.547
144.58
144.619
144.66
144.702
144.746
144.801
144.874
144.97
145.085
145.212
145.338
145.452
145.546
145.616
145.653
145.656
145.629
145.446
458.288
469.897
480.195
489.094
496.831
503.629
509.63
514.854
519.267
522.897
525.802
528.006
529.554
530.515
531.05
531.378
531.718
532.186
532.698
533.149
533.518
533.711
533.685
533.502
533.036
532.292
531.391
530.492
529.509
528.551
527.701
526.932
526.202
525.493
524.744
523.92
523.054
522.14
521.112
520.007
518.952
517.924
516.746
515.618
514.573
513.395
512.19
511.084
510.077
509.151
508.169
507.213
506.348
505.388
504.374
503.505
502.66
501.78
500.95
500.126
499.334
498.382
497.422
496.487
495.638
494.769
493.707
492.691
491.776
490.863
489.718
488.573
487.554
486.52
485.486
484.453
483.451
482.474
481.238
480.007
478.837
477.66
476.454
475.202
473.925
472.64
471.276
469.8
468.445
467.117
465.522
463.991
462.552
461.211
459.94
458.674
457.411
456.204
455.04
453.787
452.51
451.453
450.169
448.75
447.317
445.854
444.357
442.765
440.892
438.809
436.65
434.094
430.557
425.462
418.567
409.31
397.078
381.219
361.222
336.994
308.918
278.677
253.457
235.415
221.652
209.661
198.24
187.174
177.191
169.597
164.385
160.681
157.752
155.222
152.958
150.989
149.447
148.379
147.67
147.172
146.788
146.469
146.194
145.954
145.747
145.569
145.417
145.287
145.178
145.091
145.028
144.984
144.954
144.931
144.913
144.898
144.885
144.874
144.864
144.856
144.85
144.848
144.848
144.85
144.854
144.863
144.881
144.919
144.989
145.101
145.262
145.471
145.723
146.007
146.307
146.613
146.937
147.357
147.949
148.735
149.673
150.679
151.656
152.538
153.276
153.831
154.165
154.236
154.103
152.933
528.621
530.623
532.106
533.16
533.978
534.733
535.471
536.239
537.06
537.865
538.556
539.102
539.477
539.507
539.39
539.107
538.75
538.458
538.204
537.957
537.725
537.478
537.181
536.814
536.353
535.752
535.014
534.209
533.31
532.354
531.411
530.499
529.637
528.84
528.03
527.17
526.32
525.445
524.449
523.367
522.411
521.392
520.215
519.142
518.146
516.972
515.784
514.708
513.718
512.815
511.802
510.833
509.964
508.972
507.956
507.098
506.247
505.394
504.606
503.847
503.06
502.12
501.223
500.339
499.526
498.634
497.556
496.549
495.663
494.763
493.692
492.555
491.5
490.504
489.506
488.486
487.467
486.546
485.409
484.195
483.022
481.853
480.687
479.478
478.238
477.007
475.731
474.358
472.989
471.681
470.105
468.487
466.951
465.494
464.116
462.776
461.457
460.259
459.209
458.102
456.898
455.697
454.396
452.992
451.677
450.445
449.377
448.399
447.501
446.816
445.901
444.795
443.621
442.527
441.371
440.085
438.877
437.54
435.663
432.554
427.428
419.965
409.802
396.441
379.391
358.319
333.128
304.199
273.848
250.024
233.464
220.761
209.57
198.932
188.687
179.228
171.655
166.506
163.082
160.576
158.534
156.765
155.2
153.819
152.609
151.559
150.654
149.874
149.208
148.677
148.304
148.059
147.89
147.764
147.666
147.584
147.515
147.455
147.404
147.365
147.342
147.339
147.348
147.37
147.41
147.485
147.626
147.91
148.441
149.291
150.477
151.984
153.772
155.742
157.78
159.807
161.899
164.785
169.004
174.441
180.64
186.989
192.903
198.116
202.449
205.711
207.765
208.494
208.091
202.943
541.015
541.293
541.451
541.497
541.532
541.621
541.756
541.924
542.126
542.321
542.419
542.39
542.269
542.03
541.696
541.332
540.978
540.63
540.275
539.912
539.531
539.119
538.656
538.1
537.451
536.719
535.894
535
534.074
533.118
532.203
531.35
530.461
529.557
528.732
527.878
526.879
525.901
525.06
524.078
522.982
522.039
521.12
520.013
518.961
517.977
517.08
516.202
515.191
514.248
513.415
512.443
511.474
510.627
509.764
508.953
508.198
507.496
506.692
505.825
505.013
504.193
503.427
502.496
501.441
500.486
499.605
498.772
497.786
496.655
495.542
494.534
493.55
492.54
491.5
490.543
489.544
488.344
487.159
485.98
484.804
483.618
482.398
481.169
479.939
478.67
477.339
475.99
474.56
472.98
471.388
469.829
468.327
466.861
465.42
464.113
463.007
461.936
460.788
459.556
458.251
456.846
455.43
454.098
452.942
451.909
451.028
450.138
449.168
448.186
447.294
446.516
445.918
445.613
445.154
444.485
443.783
443.22
442.853
442.587
442.218
441.53
440.234
437.928
434.11
428.44
420.826
410.626
397.16
380.117
359.671
336.181
310.036
282.367
258.018
241.758
230.601
221.706
213.809
206.531
199.812
193.666
188.124
183.185
178.824
174.971
171.599
168.871
167.034
165.87
165.064
164.455
163.973
163.579
163.247
162.961
162.729
162.57
162.524
162.56
162.664
162.859
163.196
163.733
164.643
166.516
170.028
175.452
182.633
191.283
201.067
211.295
221.27
230.761
239.884
253.9
274.731
298.566
322.489
344.553
363.123
378.527
391.094
400.445
406.434
409.779
409.918
401.777
543.964
544.154
544.292
544.319
544.308
544.312
544.326
544.354
544.411
544.495
544.536
544.517
544.433
544.252
543.969
543.617
543.238
542.845
542.438
542.013
541.565
541.098
540.599
540.044
539.432
538.753
538.003
537.209
536.363
535.464
534.606
533.773
532.864
531.995
531.218
530.366
529.377
528.539
527.756
526.799
525.796
524.988
524.127
523.12
522.208
521.324
520.547
519.648
518.686
517.799
517.018
516.09
515.17
514.333
513.468
512.683
511.963
511.27
510.457
509.681
508.93
508.18
507.434
506.478
505.482
504.593
503.737
502.931
502.047
500.936
499.773
498.736
497.755
496.762
495.73
494.722
493.79
492.671
491.476
490.297
489.111
487.931
486.732
485.506
484.289
483.085
481.834
480.526
479.151
477.677
476.126
474.523
472.921
471.332
469.763
468.323
467.085
465.942
464.781
463.551
462.239
460.843
459.4
458.001
456.73
455.585
454.589
453.593
452.52
451.418
450.375
449.417