/*--------------------------------*- C++ -*----------------------------------*\
| =========                 |                                                 |
| \\      /  F ield         | OpenFOAM: The Open Source CFD Toolbox           |
|  \\    /   O peration     | Version:  v1706                                 |
|   \\  /    A nd           | Web:      www.OpenFOAM.com                      |
|    \\/     M anipulation  |                                                 |
\*---------------------------------------------------------------------------*/
FoamFile
{
    version     2.0;
    format      ascii;
    class       volVectorField;
    location    "3.2e-05";
    object      U;
}
// * * * * * * * * * * * * * * * * * * * * * * * * * * * * * * * * * * * * * //

dimensions      [0 1 -1 0 0 0 0];


internalField   nonuniform List<vector> 
30104
(
(1760 -6.51218e-11 2.56173e-15)
(1760 -6.46387e-11 4.93823e-15)
(1760 -6.45223e-11 4.8185e-15)
(1760 -6.49848e-11 3.16084e-15)
(1760 -6.55624e-11 4.54464e-15)
(1760 -6.6065e-11 3.55698e-15)
(1760 -6.61949e-11 8.8587e-16)
(1760 -6.63169e-11 9.61163e-16)
(1760 -6.68067e-11 3.51676e-15)
(1760 -6.77534e-11 6.85991e-15)
(1760 -6.79298e-11 4.95002e-15)
(1760 -6.77058e-11 4.02347e-15)
(1760 -6.74178e-11 1.04862e-15)
(1760 -6.66875e-11 2.66036e-15)
(1760 -6.60014e-11 4.75487e-15)
(1760 -6.59094e-11 4.98908e-15)
(1760 -6.58279e-11 4.64015e-15)
(1760 -2.38705e-10 2.06899e-15)
(1760 -2.61608e-10 3.41084e-15)
(1760 -2.87278e-10 3.12473e-15)
(1760 -3.15938e-10 2.91272e-15)
(1760 -3.46332e-10 2.80591e-15)
(1760 -3.14844e-10 2.54461e-15)
(1760 -2.51221e-10 2.75938e-15)
(1760 -1.80813e-10 4.23501e-15)
(1760 -6.46592e-11 4.38629e-15)
(1760 2.27909e-10 3.29821e-15)
(1760 4.0609e-10 3.9837e-15)
(1760 4.69995e-10 3.73798e-15)
(1760 5.35712e-10 5.97304e-15)
(1760 6.10095e-10 5.51796e-15)
(1760 6.95158e-10 1.79037e-15)
(1760 7.77342e-10 3.09279e-15)
(1760 8.75391e-10 3.60562e-15)
(1760 9.90029e-10 3.54034e-15)
(1760 1.12004e-09 5.75283e-15)
(1760 1.2616e-09 3.54095e-15)
(1760 1.38102e-09 5.4204e-15)
(1760 1.47401e-09 6.16876e-15)
(1760 1.57097e-09 3.73338e-15)
(1760 1.67146e-09 4.01172e-15)
(1760 1.78371e-09 3.94703e-15)
(1760 1.90445e-09 4.13073e-15)
(1760 2.04144e-09 3.96102e-15)
(1760 2.17942e-09 4.13563e-15)
(1760 2.33088e-09 3.88578e-15)
(1760 2.49071e-09 4.40147e-15)
(1760 2.66258e-09 2.50601e-15)
(1760 2.84741e-09 4.66985e-15)
(1760 3.04419e-09 5.52721e-15)
(1760 3.24876e-09 3.92404e-15)
(1760 3.44933e-09 2.69749e-15)
(1760 3.65545e-09 2.70824e-15)
(1760 3.8529e-09 5.3126e-15)
(1760 4.03406e-09 2.74997e-15)
(1760 4.20886e-09 3.58269e-15)
(1760 4.3803e-09 4.70893e-15)
(1760 4.55111e-09 3.0802e-15)
(1760 4.72807e-09 4.08282e-15)
(1760 4.90753e-09 3.90719e-15)
(1760 5.08624e-09 4.95143e-15)
(1760 5.25918e-09 5.36908e-15)
(1760 5.42433e-09 3.93656e-15)
(1760 5.58046e-09 3.83004e-15)
(1760 5.72519e-09 3.50052e-15)
(1760 5.86958e-09 3.81491e-15)
(1760 6.01438e-09 2.4621e-15)
(1760 6.17119e-09 4.84755e-15)
(1760 6.34191e-09 3.3498e-15)
(1760 6.52756e-09 2.25397e-15)
(1760 6.7355e-09 3.23473e-15)
(1760 6.97993e-09 3.72503e-15)
(1760 7.26272e-09 1.46479e-15)
(1760 7.59718e-09 3.53943e-15)
(1760 7.97206e-09 3.53329e-15)
(1760 8.37023e-09 3.00384e-15)
(1760 8.77635e-09 2.69096e-15)
(1760 9.15506e-09 2.38472e-15)
(1760 9.49399e-09 4.2643e-15)
(1760 9.7829e-09 3.85213e-15)
(1760 1.00169e-08 3.29243e-15)
(1760 1.02024e-08 5.19999e-15)
(1760 1.03432e-08 4.19168e-15)
(1760 1.04307e-08 3.80075e-15)
(1760 1.04807e-08 4.32216e-15)
(1760 1.05299e-08 3.37307e-15)
(1760 1.05354e-08 3.96539e-15)
(1760 1.05088e-08 4.17689e-15)
(1760 1.04573e-08 2.45892e-15)
(1760 1.03806e-08 4.5636e-15)
(1760 1.02558e-08 8.50852e-16)
(1760 1.00974e-08 4.17124e-15)
(1760 9.91389e-09 4.46306e-15)
(1760 9.69535e-09 4.45312e-15)
(1760 9.43837e-09 1.64871e-15)
(1760 9.14672e-09 -3.41813e-16)
(1760 8.83869e-09 3.58759e-15)
(1760 8.49684e-09 1.45701e-15)
(1760 8.14099e-09 2.84477e-15)
(1760 7.75145e-09 2.07519e-15)
(1760 7.34935e-09 9.89658e-16)
(1760 6.93284e-09 4.64035e-15)
(1760 6.48675e-09 5.01704e-15)
(1760 6.03877e-09 4.12371e-15)
(1760 5.60643e-09 2.35216e-15)
(1760 5.16674e-09 2.86247e-15)
(1760 4.73431e-09 4.10061e-15)
(1760 4.31141e-09 3.84524e-15)
(1760 3.89288e-09 4.04088e-15)
(1760 3.50219e-09 4.9397e-15)
(1760 3.11515e-09 4.21397e-15)
(1760 2.75542e-09 9.6264e-16)
(1760 2.42331e-09 3.80398e-15)
(1760 2.12776e-09 1.82325e-15)
(1760 1.89913e-09 1.96147e-16)
(1760 1.70836e-09 3.54577e-15)
(1760 1.55142e-09 3.07229e-15)
(1760 1.42704e-09 3.25858e-15)
(1760 1.35392e-09 3.39089e-15)
(1760 1.23184e-09 2.66109e-15)
(1760 1.06854e-09 2.97216e-15)
(1760 9.11784e-10 2.61061e-15)
(1760 7.66744e-10 3.69858e-15)
(1760 6.4492e-10 2.29166e-15)
(1760 5.1088e-10 1.371e-15)
(1760 4.07692e-10 4.26195e-15)
(1760 3.22808e-10 4.33233e-15)
(1760 1.56936e-10 3.72205e-15)
(1760 -8.87444e-11 2.81043e-15)
(1760 -3.12638e-10 2.83854e-15)
(1760 -4.34565e-10 1.60804e-15)
(1760 -4.59671e-10 8.87277e-18)
(1760 -4.4584e-10 6.05101e-16)
(1760 -4.1268e-10 9.75767e-16)
(1760 -3.55533e-10 9.13204e-16)
(1760 -2.62057e-10 1.22173e-15)
(1760 -1.73536e-10 6.0752e-16)
(1760 -7.21372e-11 1.62963e-15)
(1760 7.58524e-11 -1.7853e-18)
(1760 1.63833e-10 2.39998e-15)
(1760 1.85796e-10 2.84535e-15)
(1760 1.79066e-10 3.11209e-16)
(1760 1.44204e-10 -1.35791e-16)
(1760 8.58667e-11 9.38771e-16)
(1760 2.98057e-11 1.1447e-15)
(1760 -4.85427e-11 2.14287e-15)
(1760 -1.17712e-10 1.43653e-15)
(1760 -1.6562e-10 1.35954e-15)
(1760 -1.86174e-10 1.98777e-15)
(1760 -1.85881e-10 1.05971e-15)
(1760 -1.67138e-10 1.72611e-15)
(1760 -1.31336e-10 2.19151e-16)
(1760 -8.76535e-11 1.57733e-15)
(1760 -3.88401e-11 -9.59705e-17)
(1760 9.09576e-12 1.49296e-15)
(1760 2.70742e-11 1.56924e-15)
(1760 2.34608e-11 7.49155e-16)
(1760 1.29898e-11 2.19725e-15)
(1760 -5.99031e-12 3.06507e-15)
(1760 -2.66344e-11 2.10336e-15)
(1760 -5.29672e-11 2.41911e-15)
(1760 -8.44255e-11 9.43454e-16)
(1760 -1.07952e-10 1.3338e-15)
(1760 -1.20906e-10 3.21571e-15)
(1760 -1.18035e-10 2.38043e-15)
(1760 -1.11806e-10 8.81635e-16)
(1760 -1.04441e-10 2.29345e-16)
(1760 -9.66903e-11 2.531e-15)
(1760 -9.04644e-11 8.11423e-16)
(1760 -8.1269e-11 1.66211e-15)
(1760 -6.76613e-11 1.23684e-15)
(1760 -5.07477e-11 1.63739e-15)
(1760 -3.64288e-11 1.99298e-15)
(1760 -2.23516e-11 1.19899e-15)
(1760 -1.19179e-11 1.94984e-15)
(1760 -3.89839e-12 1.32442e-15)
(1760 2.92969e-12 8.42168e-16)
(1760 3.78921e-12 3.0069e-16)
(1760 1.34876e-14 2.19051e-15)
(1760 -1.88313e-12 3.35968e-16)
(1760 -5.5535e-12 1.47976e-15)
(1760 -1.41242e-11 1.33127e-15)
(1760 -2.07857e-11 1.69648e-15)
(1760 -2.96728e-11 2.83497e-15)
(1760 -3.69612e-11 1.46221e-15)
(1760 -4.06749e-11 8.77804e-16)
(1760 -4.70586e-11 4.496e-16)
(1760 -4.772e-11 1.52389e-15)
(1760 -4.67357e-11 1.59622e-15)
(1760 -4.87935e-11 1.60014e-15)
(1760 -5.31209e-11 1.08486e-15)
(1760 -5.75889e-11 4.97493e-16)
(1760 -6.12927e-11 7.6606e-16)
(1760 -6.15816e-11 1.34049e-15)
(1760 -5.92258e-11 1.44103e-15)
(1760 -5.48144e-11 6.48405e-16)
(1760 -5.04621e-11 1.37565e-15)
(1760 -4.51064e-11 -7.1682e-19)
(1760 -4.50451e-11 8.31936e-16)
(1760 -4.31642e-11 1.63994e-15)
(1760 -4.26231e-11 6.58122e-16)
(1760 -3.80586e-11 1.65847e-15)
(1760 -3.61736e-11 1.66078e-15)
(1760 -3.43487e-11 9.38312e-16)
(1760 -3.4143e-11 1.40766e-15)
(1760 -3.51188e-11 1.52898e-15)
(1760 -3.80632e-11 1.18732e-15)
(1760 -4.13744e-11 1.11496e-15)
(1760 -4.65082e-11 1.17992e-15)
(1760 -5.60538e-11 1.09755e-15)
(1760 -1.97023e-10 1.26785e-14)
(1760 -1.97327e-10 1.31033e-14)
(1760 -1.96762e-10 1.10993e-14)
(1760 -1.95869e-10 1.1082e-14)
(1760 -1.95058e-10 1.20508e-14)
(1760 -1.93805e-10 1.13102e-14)
(1760 -1.94859e-10 9.00393e-15)
(1760 -1.93979e-10 1.19619e-14)
(1760 -1.93288e-10 1.40078e-14)
(1760 -1.91672e-10 1.153e-14)
(1760 -1.91731e-10 1.10919e-14)
(1760 -1.91946e-10 1.3139e-14)
(1760 -1.92326e-10 1.6795e-14)
(1760 -1.93741e-10 1.55162e-14)
(1760 -1.93629e-10 1.44904e-14)
(1760 -1.92458e-10 1.43477e-14)
(1760 -1.9282e-10 1.22874e-14)
(1760 1.28878e-09 7.35322e-15)
(1760 1.46358e-09 1.01902e-14)
(1760 1.66405e-09 1.22968e-14)
(1760 1.85711e-09 1.20899e-14)
(1760 2.016e-09 1.13794e-14)
(1760 2.16727e-09 1.1576e-14)
(1760 2.32483e-09 9.00304e-15)
(1760 2.51248e-09 1.13511e-14)
(1760 2.58673e-09 1.12915e-14)
(1760 2.68442e-09 8.08803e-15)
(1760 2.94607e-09 7.44104e-15)
(1760 3.26358e-09 8.77947e-15)
(1760 3.6279e-09 9.46876e-15)
(1760 4.04206e-09 8.96012e-15)
(1760 4.5103e-09 6.63068e-15)
(1760 5.0305e-09 7.08276e-15)
(1760 5.60229e-09 7.49151e-15)
(1760 6.25451e-09 8.34214e-15)
(1760 6.98221e-09 1.14316e-14)
(1760 7.77992e-09 9.68379e-15)
(1760 8.66795e-09 1.01545e-14)
(1760 9.67431e-09 1.04572e-14)
(1760 1.07601e-08 9.68637e-15)
(1760 1.19133e-08 9.39316e-15)
(1760 1.31352e-08 9.05303e-15)
(1760 1.44219e-08 8.87565e-15)
(1760 1.57685e-08 8.86951e-15)
(1760 1.72e-08 8.90482e-15)
(1760 1.87322e-08 8.45316e-15)
(1760 2.03787e-08 9.29432e-15)
(1760 2.21662e-08 7.66807e-15)
(1760 2.41393e-08 1.00919e-14)
(1760 2.63355e-08 9.63202e-15)
(1760 2.87933e-08 8.94766e-15)
(1760 3.15433e-08 6.65069e-15)
(1760 3.46205e-08 8.87714e-15)
(1760 3.80009e-08 1.02515e-14)
(1760 4.1609e-08 7.51709e-15)
(1760 4.53332e-08 7.94465e-15)
(1760 4.90746e-08 1.04629e-14)
(1760 5.27241e-08 9.55866e-15)
(1760 5.6198e-08 1.10935e-14)
(1760 5.94485e-08 8.62596e-15)
(1760 6.24451e-08 8.74987e-15)
(1760 6.51744e-08 1.1647e-14)
(1760 6.7623e-08 9.52706e-15)
(1760 6.98055e-08 6.90277e-15)
(1760 7.1745e-08 7.13671e-15)
(1760 7.34977e-08 9.91044e-15)
(1760 7.51237e-08 7.33791e-15)
(1760 7.67005e-08 8.91799e-15)
(1760 7.83368e-08 9.17284e-15)
(1760 8.01469e-08 8.62279e-15)
(1760 8.22349e-08 8.69736e-15)
(1760 8.46177e-08 6.4224e-15)
(1760 8.71418e-08 6.95902e-15)
(1760 8.95658e-08 8.85274e-15)
(1760 9.16893e-08 8.47054e-15)
(1760 9.3444e-08 1.0293e-14)
(1760 9.48989e-08 8.44517e-15)
(1760 9.61569e-08 6.91388e-15)
(1760 9.72763e-08 7.62816e-15)
(1760 9.82755e-08 7.86564e-15)
(1760 9.91533e-08 7.94945e-15)
(1760 9.98719e-08 9.84298e-15)
(1760 1.00396e-07 9.10942e-15)
(1760 1.0071e-07 6.98457e-15)
(1760 1.00734e-07 7.38297e-15)
(1760 1.00579e-07 8.21094e-15)
(1760 1.00485e-07 7.49351e-15)
(1760 1.00119e-07 8.68204e-15)
(1760 9.93571e-08 6.30614e-15)
(1760 9.83233e-08 8.22181e-15)
(1760 9.69787e-08 6.21402e-15)
(1760 9.53438e-08 1.067e-14)
(1760 9.34187e-08 8.39118e-15)
(1760 9.11788e-08 6.98275e-15)
(1760 8.86327e-08 6.26453e-15)
(1760 8.57813e-08 5.76134e-15)
(1760 8.26274e-08 6.36778e-15)
(1760 7.91795e-08 3.89261e-15)
(1760 7.54715e-08 4.9945e-15)
(1760 7.15352e-08 6.46366e-15)
(1760 6.73765e-08 7.78529e-15)
(1760 6.30631e-08 8.20661e-15)
(1760 5.86504e-08 7.99267e-15)
(1760 5.42e-08 6.86183e-15)
(1760 4.97895e-08 6.11174e-15)
(1760 4.54765e-08 7.67781e-15)
(1760 4.13448e-08 7.88784e-15)
(1760 3.74769e-08 8.59185e-15)
(1760 3.38929e-08 8.48472e-15)
(1760 3.06466e-08 7.36035e-15)
(1760 2.77206e-08 7.20274e-15)
(1760 2.50736e-08 3.30203e-15)
(1760 2.2619e-08 6.78957e-15)
(1760 2.03105e-08 4.23837e-15)
(1760 1.80953e-08 4.6638e-15)
(1760 1.59959e-08 8.04888e-15)
(1760 1.39909e-08 5.35017e-15)
(1760 1.21329e-08 6.61822e-15)
(1760 1.04205e-08 5.33621e-15)
(1760 8.93043e-09 5.37927e-15)
(1760 7.61607e-09 7.03726e-15)
(1760 6.43012e-09 7.33226e-15)
(1760 5.38419e-09 6.68767e-15)
(1760 4.49985e-09 5.07888e-15)
(1760 3.673e-09 6.77938e-15)
(1760 3.04203e-09 6.46571e-15)
(1760 2.37013e-09 6.22094e-15)
(1760 1.86148e-09 8.89218e-15)
(1760 2.03878e-09 1.14014e-14)
(1760 1.80481e-09 6.97826e-15)
(1760 1.46953e-09 7.51833e-15)
(1760 1.17671e-09 8.11834e-15)
(1760 9.11342e-10 5.63512e-15)
(1760 6.89169e-10 9.0684e-15)
(1760 5.07909e-10 9.86505e-15)
(1760 1.89503e-10 7.35378e-15)
(1760 -7.81135e-11 7.77162e-15)
(1760 -4.88355e-10 4.57536e-15)
(1760 -6.97186e-10 2.18768e-15)
(1760 -7.36277e-10 6.50864e-15)
(1760 -7.09032e-10 5.32977e-15)
(1760 -6.49332e-10 3.4308e-15)
(1760 -5.15291e-10 2.68546e-15)
(1760 -3.75781e-10 2.71753e-15)
(1760 -1.81602e-10 2.12369e-15)
(1760 3.06494e-11 2.98966e-15)
(1760 1.34643e-10 3.36719e-15)
(1760 1.8004e-10 7.12027e-15)
(1760 1.56183e-10 3.79457e-15)
(1760 9.30771e-11 4.11744e-15)
(1760 -5.14529e-12 5.02068e-15)
(1760 -1.31577e-10 5.50391e-15)
(1760 -2.41929e-10 6.70206e-15)
(1760 -3.20981e-10 5.10444e-15)
(1760 -3.69549e-10 4.22906e-15)
(1760 -3.77894e-10 3.67072e-15)
(1760 -3.50234e-10 5.46251e-15)
(1760 -3.08871e-10 5.81862e-15)
(1760 -2.65713e-10 5.91286e-15)
(1760 -2.01272e-10 5.76845e-15)
(1760 -1.24303e-10 5.21072e-15)
(1760 -6.69409e-11 5.59765e-15)
(1760 -4.50106e-11 6.08251e-15)
(1760 -3.72895e-11 4.12086e-15)
(1760 -5.29076e-11 6.08151e-15)
(1760 -6.71762e-11 4.86669e-15)
(1760 -8.2891e-11 3.90388e-15)
(1760 -9.7103e-11 4.73958e-15)
(1760 -1.14603e-10 4.99143e-15)
(1760 -1.41538e-10 6.07204e-15)
(1760 -1.70419e-10 7.24905e-15)
(1760 -2.01482e-10 6.07218e-15)
(1760 -2.32199e-10 7.77004e-15)
(1760 -2.4627e-10 5.46437e-15)
(1760 -2.54881e-10 6.45275e-15)
(1760 -2.65841e-10 6.4653e-15)
(1760 -2.66495e-10 3.79579e-15)
(1760 -2.60945e-10 4.90784e-15)
(1760 -2.48602e-10 3.73652e-15)
(1760 -2.45196e-10 4.25879e-15)
(1760 -2.39004e-10 4.84884e-15)
(1760 -2.28001e-10 3.59367e-15)
(1760 -2.14202e-10 3.74453e-15)
(1760 -2.04777e-10 5.29501e-15)
(1760 -2.04854e-10 6.31598e-15)
(1760 -2.07867e-10 4.79029e-15)
(1760 -2.02468e-10 5.06701e-15)
(1760 -2.0265e-10 4.01362e-15)
(1760 -2.0008e-10 2.43785e-15)
(1760 -1.93319e-10 3.70729e-15)
(1760 -1.80847e-10 4.7987e-15)
(1760 -1.70212e-10 3.80295e-15)
(1760 -1.6579e-10 4.53859e-15)
(1760 -1.67268e-10 4.15638e-15)
(1760 -1.64645e-10 3.9467e-15)
(1760 -1.65076e-10 3.70347e-15)
(1760 -1.70936e-10 4.47285e-15)
(1760 -1.76285e-10 4.04942e-15)
(1760 -1.82618e-10 4.66029e-15)
(1760 -1.9569e-10 4.57474e-15)
(1760 -2.02004e-10 4.82469e-15)
(1760 -2.1313e-10 3.62328e-15)
(1760 -2.18008e-10 3.16919e-15)
(1760 -2.22615e-10 4.47364e-15)
(1760 -2.29793e-10 5.11095e-15)
(1760 -2.3144e-10 5.99617e-15)
(1760 -2.30928e-10 6.48476e-15)
(1760 -2.3006e-10 6.2613e-15)
(1760 -2.22747e-10 5.3678e-15)
(1760 -1.99631e-10 4.24765e-15)
(1760 -3.29866e-10 1.82591e-14)
(1760 -3.30384e-10 2.14176e-14)
(1760 -3.31105e-10 2.0574e-14)
(1760 -3.31288e-10 2.10028e-14)
(1760 -3.30612e-10 2.30516e-14)
(1760 -3.29749e-10 2.13165e-14)
(1760 -3.29403e-10 2.03937e-14)
(1760 -3.29985e-10 2.04622e-14)
(1760 -3.31032e-10 2.02442e-14)
(1760 -3.31214e-10 1.83333e-14)
(1760 -3.30623e-10 2.18889e-14)
(1760 -3.29635e-10 2.21145e-14)
(1760 -3.2864e-10 1.8736e-14)
(1760 -3.27898e-10 1.87263e-14)
(1760 -3.27097e-10 2.15481e-14)
(1760 -3.24587e-10 2.08888e-14)
(1760 6.01179e-09 1.49459e-14)
(1760 6.72539e-09 1.58042e-14)
(1760 7.54537e-09 1.60128e-14)
(1760 8.42113e-09 1.64831e-14)
(1760 9.42205e-09 1.63439e-14)
(1760 1.05894e-08 1.60283e-14)
(1760 1.19278e-08 1.45769e-14)
(1760 1.33054e-08 1.76392e-14)
(1760 1.47332e-08 1.49543e-14)
(1760 1.64255e-08 1.4792e-14)
(1760 1.84068e-08 1.5682e-14)
(1760 2.06259e-08 1.46776e-14)
(1760 2.30625e-08 1.56447e-14)
(1760 2.57166e-08 1.50573e-14)
(1760 2.86111e-08 1.20679e-14)
(1760 3.17788e-08 1.2746e-14)
(1760 3.52964e-08 1.23558e-14)
(1760 3.92788e-08 1.42444e-14)
(1760 4.3818e-08 1.50393e-14)
(1760 4.90116e-08 1.21339e-14)
(1760 5.50206e-08 1.44128e-14)
(1760 6.19922e-08 1.49167e-14)
(1760 7.00432e-08 1.39494e-14)
(1760 7.92102e-08 1.39497e-14)
(1760 8.94538e-08 1.41383e-14)
(1760 1.00634e-07 1.34241e-14)
(1760 1.12563e-07 1.37291e-14)
(1760 1.25065e-07 1.32048e-14)
(1760 1.38047e-07 1.27848e-14)
(1760 1.51568e-07 1.42823e-14)
(1760 1.65839e-07 1.26802e-14)
(1760 1.81125e-07 1.36504e-14)
(1760 1.97528e-07 1.34766e-14)
(1760 2.14912e-07 1.34375e-14)
(1760 2.32971e-07 1.28477e-14)
(1760 2.51397e-07 1.57669e-14)
(1760 2.7005e-07 1.15462e-14)
(1760 2.88985e-07 1.28787e-14)
(1760 3.08277e-07 1.38982e-14)
(1760 3.27919e-07 1.3589e-14)
(1760 3.47737e-07 1.38298e-14)
(1760 3.67414e-07 1.60402e-14)
(1760 3.86576e-07 1.21361e-14)
(1760 4.04893e-07 1.3702e-14)
(1760 4.22111e-07 1.30686e-14)
(1760 4.38083e-07 1.33204e-14)
(1760 4.52819e-07 1.47405e-14)
(1760 4.66421e-07 1.45763e-14)
(1760 4.7912e-07 1.37612e-14)
(1760 4.91339e-07 1.21788e-14)
(1760 5.0371e-07 1.18131e-14)
(1760 5.16993e-07 1.25603e-14)
(1760 5.31926e-07 1.20178e-14)
(1760 5.49138e-07 1.128e-14)
(1760 5.69129e-07 1.26795e-14)
(1760 5.92332e-07 1.49422e-14)
(1760 6.18877e-07 1.2235e-14)
(1760 6.48028e-07 1.26324e-14)
(1760 6.78104e-07 1.39459e-14)
(1760 7.07259e-07 1.3422e-14)
(1760 7.34156e-07 1.30469e-14)
(1760 7.58045e-07 1.25827e-14)
(1760 7.78582e-07 1.33215e-14)
(1760 7.95756e-07 1.32526e-14)
(1760 8.09737e-07 1.10036e-14)
(1760 8.20679e-07 1.08411e-14)
(1760 8.28921e-07 1.34623e-14)
(1760 8.3384e-07 1.23046e-14)
(1760 8.36245e-07 1.24555e-14)
(1760 8.37468e-07 1.3277e-14)
(1760 8.37944e-07 1.25046e-14)
(1760 8.34815e-07 9.94216e-15)
(1760 8.28897e-07 1.34513e-14)
(1760 8.20328e-07 1.30777e-14)
(1760 8.09145e-07 1.14348e-14)
(1760 7.9519e-07 1.038e-14)
(1760 7.78354e-07 1.28719e-14)
(1760 7.58658e-07 1.20535e-14)
(1760 7.36211e-07 1.08674e-14)
(1760 7.11139e-07 9.72195e-15)
(1760 6.83581e-07 1.03454e-14)
(1760 6.53673e-07 1.15839e-14)
(1760 6.2154e-07 1.27061e-14)
(1760 5.8741e-07 1.16285e-14)
(1760 5.51601e-07 1.11555e-14)
(1760 5.14528e-07 1.19019e-14)
(1760 4.7668e-07 1.07425e-14)
(1760 4.3849e-07 1.04808e-14)
(1760 4.00372e-07 9.61572e-15)
(1760 3.62683e-07 1.05342e-14)
(1760 3.25705e-07 1.29928e-14)
(1760 2.8966e-07 1.1857e-14)
(1760 2.54931e-07 9.82934e-15)
(1760 2.22146e-07 1.17093e-14)
(1760 1.91958e-07 8.88619e-15)
(1760 1.64945e-07 9.82586e-15)
(1760 1.4135e-07 8.86069e-15)
(1760 1.20993e-07 1.10239e-14)
(1760 1.03494e-07 1.00073e-14)
(1760 8.83433e-08 9.29346e-15)
(1760 7.50892e-08 9.60612e-15)
(1760 6.34133e-08 1.0332e-14)
(1760 5.3242e-08 8.75266e-15)
(1760 4.45103e-08 1.13496e-14)
(1760 3.70867e-08 1.16574e-14)
(1760 3.09674e-08 8.90179e-15)
(1760 2.59834e-08 8.22825e-15)
(1760 2.19161e-08 1.1827e-14)
(1760 1.8708e-08 1.00717e-14)
(1760 1.55514e-08 1.18733e-14)
(1760 1.29295e-08 1.13458e-14)
(1760 1.08671e-08 1.24894e-14)
(1760 8.97775e-09 1.01231e-14)
(1760 7.29223e-09 1.07983e-14)
(1760 5.84721e-09 1.12493e-14)
(1760 4.55405e-09 1.03099e-14)
(1760 3.59166e-09 1.07992e-14)
(1760 2.69616e-09 1.19814e-14)
(1760 1.8722e-09 1.00684e-14)
(1760 1.92246e-09 1.22151e-14)
(1760 1.55091e-09 1.2481e-14)
(1760 1.1031e-09 1.10186e-14)
(1760 7.76982e-10 1.16606e-14)
(1760 5.05013e-10 1.14222e-14)
(1760 3.0416e-10 1.07378e-14)
(1760 -4.56497e-11 9.48937e-15)
(1760 -3.07738e-10 8.03595e-15)
(1760 -6.72996e-10 1.05821e-14)
(1760 -8.09532e-10 4.71712e-15)
(1760 -7.96048e-10 4.4581e-15)
(1760 -7.29285e-10 5.61291e-15)
(1760 -6.03436e-10 5.31612e-15)
(1760 -4.32126e-10 8.71773e-15)
(1760 -2.74395e-10 8.39837e-15)
(1760 -9.13813e-11 7.85033e-15)
(1760 2.17375e-11 8.79518e-15)
(1760 2.9098e-11 8.91711e-15)
(1760 -6.14295e-12 9.13652e-15)
(1760 -5.07787e-11 1.06266e-14)
(1760 -1.23492e-10 9.53364e-15)
(1760 -1.86828e-10 8.91372e-15)
(1760 -2.74323e-10 9.0265e-15)
(1760 -3.82791e-10 9.443e-15)
(1760 -4.47564e-10 9.15209e-15)
(1760 -4.60976e-10 8.07178e-15)
(1760 -4.41266e-10 7.34965e-15)
(1760 -4.23241e-10 7.71003e-15)
(1760 -4.03605e-10 9.17427e-15)
(1760 -3.70029e-10 8.209e-15)
(1760 -3.43034e-10 7.53157e-15)
(1760 -3.12093e-10 8.14758e-15)
(1760 -2.6345e-10 7.52246e-15)
(1760 -2.18083e-10 8.287e-15)
(1760 -1.82263e-10 7.19779e-15)
(1760 -1.42175e-10 6.64403e-15)
(1760 -1.34569e-10 8.65237e-15)
(1760 -1.37216e-10 9.6378e-15)
(1760 -1.38049e-10 9.42719e-15)
(1760 -1.43255e-10 8.42004e-15)
(1760 -1.55372e-10 8.66818e-15)
(1760 -1.67838e-10 8.26375e-15)
(1760 -1.78337e-10 6.76937e-15)
(1760 -1.86186e-10 4.98635e-15)
(1760 -1.97542e-10 5.82157e-15)
(1760 -2.04076e-10 6.89835e-15)
(1760 -2.12593e-10 7.73514e-15)
(1760 -2.10337e-10 6.71194e-15)
(1760 -2.03872e-10 6.83883e-15)
(1760 -2.06805e-10 9.61572e-15)
(1760 -2.10008e-10 8.63182e-15)
(1760 -2.21114e-10 6.07306e-15)
(1760 -2.37285e-10 8.06075e-15)
(1760 -2.59358e-10 8.88689e-15)
(1760 -2.73804e-10 7.20815e-15)
(1760 -2.86447e-10 5.33627e-15)
(1760 -2.93197e-10 6.05503e-15)
(1760 -2.94295e-10 6.56467e-15)
(1760 -2.99118e-10 6.66845e-15)
(1760 -2.85949e-10 5.35398e-15)
(1760 -2.63501e-10 4.3188e-15)
(1760 -2.42363e-10 4.93461e-15)
(1760 -2.1626e-10 5.45576e-15)
(1760 -1.99724e-10 5.90977e-15)
(1760 -1.9214e-10 7.40771e-15)
(1760 -1.8596e-10 5.6483e-15)
(1760 -1.83172e-10 8.47891e-15)
(1760 -1.7648e-10 6.98418e-15)
(1760 -1.68089e-10 6.34135e-15)
(1760 -1.6902e-10 7.69683e-15)
(1760 -1.71608e-10 6.19715e-15)
(1760 -1.78577e-10 5.92542e-15)
(1760 -1.8246e-10 6.99505e-15)
(1760 -1.85473e-10 7.01012e-15)
(1760 -4.64652e-10 2.82293e-14)
(1760 -4.60676e-10 2.64336e-14)
(1760 -4.57826e-10 2.59804e-14)
(1760 -4.55144e-10 2.96061e-14)
(1760 -4.53106e-10 2.79362e-14)
(1760 -4.49376e-10 2.48565e-14)
(1760 -4.47322e-10 2.67391e-14)
(1760 -4.45232e-10 2.65741e-14)
(1760 -4.43509e-10 2.51218e-14)
(1760 -4.43542e-10 2.64643e-14)
(1760 -4.45756e-10 3.12201e-14)
(1760 -4.49653e-10 2.91473e-14)
(1760 -4.54185e-10 2.77134e-14)
(1760 -4.60827e-10 2.60372e-14)
(1760 -4.67707e-10 2.6966e-14)
(1760 -4.73407e-10 2.64271e-14)
(1760 3.70929e-08 2.14298e-14)
(1760 4.15039e-08 2.03563e-14)
(1760 4.63199e-08 2.06929e-14)
(1760 5.15247e-08 2.02562e-14)
(1760 5.7259e-08 2.22243e-14)
(1760 6.37197e-08 2.24008e-14)
(1760 7.10238e-08 1.93212e-14)
(1760 7.92466e-08 2.01271e-14)
(1760 8.87049e-08 2.19435e-14)
(1760 9.9822e-08 2.17919e-14)
(1760 1.12886e-07 1.97464e-14)
(1760 1.28129e-07 2.02428e-14)
(1760 1.45787e-07 1.86291e-14)
(1760 1.6602e-07 1.92322e-14)
(1760 1.88812e-07 2.0356e-14)
(1760 2.14084e-07 1.86943e-14)
(1760 2.41913e-07 1.91696e-14)
(1760 2.72665e-07 1.81521e-14)
(1760 3.06842e-07 1.72311e-14)
(1760 3.44937e-07 1.94313e-14)
(1760 3.87194e-07 2.03982e-14)
(1760 4.33433e-07 2.14565e-14)
(1760 4.83321e-07 2.0392e-14)
(1760 5.36718e-07 1.90558e-14)
(1760 5.9374e-07 1.77785e-14)
(1760 6.54668e-07 1.79863e-14)
(1760 7.19935e-07 1.82927e-14)
(1760 7.90064e-07 1.76767e-14)
(1760 8.65578e-07 2.05577e-14)
(1760 9.47183e-07 1.89278e-14)
(1760 1.03619e-06 1.62333e-14)
(1760 1.13485e-06 1.92627e-14)
(1760 1.24615e-06 1.73574e-14)
(1760 1.37313e-06 1.78716e-14)
(1760 1.51755e-06 1.89184e-14)
(1760 1.6787e-06 1.92031e-14)
(1760 1.85319e-06 1.89381e-14)
(1760 2.03584e-06 1.99999e-14)
(1760 2.22109e-06 1.84614e-14)
(1760 2.40398e-06 1.65454e-14)
(1760 2.58054e-06 1.89206e-14)
(1760 2.74787e-06 1.7511e-14)
(1760 2.90403e-06 1.79185e-14)
(1760 3.04785e-06 1.88633e-14)
(1760 3.17887e-06 1.82898e-14)
(1760 3.29711e-06 1.83668e-14)
(1760 3.40294e-06 1.77827e-14)
(1760 3.49726e-06 1.72891e-14)
(1760 3.58182e-06 1.83074e-14)
(1760 3.6593e-06 1.51472e-14)
(1760 3.73357e-06 1.53118e-14)
(1760 3.81012e-06 1.80309e-14)
(1760 3.89577e-06 1.75992e-14)
(1760 3.99647e-06 1.703e-14)
(1760 4.11311e-06 1.79775e-14)
(1760 4.2383e-06 1.83004e-14)
(1760 4.35942e-06 1.63907e-14)
(1760 4.46689e-06 1.70612e-14)
(1760 4.55927e-06 1.79645e-14)
(1760 4.64052e-06 1.7705e-14)
(1760 4.71471e-06 1.81332e-14)
(1760 4.78341e-06 1.7188e-14)
(1760 4.84595e-06 1.61445e-14)
(1760 4.90083e-06 1.69327e-14)
(1760 4.94694e-06 1.4223e-14)
(1760 4.98364e-06 1.49311e-14)
(1760 5.00969e-06 1.78952e-14)
(1760 5.02437e-06 1.67239e-14)
(1760 5.02376e-06 1.69121e-14)
(1760 5.01565e-06 1.68788e-14)
(1760 5.01336e-06 1.67674e-14)
(1760 4.98698e-06 1.50467e-14)
(1760 4.9442e-06 1.60861e-14)
(1760 4.88592e-06 1.55828e-14)
(1760 4.81205e-06 1.66374e-14)
(1760 4.72311e-06 1.53273e-14)
(1760 4.6191e-06 1.62324e-14)
(1760 4.49923e-06 1.55971e-14)
(1760 4.36282e-06 1.6455e-14)
(1760 4.20972e-06 1.54939e-14)
(1760 4.04017e-06 1.76503e-14)
(1760 3.85495e-06 1.60946e-14)
(1760 3.65579e-06 1.57545e-14)
(1760 3.44521e-06 1.52106e-14)
(1760 3.22595e-06 1.64862e-14)
(1760 3.00086e-06 1.63285e-14)
(1760 2.77345e-06 1.48179e-14)
(1760 2.5481e-06 1.45907e-14)
(1760 2.32993e-06 1.31186e-14)
(1760 2.12396e-06 1.49256e-14)
(1760 1.93381e-06 1.68914e-14)
(1760 1.76074e-06 1.53448e-14)
(1760 1.6035e-06 1.4776e-14)
(1760 1.45878e-06 1.62749e-14)
(1760 1.32269e-06 1.39091e-14)
(1760 1.19253e-06 1.38862e-14)
(1760 1.06743e-06 1.29936e-14)
(1760 9.47834e-07 1.42057e-14)
(1760 8.34763e-07 1.49051e-14)
(1760 7.29231e-07 1.30822e-14)
(1760 6.31847e-07 1.41001e-14)
(1760 5.42804e-07 1.41407e-14)
(1760 4.62199e-07 1.33867e-14)
(1760 3.89803e-07 1.46181e-14)
(1760 3.24964e-07 1.39063e-14)
(1760 2.67094e-07 1.28428e-14)
(1760 2.15547e-07 1.38138e-14)
(1760 1.7075e-07 1.51378e-14)
(1760 1.33375e-07 1.35131e-14)
(1760 1.02998e-07 1.29383e-14)
(1760 7.94592e-08 1.33596e-14)
(1760 6.1699e-08 1.64395e-14)
(1760 4.82314e-08 1.32095e-14)
(1760 3.80665e-08 1.34788e-14)
(1760 3.03461e-08 1.42486e-14)
(1760 2.44105e-08 1.26259e-14)
(1760 2.0053e-08 1.30665e-14)
(1760 1.60959e-08 1.46093e-14)
(1760 1.28808e-08 1.42036e-14)
(1760 1.04211e-08 1.8137e-14)
(1760 8.17856e-09 1.60302e-14)
(1760 6.29276e-09 1.38111e-14)
(1760 4.69808e-09 1.488e-14)
(1760 3.51948e-09 1.56464e-14)
(1760 2.51243e-09 1.35817e-14)
(1760 1.60102e-09 1.38411e-14)
(1760 1.61582e-09 1.29355e-14)
(1760 1.28935e-09 1.37631e-14)
(1760 9.01573e-10 1.54492e-14)
(1760 5.60006e-10 1.38594e-14)
(1760 3.56669e-10 1.33032e-14)
(1760 4.74503e-11 1.24624e-14)
(1760 -1.58948e-10 1.19399e-14)
(1760 -5.13206e-10 1.14315e-14)
(1760 -7.93845e-10 1.05893e-14)
(1760 -8.70962e-10 9.80718e-15)
(1760 -8.56902e-10 1.09358e-14)
(1760 -8.06716e-10 1.1946e-14)
(1760 -6.8763e-10 1.06629e-14)
(1760 -5.66094e-10 1.03857e-14)
(1760 -4.48975e-10 9.20992e-15)
(1760 -2.34868e-10 1.01438e-14)
(1760 -1.32584e-10 1.1206e-14)
(1760 -1.19078e-10 1.06997e-14)
(1760 -1.22632e-10 1.09911e-14)
(1760 -1.30466e-10 1.24425e-14)
(1760 -1.56628e-10 1.15755e-14)
(1760 -1.96474e-10 1.14988e-14)
(1760 -2.38701e-10 1.18423e-14)
(1760 -3.04179e-10 1.07864e-14)
(1760 -3.75483e-10 1.29684e-14)
(1760 -4.35377e-10 1.01768e-14)
(1760 -4.82891e-10 1.02928e-14)
(1760 -5.18741e-10 8.97718e-15)
(1760 -5.53038e-10 9.67184e-15)
(1760 -5.55747e-10 9.39404e-15)
(1760 -5.53313e-10 1.05378e-14)
(1760 -5.51608e-10 1.1335e-14)
(1760 -5.43209e-10 1.11214e-14)
(1760 -5.36502e-10 1.10961e-14)
(1760 -5.29893e-10 1.21817e-14)
(1760 -5.22442e-10 1.25087e-14)
(1760 -5.15116e-10 1.14335e-14)
(1760 -5.06407e-10 9.57277e-15)
(1760 -4.91769e-10 1.05649e-14)
(1760 -4.85863e-10 1.1012e-14)
(1760 -4.80245e-10 9.66253e-15)
(1760 -4.69153e-10 9.48857e-15)
(1760 -4.5242e-10 9.48488e-15)
(1760 -4.39967e-10 8.41922e-15)
(1760 -4.15175e-10 1.1346e-14)
(1760 -3.79342e-10 9.35918e-15)
(1760 -3.55821e-10 1.00942e-14)
(1760 -3.45354e-10 1.16423e-14)
(1760 -3.36035e-10 1.12813e-14)
(1760 -3.44184e-10 9.38502e-15)
(1760 -3.57762e-10 1.11915e-14)
(1760 -3.91666e-10 1.01512e-14)
(1760 -4.18222e-10 9.32784e-15)
(1760 -4.41578e-10 9.14048e-15)
(1760 -4.58273e-10 9.10302e-15)
(1760 -4.72574e-10 9.29121e-15)
(1760 -4.83335e-10 8.78634e-15)
(1760 -4.86429e-10 9.94285e-15)
(1760 -4.95216e-10 9.34939e-15)
(1760 -5.05292e-10 9.23101e-15)
(1760 -5.1838e-10 8.62273e-15)
(1760 -5.18686e-10 8.42654e-15)
(1760 -5.19519e-10 8.78369e-15)
(1760 -5.1318e-10 9.7106e-15)
(1760 -5.13816e-10 9.71385e-15)
(1760 -5.18336e-10 8.97639e-15)
(1760 -5.08684e-10 8.58404e-15)
(1760 -6.11224e-10 3.37505e-14)
(1760 -6.15287e-10 3.50893e-14)
(1760 -6.19604e-10 3.85156e-14)
(1760 -6.23904e-10 4.17277e-14)
(1760 -6.26509e-10 3.64797e-14)
(1760 -6.28108e-10 3.61536e-14)
(1760 -6.26411e-10 3.72928e-14)
(1760 -6.22467e-10 3.70599e-14)
(1760 -6.17238e-10 3.67108e-14)
(1760 -6.06019e-10 3.97217e-14)
(1760 -5.90532e-10 3.97664e-14)
(1760 -5.7333e-10 3.49595e-14)
(1760 -5.60802e-10 3.62634e-14)
(1760 -5.41054e-10 3.197e-14)
(1760 -5.2424e-10 3.14675e-14)
(1760 2.20869e-07 2.77749e-14)
(1760 2.50386e-07 2.61552e-14)
(1760 2.8442e-07 2.54748e-14)
(1760 3.23092e-07 2.46805e-14)
(1760 3.66542e-07 2.7157e-14)
(1760 4.15076e-07 2.55381e-14)
(1760 4.69208e-07 2.46594e-14)
(1760 5.29833e-07 2.6461e-14)
(1760 5.98047e-07 2.66418e-14)
(1760 6.74612e-07 2.73138e-14)
(1760 7.59751e-07 2.57299e-14)
(1760 8.53405e-07 2.52264e-14)
(1760 9.55685e-07 2.66322e-14)
(1760 1.06756e-06 2.65564e-14)
(1760 1.19102e-06 2.41308e-14)
(1760 1.32879e-06 2.5467e-14)
(1760 1.48409e-06 2.6921e-14)
(1760 1.66079e-06 2.44029e-14)
(1760 1.86407e-06 2.56793e-14)
(1760 2.10076e-06 2.36247e-14)
(1760 2.37854e-06 2.2369e-14)
(1760 2.70452e-06 2.3587e-14)
(1760 3.08242e-06 2.30372e-14)
(1760 3.51033e-06 2.34455e-14)
(1760 3.98213e-06 2.30379e-14)
(1760 4.48914e-06 2.33503e-14)
(1760 5.02109e-06 2.38057e-14)
(1760 5.56993e-06 2.35026e-14)
(1760 6.13545e-06 2.44363e-14)
(1760 6.72696e-06 2.4104e-14)
(1760 7.35828e-06 2.34565e-14)
(1760 8.03895e-06 2.3054e-14)
(1760 8.76761e-06 2.30033e-14)
(1760 9.53299e-06 2.41497e-14)
(1760 1.03227e-05 2.37701e-14)
(1760 1.11325e-05 2.444e-14)
(1760 1.19669e-05 2.42956e-14)
(1760 1.28323e-05 2.45252e-14)
(1760 1.37283e-05 2.31342e-14)
(1760 1.46458e-05 2.14039e-14)
(1760 1.55683e-05 2.12475e-14)
(1760 1.64764e-05 2.22685e-14)
(1760 1.73524e-05 2.27308e-14)
(1760 1.81831e-05 2.19998e-14)
(1760 1.89606e-05 2.02862e-14)
(1760 1.96816e-05 2.13831e-14)
(1760 2.03482e-05 2.15677e-14)
(1760 2.09654e-05 2.19237e-14)
(1760 2.1541e-05 2.2422e-14)
(1760 2.20906e-05 2.07449e-14)
(1760 2.26405e-05 2.27052e-14)
(1760 2.32244e-05 2.24086e-14)
(1760 2.38777e-05 2.27113e-14)
(1760 2.46367e-05 2.02956e-14)
(1760 2.55414e-05 2.0996e-14)
(1760 2.66316e-05 2.21717e-14)
(1760 2.79156e-05 2.21772e-14)
(1760 2.93336e-05 2.35177e-14)
(1760 3.07818e-05 2.08035e-14)
(1760 3.21688e-05 1.83431e-14)
(1760 3.34381e-05 2.17495e-14)
(1760 3.45613e-05 2.35103e-14)
(1760 3.55282e-05 1.95344e-14)
(1760 3.63409e-05 2.05677e-14)
(1760 3.70114e-05 2.10854e-14)
(1760 3.75537e-05 2.09682e-14)
(1760 3.79761e-05 2.13602e-14)
(1760 3.82885e-05 2.10724e-14)
(1760 3.84605e-05 2.09722e-14)
(1760 3.85451e-05 2.09892e-14)
(1760 3.85979e-05 2.0425e-14)
(1760 3.85413e-05 2.11982e-14)
(1760 3.83488e-05 1.94476e-14)
(1760 3.80297e-05 2.30021e-14)
(1760 3.75777e-05 2.18557e-14)
(1760 3.69863e-05 1.84664e-14)
(1760 3.62551e-05 1.97448e-14)
(1760 3.53892e-05 1.98467e-14)
(1760 3.43925e-05 2.14767e-14)
(1760 3.3267e-05 1.99336e-14)
(1760 3.20151e-05 2.0476e-14)
(1760 3.064e-05 1.96927e-14)