/*--------------------------------*- C++ -*----------------------------------*\
| =========                 |                                                 |
| \\      /  F ield         | OpenFOAM: The Open Source CFD Toolbox           |
|  \\    /   O peration     | Version:  v1706                                 |
|   \\  /    A nd           | Web:      www.OpenFOAM.com                      |
|    \\/     M anipulation  |                                                 |
\*---------------------------------------------------------------------------*/
FoamFile
{
    version     2.0;
    format      ascii;
    class       volScalarField;
    location    "3.2e-05";
    object      wallHeatFlux;
}
// * * * * * * * * * * * * * * * * * * * * * * * * * * * * * * * * * * * * * //

dimensions      [1 0 -3 0 0 0 0];


internalField   uniform 0;

boundaryField
{
    cone
    {
        type            calculated;
        value           nonuniform List<scalar> 
119
(
12816.5
12140.9
11487.1
10863.5
10276.9
9732.31
9233.27
8781.73
8378.35
8022.73
7713.66
7449.33
7227.47
7045.39
6900.17
6788.96
6708.75
6656.72
6628.87
6620.4
6627.71
6648.43
6678.93
6714.41
6750.91
6784.73
6812.69
6831.71
6837.87
6828.4
6801.07
6754.14
6686.55
6597.66
6487.34
6356.01
6204.62
6034.61
5847.9
5646.81
5433.99
5212.31
4984.89
4754.95
4525.8
4300.72
4082.88
3875.3
3680.82
3502.12
3341.92
3201.56
3082.47
2986.01
2912.47
2861.66
2832.57
2823.11
2830.56
2852.51
2886.64
2928.02
2971.3
3010.91
3041.18
3057.69
3055.53
3030.66
2982.72
2913.74
2825.4
2722.69
2612
2500.51
2395.94
2306.1
2238.29
2198.93
2192.84
2224.42
2297.4
2413.91
2575.98
2785.66
3044.98
3356
3720.56
4139.75
4613.21
5138.38
5709.55
6316.27
6941.69
7561.91
8145.45
8651.94
9041
9264.33
9281.01
9061.01
8599.85
7929.16
7112.34
6238.87
5395.33
4642.71
4011.47
3506.4
3115.24
2817.24
2590.18
2413.23
2268.99
2142.8
2031.98
1951.35
1965.9
2063.49
2381.9
)
;
    }
    inlet
    {
        type            calculated;
        value           uniform 0;
    }
    rWedge
    {
        type            wedge;
    }
    lWedge
    {
        type            wedge;
    }
    outlet
    {
        type            calculated;
        value           uniform 0;
    }
    procBoundary0to1
    {
        type            processor;
        value           uniform 0;
    }
    procBoundary0to2
    {
        type            processor;
        value           uniform 0;
    }
}


// ************************************************************************* //
