/*--------------------------------*- C++ -*----------------------------------*\
| =========                 |                                                 |
| \\      /  F ield         | OpenFOAM: The Open Source CFD Toolbox           |
|  \\    /   O peration     | Version:  v1706                                 |
|   \\  /    A nd           | Web:      www.OpenFOAM.com                      |
|    \\/     M anipulation  |                                                 |
\*---------------------------------------------------------------------------*/
FoamFile
{
    version     2.0;
    format      ascii;
    class       volScalarField;
    location    "3.6e-05";
    object      kappatr;
}
// * * * * * * * * * * * * * * * * * * * * * * * * * * * * * * * * * * * * * //

dimensions      [1 1 -3 -1 0 0 0];


internalField   nonuniform List<scalar> 
29871
(
0.014593
0.014593
0.014593
0.014593
0.014593
0.014593
0.014593
0.014593
0.014593
0.014593
0.014593
0.014593
0.014593
0.014593
0.014593
0.014593
0.014593
0.014593
0.014593
0.014593
0.014593
0.014593
0.014593
0.014593
0.014593
0.014593
0.014593
0.014593
0.014593
0.014593
0.014593
0.014593
0.014593
0.014593
0.014593
0.014593
0.014593
0.014593
0.014593
0.014593
0.014593
0.014593
0.014593
0.014593
0.014593
0.014593
0.014593
0.014593
0.014593
0.014593
0.014593
0.014593
0.014593
0.014593
0.014593
0.014593
0.014593
0.014593
0.014593
0.014593
0.014593
0.014593
0.014593
0.014593
0.014593
0.014593
0.014593
0.014593
0.014593
0.014593
0.014593
0.014593
0.014593
0.014593
0.014593
0.014593
0.014593
0.014593
0.014593
0.014593
0.014593
0.014593
0.014593
0.014593
0.014593
0.014593
0.014593
0.014593
0.014593
0.014593
0.014593
0.014593
0.014593
0.014593
0.014593
0.014593
0.014593
0.014593
0.014593
0.014593
0.014593
0.014593
0.014593
0.014593
0.014593
0.014593
0.014593
0.014593
0.014593
0.014593
0.014593
0.014593
0.014593
0.014593
0.014593
0.014593
0.014593
0.014593
0.014593
0.014593
0.014593
0.014593
0.014593
0.014593
0.014593
0.014593
0.014593
0.014593
0.014593
0.014593
0.014593
0.014593
0.014593
0.014593
0.014593
0.014593
0.014593
0.014593
0.014593
0.014593
0.014593
0.014593
0.014593
0.014593
0.014593
0.014593
0.014593
0.014593
0.014593
0.014593
0.014593
0.014593
0.014593
0.014593
0.014593
0.014593
0.014593
0.014593
0.014593
0.014593
0.014593
0.014593
0.014593
0.014593
0.014593
0.014593
0.014593
0.014593
0.014593
0.014593
0.014593
0.014593
0.014593
0.014593
0.014593
0.014593
0.014593
0.014593
0.014593
0.014593
0.014593
0.014593
0.014593
0.014593
0.014593
0.014593
0.014593
0.014593
0.014593
0.014593
0.014593
0.014593
0.014593
0.014593
0.014593
0.014593
0.014593
0.014593
0.014593
0.014593
0.014593
0.014593
0.014593
0.014593
0.014593
0.014593
0.014593
0.014593
0.014593
0.014593
0.014593
0.014593
0.014593
0.014593
0.014593
0.014593
0.014593
0.014593
0.014593
0.014593
0.014593
0.014593
0.014593
0.014593
0.014593
0.014593
0.014593
0.014593
0.014593
0.014593
0.014593
0.014593
0.014593
0.014593
0.014593
0.014593
0.014593
0.014593
0.014593
0.014593
0.014593
0.014593
0.014593
0.014593
0.014593
0.014593
0.014593
0.014593
0.014593
0.014593
0.014593
0.014593
0.014593
0.014593
0.014593
0.014593
0.014593
0.014593
0.014593
0.014593
0.014593
0.014593
0.014593
0.014593
0.014593
0.014593
0.014593
0.014593
0.014593
0.014593
0.014593
0.014593
0.014593
0.014593
0.014593
0.014593
0.014593
0.014593
0.014593
0.014593
0.014593
0.014593
0.014593
0.014593
0.014593
0.014593
0.014593
0.014593
0.014593
0.014593
0.014593
0.014593
0.014593
0.014593
0.014593
0.014593
0.014593
0.014593
0.014593
0.014593
0.014593
0.014593
0.014593
0.014593
0.014593
0.014593
0.014593
0.014593
0.014593
0.014593
0.014593
0.014593
0.014593
0.014593
0.014593
0.014593
0.014593
0.014593
0.014593
0.014593
0.014593
0.014593
0.014593
0.014593
0.014593
0.014593
0.014593
0.014593
0.014593
0.014593
0.014593
0.014593
0.014593
0.014593
0.014593
0.014593
0.014593
0.014593
0.014593
0.014593
0.014593
0.014593
0.014593
0.014593
0.014593
0.014593
0.014593
0.014593
0.014593
0.014593
0.014593
0.014593
0.014593
0.014593
0.014593
0.014593
0.014593
0.014593
0.014593
0.014593
0.014593
0.014593
0.014593
0.014593
0.014593
0.014593
0.014593
0.014593
0.014593
0.014593
0.014593
0.014593
0.014593
0.014593
0.014593
0.014593
0.014593
0.014593
0.014593
0.014593
0.014593
0.014593
0.014593
0.014593
0.014593
0.014593
0.014593
0.014593
0.014593
0.014593
0.014593
0.014593
0.014593
0.014593
0.014593
0.014593
0.014593
0.014593
0.014593
0.014593
0.014593
0.014593
0.014593
0.014593
0.014593
0.014593
0.014593
0.014593
0.014593
0.014593
0.014593
0.014593
0.014593
0.014593
0.014593
0.014593
0.014593
0.014593
0.014593
0.014593
0.014593
0.014593
0.014593
0.014593
0.014593
0.014593
0.014593
0.014593
0.014593
0.014593
0.014593
0.014593
0.014593
0.014593
0.014593
0.014593
0.014593
0.014593
0.014593
0.014593
0.014593
0.014593
0.014593
0.014593
0.014593
0.014593
0.014593
0.014593
0.014593
0.014593
0.014593
0.014593
0.014593
0.014593
0.014593
0.014593
0.014593
0.014593
0.014593
0.014593
0.014593
0.014593
0.014593
0.014593
0.014593
0.014593
0.014593
0.014593
0.014593
0.014593
0.014593
0.014593
0.014593
0.014593
0.014593
0.014593
0.014593
0.014593
0.014593
0.014593
0.014593
0.014593
0.014593
0.014593
0.014593
0.014593
0.014593
0.014593
0.014593
0.014593
0.014593
0.014593
0.014593
0.014593
0.014593
0.014593
0.014593
0.014593
0.014593
0.014593
0.014593
0.014593
0.014593
0.014593
0.014593
0.014593
0.014593
0.014593
0.014593
0.014593
0.014593
0.014593
0.014593
0.014593
0.014593
0.014593
0.014593
0.014593
0.014593
0.014593
0.014593
0.014593
0.014593
0.014593
0.014593
0.014593
0.014593
0.014593
0.014593
0.014593
0.014593
0.014593
0.014593
0.014593
0.014593
0.014593
0.014593
0.014593
0.014593
0.014593
0.014593
0.014593
0.014593
0.014593
0.014593
0.014593
0.014593
0.014593
0.014593
0.014593
0.014593
0.014593
0.014593
0.014593
0.014593
0.014593
0.014593
0.014593
0.014593
0.014593
0.014593
0.014593
0.014593
0.014593
0.014593
0.014593
0.014593
0.014593
0.014593
0.014593
0.014593
0.014593
0.014593
0.014593
0.014593
0.014593
0.014593
0.014593
0.014593
0.014593
0.014593
0.014593
0.014593
0.014593
0.014593
0.014593
0.014593
0.014593
0.014593
0.014593
0.014593
0.014593
0.014593
0.014593
0.014593
0.014593
0.014593
0.014593
0.014593
0.014593
0.014593
0.014593
0.014593
0.014593
0.014593
0.014593
0.014593
0.014593
0.014593
0.014593
0.014593
0.014593
0.014593
0.014593
0.014593
0.014593
0.014593
0.014593
0.014593
0.014593
0.014593
0.014593
0.014593
0.014593
0.014593
0.014593
0.014593
0.014593
0.014593
0.014593
0.014593
0.014593
0.014593
0.014593
0.014593
0.014593
0.014593
0.014593
0.014593
0.014593
0.014593
0.014593
0.014593
0.014593
0.014593
0.014593
0.014593
0.014593
0.014593
0.014593
0.014593
0.014593
0.014593
0.014593
0.014593
0.014593
0.014593
0.014593
0.014593
0.014593
0.014593
0.014593
0.014593
0.014593
0.014593
0.014593
0.014593
0.014593
0.014593
0.014593
0.014593
0.014593
0.014593
0.014593
0.014593
0.014593
0.014593
0.014593
0.014593
0.014593
0.014593
0.014593
0.014593
0.014593
0.014593
0.014593
0.014593
0.014593
0.014593
0.014593
0.014593
0.014593
0.014593
0.014593
0.014593
0.014593
0.014593
0.014593
0.014593
0.014593
0.014593
0.014593
0.014593
0.014593
0.014593
0.014593
0.014593
0.014593
0.014593
0.014593
0.014593
0.014593
0.014593
0.014593
0.014593
0.014593
0.014593
0.014593
0.014593
0.014593
0.014593
0.014593
0.014593
0.014593
0.014593
0.014593
0.014593
0.014593
0.014593
0.014593
0.014593
0.014593
0.014593
0.014593
0.014593
0.014593
0.014593
0.014593
0.014593
0.014593
0.014593
0.014593
0.014593
0.014593
0.014593
0.014593
0.014593
0.014593
0.014593
0.014593
0.014593
0.014593
0.014593
0.014593
0.014593
0.014593
0.014593
0.014593
0.014593
0.014593
0.014593
0.014593
0.014593
0.014593
0.014593
0.014593
0.014593
0.014593
0.014593
0.014593
0.014593
0.014593
0.014593
0.014593
0.014593
0.014593
0.014593
0.014593
0.014593
0.014593
0.014593
0.014593
0.014593
0.014593
0.014593
0.014593
0.014593
0.014593
0.014593
0.014593
0.014593
0.014593
0.014593
0.014593
0.014593
0.014593
0.014593
0.014593
0.014593
0.014593
0.014593
0.014593
0.014593
0.014593
0.014593
0.014593
0.014593
0.014593
0.014593
0.014593
0.014593
0.014593
0.014593
0.014593
0.014593
0.014593
0.014593
0.014593
0.014593
0.014593
0.014593
0.014593
0.014593
0.014593
0.014593
0.014593
0.014593
0.014593
0.014593
0.014593
0.014593
0.014593
0.014593
0.014593
0.014593
0.014593
0.014593
0.014593
0.014593
0.014593
0.014593
0.014593
0.014593
0.014593
0.014593
0.014593
0.014593
0.014593
0.014593
0.014593
0.014593
0.014593
0.014593
0.014593
0.014593
0.014593
0.014593
0.014593
0.014593
0.014593
0.014593
0.014593
0.014593
0.014593
0.014593
0.014593
0.014593
0.014593
0.014593
0.014593
0.014593
0.014593
0.014593
0.014593
0.014593
0.014593
0.014593
0.014593
0.014593
0.014593
0.014593
0.014593
0.014593
0.014593
0.014593
0.014593
0.014593
0.014593
0.014593
0.014593
0.014593
0.014593
0.014593
0.014593
0.014593
0.014593
0.014593
0.014593
0.014593
0.014593
0.014593
0.014593
0.014593
0.014593
0.014593
0.014593
0.014593
0.014593
0.014593
0.014593
0.014593
0.014593
0.014593
0.014593
0.014593
0.014593
0.014593
0.014593
0.014593
0.014593
0.014593
0.014593
0.014593
0.014593
0.014593
0.014593
0.014593
0.014593
0.014593
0.014593
0.014593
0.014593
0.014593
0.014593
0.014593
0.014593
0.014593
0.014593
0.014593
0.014593
0.014593
0.014593
0.014593
0.014593
0.014593
0.014593
0.014593
0.014593
0.014593
0.014593
0.014593
0.014593
0.014593
0.014593
0.014593
0.014593
0.014593
0.014593
0.014593
0.014593
0.014593
0.014593
0.014593
0.014593
0.014593
0.014593
0.014593
0.014593
0.014593
0.014593
0.014593
0.014593
0.014593
0.014593
0.014593
0.014593
0.014593
0.014593
0.014593
0.014593
0.014593
0.014593
0.014593
0.014593
0.014593
0.014593
0.014593
0.014593
0.014593
0.014593
0.014593
0.014593
0.014593
0.014593
0.014593
0.014593
0.014593
0.014593
0.014593
0.014593
0.014593
0.014593
0.014593
0.014593
0.014593
0.014593
0.014593
0.014593
0.014593
0.014593
0.014593
0.014593
0.014593
0.014593
0.014593
0.014593
0.014593
0.014593
0.014593
0.014593
0.014593
0.014593
0.014593
0.014593
0.014593
0.014593
0.014593
0.014593
0.014593
0.014593
0.014593
0.014593
0.014593
0.014593
0.014593
0.014593
0.014593
0.014593
0.014593
0.014593
0.014593
0.014593
0.014593
0.014593
0.014593
0.014593
0.014593
0.014593
0.014593
0.014593
0.014593
0.014593
0.014593
0.014593
0.014593
0.014593
0.014593
0.014593
0.014593
0.014593
0.014593
0.014593
0.014593
0.014593
0.014593
0.014593
0.014593
0.014593
0.014593
0.014593
0.014593
0.014593
0.014593
0.014593
0.014593
0.014593
0.014593
0.014593
0.014593
0.014593
0.014593
0.014593
0.014593
0.014593
0.014593
0.014593
0.014593
0.014593
0.014593
0.014593
0.014593
0.014593
0.014593
0.014593
0.014593
0.014593
0.014593
0.014593
0.014593
0.014593
0.014593
0.014593
0.014593
0.014593
0.014593
0.014593
0.014593
0.014593
0.014593
0.014593
0.014593
0.014593
0.014593
0.014593
0.014593
0.014593
0.014593
0.014593
0.014593
0.014593
0.014593
0.014593
0.014593
0.014593
0.014593
0.014593
0.014593
0.014593
0.014593
0.014593
0.014593
0.014593
0.014593
0.014593
0.014593
0.014593
0.014593
0.014593
0.014593
0.014593
0.014593
0.014593
0.014593
0.014593
0.014593
0.014593
0.014593
0.014593
0.014593
0.014593
0.014593
0.014593
0.014593
0.014593
0.014593
0.014593
0.014593
0.014593
0.014593
0.014593
0.014593
0.014593
0.014593
0.014593
0.014593
0.014593
0.014593
0.014593
0.014593
0.014593
0.014593
0.014593
0.014593
0.014593
0.014593
0.014593
0.014593
0.014593
0.014593
0.014593
0.014593
0.014593
0.014593
0.014593
0.014593
0.014593
0.014593
0.014593
0.014593
0.014593
0.014593
0.014593
0.014593
0.014593
0.014593
0.014593
0.014593
0.014593
0.014593
0.014593
0.014593
0.014593
0.014593
0.014593
0.014593
0.014593
0.014593
0.014593
0.014593
0.014593
0.014593
0.014593
0.014593
0.014593
0.014593
0.014593
0.014593
0.014593
0.014593
0.014593
0.014593
0.014593
0.014593
0.014593
0.014593
0.014593
0.014593
0.014593
0.014593
0.014593
0.014593
0.014593
0.014593
0.014593
0.014593
0.014593
0.014593
0.014593
0.014593
0.014593
0.014593
0.014593
0.014593
0.014593
0.014593
0.014593
0.014593
0.014593
0.014593
0.014593
0.014593
0.014593
0.014593
0.014593
0.014593
0.014593
0.014593
0.014593
0.014593
0.014593
0.014593
0.014593
0.014593
0.014593
0.014593
0.014593
0.014593
0.014593
0.014593
0.014593
0.014593
0.014593
0.014593
0.014593
0.014593
0.014593
0.014593
0.014593
0.014593
0.014593
0.014593
0.014593
0.014593
0.014593
0.014593
0.014593
0.014593
0.014593
0.014593
0.014593
0.014593
0.014593
0.014593
0.014593
0.014593
0.014593
0.014593
0.014593
0.014593
0.014593
0.014593
0.014593
0.014593
0.014593
0.014593
0.014593
0.014593
0.014593
0.014593
0.014593
0.014593
0.014593
0.014593
0.014593
0.014593
0.014593
0.014593
0.014593
0.014593
0.014593
0.014593
0.014593
0.014593
0.014593
0.014593
0.014593
0.014593
0.014593
0.014593
0.014593
0.014593
0.014593
0.014593
0.014593
0.014593
0.014593
0.014593
0.014593
0.014593
0.014593
0.014593
0.014593
0.014593
0.014593
0.014593
0.014593
0.014593
0.014593
0.014593
0.014593
0.014593
0.014593
0.014593
0.014593
0.014593
0.014593
0.014593
0.014593
0.014593
0.014593
0.014593
0.014593
0.014593
0.014593
0.014593
0.014593
0.014593
0.014593
0.014593
0.014593
0.014593
0.014593
0.014593
0.014593
0.014593
0.014593
0.014593
0.014593
0.014593
0.014593
0.014593
0.014593
0.014593
0.014593
0.014593
0.014593
0.014593
0.014593
0.014593
0.014593
0.014593
0.014593
0.014593
0.014593
0.014593
0.014593
0.0145931
0.0145931
0.0145931
0.0145931
0.0145931
0.0145931
0.0145931
0.0145931
0.0145931
0.0145931
0.0145931
0.0145932
0.0145932
0.0145932
0.014593
0.014593
0.014593
0.014593
0.014593
0.014593
0.014593
0.014593
0.014593
0.014593
0.014593
0.014593
0.014593
0.014593
0.014593
0.014593
0.014593
0.014593
0.014593
0.014593
0.014593
0.014593
0.014593
0.014593
0.014593
0.014593
0.014593
0.014593
0.014593
0.014593
0.014593
0.014593
0.014593
0.014593
0.014593
0.014593
0.014593
0.014593
0.014593
0.014593
0.014593
0.014593
0.014593
0.014593
0.014593
0.014593
0.014593
0.014593
0.014593
0.014593
0.014593
0.014593
0.014593
0.014593
0.014593
0.014593
0.014593
0.014593
0.014593
0.014593
0.014593
0.014593
0.014593
0.014593
0.014593
0.014593
0.014593
0.014593
0.014593
0.014593
0.014593
0.014593
0.014593
0.014593
0.014593
0.014593
0.014593
0.014593
0.014593
0.0145931
0.0145931
0.0145931
0.0145931
0.0145931
0.0145931
0.0145931
0.0145931
0.0145931
0.0145931
0.0145931
0.0145931
0.0145931
0.0145931
0.0145931
0.0145932
0.0145932
0.0145932
0.0145932
0.0145932
0.0145932
0.0145933
0.0145933
0.0145933
0.0145934
0.0145934
0.0145935
0.0145935
0.0145936
0.0145936
0.0145937
0.0145938
0.0145939
0.014594
0.014593
0.014593
0.014593
0.014593
0.014593
0.014593
0.014593
0.014593
0.014593
0.014593
0.014593
0.014593
0.014593
0.014593
0.014593
0.014593
0.014593
0.014593
0.014593
0.014593
0.014593
0.014593
0.014593
0.014593
0.014593
0.014593
0.014593
0.014593
0.014593
0.014593
0.014593
0.014593
0.014593
0.014593
0.014593
0.014593
0.014593
0.014593
0.014593
0.014593
0.014593
0.014593
0.014593
0.014593
0.014593
0.014593
0.014593
0.0145931
0.0145931
0.0145931
0.0145931
0.0145931
0.0145931
0.0145931
0.0145931
0.0145931
0.0145931
0.0145931
0.0145931
0.0145931
0.0145931
0.0145931
0.0145931
0.0145931
0.0145931
0.0145931
0.0145931
0.0145931
0.0145931
0.0145931
0.0145931
0.0145931
0.0145931
0.0145931
0.0145931
0.0145932
0.0145932
0.0145932
0.0145932
0.0145932
0.0145932
0.0145932
0.0145932
0.0145933
0.0145933
0.0145933
0.0145933
0.0145933
0.0145934
0.0145934
0.0145934
0.0145935
0.0145935
0.0145936
0.0145936
0.0145937
0.0145937
0.0145938
0.0145939
0.014594
0.0145941
0.0145942
0.0145944
0.0145945
0.0145947
0.0145948
0.014595
0.0145953
0.0145955
0.0145958
0.0145962
0.0145965
0.014597
0.0145975
0.0145981
0.014593
0.014593
0.014593
0.014593
0.014593
0.014593
0.014593
0.014593
0.014593
0.014593
0.014593
0.014593
0.0145931
0.0145931
0.0145931
0.0145931
0.0145931
0.0145931
0.0145931
0.0145931
0.0145931
0.0145931
0.0145931
0.0145931
0.0145931
0.0145931
0.0145931
0.0145931
0.0145931
0.0145931
0.0145931
0.0145931
0.0145931
0.0145931
0.0145931
0.0145931
0.0145931
0.0145931
0.0145932
0.0145932
0.0145932
0.0145932
0.0145932
0.0145932
0.0145932
0.0145932
0.0145932
0.0145932
0.0145932
0.0145932
0.0145932
0.0145932
0.0145932
0.0145932
0.0145933
0.0145933
0.0145933
0.0145933
0.0145933
0.0145933
0.0145933
0.0145933
0.0145933
0.0145934
0.0145934
0.0145934
0.0145934
0.0145934
0.0145935
0.0145935
0.0145935
0.0145935
0.0145936
0.0145936
0.0145936
0.0145937
0.0145937
0.0145938
0.0145938
0.0145939
0.0145939
0.014594
0.0145941
0.0145942
0.0145942
0.0145943
0.0145945
0.0145946
0.0145947
0.0145949
0.0145951
0.0145953
0.0145955
0.0145957
0.014596
0.0145963
0.0145966
0.0145969
0.0145974
0.0145978
0.0145984
0.014599
0.0145997
0.0146004
0.0146013
0.0146022
0.0146032
0.0146043
0.0146056
0.0146071
0.0146088
0.0146108
0.0146131
0.0146157
0.0146186
0.0146218
0.0145931
0.0145931
0.0145931
0.0145931
0.0145931
0.0145931
0.0145931
0.0145931
0.0145931
0.0145931
0.0145931
0.0145931
0.0145931
0.0145931
0.0145932
0.0145932
0.0145932
0.0145932
0.0145932
0.0145932
0.0145932
0.0145932
0.0145932
0.0145933
0.0145933
0.0145933
0.0145933
0.0145933
0.0145933
0.0145933
0.0145934
0.0145934
0.0145934
0.0145934
0.0145934
0.0145934
0.0145934
0.0145935
0.0145935
0.0145935
0.0145935
0.0145935
0.0145936
0.0145936
0.0145936
0.0145936
0.0145936
0.0145937
0.0145937
0.0145937
0.0145937
0.0145938
0.0145938
0.0145938
0.0145938
0.0145939
0.0145939
0.0145939
0.014594
0.014594
0.014594
0.0145941
0.0145941
0.0145942
0.0145942
0.0145943
0.0145943
0.0145944
0.0145944
0.0145945
0.0145946
0.0145946
0.0145947
0.0145948
0.0145949
0.014595
0.0145951
0.0145952
0.0145953
0.0145955
0.0145956
0.0145958
0.014596
0.0145962
0.0145964
0.0145967
0.0145969
0.0145972
0.0145975
0.0145979
0.0145983
0.0145987
0.0145992
0.0145997
0.0146004
0.0146011
0.0146018
0.0146027
0.0146037
0.0146047
0.0146058
0.0146071
0.0146085
0.01461
0.0146118
0.0146138
0.0146162
0.0146188
0.0146219
0.0146252
0.014629
0.014633
0.0146375
0.0146424
0.0146479
0.0146543
0.0146618
0.0146705
0.0146807
0.0146923
0.0147054
0.0147199
0.0147357
0.0145932
0.0145932
0.0145933
0.0145933
0.0145933
0.0145933
0.0145934
0.0145934
0.0145934
0.0145934
0.0145935
0.0145935
0.0145935
0.0145936
0.0145936
0.0145937
0.0145937
0.0145937
0.0145938
0.0145938
0.0145939
0.0145939
0.014594
0.014594
0.0145941
0.0145941
0.0145942
0.0145942
0.0145943
0.0145944
0.0145944
0.0145945
0.0145946
0.0145946
0.0145947
0.0145948
0.0145948
0.0145949
0.014595
0.0145951
0.0145951
0.0145952
0.0145953
0.0145954
0.0145955
0.0145956
0.0145957
0.0145958
0.0145958
0.0145959
0.014596
0.0145961
0.0145962
0.0145963
0.0145965
0.0145966
0.0145967
0.0145968
0.014597
0.0145971
0.0145973
0.0145975
0.0145977
0.0145979
0.0145981
0.0145983
0.0145985
0.0145988
0.0145991
0.0145993
0.0145996
0.0146
0.0146003
0.0146006
0.014601
0.0146015
0.014602
0.0146025
0.0146031
0.0146038
0.0146045
0.0146053
0.0146062
0.0146072
0.0146083
0.0146094
0.0146106
0.0146119
0.0146134
0.0146149
0.0146167
0.0146187
0.014621
0.0146236
0.0146266
0.0146299
0.0146336
0.0146376
0.0146421
0.014647
0.0146523
0.0146581
0.0146645
0.0146719
0.0146804
0.0146903
0.0147017
0.0147147
0.0147293
0.0147454
0.0147632
0.0147826
0.0148037
0.0148268
0.014853
0.0148834
0.0149193
0.0149614
0.01501
0.0150651
0.0151266
0.0151939
0.015267
0.0145939
0.014594
0.0145941
0.0145942
0.0145943
0.0145943
0.0145945
0.0145946
0.0145947
0.0145948
0.0145949
0.0145951
0.0145952
0.0145953
0.0145955
0.0145957
0.0145958
0.014596
0.0145962
0.0145964
0.0145965
0.0145967
0.0145969
0.0145972
0.0145974
0.0145976
0.0145978
0.014598
0.0145983
0.0145985
0.0145987
0.014599
0.0145993
0.0145995
0.0145998
0.0146001
0.0146004
0.0146007
0.014601
0.0146013
0.0146016
0.014602
0.0146023
0.0146026
0.014603
0.0146034
0.0146037
0.0146041
0.0146045
0.0146048
0.0146052
0.0146056
0.0146061
0.0146065
0.014607
0.0146075
0.0146081
0.0146087
0.0146093
0.01461
0.0146107
0.0146114
0.0146123
0.0146131
0.014614
0.014615
0.0146161
0.0146171
0.0146183
0.0146195
0.0146208
0.0146222
0.0146236
0.0146252
0.014627
0.0146289
0.0146311
0.0146335
0.0146363
0.0146393
0.0146426
0.0146462
0.0146502
0.0146545
0.0146592
0.0146643
0.0146697
0.0146756
0.014682
0.0146891
0.0146972
0.0147064
0.0147169
0.014729
0.0147427
0.0147579
0.0147749
0.0147935
0.0148138
0.0148358
0.0148596
0.0148857
0.0149148
0.0149483
0.0149873
0.0150325
0.0150844
0.0151429
0.0152082
0.0152799
0.015358
0.0154423
0.0155329
0.0156315
0.0157431
0.0158743
0.0160297
0.0162104
0.0164151
0.0166416
0.016887
0.0171488
0.0174246
0.0145966
0.014597
0.0145973
0.0145976
0.014598
0.0145984
0.0145988
0.0145992
0.0145997
0.0146002
0.0146007
0.0146012
0.0146018
0.0146023
0.0146029
0.0146036
0.0146042
0.0146049
0.0146056
0.0146063
0.014607
0.0146078
0.0146086
0.0146094
0.0146102
0.014611
0.0146119
0.0146128
0.0146137
0.0146146
0.0146156
0.0146166
0.0146176
0.0146187
0.0146198
0.0146209
0.0146221
0.0146233
0.0146245
0.0146258
0.0146271
0.0146284
0.0146298
0.0146311
0.0146325
0.0146339
0.0146354
0.0146369
0.0146383
0.0146399
0.0146415
0.0146431
0.0146449
0.0146467
0.0146487
0.0146508
0.0146531
0.0146556
0.0146582
0.014661
0.014664
0.0146672
0.0146706
0.0146743
0.0146781
0.0146822
0.0146865
0.0146911
0.0146959
0.014701
0.0147064
0.0147122
0.0147184
0.0147252
0.0147328
0.0147412
0.0147508
0.0147615
0.0147734
0.0147866
0.0148011
0.014817
0.0148343
0.014853
0.0148731
0.0148948
0.0149181
0.0149432
0.0149706
0.0150011
0.0150359
0.0150759
0.0151217
0.0151738
0.0152322
0.0152972
0.0153686
0.0154463
0.0155302
0.0156203
0.015717
0.0158217
0.0159392
0.0160753
0.0162338
0.016416
0.0166212
0.0168477
0.0170936
0.0173568
0.0176352
0.0179271
0.0182322
0.0185553
0.0189156
0.0193355
0.0198184
0.0203554
0.0209338
0.0215411
0.0221666
0.0228014
0.0234386
0.024074
0.0247095
0.0146074
0.0146086
0.0146099
0.0146112
0.0146127
0.0146142
0.0146158
0.0146174
0.0146192
0.014621
0.0146229
0.0146249
0.014627
0.0146293
0.0146316
0.014634
0.0146365
0.0146391
0.0146417
0.0146445
0.0146473
0.0146502
0.0146532
0.0146562
0.0146593
0.0146625
0.0146657
0.0146691
0.0146725
0.0146761
0.0146798
0.0146837
0.0146876
0.0146917
0.014696
0.0147003
0.0147048
0.0147094
0.0147141
0.014719
0.0147239
0.014729
0.0147342
0.0147394
0.0147448
0.0147502
0.0147558
0.0147614
0.0147672
0.0147731
0.0147793
0.0147858
0.0147927
0.0148002
0.0148082
0.0148169
0.0148262
0.0148362
0.0148469
0.0148584
0.0148705
0.0148835
0.0148973
0.0149119
0.0149275
0.0149439
0.0149613
0.0149797
0.0149991
0.0150197
0.0150414
0.0150646
0.0150896
0.0151171
0.0151478
0.0151824
0.0152213
0.0152648
0.0153129
0.0153659
0.0154239
0.0154868
0.0155548
0.0156279
0.0157062
0.0157898
0.0158788
0.0159739
0.0160771
0.0161927
0.0163252
0.0164775
0.0166504
0.0168436
0.0170562
0.0172868
0.0175341
0.0177965
0.0180727
0.0183615
0.0186628
0.0189817
0.0193347
0.0197389
0.0201965
0.0207011
0.0212434
0.0218141
0.0224049
0.0230085
0.0236186
0.0242303
0.0248422
0.0254603
0.0261418
0.026957
0.027858
0.0287908
0.0297172
0.0306126
0.0314626
0.0322582
0.0329954
0.0336746
0.0342933
0.0146484
0.014653
0.0146579
0.014663
0.0146684
0.014674
0.01468
0.0146862
0.0146928
0.0146996
0.0147068
0.0147144
0.0147223
0.0147305
0.0147391
0.014748
0.0147572
0.0147667
0.0147765
0.0147866
0.0147969
0.0148075
0.0148182
0.0148292
0.0148405
0.014852
0.0148639
0.0148762
0.0148889
0.0149022
0.0149159
0.0149301
0.0149448
0.01496
0.0149757
0.0149918
0.0150084
0.0150254
0.0150428
0.0150605
0.0150787
0.0150971
0.015116
0.0151351
0.0151546
0.0151744
0.0151945
0.015215
0.0152359
0.0152575
0.0152801
0.0153042
0.01533
0.0153579
0.0153879
0.0154201
0.0154547
0.0154917
0.0155312
0.0155732
0.0156178
0.0156652
0.0157154
0.0157684
0.0158245
0.0158836
0.0159459
0.0160116
0.0160806
0.0161533
0.0162299
0.016311
0.0163983
0.0164949
0.0166036
0.016726
0.0168627
0.0170135
0.0171782
0.0173563
0.0175473
0.0177509
0.0179667
0.0181941
0.0184326
0.018682
0.018942
0.0192139
0.0195033
0.0198253
0.0201899
0.0205971
0.0210426
0.0215205
0.0220248
0.02255
0.0230905
0.0236415
0.0241988
0.0247589
0.025321
0.025891
0.0265214
0.0272569
0.0280609
0.0288939
0.0297271
0.0305413
0.031324
0.0320668
0.0327636
0.0334123
0.0340116
0.0345595
0.0350526
0.0354846
0.0358641
0.0361996
0.0364963
0.0367586
0.0369896
0.0371895
0.0373628
0.0375131
0.0376402
0.0147848
0.0148006
0.0148173
0.0148348
0.0148532
0.0148725
0.0148928
0.014914
0.0149363
0.0149597
0.0149842
0.0150099
0.0150368
0.0150648
0.015094
0.0151243
0.0151556
0.0151879
0.0152211
0.0152551
0.0152898
0.0153252
0.0153611
0.0153975
0.0154346
0.0154724
0.0155113
0.0155515
0.0155931
0.015636
0.0156805
0.0157264
0.0157737
0.0158225
0.0158726
0.0159241
0.0159768
0.0160306
0.0160856
0.0161416
0.0161985
0.0162564
0.0163151
0.0163746
0.0164349
0.0164959
0.0165578
0.0166205
0.0166841
0.016749
0.0168161
0.0168869
0.0169628
0.0170447
0.0171331
0.0172281
0.0173295
0.0174374
0.0175517
0.0176723
0.0177994
0.0179328
0.0180727
0.0182192
0.0183722
0.0185319
0.0186983
0.0188715
0.0190515
0.0192384
0.0194324
0.0196337
0.019844
0.020068
0.0203156
0.0205913
0.0208949
0.021224
0.0215762
0.021949
0.0223401
0.0227473
0.0231683
0.0236012
0.0240439
0.0244945
0.0249515
0.0254135
0.0258818
0.0263638
0.0269115
0.0275366
0.0282119
0.0289126
0.0296205
0.0303222
0.0310079
0.0316701
0.0323029
0.0329018
0.0334649
0.0339912
0.0344786
0.0349222
0.0353182
0.0356736
0.0359935
0.036281
0.0365396
0.0367724
0.0369788
0.0371595
0.0373197
0.0374603
0.0375805
0.0376803
0.0377636
0.0378368
0.0379023
0.0379611
0.0380153
0.0380649
0.0381098
0.0381498
0.0381837
0.0382139
0.0152801
0.0153341
0.0153907
0.0154498
0.0155114
0.0155754
0.0156422
0.0157119
0.0157846
0.0158604
0.0159393
0.0160212
0.016106
0.0161935
0.0162837
0.0163763
0.0164711
0.0165678
0.0166661
0.0167659
0.0168666
0.0169682
0.0170702
0.0171727
0.0172763
0.017382
0.0174907
0.0176026
0.0177181
0.0178371
0.0179593
0.0180846
0.0182125
0.018343
0.0184756
0.0186101
0.0187462
0.0188837
0.0190223
0.0191618
0.0193022
0.0194431
0.0195846
0.0197266
0.019869
0.0200118
0.0201551
0.020299
0.0204438
0.0205906
0.0207416
0.0209019
0.0210737
0.0212571
0.0214517
0.0216567
0.0218716
0.0220961
0.0223297
0.0225723
0.0228235
0.0230829
0.0233502
0.0236252
0.0239076
0.024197
0.0244932
0.0247959
0.0251049
0.0254198
0.0257404
0.0260667
0.0264004
0.0267488
0.027148
0.0275953
0.0280758
0.0285777
0.0290921
0.0296125
0.0301338
0.0306519
0.0311632
0.0316644
0.0321527
0.0326259
0.0330814
0.0335187
0.0339365
0.0343333
0.0347024
0.0350429
0.0353582
0.0356502
0.0359198
0.0361694
0.0363991
0.0366074
0.0367962
0.036968
0.0371222
0.0372579
0.0373758
0.0374776
0.0375655
0.0376426
0.0377118
0.0377757
0.0378358
0.0378905
0.0379405
0.0379882
0.0380306
0.0380669
0.0381013
0.0381321
0.0381573
0.0381782
0.0381969
0.0382155
0.0382347
0.0382546
0.0382757
0.038297
0.0383176
0.0383373
0.0383555
0.0383721
0.0168362
0.0169915
0.0171514
0.0173155
0.0174837
0.0176564
0.0178345
0.0180184
0.0182081
0.0184035
0.018604
0.0188092
0.0190184
0.0192309
0.0194459
0.0196627
0.0198804
0.0200984
0.0203158
0.0205319
0.0207462
0.020958
0.0211668
0.0213733
0.0215801
0.02179
0.0220037
0.0222208
0.0224406
0.0226626
0.0228862
0.0231109
0.0233364
0.0235621
0.0237878
0.0240129
0.0242372
0.0244601
0.0246815
0.0249011
0.0251188
0.0253345
0.0255482
0.0257598
0.0259694
0.0261773
0.0263836
0.0265888
0.0267933
0.0269984
0.027208
0.0274401
0.027694
0.0279642
0.0282461
0.0285368
0.0288342
0.029137
0.0294439
0.0297542
0.0300671
0.0303817
0.0306975
0.0310135
0.0313291
0.0316435
0.0319559
0.0322656
0.0325719
0.0328742
0.0331716
0.033464
0.0337506
0.0340303
0.0342975
0.0345526
0.0347969
0.0350306
0.0352543
0.035468
0.0356714
0.0358645
0.036047
0.0362185
0.0363793
0.0365286
0.036667
0.0367953
0.0369126
0.0370197
0.0371171
0.0372057
0.0372876
0.0373641
0.0374365
0.0375051
0.0375686
0.0376294
0.0376876
0.0377395
0.0377883
0.0378365
0.0378807
0.0379196
0.0379549
0.0379858
0.0380136
0.0380402
0.0380659
0.0380919
0.038119
0.0381456
0.0381707
0.0381962
0.0382211
0.0382431
0.0382637
0.0382823
0.0382977
0.0383116
0.0383255
0.0383396
0.0383548
0.0383712
0.0383881
0.0384057
0.0384229
0.0384402
0.0206701
0.0209976
0.0213262
0.0216544
0.0219826
0.0223132
0.0226476
0.022985
0.0233241
0.0236633
0.0240014
0.0243374
0.0246705
0.0249996
0.025324
0.0256428
0.0259554
0.0262611
0.0265591
0.0268488
0.0271296
0.0274012
0.0276634
0.0279177
0.0281733
0.0284386
0.0287103
0.0289851
0.02926
0.0295328
0.0298019
0.0300662
0.0303247
0.030577
0.0308227
0.0310615
0.0312933
0.031518
0.0317357
0.0319464
0.0321504
0.0323477
0.0325387
0.0327236
0.0329026
0.0330761
0.0332445
0.0334083
0.0335682
0.0337245
0.0338776
0.0340248
0.0341669
0.034305
0.0344396
0.0345713
0.0347002
0.0348267
0.0349507
0.0350724
0.0351916
0.0353086
0.0354231
0.0355353
0.0356451
0.0357523
0.035857
0.0359589
0.0360579
0.0361538
0.0362466
0.0363363
0.0364226
0.0365053
0.0365844
0.0366609
0.0367352
0.036808
0.03688
0.0369508
0.0370205
0.0370893
0.0371561
0.0372219
0.0372853
0.0373462
0.0374059
0.0374614
0.0375145
0.0375663
0.0376124
0.0376556
0.0376969
0.0377346
0.0377719
0.037808
0.0378429
0.0378786
0.0379119
0.0379439
0.0379781
0.0380092
0.0380366
0.0380655
0.0380938
0.0381169
0.0381385
0.0381583
0.0381772
0.0381957
0.0382155
0.0382358
0.0382555
0.0382762
0.0382974
0.0383182
0.0383389
0.0383588
0.0383768
0.0383928
0.0384072
0.038421
0.0384353
0.0384506
0.0384666
0.0384835
0.0385008
0.0385184
0.0271268
0.0275563
0.0279736
0.0283782
0.028771
0.0291657
0.0295642
0.0299621
0.0303552
0.0307403
0.0311146
0.0314762
0.0318235
0.0321552
0.0324704
0.0327686
0.0330499
0.0333145
0.0335623
0.0337932
0.0340076
0.0342061
0.0343896
0.0345592
0.0347148
0.0348566
0.0349864
0.0351058
0.0352157
0.0353169
0.0354098
0.0354951
0.0355731
0.0356444
0.0357095
0.0357687
0.0358227
0.0358719
0.0359167
0.0359577
0.0359953
0.03603
0.0360623
0.0360926
0.0361215
0.0361496
0.0361776
0.0362058
0.0362347
0.0362642
0.0362944
0.0363252
0.0363569
0.03639
0.0364244
0.0364602
0.0364972
0.0365353
0.0365743
0.036614
0.0366544
0.0366953
0.0367368
0.0367788
0.0368212
0.0368639
0.036907
0.0369502
0.0369934
0.0370366
0.0370796
0.0371222