/*--------------------------------*- C++ -*----------------------------------*\
| =========                 |                                                 |
| \\      /  F ield         | OpenFOAM: The Open Source CFD Toolbox           |
|  \\    /   O peration     | Version:  v1706                                 |
|   \\  /    A nd           | Web:      www.OpenFOAM.com                      |
|    \\/     M anipulation  |                                                 |
\*---------------------------------------------------------------------------*/
FoamFile
{
    version     2.0;
    format      ascii;
    class       volScalarField;
    location    "3.6e-05";
    object      p;
}
// * * * * * * * * * * * * * * * * * * * * * * * * * * * * * * * * * * * * * //

dimensions      [1 -1 -2 0 0 0 0];


internalField   nonuniform List<scalar> 
29871
(
21.9139
21.9139
21.9139
21.9139
21.9139
21.9139
21.9139
21.9139
21.9139
21.9139
21.9139
21.9139
21.9139
21.9139
21.9139
21.9139
21.9139
21.9139
21.9139
21.9139
21.9139
21.9139
21.9139
21.9139
21.9139
21.9139
21.9139
21.9139
21.9139
21.9139
21.9139
21.9139
21.9139
21.9139
21.9139
21.9139
21.9139
21.9139
21.9139
21.9139
21.9139
21.9139
21.9139
21.9139
21.9139
21.9139
21.9139
21.9139
21.9139
21.9139
21.9139
21.9139
21.9139
21.9139
21.9139
21.9139
21.9139
21.9139
21.9139
21.9139
21.9139
21.9139
21.9139
21.9139
21.9139
21.9139
21.9139
21.9139
21.9139
21.9139
21.9139
21.9139
21.9139
21.9139
21.9139
21.9139
21.9139
21.9139
21.9139
21.9139
21.9139
21.9139
21.9139
21.9139
21.9139
21.9139
21.9139
21.9139
21.9139
21.9139
21.9139
21.9139
21.9139
21.9139
21.9139
21.9139
21.9139
21.9139
21.9139
21.9139
21.9139
21.9139
21.9139
21.9139
21.9139
21.9139
21.9139
21.9139
21.9139
21.9139
21.9139
21.9139
21.9139
21.9139
21.9139
21.9139
21.9139
21.9139
21.9139
21.9139
21.9139
21.9139
21.9139
21.9139
21.9139
21.9139
21.9139
21.9139
21.9139
21.9139
21.9139
21.9139
21.9139
21.9139
21.9139
21.9139
21.9139
21.9139
21.9139
21.9139
21.9139
21.9139
21.9139
21.9139
21.9139
21.9139
21.9139
21.9139
21.9139
21.9139
21.9139
21.9139
21.9139
21.9139
21.9139
21.9139
21.9139
21.9139
21.9139
21.9139
21.9139
21.9139
21.9139
21.9139
21.9139
21.9139
21.9139
21.9139
21.9139
21.9139
21.9139
21.9139
21.9139
21.9139
21.9139
21.9139
21.9139
21.9139
21.9139
21.9139
21.9139
21.9139
21.9139
21.9139
21.9139
21.9139
21.9139
21.9139
21.9139
21.9139
21.9139
21.9139
21.9139
21.9139
21.9139
21.9139
21.9139
21.9139
21.9139
21.9139
21.9139
21.9139
21.9139
21.9139
21.9139
21.9139
21.9139
21.9139
21.9139
21.9139
21.9139
21.9139
21.9139
21.9139
21.9139
21.9139
21.9139
21.9139
21.9139
21.9139
21.9139
21.9139
21.9139
21.9139
21.9139
21.9139
21.9139
21.9139
21.9139
21.9139
21.9139
21.9139
21.9139
21.9139
21.9139
21.9139
21.9139
21.9139
21.9139
21.9139
21.9139
21.9139
21.9139
21.9139
21.9139
21.9139
21.9139
21.9139
21.9139
21.9139
21.9139
21.9139
21.9139
21.9139
21.9139
21.9139
21.9139
21.9139
21.9139
21.9139
21.9139
21.9139
21.9139
21.9139
21.9139
21.9139
21.9139
21.9139
21.9139
21.9139
21.9139
21.9139
21.9139
21.9139
21.9139
21.9139
21.9139
21.9139
21.9139
21.9139
21.9139
21.9139
21.9139
21.9139
21.9139
21.9139
21.9139
21.9139
21.9139
21.9139
21.9139
21.9139
21.9139
21.9139
21.9139
21.9139
21.9139
21.9139
21.9139
21.9139
21.9139
21.9139
21.9139
21.9139
21.9139
21.9139
21.9139
21.9139
21.9139
21.9139
21.9139
21.9139
21.9139
21.9139
21.9139
21.9139
21.9139
21.9139
21.9139
21.9139
21.9139
21.9139
21.9139
21.9139
21.9139
21.9139
21.9139
21.9139
21.9139
21.9139
21.9139
21.9139
21.9139
21.9139
21.9139
21.9139
21.9139
21.9139
21.9139
21.9139
21.9139
21.9139
21.9139
21.9139
21.9139
21.9139
21.9139
21.9139
21.9139
21.9139
21.9139
21.9139
21.9139
21.9139
21.9139
21.9139
21.9139
21.9139
21.9139
21.9139
21.9139
21.9139
21.9139
21.9139
21.9139
21.9139
21.9139
21.9139
21.9139
21.9139
21.9139
21.9139
21.9139
21.9139
21.9139
21.9139
21.9139
21.9139
21.9139
21.9139
21.9139
21.9139
21.9139
21.9139
21.9139
21.9139
21.9139
21.9139
21.9139
21.9139
21.9139
21.9139
21.9139
21.9139
21.9139
21.9139
21.9139
21.9139
21.9139
21.9139
21.9139
21.9139
21.9139
21.9139
21.9139
21.9139
21.9139
21.9139
21.9139
21.9139
21.9139
21.9139
21.9139
21.9139
21.9139
21.9139
21.9139
21.9139
21.9139
21.9139
21.9139
21.9139
21.9139
21.9139
21.9139
21.9139
21.9139
21.9139
21.9139
21.9139
21.9139
21.9139
21.9139
21.9139
21.9139
21.9139
21.9139
21.9139
21.9139
21.9139
21.9139
21.9139
21.9139
21.9139
21.9139
21.9139
21.9139
21.9139
21.9139
21.9139
21.9139
21.9139
21.9139
21.9139
21.9139
21.9139
21.9139
21.9139
21.9139
21.9139
21.9139
21.9139
21.9139
21.9139
21.9139
21.9139
21.9139
21.9139
21.9139
21.9139
21.9139
21.9139
21.9139
21.9139
21.9139
21.9139
21.9139
21.9139
21.9139
21.9139
21.9139
21.9139
21.9139
21.9139
21.9139
21.9139
21.9139
21.9139
21.9139
21.9139
21.9139
21.9139
21.9139
21.9139
21.9139
21.9139
21.9139
21.9139
21.9139
21.9139
21.9139
21.9139
21.9139
21.9139
21.9139
21.9139
21.9139
21.9139
21.9139
21.9139
21.9139
21.9139
21.9139
21.9139
21.9139
21.9139
21.9139
21.9139
21.9139
21.9139
21.9139
21.9139
21.9139
21.9139
21.9139
21.9139
21.9139
21.9139
21.9139
21.9139
21.9139
21.9139
21.9139
21.9139
21.9139
21.9139
21.9139
21.9139
21.9139
21.9139
21.9139
21.9139
21.9139
21.9139
21.9139
21.9139
21.9139
21.9139
21.9139
21.9139
21.9139
21.9139
21.9139
21.9139
21.9139
21.9139
21.9139
21.9139
21.9139
21.9139
21.9139
21.9139
21.9139
21.9139
21.9139
21.9139
21.9139
21.9139
21.9139
21.9139
21.9139
21.9139
21.9139
21.9139
21.9139
21.9139
21.9139
21.9139
21.9139
21.9139
21.9139
21.9139
21.9139
21.9139
21.9139
21.9139
21.9139
21.9139
21.9139
21.9139
21.9139
21.9139
21.9139
21.9139
21.9139
21.9139
21.9139
21.9139
21.9139
21.9139
21.9139
21.9139
21.9139
21.9139
21.9139
21.9139
21.9139
21.9139
21.9139
21.9139
21.9139
21.9139
21.9139
21.9139
21.9139
21.9139
21.9139
21.9139
21.9139
21.9139
21.9139
21.9139
21.9139
21.9139
21.9139
21.9139
21.9139
21.9139
21.9139
21.9139
21.9139
21.9139
21.9139
21.9139
21.9139
21.9139
21.9139
21.9139
21.9139
21.9139
21.9139
21.9139
21.9139
21.9139
21.9139
21.9139
21.9139
21.9139
21.9139
21.9139
21.9139
21.9139
21.9139
21.9139
21.9139
21.9139
21.9139
21.9139
21.9139
21.9139
21.9139
21.9139
21.9139
21.9139
21.9139
21.9139
21.9139
21.9139
21.9139
21.9139
21.9139
21.9139
21.9139
21.9139
21.9139
21.9139
21.9139
21.9139
21.9139
21.9139
21.9139
21.9139
21.9139
21.9139
21.9139
21.9139
21.9139
21.9139
21.9139
21.9139
21.9139
21.9139
21.9139
21.9139
21.9139
21.9139
21.9139
21.9139
21.9139
21.9139
21.9139
21.9139
21.9139
21.9139
21.9139
21.9139
21.9139
21.9139
21.9139
21.9139
21.9139
21.9139
21.9139
21.9139
21.9139
21.9139
21.9139
21.9139
21.9139
21.9139
21.9139
21.9139
21.9139
21.9139
21.9139
21.9139
21.9139
21.9139
21.9139
21.9139
21.9139
21.9139
21.9139
21.9139
21.9139
21.9139
21.9139
21.9139
21.9139
21.9139
21.9139
21.9139
21.9139
21.9139
21.9139
21.9139
21.9139
21.9139
21.9139
21.9139
21.9139
21.9139
21.9139
21.9139
21.9139
21.9139
21.9139
21.9139
21.9139
21.9139
21.9139
21.9139
21.9139
21.9139
21.9139
21.9139
21.9139
21.9139
21.9139
21.9139
21.9139
21.9139
21.9139
21.9139
21.9139
21.9139
21.9139
21.9139
21.9139
21.9139
21.9139
21.9139
21.9139
21.9139
21.9139
21.9139
21.9139
21.9139
21.9139
21.9139
21.9139
21.9139
21.9139
21.9139
21.9139
21.9139
21.9139
21.9139
21.9139
21.9139
21.9139
21.9139
21.9139
21.9139
21.9139
21.9139
21.9139
21.9139
21.9139
21.9139
21.9139
21.9139
21.9139
21.9139
21.9139
21.9139
21.9139
21.9139
21.9139
21.9139
21.9139
21.9139
21.9139
21.9139
21.9139
21.9139
21.9139
21.9139
21.9139
21.9139
21.9139
21.9139
21.9139
21.9139
21.9139
21.9139
21.9139
21.9139
21.9139
21.9139
21.9139
21.9139
21.9139
21.9139
21.9139
21.9139
21.9139
21.9139
21.9139
21.9139
21.9139
21.9139
21.9139
21.9139
21.9139
21.9139
21.9139
21.9139
21.9139
21.9139
21.9139
21.9139
21.9139
21.9139
21.9139
21.9139
21.9139
21.9139
21.9139
21.9139
21.9139
21.9139
21.9139
21.9139
21.9139
21.9139
21.9139
21.9139
21.9139
21.9139
21.9139
21.9139
21.9139
21.9139
21.9139
21.9139
21.9139
21.9139
21.9139
21.9139
21.9139
21.9139
21.9139
21.9139
21.9139
21.9139
21.9139
21.9139
21.9139
21.9139
21.9139
21.9139
21.9139
21.9139
21.9139
21.9139
21.9139
21.9139
21.9139
21.9139
21.9139
21.9139
21.9139
21.9139
21.9139
21.9139
21.9139
21.9139
21.9139
21.9139
21.9139
21.9139
21.9139
21.9139
21.9139
21.9139
21.9139
21.9139
21.9139
21.9139
21.9139
21.9139
21.9139
21.9139
21.9139
21.9139
21.9139
21.9139
21.9139
21.9139
21.9139
21.9139
21.9139
21.9139
21.9139
21.9139
21.9139
21.9139
21.9139
21.9139
21.9139
21.9139
21.9139
21.9139
21.9139
21.9139
21.9139
21.9139
21.9139
21.9139
21.9139
21.9139
21.9139
21.9139
21.9139
21.9139
21.9139
21.9139
21.9139
21.9139
21.9139
21.9139
21.9139
21.9139
21.9139
21.9139
21.9139
21.9139
21.9139
21.9139
21.9139
21.9139
21.9139
21.9139
21.9139
21.9139
21.9139
21.9139
21.9139
21.9139
21.9139
21.9139
21.9139
21.9139
21.9139
21.9139
21.9139
21.9139
21.9139
21.9139
21.9139
21.9139
21.9139
21.9139
21.9139
21.9139
21.9139
21.9139
21.9139
21.9139
21.9139
21.9139
21.9139
21.9139
21.9139
21.9139
21.9139
21.9139
21.9139
21.9139
21.9139
21.9139
21.9139
21.9139
21.9139
21.9139
21.9139
21.9139
21.9139
21.9139
21.9139
21.9139
21.9139
21.9139
21.9139
21.9139
21.9139
21.9139
21.9139
21.9139
21.9139
21.9139
21.9139
21.9139
21.9139
21.9139
21.9139
21.9139
21.9139
21.9139
21.9139
21.9139
21.9139
21.9139
21.9139
21.9139
21.9139
21.9139
21.9139
21.9139
21.9139
21.9139
21.9139
21.9139
21.9139
21.9139
21.9139
21.9139
21.9139
21.9139
21.9139
21.9139
21.9139
21.9139
21.9139
21.9139
21.9139
21.9139
21.9139
21.9139
21.9139
21.9139
21.9139
21.9139
21.9139
21.9139
21.9139
21.9139
21.9139
21.9139
21.9139
21.9139
21.9139
21.9139
21.9139
21.9139
21.9139
21.9139
21.9139
21.9139
21.9139
21.9139
21.9139
21.9139
21.9139
21.9139
21.9139
21.9139
21.9139
21.9139
21.9139
21.9139
21.9139
21.9139
21.9139
21.9139
21.9139
21.9139
21.9139
21.9139
21.9139
21.9139
21.9139
21.9139
21.9139
21.9139
21.9139
21.9139
21.9139
21.9139
21.9139
21.9139
21.9139
21.9139
21.9139
21.9139
21.9139
21.9139
21.9139
21.9139
21.9139
21.9139
21.9139
21.9139
21.9139
21.9139
21.9139
21.9139
21.9139
21.9139
21.9139
21.9139
21.9139
21.9139
21.9139
21.9139
21.9139
21.9139
21.9139
21.9139
21.9139
21.9139
21.9139
21.9139
21.9139
21.9139
21.9139
21.9139
21.9139
21.9139
21.9139
21.9139
21.9139
21.9139
21.9139
21.9139
21.9139
21.9139
21.9139
21.9139
21.9139
21.9139
21.9139
21.9139
21.9139
21.9139
21.9139
21.9139
21.9139
21.9139
21.9139
21.9139
21.9139
21.9139
21.9139
21.9139
21.9139
21.9139
21.9139
21.9139
21.9139
21.9139
21.9139
21.9139
21.9139
21.9139
21.9139
21.9139
21.9139
21.9139
21.9139
21.9139
21.9139
21.9139
21.9139
21.9139
21.9139
21.9139
21.9139
21.9139
21.9139
21.9139
21.9139
21.9139
21.9139
21.9139
21.9139
21.9139
21.9139
21.9139
21.9139
21.9139
21.9139
21.9139
21.9139
21.9139
21.9139
21.9139
21.9139
21.9139
21.9139
21.9139
21.9139
21.9139
21.9139
21.9139
21.9139
21.9139
21.9139
21.9139
21.9139
21.9139
21.9139
21.9139
21.9139
21.9139
21.9139
21.9139
21.9139
21.9139
21.9139
21.9139
21.9139
21.9139
21.9139
21.9139
21.9139
21.9139
21.9139
21.9139
21.9139
21.9139
21.9139
21.9139
21.9139
21.9139
21.9139
21.9139
21.9139
21.9139
21.9139
21.9139
21.9139
21.9139
21.9139
21.9139
21.9139
21.9139
21.9139
21.9139
21.9139
21.9139
21.9139
21.914
21.914
21.914
21.914
21.9139
21.9139
21.9139
21.9139
21.9139
21.9139
21.9139
21.9139
21.9139
21.9139
21.9139
21.9139
21.9139
21.9139
21.9139
21.9139
21.9139
21.9139
21.9139
21.9139
21.9139
21.9139
21.9139
21.9139
21.9139
21.9139
21.9139
21.9139
21.9139
21.9139
21.9139
21.9139
21.9139
21.9139
21.9139
21.9139
21.9139
21.9139
21.9139
21.9139
21.9139
21.9139
21.9139
21.9139
21.9139
21.9139
21.9139
21.9139
21.9139
21.9139
21.9139
21.9139
21.9139
21.9139
21.9139
21.9139
21.9139
21.9139
21.9139
21.9139
21.9139
21.9139
21.9139
21.9139
21.9139
21.9139
21.9139
21.9139
21.9139
21.9139
21.9139
21.9139
21.9139
21.9139
21.9139
21.9139
21.9139
21.9139
21.9139
21.9139
21.9139
21.9139
21.9139
21.9139
21.9139
21.9139
21.9139
21.9139
21.9139
21.9139
21.914
21.914
21.914
21.914
21.914
21.914
21.914
21.914
21.914
21.914
21.914
21.914
21.9141
21.9141
21.9141
21.9141
21.9141
21.9142
21.9142
21.9142
21.9143
21.9143
21.9144
21.9139
21.9139
21.9139
21.9139
21.9139
21.9139
21.9139
21.9139
21.9139
21.9139
21.9139
21.9139
21.9139
21.9139
21.9139
21.9139
21.9139
21.9139
21.9139
21.9139
21.9139
21.9139
21.9139
21.9139
21.9139
21.9139
21.9139
21.9139
21.9139
21.9139
21.9139
21.9139
21.9139
21.9139
21.9139
21.9139
21.9139
21.9139
21.9139
21.9139
21.9139
21.9139
21.9139
21.9139
21.9139
21.9139
21.9139
21.9139
21.9139
21.9139
21.9139
21.9139
21.9139
21.9139
21.9139
21.9139
21.9139
21.9139
21.9139
21.9139
21.9139
21.9139
21.9139
21.9139
21.9139
21.914
21.914
21.914
21.914
21.914
21.914
21.914
21.914
21.914
21.914
21.914
21.914
21.914
21.914
21.914
21.914
21.914
21.914
21.914
21.9141
21.9141
21.9141
21.9141
21.9141
21.9141
21.9142
21.9142
21.9142
21.9142
21.9143
21.9143
21.9143
21.9144
21.9144
21.9145
21.9146
21.9146
21.9147
21.9148
21.9149
21.915
21.9151
21.9153
21.9154
21.9156
21.9158
21.9161
21.9163
21.9139
21.9139
21.9139
21.9139
21.9139
21.9139
21.9139
21.9139
21.9139
21.9139
21.9139
21.9139
21.9139
21.9139
21.9139
21.9139
21.9139
21.9139
21.9139
21.9139
21.9139
21.9139
21.9139
21.9139
21.9139
21.914
21.914
21.914
21.914
21.914
21.914
21.914
21.914
21.914
21.914
21.914
21.914
21.914
21.914
21.914
21.914
21.914
21.914
21.914
21.914
21.914
21.914
21.914
21.914
21.914
21.914
21.914
21.914
21.914
21.914
21.914
21.9141
21.9141
21.9141
21.9141
21.9141
21.9141
21.9141
21.9141
21.9141
21.9141
21.9141
21.9141
21.9141
21.9142
21.9142
21.9142
21.9142
21.9142
21.9142
21.9143
21.9143
21.9143
21.9143
21.9144
21.9144
21.9144
21.9145
21.9145
21.9146
21.9146
21.9147
21.9147
21.9148
21.9149
21.915
21.9151
21.9152
21.9153
21.9154
21.9156
21.9157
21.9159
21.9161
21.9164
21.9166
21.9169
21.9172
21.9176
21.918
21.9185
21.9189
21.9195
21.9201
21.9208
21.9217
21.9227
21.9238
21.925
21.9264
21.914
21.914
21.914
21.914
21.914
21.914
21.914
21.914
21.914
21.914
21.914
21.914
21.914
21.914
21.914
21.914
21.914
21.9141
21.9141
21.9141
21.9141
21.9141
21.9141
21.9141
21.9141
21.9141
21.9141
21.9141
21.9141
21.9142
21.9142
21.9142
21.9142
21.9142
21.9142
21.9142
21.9142
21.9143
21.9143
21.9143
21.9143
21.9143
21.9143
21.9143
21.9143
21.9144
21.9144
21.9144
21.9144
21.9144
21.9144
21.9145
21.9145
21.9145
21.9145
21.9145
21.9146
21.9146
21.9146
21.9147
21.9147
21.9147
21.9148
21.9148
21.9148
21.9149
21.9149
21.915
21.915
21.9151
21.9151
21.9152
21.9153
21.9154
21.9155
21.9156
21.9157
21.9158
21.9159
21.9161
21.9162
21.9164
21.9166
21.9168
21.917
21.9172
21.9175
21.9178
21.9182
21.9186
21.919
21.9195
21.92
21.9206
21.9212
21.9219
21.9227
21.9236
21.9246
21.9258
21.9272
21.9287
21.9304
21.9323
21.9344
21.9367
21.9392
21.942
21.9451
21.9488
21.953
21.9579
21.9634
21.9697
21.9767
21.9844
21.914
21.914
21.914
21.9141
21.9141
21.9141
21.9141
21.9141
21.9141
21.9142
21.9142
21.9142
21.9142
21.9142
21.9143
21.9143
21.9143
21.9143
21.9144
21.9144
21.9144
21.9144
21.9145
21.9145
21.9145
21.9146
21.9146
21.9146
21.9147
21.9147
21.9148
21.9148
21.9148
21.9149
21.9149
21.915
21.915
21.915
21.9151
21.9151
21.9152
21.9152
21.9153
21.9153
21.9154
21.9154
21.9155
21.9155
21.9156
21.9157
21.9157
21.9158
21.9158
21.9159
21.916
21.916
21.9161
21.9162
21.9163
21.9164
21.9165
21.9166
21.9167
21.9168
21.9169
21.917
21.9172
21.9173
21.9175
21.9176
21.9178
21.918
21.9182
21.9184
21.9186
21.9188
21.9191
21.9194
21.9197
21.92
21.9204
21.9208
21.9213
21.9218
21.9224
21.923
21.9236
21.9243
21.9251
21.926
21.9269
21.9279
21.9292
21.9305
21.9321
21.9338
21.9358
21.9379
21.9403
21.9429
21.9457
21.9488
21.9522
21.956
21.9604
21.9654
21.971
21.9775
21.9848
21.993
22.002
22.012
22.0229
22.035
22.0485
22.0642
22.0827
22.1044
22.1297
22.1586
22.1911
22.2272
22.2666
21.9144
21.9145
21.9145
21.9146
21.9146
21.9147
21.9148
21.9148
21.9149
21.915
21.915
21.9151
21.9152
21.9153
21.9154
21.9155
21.9156
21.9157
21.9158
21.9159
21.916
21.9161
21.9163
21.9164
21.9165
21.9167
21.9168
21.9169
21.9171
21.9172
21.9174
21.9175
21.9177
21.9179
21.918
21.9182
21.9184
21.9186
21.9188
21.919
21.9192
21.9194
21.9196
21.9198
21.92
21.9203
21.9205
21.9207
21.921
21.9212
21.9214
21.9217
21.9219
21.9222
21.9225
21.9228
21.9231
21.9234
21.9238
21.9242
21.9246
21.925
21.9255
21.926
21.9265
21.927
21.9276
21.9282
21.9289
21.9296
21.9303
21.9311
21.9319
21.9328
21.9338
21.9349
21.9361
21.9374
21.9389
21.9406
21.9425
21.9445
21.9467
21.9491
21.9517
21.9546
21.9576
21.9609
21.9644
21.9683
21.9727
21.9776
21.9832
21.9895
21.9966
22.0046
22.0135
22.0234
22.0342
22.0461
22.0591
22.0733
22.0892
22.1073
22.1283
22.1528
22.1811
22.2134
22.2496
22.2899
22.3342
22.3825
22.4349
22.4925
22.5573
22.6324
22.7205
22.8233
22.942
23.0771
23.2286
23.3965
23.5803
21.9161
21.9163
21.9165
21.9167
21.9169
21.9171
21.9174
21.9177
21.9179
21.9182
21.9185
21.9189
21.9192
21.9195
21.9199
21.9203
21.9207
21.9212
21.9216
21.9221
21.9225
21.923
21.9235
21.924
21.9246
21.9251
21.9257
21.9262
21.9268
21.9274
21.928
21.9286
21.9293
21.9299
21.9306
21.9313
21.932
21.9328
21.9335
21.9343
21.9351
21.9359
21.9368
21.9376
21.9385
21.9394
21.9403
21.9412
21.9421
21.9431
21.9441
21.9451
21.9462
21.9473
21.9485
21.9498
21.9512
21.9526
21.9542
21.9559
21.9578
21.9597
21.9617
21.9639
21.9662
21.9686
21.9712
21.9739
21.9768
21.9798
21.983
21.9864
21.99
21.994
21.9983
22.0031
22.0084
22.0143
22.0209
22.0281
22.0361
22.045
22.0546
22.0652
22.0766
22.089
22.1023
22.1168
22.1325
22.15
22.1697
22.1924
22.2186
22.2486
22.2826
22.3207
22.3629
22.4092
22.4598
22.5146
22.574
22.6389
22.7114
22.7944
22.8904
23.0013
23.1282
23.2722
23.4336
23.6128
23.8095
24.0238
24.2564
24.5109
24.8009
25.1464
25.5618
26.0521
26.6154
27.2473
27.9425
28.6961
29.504
21.9226
21.9234
21.9242
21.925
21.9259
21.9269
21.9279
21.929
21.9301
21.9313
21.9325
21.9338
21.9351
21.9365
21.938
21.9395
21.9411
21.9427
21.9444
21.9461
21.9479
21.9498
21.9517
21.9536
21.9556
21.9577
21.9598
21.962
21.9642
21.9666
21.969
21.9715
21.9741
21.9768
21.9795
21.9824
21.9854
21.9884
21.9915
21.9947
21.998
22.0013
22.0047
22.0081
22.0116
22.0152
22.0188
22.0225
22.0263
22.0301
22.0341
22.0382
22.0426
22.0472
22.0521
22.0573
22.0629
22.0689
22.0752
22.0821
22.0893
22.0971
22.1055
22.1143
22.1237
22.1337
22.1443
22.1556
22.1675
22.1801
22.1935
22.2078
22.2231
22.2399
22.2585
22.2795
22.3032
22.3298
22.3596
22.3927
22.429
22.4687
22.5119
22.5587
22.6091
22.6634
22.7217
22.7844
22.8529
22.9292
23.0157
23.1147
23.2277
23.3559
23.5003
23.6617
23.8405
24.0369
24.2509
24.4828
24.7336
25.007
25.3159
25.6782
26.1068
26.6072
27.1789
27.8193
28.5249
29.2925
30.1186
31.0011
31.9408
32.9561
34.1001
35.4364
36.9899
38.7662
40.7633
42.9733
45.3841
47.9831
50.7586
53.7096
56.8497
21.9484
21.9514
21.9544
21.9577
21.9611
21.9647
21.9685
21.9725
21.9767
21.9811
21.9858
21.9907
21.9959
22.0013
22.007
22.013
22.0192
22.0256
22.0323
22.0392
22.0462
22.0534
22.0608
22.0683
22.076
22.0839
22.092
22.1003
22.1089
22.1178
22.1269
22.1363
22.146
22.156
22.1663
22.177
22.1879
22.1992
22.2109
22.2228
22.2351
22.2476
22.2604
22.2735
22.2869
22.3005
22.3143
22.3284
22.3429
22.3577
22.3732
22.3895
22.4068
22.4256
22.4458
22.4677
22.4914
22.5168
22.5439
22.5729
22.6038
22.6366
22.6714
22.7084
22.7476
22.7891
22.8331
22.8795
22.9287
22.9807
23.0357
23.0943
23.1575
23.2268
23.304
23.3905
23.4873
23.5952
23.715
23.8473
23.9928
24.152
24.3252
24.5129
24.7153
24.933
25.1666
25.418
25.6919
26.001
26.3598
26.7784
27.261
27.808
28.418
29.0893
29.82
30.6082
31.4522
32.351
33.3067
34.3381
35.4917
36.8163
38.3319
40.046
41.9619
44.0791
46.3933
48.897
51.5831
54.4461
57.5002
60.755
64.6655
69.9976
76.7765
84.8385
94.033
104.253
115.428
127.494
140.379
154.038
168.358
22.0462
22.0574
22.0693
22.0818
22.095
22.1089
22.1236
22.1389
22.155
22.1718
22.1894
22.2078
22.2271
22.2471
22.2678
22.2894
22.3118
22.335
22.3589
22.3835
22.4089
22.4349
22.4615
22.4887
22.5166
22.5453
22.5749
22.6057
22.6378
22.6712
22.706
22.7422
22.7798
22.8187
22.8589
22.9002
22.9427
22.9863
23.0309
23.0765
23.1231
23.1707
23.2191
23.2685
23.3188
23.3699
23.422
23.475
23.5293
23.5852
23.6438
23.7058
23.772
23.8429
23.9189
24.0005
24.0879
24.1816
24.282
24.3893
24.5039
24.6261
24.756
24.8941
25.0407
25.1961
25.3608
25.5352
25.7197
25.9149
26.1218
26.3418
26.5795
26.8442
27.1453
27.4891
27.8782
28.313
28.793
29.3178
29.8873
30.5016
31.1611
31.8663
32.6175
33.4153
34.2607
35.1599
36.1338
37.2232
38.4586
39.8522
41.4116
43.1438
45.0531
47.1398
49.4005
51.8318
54.4333
57.2031
60.1543
63.2983
67.0822
72.0756
78.2872
85.5948
93.8902
103.1
113.18
124.097
135.795
148.221
161.299
174.969
188.79
201.963
214.487
226.5
238.027
249.07
259.602
269.508
278.833
287.638
295.872
22.3739
22.4121
22.4524
22.4947
22.5392
22.586
22.6351
22.6869
22.7414
22.799
22.8596
22.9236
22.9908
23.0613
23.1351
23.212
23.2918
23.3744
23.4595
23.5468
23.6363
23.7276
23.8205
23.915
24.0114
24.1101
24.2116
24.3162
24.4242
24.5357
24.6509
24.7697
24.8925
25.0192
25.1499
25.2848
25.4237
25.5666
25.7133
25.8636
26.0174
26.1745
26.3348
26.4983
26.6649
26.8346
27.0074
27.1835
27.3633
27.5475
27.7383
27.9403
28.1585
28.3966
28.6564
28.9384
29.2424
29.5683
29.9159
30.2854
30.6773
31.0921
31.5307
31.9939
32.4824
32.9972
33.5393
34.1096
34.7093
35.3393
36.0013
36.6967
37.4328
38.2263
39.103
40.0769
41.1532
42.3376
43.6368
45.0569
46.6017
48.2735
50.0738
52.0038
54.0653
56.2614
58.5961
61.0749
63.7135
66.5425
70.0483
74.5234
79.9347
86.1998
93.255
101.061
109.6
118.858
128.805
139.393
150.586
162.346
174.638
187.023
198.949
210.465
221.659
232.517
243.034
253.225
262.954
272.147
280.924
289.273
297.122
304.271
310.587
316.191
321.138
325.478
329.346
332.778
335.83
338.523
340.812
342.875
23.5779
23.7144
23.8583
24.0093
24.1673
24.3325
24.5052
24.686
24.875
25.0724
25.2781
25.492
25.7139
25.944
26.182
26.428
26.6817
26.9429
27.211
27.4856
27.7659
28.0511
28.3408
28.6346
28.934
29.242
29.5621
29.8963
30.2459
30.6112
30.9918
31.3868
31.7953
32.216
32.6482
33.0908
33.5432
34.0048
34.4752
34.9539
35.4406
35.9349
36.4366
36.9455
37.4616
37.9848
38.5155
39.0543
39.6018
40.1618
40.7431
41.3577
42.0109
42.7041
43.4396
44.2211
45.0532
45.94
46.8845
47.8888
48.9549
50.0844
51.2794
52.5421
53.8753
55.282
56.7656
58.3296
59.9782
61.7162
63.5479
65.4805
67.5232
69.7218
72.4456
75.7921
79.7202
84.1773
89.1284
94.561
100.476
106.882
113.789
121.2
129.115
137.532
146.433
155.816
165.67
175.984
186.31
196.408
206.353
216.185
225.881
235.464
244.876
253.971
262.758
271.291
279.477
287.21
294.506
301.267
307.354
312.752
317.527
321.833
325.77
329.251
332.336
335.227
337.779
339.93
341.979
343.919
345.601
346.997
348.149
349.175
350.102
350.943
351.77
352.552
353.278
353.944
354.514
355.035
27.5966
28.018
28.4567
28.9127
29.386
29.8787
30.3941
30.935
31.5035
32.1007
32.7267
33.3806
34.061
34.7658
35.4925
36.2385
37.0014
37.7787
38.5681
39.3673
40.1742
40.9869
41.803
42.6253
43.461
44.3153
45.1877
46.0761
46.9806
47.903
48.8461
49.8129
50.8053
51.8244
52.8702
53.9423
55.0396
56.1611
57.3057
58.4727
59.6617
60.8726
62.1053
63.3605
64.6387
65.9413
67.2701
68.6281
70.0188
71.4477
72.9316
74.6626
76.6874
78.9813
81.514
84.2635
87.2192
90.3802
93.7522
97.3437
101.165
105.225
109.534
114.101
118.934
124.043
129.434
135.115
141.092
147.372
153.958
160.859
168.079
175.611
183.118
190.547
197.968
205.417
212.905
220.417
227.915
235.383
242.78
250.069
257.244
264.24
271.048
277.678
284.063
290.219
296.051
301.426
306.352
310.858
315.024
318.881
322.345
325.586
328.671
331.36
333.828
336.295
338.606
340.67
342.574
344.231
345.67
346.95
348.057
349.075
350.094
350.998
351.761
352.56
353.345
353.955
354.501
354.994
355.341
355.573
355.754
355.919
356.104
356.303
356.513
356.751
356.977
357.229
39.302
40.4962
41.727
42.9896
44.2867
45.6244
47.0025
48.4155
49.8575
51.3257
52.82
54.3429
55.8977
57.4868
59.1116
60.7723
62.468
64.1962
65.9535
67.7362
69.5404
71.3621
73.2001
75.0484
76.9881
79.1328
81.4894
84.0394
86.758
89.622
92.6137
95.721
98.9362
102.254
105.672
109.187
112.796
116.497
120.286
124.162
128.121
132.162
136.282
140.48
144.754
149.103
153.528
158.027
162.608
167.277
172.04
176.725
181.316
185.86
190.399
194.957
199.544
204.162
208.811
213.489
218.196
222.93
227.689
232.471
237.271
242.083
246.9
251.712
256.512
261.286
266.025
270.719
275.364
279.938
284.364
288.6
292.626
296.468
300.176
303.74
307.196
310.555
313.776
316.93
319.943
322.81
325.632
328.236
330.734
333.23
335.467
337.563
339.556
341.294
342.93
344.408
345.741
347.075
348.181
349.151
350.307
351.209
351.785
352.47
353.2
353.648
354.061
354.417
354.664
354.882
355.144
355.398
355.594
355.82
356.082
356.338
356.609
356.899
357.139
357.328
357.462
357.555
357.651
357.772
357.908
358.071
358.249
358.437
67.1808
69.6795
72.2448
74.8791
77.5698
80.4648
83.6425
87.1108
90.8554
94.852
99.0732
103.494
108.093
112.849
117.742
122.756
127.88
133.1
138.396
143.75
149.15
154.579
160.015
165.452
170.814
175.994
180.996
185.843
190.554
195.142
199.606
203.945
208.154
212.23
216.174
219.987
223.673
227.237
230.686
234.028
237.27
240.422
243.493
246.493
249.434
252.329
255.196
258.051
260.907
263.771
266.644
269.497
272.308
275.072
277.791
280.476
283.13
285.755
288.349
290.913
293.444
295.943
298.41
300.849
303.26
305.646
308.008
310.346
312.662
314.952
317.215
319.451
321.657
323.828
325.958
328.012
329.958
331.828
333.586
335.227
336.824
338.293
339.681
341.026
342.199
343.378
344.473
345.426
346.489
347.371
348.123
349.045
349.697
350.25
350.958
351.418
351.855
352.462
352.871
353.145
353.667
354.191
354.49
354.934
355.454
355.813
356.097
356.341
356.534
356.673
356.831
357.012
357.16
357.291
357.458
357.644
357.851
358.09
358.319
358.511
358.653
358.754
358.841
358.941
359.055
359.189
359.344
359.51
359.684
141.818
149.119
156.551
164.091
171.562
178.861
185.947
192.819
199.48
205.919
212.126
218.1
223.825
229.263
234.405
239.271
243.862
248.158
252.134
255.787
259.157
262.308
265.31
268.202
270.995
273.684
276.267
278.745
281.121
283.396
285.573
287.654
289.641
291.538
293.346
295.068
296.705
298.26
299.734
301.128
302.441
303.674
304.828
305.894
306.875
307.798
308.692
309.576
310.463
311.36
312.264
313.183
314.105
315.038
315.988
316.959
317.953
318.97
320.011
321.072
322.152
323.249
324.358
325.48
326.611
327.75
328.895
330.043
331.193
332.343
333.493
334.635
335.776
336.915
338.031
339.136
340.233
341.275
342.31
343.342
344.286
345.252
346.192
347.02
347.941
348.734
349.426
350.292
350.937
351.51
352.292
352.8
353.247
353.836
354.184
354.519
354.978
355.281
355.444
355.779
356.169
356.394
356.73
357.152
357.461
357.702
357.911
358.072
358.182
358.295
358.434
358.557
358.654
358.769
358.913
359.08
359.266
359.461
359.643
359.794
359.907
359.995
360.077
360.166
360.267
360.387
360.52
360.66
255.22
261.437
267.191
272.448
277.171
281.404
285.208
288.695
291.922
294.894
297.664
300.231
302.608
304.785
306.814
308.713
310.462
312.04
313.372
314.34
314.948
315.277
315.416
315.423
315.342
315.203
315.025
314.829
314.632
314.448
314.286
314.157
314.066
314.019
314.018
314.066
314.164
314.314
314.519
314.782
315.105
315.489
315.934
316.435
316.983
317.555
318.143
318.745
319.368
320.02
320.704
321.42
322.165
322.934
323.732
324.558
325.41
326.29
327.197
328.128
329.08
330.049
331.034
332.03
333.035
334.047
335.064
336.084
337.103
338.122
339.139
340.144
341.147
342.145
343.116
344.081
345.026
345.904
346.786
347.638
348.396
349.204
349.953
350.632
351.435
352.055
352.618
353.368
353.859
354.318
354.975
355.394
355.762
356.229
356.535
356.822
357.156
357.407
357.554
357.718
357.95
358.142
358.346
358.612
358.864
359.075
359.241
359.36
359.434
359.493
359.578
359.678
359.759
359.832
359.928
360.054
360.206
360.378
360.557
360.723
360.861
360.968
361.055
361.135
361.218
361.311
361.417
361.531
327.207
329.009
330.445
331.271
331.525
331.49
331.226
330.789
330.339
329.81
329.052
328.252
327.635
327.066
326.349
325.626
325.131
324.804
324.614
324.545
324.551
324.505
324.338
324.078
323.761
323.406
323.034
322.662
322.304
321.968
321.665
321.403
321.185
321.017
320.898
320.832
320.821
320.867
320.974
321.144
321.379
321.682
322.069
322.547
323.078
323.635
324.205
324.79
325.395
326.027
326.691
327.386
328.11
328.863
329.644
330.458
331.298
332.162
333.051
333.961
334.889
335.83
336.781
337.738
338.697
339.658
340.616
341.569
342.517
343.456
344.379
345.296
346.196
347.066
347.936
348.768
349.531
350.311
351.021
351.645
352.329
352.904
353.431
354.069
354.51
354.952
355.561
355.913
356.252
356.764
357.119
357.4
357.737
358.073
358.327
358.522
358.74
358.928
359.029
359.108
359.267
359.433
359.624
359.838
360.04
360.196
360.322
360.421
360.48
360.529
360.606
360.694
360.766
360.837
360.934
361.068
361.227
361.398
361.568
361.723
361.852
361.953
362.034
362.106
362.179
362.259
362.345
342.091
341.446
341.049
340.844
340.643
340.241
339.594
338.899
338.17
337.202
336.099
335.2
334.381
333.319
332.176
331.251
330.432
329.67
329.082
328.63
328.283
327.894
327.455
326.987
326.481
325.949
325.418
324.907
324.43
324.001
323.63
323.325
323.09
322.926
322.834
322.814
322.867
322.993
323.191
323.46
323.799
324.207
324.686
325.239
325.852
326.505
327.183
327.882
328.602
329.346
330.116
330.912
331.732
332.575
333.442
334.331
335.236
336.157
337.093
338.039
338.992
339.947
340.899
341.845
342.784
343.71
344.622
345.522
346.402
347.26
348.108
348.925
349.716
350.509
351.245
351.935
352.65
353.259
353.819
354.431
354.906
355.376
355.91
356.271
356.668
357.174
357.456
357.745
358.157
358.475
358.721
358.975
359.297
359.559
359.685
359.814
360.004
360.139
360.171
360.241
360.375
360.523
360.707
360.896
361.033
361.132
361.248
361.345
361.39
361.43
361.513
361.605
361.675
361.749
361.862
362.011
362.175
362.342
362.503
362.648
362.767
362.858
362.929
362.989
363.047
363.106
363.165
363.217
348.426
346.918
345.516
344.29
343.392
342.288
340.968
339.944
338.908
337.459
336.023
334.981
333.868
332.493
331.239
330.288
329.331
328.27
327.398
326.722
326.242
325.822
325.445
325.122
324.825
324.52
324.208
323.904
323.622
323.372
323.166
323.014
322.923
322.898
322.942
323.059