/*--------------------------------*- C++ -*----------------------------------*\
| =========                 |                                                 |
| \\      /  F ield         | OpenFOAM: The Open Source CFD Toolbox           |
|  \\    /   O peration     | Version:  v1706                                 |
|   \\  /    A nd           | Web:      www.OpenFOAM.com                      |
|    \\/     M anipulation  |                                                 |
\*---------------------------------------------------------------------------*/
FoamFile
{
    version     2.0;
    format      ascii;
    class       volScalarField;
    location    "3.6e-05";
    object      Tv;
}
// * * * * * * * * * * * * * * * * * * * * * * * * * * * * * * * * * * * * * //

dimensions      [0 0 0 1 0 0 0];


internalField   nonuniform List<scalar> 
29871
(
144.4
144.4
144.4
144.4
144.4
144.4
144.4
144.4
144.4
144.4
144.4
144.4
144.4
144.4
144.4
144.4
144.4
144.4
144.4
144.4
144.4
144.4
144.4
144.4
144.4
144.4
144.4
144.4
144.4
144.4
144.4
144.4
144.4
144.4
144.4
144.4
144.4
144.4
144.4
144.4
144.4
144.4
144.4
144.4
144.4
144.4
144.4
144.4
144.4
144.4
144.4
144.4
144.4
144.4
144.4
144.4
144.4
144.4
144.4
144.4
144.4
144.4
144.4
144.4
144.4
144.4
144.4
144.4
144.4
144.4
144.4
144.4
144.4
144.4
144.4
144.4
144.4
144.4
144.4
144.4
144.4
144.4
144.4
144.4
144.4
144.4
144.4
144.4
144.4
144.4
144.4
144.4
144.4
144.4
144.4
144.4
144.4
144.4
144.4
144.4
144.4
144.4
144.4
144.4
144.4
144.4
144.4
144.4
144.4
144.4
144.4
144.4
144.4
144.4
144.4
144.4
144.4
144.4
144.4
144.4
144.4
144.4
144.4
144.4
144.4
144.4
144.4
144.4
144.4
144.4
144.4
144.4
144.4
144.4
144.4
144.4
144.4
144.4
144.4
144.4
144.4
144.4
144.4
144.4
144.4
144.4
144.4
144.4
144.4
144.4
144.4
144.4
144.4
144.4
144.4
144.4
144.4
144.4
144.4
144.4
144.4
144.4
144.4
144.4
144.4
144.4
144.4
144.4
144.4
144.4
144.4
144.4
144.4
144.4
144.4
144.4
144.4
144.4
144.4
144.4
144.4
144.4
144.4
144.4
144.4
144.4
144.4
144.4
144.4
144.4
144.4
144.4
144.4
144.4
144.4
144.4
144.4
144.4
144.4
144.4
144.4
144.4
144.4
144.4
144.4
144.4
144.4
144.4
144.4
144.4
144.4
144.4
144.4
144.4
144.4
144.4
144.4
144.4
144.4
144.4
144.4
144.4
144.4
144.4
144.4
144.4
144.4
144.4
144.4
144.4
144.4
144.4
144.4
144.4
144.4
144.4
144.4
144.4
144.4
144.4
144.4
144.4
144.4
144.4
144.4
144.4
144.4
144.4
144.4
144.4
144.4
144.4
144.4
144.4
144.4
144.4
144.4
144.4
144.4
144.4
144.4
144.4
144.4
144.4
144.4
144.4
144.4
144.4
144.4
144.4
144.4
144.4
144.4
144.4
144.4
144.4
144.4
144.4
144.4
144.4
144.4
144.4
144.4
144.4
144.4
144.4
144.4
144.4
144.4
144.4
144.4
144.4
144.4
144.4
144.4
144.4
144.4
144.4
144.4
144.4
144.4
144.4
144.4
144.4
144.4
144.4
144.4
144.4
144.4
144.4
144.4
144.4
144.4
144.4
144.4
144.4
144.4
144.4
144.4
144.4
144.4
144.4
144.4
144.4
144.4
144.4
144.4
144.4
144.4
144.4
144.4
144.4
144.4
144.4
144.4
144.4
144.4
144.4
144.4
144.4
144.4
144.4
144.4
144.4
144.4
144.4
144.4
144.4
144.4
144.4
144.4
144.4
144.4
144.4
144.4
144.4
144.4
144.4
144.4
144.4
144.4
144.4
144.4
144.4
144.4
144.4
144.4
144.4
144.4
144.4
144.4
144.4
144.4
144.4
144.4
144.4
144.4
144.4
144.4
144.4
144.4
144.4
144.4
144.4
144.4
144.4
144.4
144.4
144.4
144.4
144.4
144.4
144.4
144.4
144.4
144.4
144.4
144.4
144.4
144.4
144.4
144.4
144.4
144.4
144.4
144.4
144.4
144.4
144.4
144.4
144.4
144.4
144.4
144.4
144.4
144.4
144.4
144.4
144.4
144.4
144.4
144.4
144.4
144.4
144.4
144.4
144.4
144.4
144.4
144.4
144.4
144.4
144.4
144.4
144.4
144.4
144.4
144.4
144.4
144.4
144.4
144.4
144.4
144.4
144.4
144.4
144.4
144.4
144.4
144.4
144.4
144.4
144.4
144.4
144.4
144.4
144.4
144.4
144.4
144.4
144.4
144.4
144.4
144.4
144.4
144.4
144.4
144.4
144.4
144.4
144.4
144.4
144.4
144.4
144.4
144.4
144.4
144.4
144.4
144.4
144.4
144.4
144.4
144.4
144.4
144.4
144.4
144.4
144.4
144.4
144.4
144.4
144.4
144.4
144.4
144.4
144.4
144.4
144.4
144.4
144.4
144.4
144.4
144.4
144.4
144.4
144.4
144.4
144.4
144.4
144.4
144.4
144.4
144.4
144.4
144.4
144.4
144.4
144.4
144.4
144.4
144.4
144.4
144.4
144.4
144.4
144.4
144.4
144.4
144.4
144.4
144.4
144.4
144.4
144.4
144.4
144.4
144.4
144.4
144.4
144.4
144.4
144.4
144.4
144.4
144.4
144.4
144.4
144.4
144.4
144.4
144.4
144.4
144.4
144.4
144.4
144.4
144.4
144.4
144.4
144.4
144.4
144.4
144.4
144.4
144.4
144.4
144.4
144.4
144.4
144.4
144.4
144.4
144.4
144.4
144.4
144.4
144.4
144.4
144.4
144.4
144.4
144.4
144.4
144.4
144.4
144.4
144.4
144.4
144.4
144.4
144.4
144.4
144.4
144.4
144.4
144.4
144.4
144.4
144.4
144.4
144.4
144.4
144.4
144.4
144.4
144.4
144.4
144.4
144.4
144.4
144.4
144.4
144.4
144.4
144.4
144.4
144.4
144.4
144.4
144.4
144.4
144.4
144.4
144.4
144.4
144.4
144.4
144.4
144.4
144.4
144.4
144.4
144.4
144.4
144.4
144.4
144.4
144.4
144.4
144.4
144.4
144.4
144.4
144.4
144.4
144.4
144.4
144.4
144.4
144.4
144.4
144.4
144.4
144.4
144.4
144.4
144.4
144.4
144.4
144.4
144.4
144.4
144.4
144.4
144.4
144.4
144.4
144.4
144.4
144.4
144.4
144.4
144.4
144.4
144.4
144.4
144.4
144.4
144.4
144.4
144.4
144.4
144.4
144.4
144.4
144.4
144.4
144.4
144.4
144.4
144.4
144.4
144.4
144.4
144.4
144.4
144.4
144.4
144.4
144.4
144.4
144.4
144.4
144.4
144.4
144.4
144.4
144.4
144.4
144.4
144.4
144.4
144.4
144.4
144.4
144.4
144.4
144.4
144.4
144.4
144.4
144.4
144.4
144.4
144.4
144.4
144.4
144.4
144.4
144.4
144.4
144.4
144.4
144.4
144.4
144.4
144.4
144.4
144.4
144.4
144.4
144.4
144.4
144.4
144.4
144.4
144.4
144.4
144.4
144.4
144.4
144.4
144.4
144.4
144.4
144.4
144.4
144.4
144.4
144.4
144.4
144.4
144.4
144.4
144.4
144.4
144.4
144.4
144.4
144.4
144.4
144.4
144.4
144.4
144.4
144.4
144.4
144.4
144.4
144.4
144.4
144.4
144.4
144.4
144.4
144.4
144.4
144.4
144.4
144.4
144.4
144.4
144.4
144.4
144.4
144.4
144.4
144.4
144.4
144.4
144.4
144.4
144.4
144.4
144.4
144.4
144.4
144.4
144.4
144.4
144.4
144.4
144.4
144.4
144.4
144.4
144.4
144.4
144.4
144.4
144.4
144.4
144.4
144.4
144.4
144.4
144.4
144.4
144.4
144.4
144.4
144.4
144.4
144.4
144.4
144.4
144.4
144.4
144.4
144.4
144.4
144.4
144.4
144.4
144.4
144.4
144.4
144.4
144.4
144.4
144.4
144.4
144.4
144.4
144.4
144.4
144.4
144.4
144.4
144.4
144.4
144.4
144.4
144.4
144.4
144.4
144.4
144.4
144.4
144.4
144.4
144.4
144.4
144.4
144.4
144.4
144.4
144.4
144.4
144.4
144.4
144.4
144.4
144.4
144.4
144.4
144.4
144.4
144.4
144.4
144.4
144.4
144.4
144.4
144.4
144.4
144.4
144.4
144.4
144.4
144.4
144.4
144.4
144.4
144.4
144.4
144.4
144.4
144.4
144.4
144.4
144.4
144.4
144.4
144.4
144.4
144.4
144.4
144.4
144.4
144.4
144.4
144.4
144.4
144.4
144.4
144.4
144.4
144.4
144.4
144.4
144.4
144.4
144.4
144.4
144.4
144.4
144.4
144.4
144.4
144.4
144.4
144.4
144.4
144.4
144.4
144.4
144.4
144.4
144.4
144.4
144.4
144.4
144.4
144.4
144.4
144.4
144.4
144.4
144.4
144.4
144.4
144.4
144.4
144.4
144.4
144.4
144.4
144.4
144.4
144.4
144.4
144.4
144.4
144.4
144.4
144.4
144.4
144.4
144.4
144.4
144.4
144.4
144.4
144.4
144.4
144.4
144.4
144.4
144.4
144.4
144.4
144.4
144.4
144.4
144.4
144.4
144.4
144.4
144.4
144.4
144.4
144.4
144.4
144.4
144.4
144.4
144.4
144.4
144.4
144.4
144.4
144.4
144.4
144.4
144.4
144.4
144.4
144.4
144.4
144.4
144.4
144.4
144.4
144.4
144.4
144.4
144.4
144.4
144.4
144.4
144.4
144.4
144.4
144.4
144.4
144.4
144.4
144.4
144.4
144.4
144.4
144.4
144.4
144.4
144.4
144.4
144.4
144.4
144.4
144.4
144.4
144.4
144.4
144.4
144.4
144.4
144.4
144.4
144.4
144.4
144.4
144.4
144.4
144.4
144.4
144.4
144.4
144.4
144.4
144.4
144.4
144.4
144.4
144.4
144.4
144.4
144.4
144.4
144.4
144.4
144.4
144.4
144.4
144.4
144.4
144.4
144.4
144.4
144.4
144.4
144.4
144.4
144.4
144.4
144.4
144.4
144.4
144.4
144.4
144.4
144.4
144.4
144.4
144.4
144.4
144.4
144.4
144.4
144.4
144.4
144.4
144.4
144.4
144.4
144.4
144.4
144.4
144.4
144.4
144.4
144.4
144.4
144.4
144.4
144.4
144.4
144.4
144.4
144.4
144.4
144.4
144.4
144.4
144.4
144.4
144.4
144.4
144.4
144.4
144.4
144.4
144.4
144.4
144.4
144.4
144.4
144.4
144.4
144.4
144.4
144.4
144.4
144.4
144.4
144.4
144.4
144.4
144.4
144.4
144.4
144.4
144.4
144.4
144.4
144.4
144.4
144.4
144.4
144.4
144.4
144.4
144.4
144.4
144.4
144.4
144.4
144.4
144.4
144.4
144.4
144.4
144.4
144.4
144.4
144.4
144.4
144.4
144.4
144.4
144.4
144.4
144.4
144.4
144.4
144.4
144.4
144.4
144.4
144.4
144.4
144.4
144.4
144.4
144.4
144.4
144.4
144.4
144.4
144.4
144.4
144.4
144.4
144.4
144.4
144.4
144.4
144.4
144.4
144.4
144.4
144.4
144.4
144.4
144.4
144.4
144.4
144.4
144.4
144.4
144.4
144.4
144.4
144.4
144.4
144.4
144.4
144.4
144.4
144.4
144.4
144.4
144.4
144.4
144.4
144.4
144.4
144.4
144.4
144.4
144.4
144.4
144.4
144.4
144.4
144.4
144.4
144.4
144.4
144.4
144.4
144.4
144.4
144.4
144.4
144.4
144.4
144.4
144.4
144.4
144.4
144.4
144.4
144.4
144.4
144.4
144.4
144.4
144.4
144.4
144.4
144.4
144.4
144.4
144.4
144.4
144.4
144.4
144.4
144.4
144.4
144.4
144.4
144.4
144.4
144.4
144.4
144.4
144.4
144.4
144.4
144.4
144.4
144.4
144.4
144.4
144.4
144.4
144.4
144.4
144.4
144.4
144.4
144.4
144.4
144.4
144.4
144.4
144.4
144.4
144.4
144.4
144.4
144.4
144.4
144.4
144.4
144.4
144.4
144.4
144.4
144.4
144.4
144.4
144.4
144.4
144.4
144.4
144.4
144.4
144.4
144.4
144.4
144.4
144.4
144.4
144.4
144.4
144.4
144.4
144.4
144.4
144.4
144.4
144.4
144.4
144.4
144.4
144.4
144.4
144.4
144.4
144.4
144.4
144.4
144.4
144.4
144.4
144.4
144.4
144.4
144.4
144.4
144.4
144.4
144.4
144.4
144.4
144.4
144.4
144.4
144.4
144.4
144.4
144.4
144.4
144.4
144.4
144.4
144.4
144.4
144.4
144.4
144.4
144.4
144.4
144.4
144.4
144.4
144.4
144.4
144.4
144.4
144.4
144.4
144.4
144.4
144.4
144.4
144.4
144.4
144.4
144.4
144.4
144.4
144.4
144.4
144.4
144.4
144.4
144.4
144.4
144.4
144.4
144.4
144.4
144.4
144.4
144.4
144.4
144.4
144.4
144.4
144.4
144.4
144.4
144.4
144.4
144.4
144.4
144.4
144.4
144.4
144.4
144.4
144.4
144.4
144.4
144.4
144.4
144.4
144.4
144.4
144.4
144.4
144.4
144.4
144.4
144.4
144.4
144.4
144.4
144.4
144.4
144.4
144.4
144.4
144.4
144.4
144.4
144.4
144.4
144.4
144.4
144.4
144.4
144.4
144.4
144.4
144.4
144.4
144.4
144.4
144.4
144.4
144.4
144.4
144.4
144.4
144.4
144.4
144.4
144.4
144.4
144.4
144.4
144.4
144.4
144.4
144.4
144.4
144.4
144.4
144.4
144.4
144.4
144.4
144.4
144.4
144.4
144.4
144.4
144.4
144.4
144.4
144.4
144.4
144.4
144.4
144.4
144.4
144.4
144.4
144.4
144.4
144.4
144.4
144.4
144.4
144.4
144.4
144.4
144.4
144.4
144.4
144.4
144.4
144.4
144.4
144.4
144.4
144.4
144.4
144.4
144.4
144.4
144.4
144.4
144.4
144.4
144.4
144.4
144.4
144.4
144.4
144.4
144.4
144.4
144.4
144.4
144.4
144.4
144.4
144.4
144.4
144.4
144.4
144.4
144.4
144.4
144.4
144.4
144.4
144.4
144.4
144.4
144.4
144.4
144.4
144.4
144.4
144.4
144.4
144.4
144.4
144.4
144.4
144.4
144.4
144.4
144.4
144.4
144.4
144.4
144.4
144.4
144.4
144.4
144.4
144.4
144.4
144.4
144.4
144.4
144.4
144.4
144.4
144.4
144.4
144.4
144.4
144.4
144.4
144.4
144.4
144.4
144.4
144.4
144.4
144.4
144.4
144.4
144.4
144.4
144.4
144.4
144.4
144.4
144.4
144.4
144.4
144.4
144.4
144.4
144.4
144.4
144.4
144.4
144.4
144.4
144.4
144.4
144.4
144.4
144.4
144.4
144.4
144.4
144.4
144.4
144.4
144.4
144.4
144.4
144.4
144.4
144.4
144.4
144.4
144.4
144.4
144.4
144.4
144.4
144.4
144.4
144.4
144.4
144.4
144.4
144.4
144.4
144.4
144.4
144.4
144.4
144.4
144.4
144.4
144.4
144.4
144.4
144.4
144.4
144.4
144.4
144.4
144.4
144.4
144.4
144.4
144.4
144.4
144.4
144.4
144.4
144.4
144.4
144.4
144.4
144.4
144.4
144.4
144.4
144.4
144.4
144.4
144.4
144.4
144.4
144.4
144.4
144.4
144.4
144.4
144.4
144.4
144.4
144.4
144.4
144.4
144.4
144.4
144.4
144.4
144.4
144.4
144.4
144.4
144.4
144.4
144.4
144.4
144.4
144.4
144.4
144.4
144.4
144.4
144.4
144.4
144.4
144.4
144.4
144.4
144.4
144.4
144.4
144.4
144.4
144.4
144.4
144.4
144.4
144.4
144.4
144.4
144.4
144.4
144.4
144.4
144.4
144.4
144.4
144.4
144.4
144.4
144.4
144.4
144.4
144.4
144.4
144.4
144.4
144.4
144.4
144.4
144.4
144.4
144.4
144.4
144.4
144.4
144.4
144.4
144.4
144.4
144.4
144.4
144.4
144.4
144.4
144.4
144.4
144.4
144.4
144.4
144.4
144.4
144.4
144.4
144.4
144.4
144.4
144.4
144.4
144.4
144.4
144.4
144.4
144.4
144.4
144.4
144.4
144.4
144.4
144.4
144.4
144.4
144.4
144.4
144.4
144.4
144.4
144.4
144.4
144.4
144.4
144.4
144.4
144.4
144.4
144.4
144.4
144.4
144.4
144.4
144.4
144.4
144.4
144.4
144.4
144.4
144.4
144.4
144.4
144.4
144.4
144.4
144.4
144.4
144.4
144.4
144.4
144.4
144.4
144.4
144.4
144.4
144.4
144.4
144.4
144.4
144.4
144.4
144.4
144.4
144.4
144.4
144.4
144.4
144.4
144.4
144.4
144.4
144.4
144.4
144.4
144.4
144.4
144.4
144.4
144.4
144.4
144.4
144.4
144.4
144.4
144.4
144.4
144.4
144.4
144.4
144.4
144.4
144.4
144.4
144.4
144.4
144.4
144.4
144.4
144.4
144.4
144.4
144.4
144.4
144.4
144.4
144.4
144.4
144.4
144.4
144.4
144.4
144.4
144.4
144.4
144.4
144.4
144.4
144.4
144.4
144.4
144.4
144.4
144.4
144.4
144.4
144.4
144.4
144.4
144.4
144.4
144.4
144.4
144.4
144.4
144.4
144.4
144.4
144.4
144.4
144.4
144.4
144.4
144.4
144.4
144.4
144.4
144.4
144.4
144.4
144.4
144.4
144.4
144.4
144.4
144.4
144.4
144.4
144.4
144.4
144.4
144.4
144.4
144.4
144.4
144.4
144.4
144.4
144.4
144.4
144.4
144.4
144.4
144.4
144.4
144.4
144.4
144.4
144.4
144.4
144.4
144.4
144.4
144.4
144.4
144.4
144.4
144.4
144.4
144.4
144.4
144.4
144.4
144.4
144.4
144.4
144.4
144.4
144.4
144.4
144.4
144.4
144.4
144.4
144.4
144.4
144.4
144.4
144.4
144.4
144.4
144.4
144.4
144.4
144.4
144.4
144.4
144.4
144.4
144.4
144.4
144.4
144.4
144.4
144.4
144.4
144.4
144.4
144.4
144.4
144.4
144.4
144.4
144.4
144.4
144.4
144.4
144.4
144.4
144.4
144.4
144.4
144.4
144.4
144.4
144.4
144.4
144.4
144.4
144.4
144.4
144.4
144.4
144.4
144.4
144.4
144.4
144.4
144.4
144.4
144.4
144.4
144.4
144.4
144.4
144.4
144.4
144.4
144.4
144.4
144.4
144.4
144.4
144.4
144.4
144.4
144.4
144.4
144.4
144.4
144.4
144.4
144.4
144.4
144.4
144.4
144.4
144.4
144.4
144.4
144.4
144.4
144.4
144.4
144.4
144.4
144.4
144.4
144.4
144.4
144.4
144.4
144.4
144.4
144.4
144.4
144.4
144.401
144.401
144.401
144.401
144.401
144.401
144.401
144.401
144.401
144.402
144.402
144.402
144.4
144.4
144.4
144.4
144.4
144.4
144.4
144.4
144.4
144.4
144.4
144.4
144.4
144.4
144.4
144.4
144.4
144.4
144.4
144.4
144.4
144.4
144.4
144.4
144.4
144.4
144.4
144.4
144.4
144.4
144.4
144.4
144.4
144.4
144.4
144.4
144.4
144.4
144.4
144.4
144.4
144.4
144.4
144.4
144.4
144.4
144.4
144.4
144.4
144.4
144.4
144.4
144.4
144.4
144.4
144.4
144.4
144.4
144.4
144.4
144.4
144.4
144.4
144.4
144.4
144.4
144.4
144.4
144.4
144.4
144.4
144.4
144.4
144.4
144.4
144.4
144.4
144.4
144.4
144.4
144.4
144.4
144.4
144.4
144.4
144.4
144.4
144.4
144.4
144.4
144.4
144.4
144.401
144.401
144.401
144.401
144.401
144.401
144.401
144.401
144.401
144.401
144.401
144.402
144.402
144.402
144.402
144.402
144.403
144.403
144.403
144.404
144.404
144.404
144.405
144.405
144.406
144.407
144.407
144.408
144.409
144.41
144.411
144.412
144.413
144.4
144.4
144.4
144.4
144.4
144.4
144.4
144.4
144.4
144.4
144.4
144.4
144.4
144.4
144.4
144.4
144.4
144.4
144.4
144.4
144.4
144.4
144.4
144.4
144.4
144.4
144.4
144.4
144.4
144.4
144.4
144.4
144.4
144.4
144.4
144.4
144.4
144.4
144.4
144.4
144.4
144.4
144.4
144.4
144.4
144.4
144.4
144.4
144.4
144.4
144.4
144.4
144.4
144.4
144.4
144.4
144.4
144.4
144.4
144.401
144.401
144.401
144.401
144.401
144.401
144.401
144.401
144.401
144.401
144.401
144.401
144.401
144.401
144.401
144.401
144.401
144.401
144.401
144.401
144.401
144.401
144.401
144.402
144.402
144.402
144.402
144.402
144.402
144.402
144.403
144.403
144.403
144.403
144.404
144.404
144.404
144.405
144.405
144.406
144.406
144.407
144.408
144.408
144.409
144.41
144.411
144.412
144.413
144.415
144.416
144.417
144.419
144.42
144.422
144.424
144.426
144.428
144.431
144.434
144.436
144.439
144.442
144.446
144.449
144.452
144.4
144.4
144.4
144.4
144.4
144.4
144.4
144.401
144.401
144.401
144.401
144.401
144.401
144.401
144.401
144.401
144.401
144.401
144.401
144.401
144.401
144.401
144.401
144.401
144.401
144.401
144.401
144.401
144.401
144.401
144.401
144.402
144.402
144.402
144.402
144.402
144.402
144.402
144.402
144.402
144.402
144.402
144.402
144.402
144.402
144.402
144.402
144.402
144.402
144.402
144.402
144.402
144.402
144.403
144.403
144.403
144.403
144.403
144.403
144.403
144.403
144.403
144.403
144.403
144.404
144.404
144.404
144.404
144.404
144.404
144.405
144.405
144.405
144.405
144.405
144.406
144.406
144.407
144.407
144.407
144.408
144.408
144.409
144.41
144.41
144.411
144.412
144.413
144.413
144.414
144.415
144.417
144.418
144.42
144.421
144.423
144.425
144.427
144.429
144.431
144.433
144.436
144.438
144.441
144.444
144.448
144.451
144.455
144.459
144.463
144.468
144.472
144.477
144.482
144.487
144.493
144.499
144.505
144.512
144.519
144.527
144.535
144.543
144.551
144.56
144.402
144.402
144.402
144.402
144.402
144.402
144.403
144.403
144.403
144.403
144.403
144.404
144.404
144.404
144.404
144.405
144.405
144.405
144.405
144.406
144.406
144.406
144.406
144.406
144.407
144.407
144.407
144.407
144.408
144.408
144.408
144.408
144.409
144.409
144.409
144.409
144.41
144.41
144.41
144.41
144.411
144.411
144.411
144.411
144.411
144.412
144.412
144.412
144.412
144.413
144.413
144.413
144.413
144.414
144.414
144.414
144.415
144.415
144.415
144.416
144.416
144.417
144.417
144.418
144.418
144.419
144.42
144.42
144.421
144.422
144.423
144.424
144.424
144.425
144.427
144.428
144.429
144.431
144.432
144.434
144.436
144.438
144.44
144.442
144.445
144.447
144.45
144.453
144.456
144.459
144.462
144.466
144.47
144.474
144.479
144.484
144.489
144.494
144.5
144.506
144.512
144.518
144.525
144.532
144.539
144.547
144.556
144.564
144.574
144.584
144.594
144.604
144.616
144.627
144.639
144.652
144.665
144.678
144.693
144.708
144.724
144.74
144.757
144.775
144.794
144.813
144.41
144.41
144.411
144.412
144.413
144.414
144.415
144.416
144.417
144.418
144.419
144.42
144.421
144.422
144.423
144.425
144.426
144.427
144.428
144.429
144.43
144.432
144.433
144.434
144.435
144.436
144.437
144.438
144.439
144.44
144.441
144.442
144.443
144.444
144.445
144.446
144.447
144.448
144.449
144.45
144.451
144.452
144.453
144.454
144.454
144.455
144.456
144.457
144.458
144.458
144.459
144.46
144.461
144.462
144.463
144.464
144.466
144.467
144.468
144.47
144.472
144.473
144.475
144.477
144.479
144.481
144.483
144.485
144.488
144.49
144.493
144.496
144.499
144.502
144.505
144.509
144.513
144.518
144.523
144.527
144.533
144.538
144.544
144.55
144.557
144.564
144.571
144.578
144.586
144.594
144.602
144.611
144.621
144.631
144.642
144.654
144.666
144.678
144.691
144.705
144.719
144.734
144.75
144.766
144.783
144.8
144.819
144.838
144.858
144.879
144.901
144.924
144.948
144.973
144.999
145.026
145.053
145.082
145.112
145.143
145.175
145.209
145.244
145.281
145.318
145.358
145.398
145.441
144.451
144.454
144.458
144.462
144.466
144.47
144.474
144.479
144.483
144.487
144.492
144.496
144.501
144.505
144.51
144.514
144.519
144.523
144.527
144.531
144.535
144.539
144.543
144.546
144.55
144.553
144.557
144.56
144.563
144.566
144.569
144.572
144.575
144.578
144.581
144.584
144.586
144.589
144.591
144.594
144.596
144.598
144.6
144.602
144.604
144.606
144.608
144.609
144.611
144.613
144.615
144.617
144.619
144.622
144.624
144.627
144.63
144.633
144.636
144.64
144.643
144.647
144.651
144.656
144.66
144.665
144.67
144.676
144.681
144.687
144.694
144.7
144.707
144.715
144.723
144.731
144.741
144.75
144.761
144.772
144.783
144.796
144.809
144.822
144.837
144.851
144.867
144.884
144.901
144.919
144.937
144.957
144.978
145
145.023
145.047
145.072
145.098
145.126
145.155
145.185
145.216
145.248
145.282
145.316
145.352
145.389
145.428
145.468
145.51
145.554
145.599
145.646
145.694
145.744
145.796
145.85
145.905
145.962
146.022
146.083
146.147
146.212
146.28
146.351
146.423
146.498
146.575
144.624
144.637
144.65
144.664
144.677
144.69
144.703
144.717
144.73
144.743
144.756
144.769
144.781
144.793
144.805
144.817
144.828
144.839
144.849
144.859
144.868
144.877
144.885
144.893
144.9
144.907
144.914
144.921
144.927
144.933
144.939
144.944
144.949
144.954
144.959
144.963
144.967
144.971
144.974
144.978
144.981
144.984
144.987
144.99
144.992
144.995
144.997
145
145.002
145.005
145.008
145.01
145.014
145.018
145.022
145.026
145.031
145.036
145.041
145.047
145.054
145.061
145.068
145.076
145.085
145.094
145.104
145.115
145.126
145.138
145.151
145.165
145.179
145.195
145.211
145.228
145.247
145.267
145.288
145.31
145.333
145.358
145.384
145.412
145.441
145.471
145.503
145.536
145.57
145.607
145.644
145.683
145.724
145.766
145.81
145.857
145.905
145.955
146.007
146.061
146.117
146.175
146.235
146.297
146.361
146.427
146.496
146.566
146.638
146.713
146.79
146.87
146.951
147.036
147.123
147.212
147.304
147.399
147.496
147.596
147.699
147.804
147.913
148.025
148.139
148.257
148.378
148.502
145.16
145.192
145.223
145.253
145.283
145.312
145.341
145.368
145.396
145.422
145.447
145.471
145.494
145.517
145.538
145.558
145.577
145.596
145.613
145.628
145.643
145.657
145.669
145.68
145.69
145.7
145.709
145.717
145.725
145.732
145.738
145.744
145.749
145.754
145.759
145.763
145.767
145.77
145.773
145.776
145.778
145.781
145.783
145.785
145.787
145.79
145.792
145.794
145.797
145.799
145.803
145.806
145.811
145.816
145.821
145.828
145.835
145.844
145.853
145.863
145.874
145.887
145.9
145.915
145.931
145.948
145.966
145.986
146.008
146.031
146.055
146.081
146.109
146.138
146.169
146.202
146.237
146.274
146.312
146.353
146.397
146.442
146.49
146.54
146.592
146.647
146.704
146.764
146.826
146.89
146.957
147.025
147.096
147.17
147.246
147.324
147.405
147.489
147.576
147.666
147.758
147.853
147.951
148.052
148.155
148.261
148.369
148.481
148.594
148.711
148.83
148.953
149.078
149.206
149.337
149.471
149.607
149.747
149.89
150.036
150.185
150.337
150.492
150.651
150.813
150.978
151.147
151.319
151.493
146.392
146.443
146.491
146.538
146.583
146.626
146.667
146.707
146.744
146.78
146.813
146.845
146.875
146.903
146.929
146.954
146.977
146.998
147.017
147.035
147.05
147.064
147.076
147.086
147.095
147.104
147.111
147.117
147.123
147.128
147.132
147.136
147.139
147.141
147.143
147.145
147.146
147.148
147.149
147.15
147.151
147.152
147.153
147.154
147.156
147.158
147.16
147.164
147.168
147.173
147.179
147.186
147.194
147.204
147.215
147.228
147.242
147.258
147.275
147.295
147.316
147.34
147.366
147.393
147.424
147.456
147.491
147.528
147.568
147.611
147.656
147.704
147.754
147.807
147.863
147.922
147.983
148.048
148.115
148.186
148.26
148.337
148.417
148.501
148.587
148.678
148.771
148.866
148.966
149.068
149.173
149.281
149.391
149.505
149.621
149.741
149.864
149.99
150.119
150.251
150.386
150.524
150.665
150.809
150.956
151.106
151.259
151.414
151.572
151.733
151.896
152.063
152.232
152.405
152.58
152.758
152.938
153.122
153.308
153.497
153.69
153.885
154.084
154.286
154.491
154.699
154.91
155.123
148.346
148.412
148.474
148.533
148.588
148.64
148.689
148.735
148.778
148.819
148.857
148.893
148.926
148.957
148.985
149.011
149.036
149.057
149.077
149.093
149.107
149.119
149.129
149.137
149.144
149.149
149.154
149.158
149.161
149.163
149.164
149.165
149.165
149.165
149.165
149.165
149.164
149.164
149.164
149.165
149.165
149.167
149.168
149.171
149.174
149.178
149.184
149.191
149.199
149.209
149.221
149.235
149.25
149.268
149.288
149.31
149.335
149.363
149.393
149.426
149.462
149.5
149.542
149.588
149.636
149.688
149.743
149.802
149.864
149.93
149.999
150.072
150.149
150.229
150.312
150.4
150.49
150.585
150.683
150.785
150.891
151
151.113
151.229
151.349
151.473
151.599
151.73
151.864
152.001
152.141
152.284
152.43
152.579
152.73
152.885
153.043
153.205
153.369
153.536
153.706
153.878
154.054
154.232
154.412
154.596
154.782
154.97
155.162
155.356
155.552
155.751
155.952
156.156
156.363
156.572
156.784
156.998
157.215
157.434
157.656
157.88
158.108
158.338
158.572
158.808
159.047
159.288
151.031
151.099
151.162
151.22
151.273
151.322
151.368
151.411
151.451
151.489
151.523
151.555
151.584
151.611
151.636
151.658
151.678
151.695
151.71
151.721
151.73
151.737
151.742
151.746
151.749
151.751
151.752
151.752
151.752
151.752
151.752
151.751
151.751
151.751
151.751
151.752
151.754
151.756
151.759
151.763
151.769
151.775
151.783
151.793
151.804
151.817
151.832
151.849
151.869
151.891
151.916
151.944
151.975
152.009
152.046
152.086
152.13
152.178
152.229
152.283
152.342
152.404
152.471
152.541
152.616
152.694
152.777
152.864
152.955
153.051
153.15
153.254
153.361
153.473
153.589
153.708
153.832
153.959
154.09
154.225
154.363
154.506
154.651
154.8
154.954
155.109
155.268
155.432
155.597
155.765
155.937
156.111
156.288
156.468
156.65
156.835
157.023
157.214
157.408
157.603
157.802
158.003
158.205
158.411
158.618
158.828
159.041
159.255
159.472
159.691
159.913
160.136
160.363
160.591
160.822
161.055
161.291
161.529
161.768
162.01
162.255
162.501
162.751
163.003
163.258
163.515
163.775
154.137
154.199
154.255
154.306
154.352
154.394
154.433
154.469
154.503
154.533
154.561
154.586
154.61
154.631
154.651
154.668
154.684
154.698
154.709
154.718
154.724
154.729
154.732
154.735
154.736
154.737
154.738
154.739
154.74
154.742
154.744
154.747
154.751
154.755
154.761
154.769
154.778
154.788
154.801
154.815
154.831
154.85
154.87
154.893
154.918
154.946
154.977
155.011
155.049
155.09
155.134
155.182
155.234
155.289
155.349
155.413
155.481
155.553
155.629
155.71
155.795
155.884
155.978
156.076
156.179
156.286
156.397
156.513
156.633
156.757
156.886
157.018
157.155
157.296
157.44
157.588
157.74
157.896
158.055
158.218
158.385
158.554
158.727
158.903
159.081
159.263
159.448
159.636
159.825
160.018
160.214
160.411
160.611
160.813
161.018
161.225
161.435
161.647
161.861
162.078
162.296
162.517
162.739
162.963
163.19
163.418
163.649
163.882
164.116
164.353
164.592
164.833
165.076
165.322
165.57
165.82
166.072
166.326
166.581
166.839
167.099
167.362
167.627
167.894
168.163
168.434
168.707
168.98
157.378
157.436
157.489
157.538
157.582
157.622
157.657
157.69
157.72
157.747
157.771
157.794
157.815
157.834
157.851
157.867
157.883
157.897
157.91
157.921
157.93
157.938
157.945
157.951
157.956
157.961
157.967
157.972
157.979
157.986
157.995
158.005
158.016
158.03
158.045
158.062
158.082
158.104
158.128
158.155
158.185
158.218
158.253
158.292
158.334
158.379
158.427
158.479
158.535
158.595
158.658
158.726
158.798
158.875
158.956
159.041
159.13
159.224
159.323
159.426
159.534
159.646
159.762
159.883
160.008
160.138
160.272
160.41
160.553
160.699
160.85
161.004
161.162
161.324
161.49
161.659
161.831
162.007
162.186
162.368
162.554
162.742
162.933
163.127
163.323
163.522
163.724
163.928
164.134
164.343
164.554
164.767
164.982
165.199
165.417
165.639
165.862
166.087
166.314
166.544
166.775
167.008
167.242
167.479
167.717
167.957
168.2
168.444
168.689
168.936
169.185
169.436
169.69
169.946
170.204
170.464
170.726
170.99
171.255
171.523
171.792
172.063
172.337
172.612
172.89
173.169
173.449
173.73
160.695
160.748
160.798
160.844
160.886
160.925
160.959
160.991
161.02
161.046
161.07
161.092
161.113
161.133
161.151
161.168
161.185
161.202
161.217
161.233
161.247
161.261
161.275
161.288
161.301
161.315
161.328
161.343
161.358
161.375
161.394
161.414
161.437
161.462
161.49
161.521
161.554
161.59
161.63
161.673
161.719
161.769
161.822
161.879
161.94
162.004
162.072
162.144
162.22
162.301
162.385
162.474
162.567
162.665
162.767
162.874
162.985
163.101
163.221
163.346
163.475
163.609
163.747
163.889
164.035
164.185
164.34
164.498
164.661
164.827
164.996
165.17
165.346
165.526
165.71
165.896
166.085
166.278
166.473
166.671
166.872
167.075
167.281
167.49
167.7
167.913
168.128
168.345
168.564
168.784
169.008
169.233
169.459
169.687
169.917
170.149
170.382
170.618
170.855
171.094
171.335
171.577
171.82
172.066
172.313
172.562
172.812
173.065
173.318
173.572
173.829
174.088
174.349
174.612
174.877
175.145
175.414
175.685
175.958
176.232
176.508
176.785
177.065
177.346
177.629
177.913
178.198
178.484
164.067
164.113
164.157
164.199
164.238
164.273
164.305
164.336
164.365
164.391
164.415
164.439
164.462
164.484
164.505
164.526
164.547
164.568
164.59
164.612
164.634
164.657
164.68
164.703
164.727
164.753
164.779
164.807
164.836
164.868
164.902
164.939
164.979
165.021
165.068
165.117
165.17
165.227
165.288
165.352
165.42
165.493
165.569
165.65
165.735
165.823
165.916
166.014
166.115
166.221
166.331
166.445
166.564
166.687
166.815
166.947
167.084
167.224
167.37
167.519
167.672
167.83
167.992
168.157
168.326
168.499
168.676
168.856
169.039
169.226
169.415
169.608
169.804
170.003
170.204
170.408
170.614
170.823
171.034
171.248
171.464
171.682
171.903
172.125
172.349
172.575
172.803
173.032
173.262
173.495
173.73
173.966
174.203
174.441
174.682
174.923
175.167
175.412
175.658
175.906
176.155
176.406
176.659
176.913
177.169
177.426
177.684
177.944
178.204
178.466
178.731
178.998
179.266
179.536
179.809
180.083
180.359
180.637
180.916
181.197
181.479
181.762
182.047
182.333
182.62
182.908
183.197
167.356
167.402
167.445
167.487
167.527
167.564
167.6
167.634
167.667
167.697
167.727
167.756
167.785
167.812
167.84
167.868
167.897
167.925
167.955
167.986
168.018
168.052
168.086
168.122
168.159
168.198
168.239
168.281
168.326
168.373
168.423
168.475
168.531
168.591
168.654
168.721
168.793
168.868
168.947
169.03
169.118
169.21
169.307
169.408
169.513
169.623
169.736
169.855
169.977
170.103
170.234
170.369
170.508
170.652
170.799
170.951
171.107
171.267
171.431
171.599
171.771
171.946
172.126
172.308
172.494
172.684
172.877
173.072
173.271
173.473
173.677
173.884
174.094
174.306
174.52
174.737
174.955
175.176
175.399
175.624
175.85
176.079
176.309
176.541
176.774
177.01
177.247
177.485
177.723
177.965
178.208
178.451
178.695
178.941
179.189
179.437
179.687
179.938
180.191
180.444
180.699
180.956
181.215
181.474
181.735
181.997
182.261
182.525
182.79
183.056
183.325
183.596
183.869
184.142
184.418
184.696
184.976
185.257
185.539
185.823
186.108
186.393
186.68
186.968
187.257
187.546
187.835
188.123
188.411
170.598
170.645
170.69
170.734
170.776
170.817
170.858
170.897
170.935
170.972
171.009
171.045
171.081
171.117
171.153
171.191
171.228
171.267
171.307
171.349
171.393
171.438
171.485
171.535
171.586
171.64
171.696
171.755
171.816
171.88
171.947
172.017
172.091
172.168
172.249
172.335
172.425
172.519
172.617
172.72
172.827
172.939
173.055
173.176
173.301
173.431
173.565
173.703
173.846
173.992
174.143
174.297
174.456
174.618
174.784
174.954
175.128
175.306
175.487
175.672
175.86
176.052
176.247
176.446
176.647
176.851
177.059
177.268
177.481
177.696
177.913
178.133