/*--------------------------------*- C++ -*----------------------------------*\
| =========                 |                                                 |
| \\      /  F ield         | OpenFOAM: The Open Source CFD Toolbox           |
|  \\    /   O peration     | Version:  v1706                                 |
|   \\  /    A nd           | Web:      www.OpenFOAM.com                      |
|    \\/     M anipulation  |                                                 |
\*---------------------------------------------------------------------------*/
FoamFile
{
    version     2.0;
    format      ascii;
    class       volVectorField;
    location    "3.6e-05";
    object      U;
}
// * * * * * * * * * * * * * * * * * * * * * * * * * * * * * * * * * * * * * //

dimensions      [0 1 -1 0 0 0 0];


internalField   nonuniform List<vector> 
29871
(
(1760 -6.58994e-11 5.70619e-15)
(1760 -6.60413e-11 3.40584e-15)
(1760 -6.60155e-11 3.93696e-15)
(1760 -6.62193e-11 3.98152e-15)
(1760 -6.62396e-11 2.0426e-15)
(1760 -6.61618e-11 2.09576e-15)
(1760 -6.61329e-11 3.23542e-15)
(1760 -6.58276e-11 3.41649e-15)
(1760 -6.56234e-11 3.83001e-15)
(1760 -6.57819e-11 3.7094e-15)
(1760 -6.59678e-11 4.25109e-15)
(1760 -6.57528e-11 5.66452e-15)
(1760 -6.49113e-11 4.49884e-15)
(1760 -6.39451e-11 5.18236e-15)
(1760 -6.27846e-11 3.77711e-15)
(1760 -6.19451e-11 2.12259e-15)
(1760 -6.14682e-11 2.66122e-15)
(1760 -6.08056e-11 3.42575e-15)
(1760 -6.00557e-11 3.61753e-15)
(1760 -5.83193e-11 3.91234e-15)
(1760 -5.68562e-11 3.61296e-15)
(1760 -5.57925e-11 3.77617e-15)
(1760 -5.54351e-11 1.62546e-15)
(1760 -5.5694e-11 3.69346e-15)
(1760 -5.55829e-11 4.69194e-15)
(1760 -5.51601e-11 3.90052e-15)
(1760 -5.38177e-11 6.09976e-15)
(1760 -5.32611e-11 2.98533e-15)
(1760 -5.34772e-11 1.79819e-15)
(1760 -5.52148e-11 3.79769e-15)
(1760 -5.65273e-11 3.47792e-15)
(1760 -5.76232e-11 2.39962e-15)
(1760 -5.91102e-11 3.63714e-15)
(1760 -6.00819e-11 5.49098e-15)
(1760 -5.99097e-11 3.01399e-15)
(1760 -5.96671e-11 1.81199e-15)
(1760 -6.06523e-11 7.47334e-16)
(1760 -6.19554e-11 3.37165e-15)
(1760 -6.36763e-11 4.32758e-15)
(1760 -6.49685e-11 4.50975e-15)
(1760 -6.56275e-11 5.87173e-15)
(1760 -6.59426e-11 6.42337e-15)
(1760 -6.5778e-11 6.56527e-15)
(1760 -6.56568e-11 2.94059e-15)
(1760 -6.71894e-11 3.35891e-15)
(1760 -6.83847e-11 3.64856e-15)
(1760 -6.97763e-11 2.19725e-15)
(1760 -7.07049e-11 7.68701e-16)
(1760 -7.11695e-11 1.06174e-15)
(1760 -7.15407e-11 5.66768e-15)
(1760 -7.24459e-11 4.6416e-15)
(1760 -7.3041e-11 1.92053e-15)
(1760 -7.29169e-11 3.10427e-15)
(1760 -7.30406e-11 4.83774e-15)
(1760 -7.41622e-11 4.26713e-15)
(1760 -7.51328e-11 4.04011e-15)
(1760 -7.51016e-11 5.37597e-15)
(1760 -7.54652e-11 5.9749e-15)
(1760 -7.75309e-11 4.31153e-15)
(1760 -7.86575e-11 3.51074e-15)
(1760 -7.97821e-11 2.30061e-15)
(1760 -8.0851e-11 1.96631e-15)
(1760 -8.32539e-11 1.94239e-15)
(1760 -8.38006e-11 1.99024e-16)
(1760 -8.33876e-11 4.43957e-15)
(1760 -8.32283e-11 5.01402e-15)
(1760 -8.37553e-11 2.93112e-15)
(1760 -8.38749e-11 2.13538e-15)
(1760 -8.37528e-11 1.77422e-15)
(1760 -8.35362e-11 2.23042e-15)
(1760 -8.21039e-11 3.37482e-15)
(1760 -8.09078e-11 3.84297e-15)
(1760 -7.96004e-11 1.312e-15)
(1760 -7.8505e-11 2.33341e-15)
(1760 -7.79987e-11 2.30713e-15)
(1760 -7.75683e-11 3.95969e-15)
(1760 -7.58472e-11 1.71956e-15)
(1760 -7.36152e-11 2.63348e-15)
(1760 -6.92786e-11 8.99099e-16)
(1760 -6.71052e-11 4.52215e-15)
(1760 -6.66905e-11 5.45663e-15)
(1760 -6.55603e-11 4.08139e-15)
(1760 -6.37328e-11 3.89033e-15)
(1760 -6.12705e-11 2.64804e-15)
(1760 -5.78053e-11 4.65953e-15)
(1760 -5.33241e-11 4.06651e-15)
(1760 -4.89619e-11 2.60634e-15)
(1760 -4.57503e-11 3.94784e-15)
(1760 -4.01615e-11 4.37156e-15)
(1760 -3.48962e-11 3.21851e-15)
(1760 -2.97784e-11 3.91537e-15)
(1760 -2.3469e-11 1.03389e-15)
(1760 -2.11631e-11 1.38409e-15)
(1760 -1.88902e-11 3.11665e-15)
(1760 -1.65086e-11 1.88304e-15)
(1760 -1.59904e-11 2.30796e-15)
(1760 -1.47888e-11 2.27896e-15)
(1760 -1.43821e-11 2.45486e-15)
(1760 -1.43721e-11 2.50591e-15)
(1760 -1.51352e-11 2.88349e-15)
(1760 -1.58593e-11 3.72081e-15)
(1760 -1.73257e-11 3.27969e-15)
(1760 -2.03952e-11 1.37893e-15)
(1760 -3.03323e-11 2.39928e-15)
(1760 -4.51499e-11 7.03411e-16)
(1760 -1.8994e-10 9.21506e-15)
(1760 -1.91153e-10 9.56212e-15)
(1760 -1.91136e-10 1.19423e-14)
(1760 -1.91411e-10 1.1997e-14)
(1760 -1.93448e-10 1.04888e-14)
(1760 -1.93639e-10 1.33042e-14)
(1760 -1.94568e-10 1.23558e-14)
(1760 -1.94505e-10 1.13951e-14)
(1760 -1.94624e-10 1.1889e-14)
(1760 -1.9309e-10 1.1774e-14)
(1760 -1.92591e-10 1.18433e-14)
(1760 -1.92447e-10 1.09496e-14)
(1760 -1.95324e-10 1.26518e-14)
(1760 -1.96257e-10 9.49292e-15)
(1760 -1.981e-10 5.8808e-15)
(1760 -1.98796e-10 8.49831e-15)
(1760 -2.00815e-10 1.09266e-14)
(1760 -2.02782e-10 1.12262e-14)
(1760 -2.04639e-10 9.40064e-15)
(1760 -2.07044e-10 7.85043e-15)
(1760 -2.09764e-10 9.62235e-15)
(1760 -2.08857e-10 1.01586e-14)
(1760 -2.06695e-10 1.20335e-14)
(1760 -2.04387e-10 1.29352e-14)
(1760 -2.04606e-10 1.09807e-14)
(1760 -2.0491e-10 1.14638e-14)
(1760 -2.05209e-10 1.22093e-14)
(1760 -2.04847e-10 1.12437e-14)
(1760 -2.02846e-10 1.13016e-14)
(1760 -1.98711e-10 1.11953e-14)
(1760 -1.98605e-10 1.25685e-14)
(1760 -1.96859e-10 7.43841e-15)
(1760 -1.9591e-10 1.13005e-14)
(1760 -1.9547e-10 1.30484e-14)
(1760 -1.96707e-10 1.20551e-14)
(1760 -1.96052e-10 1.15075e-14)
(1760 -1.94338e-10 8.4312e-15)
(1760 -1.9236e-10 1.14166e-14)
(1760 -1.90404e-10 1.12031e-14)
(1760 -1.88058e-10 1.1418e-14)
(1760 -1.85319e-10 1.16092e-14)
(1760 -1.80427e-10 1.0496e-14)
(1760 -1.77861e-10 1.06547e-14)
(1760 -1.75757e-10 9.93113e-15)
(1760 -1.72794e-10 9.88131e-15)
(1760 -1.70456e-10 1.03769e-14)
(1760 -1.67152e-10 1.07569e-14)
(1760 -1.6456e-10 7.16306e-15)
(1760 -1.62184e-10 9.59061e-15)
(1760 -1.60625e-10 8.98121e-15)
(1760 -1.56564e-10 5.83281e-15)
(1760 -1.53145e-10 9.07826e-15)
(1760 -1.50884e-10 1.07458e-14)
(1760 -1.48022e-10 8.32337e-15)
(1760 -1.44264e-10 8.6654e-15)
(1760 -1.41888e-10 8.38563e-15)
(1760 -1.37944e-10 9.60637e-15)
(1760 -1.33863e-10 1.16581e-14)
(1760 -1.30481e-10 7.26186e-15)
(1760 -1.28272e-10 5.43413e-15)
(1760 -1.25103e-10 8.66092e-15)
(1760 -1.23535e-10 6.12854e-15)
(1760 -1.23068e-10 7.6548e-15)
(1760 -1.23945e-10 5.73544e-15)
(1760 -1.24753e-10 8.42119e-15)
(1760 -1.23032e-10 8.04529e-15)
(1760 -1.20527e-10 6.82695e-15)
(1760 -1.19913e-10 9.34339e-15)
(1760 -1.20031e-10 1.03572e-14)
(1760 -1.22095e-10 7.61659e-15)
(1760 -1.24828e-10 1.12295e-14)
(1760 -1.26166e-10 5.84155e-15)
(1760 -1.26221e-10 5.94989e-15)
(1760 -1.26693e-10 9.5578e-15)
(1760 -1.26649e-10 7.06644e-15)
(1760 -1.28519e-10 7.37409e-15)
(1760 -1.35e-10 6.52763e-15)
(1760 -1.42661e-10 7.79277e-15)
(1760 -1.53593e-10 7.15979e-15)
(1760 -1.63416e-10 1.12676e-14)
(1760 -1.69282e-10 9.19995e-15)
(1760 -1.73362e-10 8.65452e-15)
(1760 -1.80663e-10 8.67853e-15)
(1760 -1.87444e-10 9.79823e-15)
(1760 -2.00813e-10 1.04692e-14)
(1760 -2.17839e-10 1.11567e-14)
(1760 -2.29156e-10 1.15464e-14)
(1760 -2.4234e-10 1.09975e-14)
(1760 -2.53384e-10 1.14164e-14)
(1760 -2.64766e-10 1.15555e-14)
(1760 -2.72952e-10 1.00118e-14)
(1760 -2.79464e-10 8.28386e-15)
(1760 -2.85133e-10 1.28423e-14)
(1760 -2.88389e-10 1.26964e-14)
(1760 -2.93785e-10 9.95389e-15)
(1760 -2.98434e-10 8.9192e-15)
(1760 -3.03591e-10 9.56705e-15)
(1760 -3.05182e-10 9.78181e-15)
(1760 -3.05045e-10 8.54047e-15)
(1760 -3.04669e-10 4.70855e-15)
(1760 -2.9777e-10 8.34351e-15)
(1760 -2.90967e-10 9.2392e-15)
(1760 -2.79229e-10 6.39777e-15)
(1760 -2.51687e-10 7.52619e-15)
(1760 -2.06918e-10 5.07638e-15)
(1760 -3.33193e-10 2.19745e-14)
(1760 -3.31585e-10 2.32397e-14)
(1760 -3.32138e-10 1.75994e-14)
(1760 -3.3097e-10 2.05129e-14)
(1760 -3.28097e-10 2.39124e-14)
(1760 -3.27165e-10 2.02341e-14)
(1760 -3.27692e-10 2.09757e-14)
(1760 -3.27401e-10 1.97296e-14)
(1760 -3.26489e-10 2.17585e-14)
(1760 -3.2547e-10 2.07654e-14)
(1760 -3.22186e-10 1.83775e-14)
(1760 -3.2001e-10 1.65491e-14)
(1760 -3.14956e-10 1.32902e-14)
(1760 -3.10042e-10 1.72024e-14)
(1760 -3.0684e-10 1.80245e-14)
(1760 -3.05038e-10 1.84633e-14)
(1760 -3.01835e-10 1.66403e-14)
(1760 -2.98842e-10 1.71573e-14)
(1760 -2.96463e-10 1.57783e-14)
(1760 -2.93984e-10 1.53494e-14)
(1760 -2.92876e-10 1.62326e-14)
(1760 -2.93334e-10 1.23137e-14)
(1760 -2.96019e-10 1.60695e-14)
(1760 -2.95907e-10 1.8147e-14)
(1760 -2.92892e-10 1.41066e-14)
(1760 -2.91651e-10 1.66562e-14)
(1760 -2.89033e-10 1.85006e-14)
(1760 -2.88535e-10 1.75113e-14)
(1760 -2.88601e-10 1.70017e-14)
(1760 -2.88204e-10 1.7272e-14)
(1760 -2.88348e-10 1.70122e-14)
(1760 -2.89038e-10 1.79777e-14)
(1760 -2.90546e-10 1.70867e-14)
(1760 -2.95545e-10 1.81426e-14)
(1760 -3.01925e-10 1.82677e-14)
(1760 -3.08204e-10 1.8518e-14)
(1760 -3.14522e-10 1.86044e-14)
(1760 -3.19689e-10 1.81683e-14)
(1760 -3.24896e-10 1.7974e-14)
(1760 -3.29576e-10 1.93529e-14)
(1760 -3.34482e-10 1.93508e-14)
(1760 -3.45229e-10 1.76955e-14)
(1760 -3.49531e-10 1.74046e-14)
(1760 -3.54108e-10 1.68988e-14)
(1760 -3.57331e-10 1.78576e-14)
(1760 -3.60213e-10 1.66895e-14)
(1760 -3.64187e-10 1.98573e-14)
(1760 -3.6609e-10 1.88434e-14)
(1760 -3.69734e-10 1.64145e-14)
(1760 -3.73262e-10 1.56433e-14)
(1760 -3.76882e-10 1.39121e-14)
(1760 -3.81789e-10 1.63998e-14)
(1760 -3.8304e-10 1.4863e-14)
(1760 -3.85091e-10 1.3235e-14)
(1760 -3.87577e-10 1.50585e-14)
(1760 -3.90443e-10 1.71386e-14)
(1760 -3.9127e-10 1.51359e-14)
(1760 -3.93576e-10 1.84488e-14)
(1760 -3.92923e-10 2.00669e-14)
(1760 -3.92734e-10 1.62241e-14)
(1760 -3.93145e-10 1.54526e-14)
(1760 -3.94877e-10 1.36929e-14)
(1760 -3.93853e-10 1.48219e-14)
(1760 -3.94124e-10 1.90463e-14)
(1760 -3.96551e-10 1.42286e-14)
(1760 -3.97422e-10 1.51019e-14)
(1760 -4.03901e-10 1.51389e-14)
(1760 -4.04907e-10 1.53076e-14)
(1760 -4.04484e-10 1.57488e-14)
(1760 -4.0368e-10 1.63409e-14)
(1760 -4.01371e-10 1.47616e-14)
(1760 -3.99557e-10 1.70124e-14)
(1760 -3.99536e-10 1.38368e-14)
(1760 -3.97638e-10 1.54291e-14)
(1760 -3.95641e-10 1.55979e-14)
(1760 -3.90065e-10 1.36641e-14)
(1760 -3.84576e-10 1.55627e-14)
(1760 -3.78306e-10 1.6955e-14)
(1760 -3.58417e-10 1.35572e-14)
(1760 -3.30053e-10 1.19664e-14)
(1760 -3.05056e-10 1.51659e-14)
(1760 -2.9363e-10 1.49724e-14)
(1760 -2.85906e-10 1.51886e-14)
(1760 -2.75404e-10 1.44591e-14)
(1760 -2.64768e-10 1.53678e-14)
(1760 -2.37125e-10 1.82482e-14)
(1760 -2.09038e-10 1.48263e-14)
(1760 -1.86445e-10 1.39745e-14)
(1760 -1.74503e-10 1.67291e-14)
(1760 -1.67272e-10 1.52012e-14)
(1760 -1.6454e-10 1.59102e-14)
(1760 -1.55421e-10 1.47935e-14)
(1760 -1.45528e-10 1.38383e-14)
(1760 -1.37621e-10 1.55854e-14)
(1760 -1.25902e-10 1.6865e-14)
(1760 -1.09589e-10 1.48711e-14)
(1760 -9.49157e-11 1.31797e-14)
(1760 -8.92421e-11 1.5353e-14)
(1760 -9.1937e-11 1.50854e-14)
(1760 -9.79045e-11 1.39398e-14)
(1760 -1.07269e-10 1.32092e-14)
(1760 -1.27859e-10 1.43499e-14)
(1760 -1.47692e-10 1.361e-14)
(1760 -1.77449e-10 1.25079e-14)
(1760 -2.25967e-10 1.24167e-14)
(1760 -2.9217e-10 1.33045e-14)
(1760 -4.40056e-10 2.96471e-14)
(1760 -4.38334e-10 3.29671e-14)
(1760 -4.36998e-10 2.64296e-14)
(1760 -4.36693e-10 2.67547e-14)
(1760 -4.36647e-10 2.75044e-14)
(1760 -4.37108e-10 2.6158e-14)
(1760 -4.39511e-10 2.90035e-14)
(1760 -4.45192e-10 2.95006e-14)
(1760 -4.51155e-10 2.63652e-14)
(1760 -4.61055e-10 2.35494e-14)
(1760 -4.67858e-10 2.71566e-14)
(1760 -4.76883e-10 2.66879e-14)
(1760 -4.80065e-10 2.65405e-14)
(1760 -4.82235e-10 2.62485e-14)
(1760 -4.86076e-10 2.6602e-14)
(1760 -4.89431e-10 2.50682e-14)
(1760 -4.92802e-10 2.47687e-14)
(1760 -4.96497e-10 2.52482e-14)
(1760 -4.999e-10 2.48248e-14)
(1760 -5.01423e-10 2.55647e-14)
(1760 -5.03257e-10 2.47167e-14)
(1760 -5.06669e-10 2.67883e-14)
(1760 -5.08874e-10 2.84303e-14)
(1760 -5.15424e-10 2.54893e-14)
(1760 -5.18271e-10 2.4667e-14)
(1760 -5.19365e-10 2.53389e-14)
(1760 -5.1998e-10 2.77311e-14)
(1760 -5.17435e-10 2.54178e-14)
(1760 -5.14282e-10 2.23154e-14)
(1760 -5.09801e-10 2.53166e-14)
(1760 -5.00427e-10 2.49351e-14)
(1760 -4.89002e-10 2.52068e-14)
(1760 -4.77741e-10 2.39987e-14)
(1760 -4.61e-10 2.62481e-14)
(1760 -4.37221e-10 2.57081e-14)
(1760 -4.16831e-10 2.50201e-14)
(1760 -4.02272e-10 2.57017e-14)
(1760 -3.9357e-10 2.38207e-14)
(1760 -3.86705e-10 2.46999e-14)
(1760 -3.75287e-10 2.1681e-14)
(1760 -3.6326e-10 2.45369e-14)
(1760 -3.53661e-10 2.58061e-14)
(1760 -3.47486e-10 2.31702e-14)
(1760 -3.43002e-10 2.46053e-14)
(1760 -3.36138e-10 2.58129e-14)
(1760 -3.29607e-10 2.27846e-14)
(1760 -3.2285e-10 2.1673e-14)
(1760 -3.15797e-10 2.34515e-14)
(1760 -3.07135e-10 2.65985e-14)
(1760 -2.99022e-10 2.21005e-14)
(1760 -2.94717e-10 2.06767e-14)
(1760 -2.94274e-10 2.05046e-14)
(1760 -2.90859e-10 2.04684e-14)
(1760 -2.86791e-10 2.41127e-14)
(1760 -2.80744e-10 2.01343e-14)
(1760 -2.75641e-10 2.01215e-14)
(1760 -2.70011e-10 2.29789e-14)
(1760 -2.64803e-10 2.31672e-14)
(1760 -2.59914e-10 2.14005e-14)
(1760 -2.53912e-10 2.16487e-14)
(1760 -2.4589e-10 2.29844e-14)
(1760 -2.3565e-10 2.00951e-14)
(1760 -2.28094e-10 1.91238e-14)
(1760 -2.20489e-10 1.93111e-14)
(1760 -2.12921e-10 1.91502e-14)
(1760 -2.06311e-10 1.99864e-14)
(1760 -2.04143e-10 1.97701e-14)
(1760 -2.04582e-10 1.95091e-14)
(1760 -2.06688e-10 1.94859e-14)
(1760 -2.14227e-10 1.95574e-14)
(1760 -2.27112e-10 2.1046e-14)
(1760 -2.38202e-10 2.11547e-14)
(1760 -2.43577e-10 2.16276e-14)
(1760 -2.4576e-10 2.15746e-14)
(1760 -2.48835e-10 1.96011e-14)
(1760 -2.55652e-10 1.9586e-14)
(1760 -2.73519e-10 2.14233e-14)
(1760 -2.94873e-10 2.12612e-14)
(1760 -3.18358e-10 2.11201e-14)
(1760 -3.63297e-10 2.41985e-14)
(1760 -4.20394e-10 2.29664e-14)
(1760 -4.62707e-10 1.95615e-14)
(1760 -4.76164e-10 1.84488e-14)
(1760 -4.83248e-10 1.9045e-14)
(1760 -4.92494e-10 2.08185e-14)
(1760 -5.1452e-10 1.68152e-14)
(1760 -5.4235e-10 1.77302e-14)
(1760 -5.66034e-10 2.31868e-14)
(1760 -5.8619e-10 2.18334e-14)
(1760 -6.03665e-10 1.89184e-14)
(1760 -6.16589e-10 1.96849e-14)
(1760 -6.37826e-10 1.96135e-14)
(1760 -6.49344e-10 2.06703e-14)
(1760 -6.61839e-10 2.2204e-14)
(1760 -6.83749e-10 1.89686e-14)
(1760 -7.06051e-10 1.84331e-14)
(1760 -7.24324e-10 2.39889e-14)
(1760 -7.46155e-10 2.30455e-14)
(1760 -7.65659e-10 1.93976e-14)
(1760 -7.47912e-10 2.18023e-14)
(1760 -7.1616e-10 2.08565e-14)
(1760 -6.54395e-10 2.02023e-14)
(1760 -5.84464e-10 2.12403e-14)
(1760 -5.52466e-10 2.08669e-14)
(1760 -4.61857e-10 1.9519e-14)
(1760 -3.48947e-10 2.04113e-14)
(1760 -6.27815e-10 3.83715e-14)
(1760 -6.2747e-10 3.88536e-14)
(1760 -6.25887e-10 3.74516e-14)
(1760 -6.21649e-10 3.67956e-14)
(1760 -6.14416e-10 3.82096e-14)
(1760 -6.0449e-10 3.58613e-14)
(1760 -5.90662e-10 3.56055e-14)
(1760 -5.73202e-10 3.86956e-14)
(1760 -5.55414e-10 3.99684e-14)
(1760 -5.34826e-10 3.84614e-14)
(1760 -5.23147e-10 3.39021e-14)
(1760 -5.14211e-10 3.31774e-14)
(1760 -5.03431e-10 3.46961e-14)
(1760 -4.92789e-10 3.13164e-14)
(1760 -4.80415e-10 3.07606e-14)
(1760 -4.66681e-10 3.56939e-14)
(1760 -4.55321e-10 3.35184e-14)
(1760 -4.42083e-10 3.61063e-14)
(1760 -4.29914e-10 3.54003e-14)
(1760 -4.20464e-10 3.28162e-14)
(1760 -4.11914e-10 3.2864e-14)
(1760 -4.02251e-10 3.21023e-14)
(1760 -3.96264e-10 3.3976e-14)
(1760 -3.91941e-10 3.65326e-14)
(1760 -3.92349e-10 3.36264e-14)
(1760 -3.97716e-10 3.23823e-14)
(1760 -4.06631e-10 3.37569e-14)
(1760 -4.17475e-10 2.91624e-14)
(1760 -4.32357e-10 2.79355e-14)
(1760 -4.47132e-10 3.10943e-14)
(1760 -4.65104e-10 3.13049e-14)
(1760 -4.88043e-10 3.11531e-14)
(1760 -5.12545e-10 3.16088e-14)
(1760 -5.37641e-10 3.1057e-14)
(1760 -5.6578e-10 3.24904e-14)
(1760 -5.93891e-10 3.12869e-14)
(1760 -6.19439e-10 3.40046e-14)
(1760 -6.34303e-10 3.50341e-14)
(1760 -6.47871e-10 2.89115e-14)
(1760 -6.52681e-10 2.8699e-14)
(1760 -6.53634e-10 3.2849e-14)
(1760 -6.58006e-10 3.32713e-14)
(1760 -6.60512e-10 3.13998e-14)
(1760 -6.64081e-10 3.04222e-14)
(1760 -6.71654e-10 3.25606e-14)
(1760 -6.77443e-10 3.29042e-14)
(1760 -6.83501e-10 3.22445e-14)
(1760 -6.93517e-10 3.1981e-14)
(1760 -7.04187e-10 2.95426e-14)
(1760 -7.13055e-10 3.08602e-14)
(1760 -7.17772e-10 2.83153e-14)
(1760 -7.20268e-10 2.7098e-14)
(1760 -7.23574e-10 2.68607e-14)
(1760 -7.32856e-10 3.13424e-14)
(1760 -7.44966e-10 3.08892e-14)
(1760 -7.56628e-10 2.93944e-14)
(1760 -7.68418e-10 2.97572e-14)
(1760 -7.77717e-10 3.06805e-14)
(1760 -7.89029e-10 3.02881e-14)
(1760 -7.97661e-10 2.80805e-14)
(1760 -8.07869e-10 2.76731e-14)
(1760 -8.19464e-10 2.99405e-14)
(1760 -8.25387e-10 2.81953e-14)
(1760 -8.267e-10 2.76853e-14)
(1760 -8.23509e-10 2.8528e-14)
(1760 -8.19397e-10 2.97852e-14)
(1760 -8.207e-10 2.39029e-14)
(1760 -8.2205e-10 2.39137e-14)
(1760 -8.2635e-10 2.46439e-14)
(1760 -8.29412e-10 2.58904e-14)
(1760 -8.37228e-10 2.581e-14)
(1760 -8.46011e-10 2.65368e-14)
(1760 -8.45176e-10 2.86609e-14)
(1760 -8.38195e-10 2.74234e-14)
(1760 -8.15053e-10 2.57233e-14)
(1760 -7.66903e-10 2.71498e-14)
(1760 -7.16823e-10 2.7153e-14)
(1760 -6.44889e-10 2.78288e-14)
(1760 -6.37484e-10 2.81109e-14)
(1760 -6.32657e-10 2.88512e-14)
(1760 -5.7547e-10 3.01611e-14)
(1760 -4.67898e-10 2.97096e-14)
(1760 -1.47837e-10 2.78366e-14)
(1760 5.83e-11 2.77414e-14)
(1760 9.60693e-11 2.90448e-14)
(1760 1.57656e-10 3.07336e-14)
(1760 2.23817e-10 2.95273e-14)
(1760 2.91667e-10 2.88899e-14)
(1760 3.6327e-10 3.04826e-14)
(1760 4.44796e-10 2.86538e-14)
(1760 5.25144e-10 2.9026e-14)
(1760 5.87071e-10 3.17455e-14)
(1760 6.53164e-10 2.8741e-14)
(1760 7.4141e-10 2.85485e-14)
(1760 8.37296e-10 2.96404e-14)
(1760 9.38917e-10 2.77686e-14)
(1760 1.05415e-09 2.82622e-14)
(1760 1.18913e-09 2.9966e-14)
(1760 1.33488e-09 2.71857e-14)
(1760 1.45322e-09 2.8053e-14)
(1760 1.58073e-09 2.95504e-14)
(1760 1.706e-09 2.63486e-14)
(1760 1.78897e-09 2.79346e-14)
(1760 1.95779e-09 2.99199e-14)
(1760 2.22112e-09 2.84848e-14)
(1760 2.53145e-09 2.78928e-14)
(1760 2.7075e-09 2.93139e-14)
(1760 -5.82658e-10 4.55408e-14)
(1760 -5.82833e-10 4.40131e-14)
(1760 -5.88915e-10 4.41075e-14)
(1760 -6.07274e-10 4.23378e-14)
(1760 -6.34677e-10 4.35589e-14)
(1760 -6.69259e-10 4.40974e-14)
(1760 -7.00474e-10 5.03492e-14)
(1760 -7.2719e-10 4.76044e-14)
(1760 -7.39396e-10 4.55943e-14)
(1760 -7.5288e-10 4.71651e-14)
(1760 -7.62388e-10 4.4036e-14)
(1760 -7.71175e-10 4.52759e-14)
(1760 -7.82672e-10 4.55403e-14)
(1760 -7.96693e-10 4.34642e-14)
(1760 -8.07642e-10 4.61972e-14)
(1760 -8.17869e-10 4.36498e-14)
(1760 -8.2983e-10 4.07716e-14)
(1760 -8.32637e-10 4.14386e-14)
(1760 -8.36435e-10 4.11621e-14)
(1760 -8.41265e-10 4.11964e-14)
(1760 -8.46644e-10 4.13975e-14)
(1760 -8.47255e-10 4.19818e-14)
(1760 -8.47413e-10 4.41119e-14)
(1760 -8.44293e-10 4.20855e-14)
(1760 -8.33013e-10 3.71674e-14)
(1760 -8.15901e-10 3.80709e-14)
(1760 -7.94466e-10 3.89292e-14)
(1760 -7.70047e-10 3.7654e-14)
(1760 -7.33502e-10 4.04256e-14)
(1760 -6.90778e-10 3.96967e-14)
(1760 -6.29004e-10 4.03783e-14)
(1760 -5.48202e-10 4.09487e-14)
(1760 -4.63152e-10 4.19566e-14)
(1760 -2.7925e-10 4.1679e-14)
(1760 -2.10294e-10 4.34967e-14)
(1760 -2.61332e-10 4.23893e-14)
(1760 -2.36021e-10 4.08776e-14)
(1760 -1.75345e-10 4.00174e-14)
(1760 1.47216e-13 3.99175e-14)
(1760 1.35641e-10 4.19611e-14)
(1760 1.79764e-10 4.17007e-14)
(1760 2.22942e-10 4.15391e-14)
(1760 2.57505e-10 4.20762e-14)
(1760 2.91217e-10 4.07175e-14)
(1760 3.27118e-10 4.33357e-14)
(1760 3.61967e-10 4.2837e-14)
(1760 3.97046e-10 4.15954e-14)
(1760 4.25983e-10 4.13568e-14)
(1760 4.53488e-10 3.99684e-14)
(1760 4.82981e-10 4.27631e-14)
(1760 5.14524e-10 4.03901e-14)
(1760 5.46906e-10 3.72554e-14)
(1760 5.76203e-10 3.93498e-14)
(1760 6.03608e-10 4.13766e-14)
(1760 6.38875e-10 4.37564e-14)
(1760 6.77822e-10 4.32861e-14)
(1760 7.15144e-10 4.12857e-14)
(1760 7.44495e-10 3.68225e-14)
(1760 7.73618e-10 3.66837e-14)
(1760 8.11464e-10 3.84756e-14)
(1760 8.52323e-10 3.87399e-14)
(1760 8.92155e-10 3.7473e-14)
(1760 9.25803e-10 3.72912e-14)
(1760 9.62618e-10 4.08303e-14)
(1760 1.01757e-09 3.5835e-14)
(1760 1.07531e-09 3.64447e-14)
(1760 1.13053e-09 4.27165e-14)
(1760 1.19768e-09 3.81955e-14)
(1760 1.26122e-09 3.39235e-14)
(1760 1.33033e-09 3.76829e-14)
(1760 1.41164e-09 3.73766e-14)
(1760 1.46626e-09 3.43463e-14)
(1760 1.50503e-09 3.52548e-14)
(1760 1.54753e-09 3.67007e-14)
(1760 1.61015e-09 3.66763e-14)
(1760 1.65587e-09 3.60856e-14)
(1760 1.67217e-09 3.6257e-14)
(1760 1.74455e-09 3.66231e-14)
(1760 1.88609e-09 3.62302e-14)
(1760 2.08653e-09 3.39717e-14)
(1760 2.29417e-09 3.36089e-14)
(1760 2.33302e-09 3.60285e-14)
(1760 2.19528e-09 3.64746e-14)
(1760 2.10484e-09 3.55416e-14)
(1760 2.27029e-09 3.44445e-14)
(1760 2.48384e-09 3.40999e-14)
(1760 2.73384e-09 3.45738e-14)
(1760 2.97195e-09 3.52632e-14)
(1760 3.21688e-09 3.57368e-14)
(1760 3.49661e-09 3.41198e-14)
(1760 3.79017e-09 3.48249e-14)
(1760 4.08327e-09 3.36216e-14)
(1760 4.398e-09 3.34615e-14)
(1760 4.7491e-09 3.55904e-14)
(1760 5.13718e-09 3.55531e-14)
(1760 5.5612e-09 3.26766e-14)
(1760 6.02767e-09 3.24735e-14)
(1760 6.5471e-09 3.47783e-14)
(1760 7.1003e-09 3.25218e-14)
(1760 7.70006e-09 3.28082e-14)
(1760 8.35095e-09 3.52612e-14)
(1760 9.03381e-09 3.3839e-14)
(1760 9.8415e-09 3.49844e-14)
(1760 1.07577e-08 3.40664e-14)
(1760 1.1669e-08 3.23107e-14)
(1760 1.25821e-08 3.18186e-14)
(1760 1.35718e-08 3.42887e-14)
(1760 -9.04967e-10 5.36979e-14)
(1760 -8.95773e-10 5.40965e-14)
(1760 -8.77704e-10 5.41129e-14)
(1760 -8.53192e-10 5.05474e-14)
(1760 -8.1143e-10 5.09655e-14)
(1760 -7.4447e-10 5.1033e-14)
(1760 -6.06926e-10 5.26018e-14)
(1760 -3.98155e-10 5.60267e-14)
(1760 -1.69904e-10 5.4882e-14)
(1760 -5.29083e-12 5.59944e-14)
(1760 9.90645e-11 5.2134e-14)
(1760 1.89017e-10 5.35763e-14)
(1760 2.78786e-10 5.89553e-14)
(1760 3.69281e-10 5.49035e-14)
(1760 4.57898e-10 5.26351e-14)
(1760 5.46666e-10 5.35021e-14)
(1760 6.32956e-10 5.39022e-14)
(1760 7.18657e-10 5.43727e-14)
(1760 8.08359e-10 5.41112e-14)
(1760 8.96016e-10 5.38484e-14)
(1760 9.94714e-10 5.26032e-14)
(1760 1.0939e-09 5.24547e-14)
(1760 1.19294e-09 5.21966e-14)
(1760 1.29464e-09 5.09529e-14)
(1760 1.40049e-09 5.12104e-14)
(1760 1.51706e-09 5.37725e-14)
(1760 1.60751e-09 5.31668e-14)
(1760 1.65736e-09 5.21657e-14)
(1760 1.68213e-09 5.28957e-14)
(1760 1.71136e-09 5.18798e-14)
(1760 1.75177e-09 5.03014e-14)
(1760 1.80915e-09 4.95126e-14)
(1760 1.85581e-09 5.17702e-14)
(1760 1.88354e-09 5.22176e-14)
(1760 1.95339e-09 5.05772e-14)
(1760 2.03439e-09 4.84773e-14)
(1760 2.01848e-09 4.67372e-14)
(1760 2.11532e-09 4.77217e-14)
(1760 2.36979e-09 4.7948e-14)
(1760 2.59342e-09 4.86736e-14)
(1760 2.64065e-09 4.89174e-14)
(1760 2.60857e-09 4.88176e-14)
(1760 2.63273e-09 4.66501e-14)
(1760 2.74469e-09 4.70994e-14)
(1760 2.8557e-09 4.89146e-14)
(1760 2.96036e-09 4.90858e-14)
(1760 3.06467e-09 4.80012e-14)
(1760 3.16529e-09 4.90827e-14)
(1760 3.26804e-09 4.99271e-14)
(1760 3.36884e-09 4.93089e-14)
(1760 3.46618e-09 4.70623e-14)
(1760 3.55966e-09 4.64038e-14)
(1760 3.65992e-09 4.74225e-14)
(1760 3.76157e-09 4.67114e-14)
(1760 3.86233e-09 4.88568e-14)
(1760 3.96241e-09 4.46895e-14)
(1760 4.05569e-09 4.32297e-14)
(1760 4.16141e-09 4.83589e-14)
(1760 4.27463e-09 4.76515e-14)
(1760 4.39075e-09 4.45551e-14)
(1760 4.50693e-09 4.42758e-14)
(1760 4.61796e-09 4.62666e-14)
(1760 4.74007e-09 4.30897e-14)
(1760 4.87404e-09 4.38822e-14)
(1760 5.01597e-09 4.4182e-14)
(1760 5.15859e-09 4.2271e-14)
(1760 5.30507e-09 4.833e-14)
(1760 5.47612e-09 4.46711e-14)
(1760 5.66635e-09 4.36993e-14)
(1760 5.86762e-09 4.58368e-14)
(1760 6.08581e-09 4.36534e-14)
(1760 6.32101e-09 4.28124e-14)
(1760 6.58086e-09 4.14432e-14)
(1760 6.86161e-09 4.22921e-14)
(1760 7.16879e-09 4.33237e-14)
(1760 7.50704e-09 4.23139e-14)
(1760 7.87577e-09 4.26155e-14)
(1760 8.2659e-09 4.33165e-14)
(1760 8.67554e-09 4.08816e-14)
(1760 9.16918e-09 4.17301e-14)
(1760 9.74064e-09 4.09794e-14)
(1760 1.0262e-08 4.10843e-14)
(1760 1.07099e-08 3.96701e-14)
(1760 1.11406e-08 3.93169e-14)
(1760 1.16588e-08 4.18702e-14)
(1760 1.24387e-08 4.08033e-14)
(1760 1.34653e-08 4.18491e-14)
(1760 1.4464e-08 4.04607e-14)
(1760 1.53866e-08 3.89514e-14)
(1760 1.63043e-08 3.88068e-14)
(1760 1.72808e-08 3.93394e-14)
(1760 1.84061e-08 4.05166e-14)
(1760 1.96875e-08 4.08478e-14)
(1760 2.1069e-08 3.73336e-14)
(1760 2.25506e-08 3.85476e-14)
(1760 2.41957e-08 4.20261e-14)
(1760 2.6057e-08 4.02264e-14)
(1760 2.81661e-08 4.17705e-14)
(1760 3.05459e-08 4.00112e-14)
(1760 3.32494e-08 3.87466e-14)
(1760 3.63355e-08 3.86823e-14)
(1760 3.983e-08 3.84044e-14)
(1760 4.3786e-08 4.06982e-14)
(1760 4.82189e-08 3.8876e-14)
(1760 5.31951e-08 4.11508e-14)
(1760 5.87119e-08 4.04084e-14)
(1760 6.46533e-08 3.95398e-14)
(1760 7.10323e-08 3.90363e-14)
(1760 7.81058e-08 3.66976e-14)
(1760 8.61714e-08 3.87283e-14)
(1760 1.41564e-09 6.26108e-14)
(1760 1.62226e-09 6.44566e-14)
(1760 1.83456e-09 6.4796e-14)
(1760 1.99193e-09 6.16497e-14)
(1760 2.11913e-09 6.36662e-14)
(1760 2.23394e-09 6.43592e-14)
(1760 2.31485e-09 6.36954e-14)
(1760 2.24895e-09 6.06511e-14)
(1760 2.3951e-09 6.30744e-14)
(1760 2.61988e-09 6.27801e-14)
(1760 2.88119e-09 6.03181e-14)
(1760 3.15141e-09 6.28643e-14)
(1760 3.42702e-09 6.40672e-14)
(1760 3.70052e-09 6.10161e-14)
(1760 3.97558e-09 5.80994e-14)
(1760 4.25299e-09 6.02382e-14)
(1760 4.53723e-09 6.37857e-14)
(1760 4.82567e-09 6.28853e-14)
(1760 5.12673e-09 6.21747e-14)
(1760 5.43879e-09 5.87609e-14)
(1760 5.76989e-09 5.98299e-14)
(1760 6.112e-09 5.94098e-14)
(1760 6.46512e-09 6.14679e-14)
(1760 6.83268e-09 6.24049e-14)
(1760 7.21e-09 5.93287e-14)
(1760 7.59562e-09 5.92187e-14)
(1760 8.00091e-09 6.1178e-14)
(1760 8.42927e-09 6.16344e-14)
(1760 8.84877e-09 5.96779e-14)
(1760 9.24909e-09 5.56795e-14)
(1760 9.62808e-09 5.45494e-14)
(1760 9.99501e-09 5.91097e-14)
(1760 1.03438e-08 5.8941e-14)
(1760 1.06922e-08 5.43675e-14)
(1760 1.10735e-08 5.4819e-14)
(1760 1.14172e-08 5.65279e-14)
(1760 1.17223e-08 5.54392e-14)
(1760 1.20032e-08 5.5072e-14)
(1760 1.23296e-08 5.4278e-14)
(1760 1.26591e-08 5.64649e-14)
(1760 1.29755e-08 5.60089e-14)
(1760 1.3325e-08 5.46849e-14)
(1760 1.37218e-08 5.35517e-14)
(1760 1.41528e-08 5.50615e-14)
(1760 1.46008e-08 5.43783e-14)
(1760 1.50524e-08 5.44564e-14)
(1760 1.55108e-08 5.62764e-14)
(1760 1.59757e-08 5.61079e-14)
(1760 1.64489e-08 5.33729e-14)
(1760 1.69319e-08 5.4113e-14)
(1760 1.74237e-08 5.34162e-14)
(1760 1.79348e-08 5.46019e-14)
(1760 1.84678e-08 5.2064e-14)
(1760 1.90269e-08 5.4282e-14)
(1760 1.96165e-08 5.44499e-14)
(1760 2.02384e-08 5.15344e-14)
(1760 2.08986e-08 5.35178e-14)
(1760 2.16013e-08 5.17407e-14)
(1760 2.2348e-08 5.35757e-14)
(1760 2.31281e-08 5.43514e-14)
(1760 2.39277e-08 5.23803e-14)
(1760 2.47438e-08 5.33693e-14)
(1760 2.55848e-08 5.19003e-14)
(1760 2.64487e-08 5.07585e-14)
(1760 2.73356e-08 4.82219e-14)
(1760 2.82376e-08 5.17276e-14)
(1760 2.91757e-08 5.31541e-14)
(1760 3.01665e-08 4.81451e-14)
(1760 3.122e-08 5.14785e-14)
(1760 3.23377e-08 5.31162e-14)
(1760 3.35315e-08 4.98122e-14)
(1760 3.48133e-08 4.87048e-14)
(1760 3.617e-08 4.89475e-14)
(1760 3.75993e-08 5.16575e-14)
(1760 3.91038e-08 4.83275e-14)
(1760 4.06944e-08 4.78072e-14)
(1760 4.23793e-08 4.95199e-14)
(1760 4.41675e-08 4.82747e-14)
(1760 4.61133e-08 4.73828e-14)
(1760 4.82889e-08 4.71412e-14)
(1760 5.06504e-08 4.58723e-14)
(1760 5.31462e-08 4.59987e-14)
(1760 5.58492e-08 4.77556e-14)
(1760 5.89718e-08 4.68177e-14)
(1760 6.27179e-08 4.77129e-14)
(1760 6.70548e-08 4.86773e-14)
(1760 7.17114e-08 4.71412e-14)
(1760 7.66171e-08 4.36987e-14)
(1760 8.19901e-08 4.47516e-14)
(1760 8.81477e-08 4.49962e-14)
(1760 9.53259e-08 4.6799e-14)
(1760 1.03453e-07 4.53764e-14)
(1760 1.12302e-07 4.76908e-14)
(1760 1.21808e-07 4.48847e-14)
(1760 1.32066e-07 4.56523e-14)
(1760 1.43238e-07 4.56768e-14)
(1760 1.5546e-07 4.63532e-14)
(1760 1.68842e-07 4.66572e-14)
(1760 1.83466e-07 4.39518e-14)
(1760 1.99403e-07 4.62345e-14)
(1760 2.16667e-07 4.65077e-14)
(1760 2.35288e-07 4.53364e-14)
(1760 2.55403e-07 4.47617e-14)
(1760 2.77343e-07 4.33222e-14)
(1760 3.01591e-07 4.54888e-14)
(1760 3.28601e-07 4.40721e-14)
(1760 3.58904e-07 4.46567e-14)
(1760 3.93318e-07 4.44467e-14)
(1760 4.32896e-07 4.42915e-14)
(1760 4.78532e-07 4.23759e-14)
(1760 7.75882e-09 7.30039e-14)
(1760 8.44382e-09 7.20103e-14)
(1760 9.1764e-09 7.13714e-14)
(1760 9.99988e-09 7.191e-14)
(1760 1.08541e-08 7.37985e-14)
(1760 1.17556e-08 7.12277e-14)
(1760 1.26931e-08 6.99664e-14)
(1760 1.35775e-08 7.14524e-14)
(1760 1.44965e-08 7.37405e-14)
(1760 1.54657e-08 7.19715e-14)
(1760 1.65347e-08 7.12193e-14)
(1760 1.77039e-08 6.92817e-14)
(1760 1.89603e-08 7.06692e-14)
(1760 2.02859e-08 6.87908e-14)
(1760 2.16648e-08 6.91767e-14)
(1760 2.30783e-08 7.02962e-14)
(1760 2.45069e-08 7.06107e-14)
(1760 2.5933e-08 7.04106e-14)
(1760 2.73497e-08 6.8977e-14)
(1760 2.87561e-08 6.86447e-14)
(1760 3.0157e-08 7.19732e-14)
(1760 3.15495e-08 6.87293e-14)
(1760 3.29561e-08 6.92408e-14)
(1760 3.43902e-08 6.88342e-14)
(1760 3.58682e-08 6.83218e-14)
(1760 3.73945e-08 6.80764e-14)
(1760 3.899e-08 6.60085e-14)
(1760 4.06776e-08 6.56631e-14)
(1760 4.24554e-08 6.90291e-14)
(1760 4.43091e-08 6.37037e-14)
(1760 4.62307e-08 6.40905e-14)
(1760 4.82259e-08 6.49107e-14)
(1760 5.02885e-08 6.53989e-14)
(1760 5.24203e-08 6.62222e-14)
(1760 5.46422e-08 6.44684e-14)
(1760 5.69038e-08 6.43769e-14)
(1760 5.91966e-08 6.38544e-14)
(1760 6.15315e-08 6.34355e-14)
(1760 6.3897e-08 6.23755e-14)
(1760 6.62707e-08 6.32543e-14)
(1760 6.8672e-08 6.44484e-14)
(1760 7.10852e-08 6.30778e-14)
(1760 7.34764e-08 6.27269e-14)
(1760 7.58249e-08 6.09437e-14)
(1760 7.81323e-08 5.89776e-14)
(1760 8.04165e-08 6.12578e-14)
(1760 8.27136e-08 6.26458e-14)
(1760 8.50495e-08 5.95373e-14)
(1760 8.74387e-08 5.87012e-14)
(1760 8.98783e-08 6.16449e-14)
(1760 9.2351e-08 6.28958e-14)
(1760 9.48489e-08 6.29058e-14)
(1760 9.73551e-08 5.93948e-14)
(1760 9.98658e-08 6.01989e-14)
(1760 1.02379e-07 6.15229e-14)
(1760 1.04902e-07 6.11579e-14)
(1760 1.07454e-07 5.91098e-14)
(1760 1.10088e-07 5.8647e-14)
(1760 1.1284e-07 5.84954e-14)
(1760 1.15757e-07 6.23508e-14)
(1760 1.18876e-07 5.96141e-14)
(1760 1.22226e-07 5.81907e-14)
(1760 1.25832e-07 5.91547e-14)
(1760 1.2971e-07 5.83081e-14)
(1760 1.33859e-07 5.6312e-14)
(1760 1.38277e-07 5.8163e-14)
(1760 1.43003e-07 5.78647e-14)
(1760 1.48074e-07 5.68784e-14)
(1760 1.5354e-07 5.75506e-14)
(1760 1.59476e-07 5.56418e-14)
(1760 1.65992e-07 5.6856e-14)
(1760 1.73204e-07 5.76054e-14)