/*--------------------------------*- C++ -*----------------------------------*\
| =========                 |                                                 |
| \\      /  F ield         | OpenFOAM: The Open Source CFD Toolbox           |
|  \\    /   O peration     | Version:  v1706                                 |
|   \\  /    A nd           | Web:      www.OpenFOAM.com                      |
|    \\/     M anipulation  |                                                 |
\*---------------------------------------------------------------------------*/
FoamFile
{
    version     2.0;
    format      ascii;
    class       volVectorField;
    location    "1.6e-05";
    object      U;
}
// * * * * * * * * * * * * * * * * * * * * * * * * * * * * * * * * * * * * * //

dimensions      [0 1 -1 0 0 0 0];


internalField   nonuniform List<vector> 
30104
(
(2764.5 -4.58773e-11 2.95672e-15)
(2764.5 -4.46051e-11 5.20238e-15)
(2764.5 -4.40399e-11 4.37881e-15)
(2764.5 -4.33565e-11 2.10179e-15)
(2764.5 -4.42165e-11 4.55408e-15)
(2764.5 -4.56431e-11 4.01015e-15)
(2764.5 -4.69497e-11 -6.38531e-16)
(2764.5 -4.67393e-11 1.40754e-15)
(2764.5 -4.58362e-11 4.62376e-15)
(2764.5 -4.6212e-11 4.4577e-15)
(2764.5 -4.64966e-11 3.84618e-15)
(2764.5 -4.37356e-11 3.39545e-15)
(2764.5 -4.18022e-11 9.23633e-16)
(2764.5 -3.94218e-11 2.31803e-15)
(2764.5 -3.88896e-11 4.78478e-15)
(2764.5 -3.81353e-11 5.37333e-15)
(2764.5 -3.81777e-11 5.26701e-15)
(2764.5 8.81229e-12 1.51465e-15)
(2764.5 -3.1995e-12 3.56159e-15)
(2764.5 -1.21663e-11 3.40981e-15)
(2764.5 -2.72334e-11 3.13172e-15)
(2764.5 -3.77899e-11 2.78244e-15)
(2764.5 -5.18429e-11 3.37568e-15)
(2764.5 -6.75087e-11 1.59864e-15)
(2764.5 -7.9624e-11 4.23911e-15)
(2764.5 -8.74788e-11 3.6565e-15)
(2764.5 -9.36944e-11 1.90717e-15)
(2764.5 -9.81898e-11 2.9245e-15)
(2764.5 -1.03132e-10 2.44377e-15)
(2764.5 -1.03443e-10 4.78348e-15)
(2764.5 -1.06372e-10 3.97655e-15)
(2764.5 -1.13381e-10 9.88442e-16)
(2764.5 -1.1728e-10 2.25364e-15)
(2764.5 -1.22201e-10 2.62503e-15)
(2764.5 -1.29016e-10 3.0568e-15)
(2764.5 -1.3657e-10 4.29755e-15)
(2764.5 -1.41257e-10 1.31863e-15)
(2764.5 -1.47193e-10 3.86702e-15)
(2764.5 -1.49261e-10 4.15466e-15)
(2764.5 -1.50741e-10 2.2037e-15)
(2764.5 -1.57816e-10 2.06781e-15)
(2764.5 -1.60825e-10 1.98928e-15)
(2764.5 -1.6271e-10 1.86007e-15)
(2764.5 -1.66158e-10 1.90023e-15)
(2764.5 -1.6778e-10 1.94212e-15)
(2764.5 -1.68249e-10 1.52828e-15)
(2764.5 -1.69736e-10 4.24693e-15)
(2764.5 -1.68961e-10 -2.99715e-16)
(2764.5 -1.66497e-10 2.17095e-15)
(2764.5 -1.65916e-10 3.8648e-15)
(2764.5 -1.63087e-10 2.48078e-15)
(2764.5 -1.5915e-10 1.13475e-15)
(2764.5 -1.53632e-10 1.67853e-15)
(2764.5 -1.5081e-10 3.3498e-15)
(2764.5 -1.44477e-10 1.18062e-15)
(2764.5 -1.37466e-10 2.07844e-15)
(2764.5 -1.27471e-10 3.16724e-15)
(2764.5 -1.10782e-10 1.45259e-15)
(2764.5 -9.05025e-11 1.70608e-15)
(2764.5 -7.28326e-11 1.79979e-15)
(2764.5 -4.91541e-11 2.66483e-15)
(2764.5 -2.39769e-11 3.40912e-15)
(2764.5 4.93308e-12 1.59384e-15)
(2764.5 3.3197e-11 1.99801e-15)
(2764.5 5.4598e-11 9.74386e-16)
(2764.5 5.81449e-11 3.55963e-15)
(2764.5 5.47988e-11 -1.0631e-15)
(2764.5 6.14422e-11 3.76782e-15)
(2764.5 5.56542e-11 3.09062e-15)
(2764.5 4.59119e-11 1.37767e-15)
(2764.5 2.94393e-11 1.62852e-15)
(2764.5 1.41851e-11 2.96283e-15)
(2764.5 -4.94193e-12 7.44759e-16)
(2764.5 -3.17114e-11 2.38866e-15)
(2764.5 -5.53312e-11 3.85426e-15)
(2764.5 -7.18599e-11 2.26668e-15)
(2764.5 -8.27365e-11 1.31252e-15)
(2764.5 -9.00631e-11 8.06777e-16)
(2764.5 -9.36911e-11 2.59102e-15)
(2764.5 -8.76824e-11 2.8636e-15)
(2764.5 -7.57142e-11 4.69918e-16)
(2764.5 -6.32657e-11 4.0284e-15)
(2764.5 -4.97921e-11 3.30415e-15)
(2764.5 -3.33826e-11 1.31336e-15)
(2764.5 -1.83309e-11 3.5199e-15)
(2764.5 -1.22479e-11 2.52189e-15)
(2764.5 -1.3894e-11 2.80448e-15)
(2764.5 -1.9043e-11 2.27494e-15)
(2764.5 -2.61463e-11 1.70937e-15)
(2764.5 -3.61227e-11 2.82713e-15)
(2764.5 -4.67771e-11 4.69815e-17)
(2764.5 -5.77486e-11 2.69344e-15)
(2764.5 -6.25831e-11 3.14996e-15)
(2764.5 -6.09123e-11 2.68815e-15)
(2764.5 -5.4684e-11 6.02393e-16)
(2764.5 -4.67516e-11 -2.09218e-15)
(2764.5 -3.64262e-11 2.1978e-15)
(2764.5 -3.4027e-11 1.05355e-15)
(2764.5 -3.44832e-11 1.73536e-15)
(2764.5 -3.34372e-11 8.97009e-16)
(2764.5 -3.37401e-11 5.43574e-16)
(2764.5 -3.81407e-11 3.23518e-15)
(2764.5 -4.1713e-11 3.87574e-15)
(2764.5 -4.51972e-11 2.73934e-15)
(2764.5 -5.01818e-11 1.30225e-15)
(2764.5 -5.19582e-11 1.18319e-15)
(2764.5 -5.15401e-11 1.99262e-15)
(2764.5 -5.16659e-11 2.01821e-15)
(2764.5 -5.22205e-11 1.82678e-15)
(2764.5 -5.09056e-11 3.07598e-15)
(2764.5 -4.86188e-11 1.87656e-15)
(2764.5 -4.87889e-11 1.37994e-15)
(2764.5 -4.75215e-11 2.18886e-15)
(2764.5 -4.1579e-11 1.57888e-15)
(2764.5 -3.58083e-11 3.49686e-16)
(2764.5 -3.39994e-11 1.48672e-15)
(2764.5 -3.36653e-11 1.86635e-15)
(2764.5 -3.44069e-11 1.94448e-15)
(2764.5 -2.69671e-11 2.0981e-15)
(2764.5 -2.65844e-11 1.58003e-15)
(2764.5 -3.07614e-11 1.40085e-15)
(2764.5 -3.16987e-11 1.49419e-15)
(2764.5 -3.44328e-11 1.7141e-15)
(2764.5 -3.88562e-11 5.78662e-16)
(2764.5 -4.30893e-11 5.79846e-16)
(2764.5 -4.24285e-11 2.1492e-15)
(2764.5 -3.80946e-11 2.33896e-15)
(2764.5 -3.81789e-11 2.07064e-15)
(2764.5 -3.84728e-11 1.9575e-15)
(2764.5 -3.84332e-11 1.53705e-15)
(2764.5 -4.01676e-11 1.20733e-15)
(2764.5 -4.29484e-11 5.94386e-16)
(2764.5 -4.4637e-11 9.82565e-16)
(2764.5 -3.79603e-11 1.2383e-15)
(2764.5 -3.56119e-11 1.53094e-15)
(2764.5 -2.89764e-11 1.41758e-15)
(2764.5 -2.45312e-11 1.38692e-15)
(2764.5 -2.58058e-11 2.03407e-15)
(2764.5 -2.67921e-11 3.95786e-16)
(2764.5 -3.16587e-11 2.64667e-15)
(2764.5 -3.77149e-11 2.30773e-15)
(2764.5 -3.92874e-11 3.47746e-16)
(2764.5 -4.18758e-11 -6.8605e-17)
(2764.5 -4.44792e-11 5.36575e-16)
(2764.5 -4.072e-11 1.11741e-15)
(2764.5 -4.19573e-11 1.62617e-15)
(2764.5 -4.21568e-11 1.08737e-15)
(2764.5 -3.91712e-11 1.39401e-15)
(2764.5 -4.03434e-11 1.64901e-15)
(2764.5 -4.32747e-11 1.49843e-15)
(2764.5 -4.38361e-11 1.99241e-15)
(2764.5 -4.25262e-11 1.22393e-15)
(2764.5 -4.40708e-11 1.51062e-15)
(2764.5 -4.69782e-11 1.04731e-15)
(2764.5 -4.81707e-11 1.6711e-15)
(2764.5 -4.30132e-11 1.5555e-15)
(2764.5 -2.9006e-11 1.09752e-15)
(2764.5 -2.15872e-11 2.09318e-15)
(2764.5 -2.34582e-11 2.71563e-15)
(2764.5 -3.08096e-11 2.26453e-15)
(2764.5 -3.51391e-11 2.45245e-15)
(2764.5 -3.9293e-11 7.83115e-16)
(2764.5 -3.97925e-11 1.3564e-15)
(2764.5 -3.51165e-11 2.9519e-15)
(2764.5 -2.70647e-11 1.66617e-15)
(2764.5 -2.79177e-11 6.40287e-16)
(2764.5 -3.70183e-11 1.36549e-15)
(2764.5 -3.7551e-11 1.88097e-15)
(2764.5 -4.05556e-11 1.24674e-15)
(2764.5 -4.08253e-11 1.5471e-15)
(2764.5 -3.46742e-11 9.03384e-16)
(2764.5 -3.35337e-11 1.04026e-15)
(2764.5 -2.34654e-11 1.44042e-15)
(2764.5 -2.78455e-11 1.50107e-15)
(2764.5 -3.03596e-11 2.10887e-15)
(2764.5 -3.06601e-11 1.65995e-15)
(2764.5 -2.67558e-11 1.13217e-15)
(2764.5 -2.80959e-11 1.08717e-15)
(2764.5 -3.46443e-11 1.87251e-15)
(2764.5 -4.45936e-11 4.40654e-16)
(2764.5 -5.49455e-11 1.50648e-15)
(2764.5 -5.685e-11 1.59136e-15)
(2764.5 -5.05471e-11 1.54599e-15)
(2764.5 -4.90379e-11 2.0006e-15)
(2764.5 -5.01941e-11 1.47567e-15)
(2764.5 -5.22823e-11 1.14267e-15)
(2764.5 -5.35599e-11 4.30934e-16)
(2764.5 -5.24095e-11 1.41328e-15)
(2764.5 -4.76219e-11 1.8861e-15)
(2764.5 -4.07541e-11 1.0598e-15)
(2764.5 -3.45948e-11 9.96464e-16)
(2764.5 -2.82755e-11 7.04567e-16)
(2764.5 -3.0281e-11 6.25959e-16)
(2764.5 -3.99811e-11 1.42092e-15)
(2764.5 -4.4512e-11 1.29054e-15)
(2764.5 -5.51339e-11 9.20948e-16)
(2764.5 -5.78283e-11 9.14959e-16)
(2764.5 -5.15136e-11 7.30035e-16)
(2764.5 -3.68902e-11 1.02178e-15)
(2764.5 -3.49381e-11 1.50335e-15)
(2764.5 -3.28956e-11 1.61126e-15)
(2764.5 -3.4675e-11 1.7899e-15)
(2764.5 -3.99541e-11 1.31063e-15)
(2764.5 -5.03107e-11 3.69361e-16)
(2764.5 -5.31032e-11 1.45638e-15)
(2764.5 -5.82341e-11 1.65948e-15)
(2764.5 -6.44742e-11 1.4293e-15)
(2764.5 -6.67414e-11 1.35359e-15)
(2764.5 -6.90123e-11 1.23194e-15)
(2764.5 -7.13036e-11 1.05773e-15)
(2764.5 -1.17544e-10 1.19605e-14)
(2764.5 -1.2159e-10 1.35958e-14)
(2764.5 -1.22539e-10 1.1563e-14)
(2764.5 -1.23176e-10 1.01398e-14)
(2764.5 -1.22251e-10 1.40028e-14)
(2764.5 -1.20948e-10 1.12838e-14)
(2764.5 -1.21332e-10 8.72814e-15)
(2764.5 -1.24653e-10 1.30812e-14)
(2764.5 -1.27272e-10 1.36631e-14)
(2764.5 -1.27783e-10 1.23237e-14)
(2764.5 -1.29363e-10 1.25724e-14)
(2764.5 -1.33348e-10 1.38934e-14)
(2764.5 -1.34115e-10 1.49234e-14)
(2764.5 -1.32104e-10 1.41648e-14)
(2764.5 -1.30718e-10 1.5596e-14)
(2764.5 -1.2964e-10 1.53971e-14)
(2764.5 -1.28777e-10 1.25962e-14)
(2764.5 -2.23929e-10 4.21618e-15)
(2764.5 -2.02575e-10 6.11574e-15)
(2764.5 -1.77752e-10 8.87232e-15)
(2764.5 -1.45963e-10 9.08736e-15)
(2764.5 -1.16839e-10 7.86912e-15)
(2764.5 -7.92635e-11 9.17565e-15)
(2764.5 -4.90804e-11 6.64667e-15)
(2764.5 -2.3595e-11 7.55917e-15)
(2764.5 -1.0991e-11 1.10287e-14)
(2764.5 2.16826e-12 7.27329e-15)
(2764.5 7.94985e-12 4.50132e-15)
(2764.5 1.93995e-11 6.24692e-15)
(2764.5 2.46227e-11 7.29289e-15)
(2764.5 3.66506e-11 5.81421e-15)
(2764.5 4.84925e-11 3.99923e-15)
(2764.5 5.40997e-11 4.50839e-15)
(2764.5 6.18358e-11 5.79527e-15)
(2764.5 7.79659e-11 5.62775e-15)
(2764.5 8.96292e-11 8.84465e-15)
(2764.5 1.03983e-10 8.41084e-15)
(2764.5 1.12815e-10 9.31005e-15)
(2764.5 1.14513e-10 9.37634e-15)
(2764.5 1.13901e-10 9.28786e-15)
(2764.5 1.21709e-10 8.91512e-15)
(2764.5 1.20135e-10 8.6596e-15)
(2764.5 1.2058e-10 8.15623e-15)
(2764.5 1.20608e-10 7.92096e-15)
(2764.5 1.18587e-10 8.03992e-15)
(2764.5 1.16182e-10 7.26446e-15)
(2764.5 1.14101e-10 7.96252e-15)
(2764.5 1.12163e-10 7.5146e-15)
(2764.5 1.09878e-10 8.99343e-15)
(2764.5 1.06348e-10 8.6906e-15)
(2764.5 9.67357e-11 7.64951e-15)
(2764.5 8.81158e-11 5.5298e-15)
(2764.5 7.23761e-11 6.46012e-15)
(2764.5 6.18366e-11 9.63367e-15)
(2764.5 4.11953e-11 6.33851e-15)
(2764.5 2.16868e-11 6.79746e-15)
(2764.5 -1.90764e-11 9.0936e-15)
(2764.5 -5.65589e-11 9.02349e-15)
(2764.5 -9.86421e-11 1.05268e-14)
(2764.5 -1.42815e-10 8.98639e-15)
(2764.5 -1.80773e-10 6.94585e-15)
(2764.5 -2.25222e-10 1.0651e-14)
(2764.5 -2.64254e-10 9.34228e-15)
(2764.5 -2.80402e-10 7.26594e-15)
(2764.5 -2.90721e-10 4.31521e-15)
(2764.5 -2.7518e-10 7.28948e-15)
(2764.5 -2.70296e-10 5.34874e-15)
(2764.5 -2.68028e-10 6.73731e-15)
(2764.5 -2.51452e-10 6.98117e-15)
(2764.5 -2.17572e-10 6.2232e-15)
(2764.5 -1.89182e-10 7.11314e-15)
(2764.5 -1.47066e-10 4.79616e-15)
(2764.5 -9.92873e-11 2.81321e-15)
(2764.5 -4.77235e-11 6.47035e-15)
(2764.5 -1.77127e-11 5.66909e-15)
(2764.5 -3.1597e-12 8.4718e-15)
(2764.5 3.44758e-12 8.5414e-15)
(2764.5 2.7913e-12 5.88144e-15)
(2764.5 -1.08547e-11 6.27758e-15)
(2764.5 -3.83772e-11 6.57072e-15)
(2764.5 -7.06612e-11 5.64477e-15)
(2764.5 -1.06337e-10 8.22609e-15)
(2764.5 -1.48469e-10 8.8201e-15)
(2764.5 -1.82537e-10 7.97072e-15)
(2764.5 -1.97404e-10 4.08151e-15)
(2764.5 -2.02509e-10 7.91254e-15)
(2764.5 -1.8747e-10 6.78167e-15)
(2764.5 -1.64848e-10 6.22704e-15)
(2764.5 -1.40219e-10 5.90896e-15)
(2764.5 -1.09704e-10 6.00826e-15)
(2764.5 -8.22942e-11 4.58271e-15)
(2764.5 -6.78579e-11 8.09748e-15)
(2764.5 -6.68e-11 8.28022e-15)
(2764.5 -8.16482e-11 6.62516e-15)
(2764.5 -1.01934e-10 4.82356e-15)
(2764.5 -1.22881e-10 5.90251e-15)
(2764.5 -1.37298e-10 4.85734e-15)
(2764.5 -1.41798e-10 2.57747e-15)
(2764.5 -1.42683e-10 3.50539e-15)
(2764.5 -1.39893e-10 3.77561e-15)
(2764.5 -1.30763e-10 6.34838e-15)
(2764.5 -1.12883e-10 7.58771e-15)
(2764.5 -9.65751e-11 6.1608e-15)
(2764.5 -9.19528e-11 5.45568e-15)
(2764.5 -9.40125e-11 5.75099e-15)
(2764.5 -9.652e-11 5.99891e-15)
(2764.5 -1.06102e-10 7.09835e-15)
(2764.5 -1.12049e-10 8.37365e-15)
(2764.5 -1.16262e-10 9.05203e-15)
(2764.5 -1.22655e-10 6.39617e-15)
(2764.5 -1.16766e-10 4.68941e-15)
(2764.5 -1.10887e-10 3.48126e-15)
(2764.5 -1.10753e-10 4.59939e-15)
(2764.5 -1.19353e-10 3.95318e-15)
(2764.5 -1.14824e-10 4.68704e-15)
(2764.5 -1.12484e-10 5.66724e-15)
(2764.5 -1.09552e-10 3.86085e-15)
(2764.5 -1.12715e-10 5.7977e-15)
(2764.5 -1.25884e-10 3.81475e-15)
(2764.5 -1.23763e-10 4.29161e-15)
(2764.5 -1.18452e-10 6.04151e-15)
(2764.5 -1.21438e-10 6.44996e-15)
(2764.5 -1.11184e-10 4.48072e-15)
(2764.5 -1.03219e-10 5.33491e-15)
(2764.5 -1.04315e-10 5.99114e-15)
(2764.5 -1.07099e-10 5.32655e-15)
(2764.5 -1.1117e-10 5.01062e-15)
(2764.5 -1.07128e-10 7.6301e-15)
(2764.5 -1.10943e-10 7.65942e-15)
(2764.5 -1.13117e-10 5.89367e-15)
(2764.5 -1.12646e-10 6.28074e-15)
(2764.5 -1.1019e-10 5.26625e-15)
(2764.5 -1.13743e-10 4.65844e-15)
(2764.5 -1.21982e-10 6.50507e-15)
(2764.5 -1.27898e-10 7.60963e-15)
(2764.5 -1.25976e-10 6.21114e-15)
(2764.5 -1.24324e-10 6.21269e-15)
(2764.5 -1.14424e-10 3.71323e-15)
(2764.5 -1.12292e-10 3.2608e-15)
(2764.5 -1.06372e-10 6.84637e-15)
(2764.5 -9.8637e-11 6.49702e-15)
(2764.5 -1.05112e-10 4.47615e-15)
(2764.5 -1.01461e-10 3.80493e-15)
(2764.5 -1.05563e-10 3.63577e-15)
(2764.5 -1.06534e-10 3.59493e-15)
(2764.5 -1.03825e-10 3.71604e-15)
(2764.5 -1.06453e-10 4.41369e-15)
(2764.5 -1.08261e-10 5.60167e-15)
(2764.5 -1.03223e-10 3.57638e-15)
(2764.5 -1.02082e-10 4.14235e-15)
(2764.5 -1.11788e-10 3.81104e-15)
(2764.5 -1.15472e-10 4.65337e-15)
(2764.5 -1.14341e-10 5.23111e-15)
(2764.5 -1.1383e-10 4.25239e-15)
(2764.5 -1.19118e-10 3.7926e-15)
(2764.5 -1.23712e-10 3.71282e-15)
(2764.5 -1.31162e-10 5.07461e-15)
(2764.5 -1.24856e-10 5.4449e-15)
(2764.5 -1.11054e-10 5.71604e-15)
(2764.5 -9.32971e-11 5.60544e-15)
(2764.5 -8.7224e-11 5.60286e-15)
(2764.5 -8.88056e-11 5.67061e-15)
(2764.5 -9.2037e-11 6.37311e-15)
(2764.5 -1.00817e-10 5.52158e-15)
(2764.5 -1.05741e-10 5.25195e-15)
(2764.5 -9.96278e-11 4.16737e-15)
(2764.5 -9.18236e-11 3.66711e-15)
(2764.5 -1.03061e-10 4.01396e-15)
(2764.5 -1.03279e-10 4.09767e-15)
(2764.5 -1.21166e-10 5.38964e-15)
(2764.5 -1.26616e-10 5.47881e-15)
(2764.5 -1.19647e-10 5.46324e-15)
(2764.5 -1.22226e-10 5.36964e-15)
(2764.5 -1.00113e-10 4.926e-15)
(2764.5 -9.19445e-11 5.36237e-15)
(2764.5 -9.13694e-11 4.85785e-15)
(2764.5 -9.71764e-11 3.26904e-15)
(2764.5 -9.58725e-11 4.60726e-15)
(2764.5 -9.44265e-11 4.01495e-15)
(2764.5 -9.06544e-11 4.04631e-15)
(2764.5 -9.18944e-11 5.47292e-15)
(2764.5 -1.10001e-10 3.56245e-15)
(2764.5 -1.13352e-10 3.54459e-15)
(2764.5 -1.079e-10 5.30867e-15)
(2764.5 -1.04175e-10 5.57558e-15)
(2764.5 -1.02484e-10 4.8277e-15)
(2764.5 -1.06575e-10 5.30162e-15)
(2764.5 -1.14017e-10 5.02592e-15)
(2764.5 -1.28575e-10 1.71851e-15)
(2764.5 -1.31043e-10 4.76401e-15)
(2764.5 -1.38001e-10 5.20676e-15)
(2764.5 -1.32116e-10 4.03539e-15)
(2764.5 -1.13488e-10 4.38704e-15)
(2764.5 -1.06599e-10 4.40911e-15)
(2764.5 -1.06101e-10 3.9279e-15)
(2764.5 -9.65588e-11 3.5417e-15)
(2764.5 -1.03315e-10 4.07531e-15)
(2764.5 -1.22725e-10 4.60568e-15)
(2764.5 -1.32611e-10 5.15979e-15)
(2764.5 -1.20935e-10 4.64069e-15)
(2764.5 -1.11214e-10 4.25881e-15)
(2764.5 -1.02755e-10 3.19746e-15)
(2764.5 -9.47983e-11 7.73393e-16)
(2764.5 -8.75671e-11 4.45567e-15)
(2764.5 -8.86793e-11 5.29164e-15)
(2764.5 -8.84588e-11 6.31441e-15)
(2764.5 -9.28332e-11 7.15913e-15)
(2764.5 -1.01381e-10 6.2575e-15)
(2764.5 -1.10931e-10 4.55548e-15)
(2764.5 -1.26149e-10 4.5486e-15)
(2764.5 -2.00393e-10 1.81991e-14)
(2764.5 -2.00543e-10 2.16777e-14)
(2764.5 -2.00898e-10 2.07239e-14)
(2764.5 -2.00603e-10 2.00461e-14)
(2764.5 -1.98318e-10 2.34423e-14)
(2764.5 -1.95972e-10 2.14083e-14)
(2764.5 -1.94051e-10 2.06314e-14)
(2764.5 -1.94229e-10 2.11444e-14)
(2764.5 -1.9737e-10 2.21803e-14)
(2764.5 -1.97411e-10 2.11589e-14)
(2764.5 -2.01139e-10 2.05969e-14)
(2764.5 -2.03955e-10 2.2864e-14)
(2764.5 -2.09916e-10 1.94178e-14)
(2764.5 -2.13929e-10 1.72033e-14)
(2764.5 -2.1343e-10 1.92753e-14)
(2764.5 -2.15425e-10 1.97504e-14)
(2764.5 -8.32338e-11 1.31198e-14)
(2764.5 -1.10958e-10 1.37805e-14)
(2764.5 -1.31604e-10 1.41293e-14)
(2764.5 -1.68074e-10 1.44646e-14)
(2764.5 -2.09164e-10 1.49637e-14)
(2764.5 -2.36308e-10 1.49513e-14)
(2764.5 -2.72942e-10 1.15462e-14)
(2764.5 -2.99259e-10 1.70148e-14)
(2764.5 -3.1114e-10 1.3293e-14)
(2764.5 -3.20526e-10 1.17642e-14)
(2764.5 -3.242e-10 1.36233e-14)
(2764.5 -3.32477e-10 1.34977e-14)
(2764.5 -3.40759e-10 1.37914e-14)
(2764.5 -3.48044e-10 1.71802e-14)
(2764.5 -3.51665e-10 1.044e-14)
(2764.5 -3.5612e-10 1.13552e-14)
(2764.5 -3.66991e-10 9.93745e-15)
(2764.5 -3.83998e-10 1.1986e-14)
(2764.5 -3.94606e-10 1.32041e-14)
(2764.5 -3.99823e-10 1.11606e-14)
(2764.5 -3.99848e-10 1.33852e-14)
(2764.5 -3.98754e-10 1.31821e-14)
(2764.5 -3.95026e-10 1.21908e-14)
(2764.5 -3.9895e-10 1.26801e-14)
(2764.5 -4.01017e-10 1.32938e-14)
(2764.5 -4.01935e-10 1.25977e-14)
(2764.5 -4.03337e-10 1.25074e-14)
(2764.5 -4.03614e-10 1.19716e-14)
(2764.5 -4.03508e-10 1.16309e-14)
(2764.5 -4.02239e-10 1.20585e-14)
(2764.5 -3.97721e-10 1.17615e-14)
(2764.5 -3.89979e-10 1.209e-14)
(2764.5 -3.78115e-10 1.15847e-14)
(2764.5 -3.6034e-10 1.22408e-14)
(2764.5 -3.43086e-10 1.05936e-14)
(2764.5 -3.22805e-10 1.51939e-14)
(2764.5 -3.04666e-10 1.07669e-14)
(2764.5 -2.78059e-10 1.10765e-14)
(2764.5 -2.34229e-10 1.19322e-14)
(2764.5 -1.97087e-10 1.2442e-14)
(2764.5 -1.43504e-10 1.14372e-14)
(2764.5 -8.57195e-11 1.4727e-14)
(2764.5 -4.39795e-11 1.03637e-14)
(2764.5 4.30595e-12 1.31741e-14)
(2764.5 3.51926e-11 1.12452e-14)
(2764.5 4.10133e-11 1.02827e-14)
(2764.5 2.02912e-11 1.39198e-14)
(2764.5 1.24951e-11 1.48823e-14)
(2764.5 1.56453e-12 1.23045e-14)
(2764.5 -6.80337e-12 1.10976e-14)
(2764.5 -2.86815e-11 1.10449e-14)
(2764.5 -6.78863e-11 1.06294e-14)
(2764.5 -1.12377e-10 1.13948e-14)
(2764.5 -1.7291e-10 9.2304e-15)
(2764.5 -2.36345e-10 9.88967e-15)
(2764.5 -2.87243e-10 1.36309e-14)
(2764.5 -3.20822e-10 1.00746e-14)
(2764.5 -3.28124e-10 9.82385e-15)
(2764.5 -3.14482e-10 1.20986e-14)
(2764.5 -3.0265e-10 1.16608e-14)
(2764.5 -2.75882e-10 1.16826e-14)
(2764.5 -2.40847e-10 1.05699e-14)
(2764.5 -2.06267e-10 1.21635e-14)
(2764.5 -1.57697e-10 1.18187e-14)
(2764.5 -1.02867e-10 9.06615e-15)
(2764.5 -8.21801e-11 7.46592e-15)
(2764.5 -7.50843e-11 1.21548e-14)
(2764.5 -9.78353e-11 1.11405e-14)
(2764.5 -1.27494e-10 1.06642e-14)
(2764.5 -1.57013e-10 1.34098e-14)
(2764.5 -1.99441e-10 1.16159e-14)
(2764.5 -2.42478e-10 1.09871e-14)
(2764.5 -2.63937e-10 1.19351e-14)
(2764.5 -2.71993e-10 1.31366e-14)
(2764.5 -2.52135e-10 9.98317e-15)
(2764.5 -2.32796e-10 7.15119e-15)
(2764.5 -2.01237e-10 1.05659e-14)
(2764.5 -1.72598e-10 9.7305e-15)
(2764.5 -1.53268e-10 9.21705e-15)
(2764.5 -1.45012e-10 7.93993e-15)
(2764.5 -1.41331e-10 8.4343e-15)
(2764.5 -1.54118e-10 9.15075e-15)
(2764.5 -1.76521e-10 1.11644e-14)
(2764.5 -2.01213e-10 1.05547e-14)
(2764.5 -2.15854e-10 9.46789e-15)
(2764.5 -2.22174e-10 9.77201e-15)
(2764.5 -2.11734e-10 8.65375e-15)
(2764.5 -1.94918e-10 7.94255e-15)
(2764.5 -1.70222e-10 6.57097e-15)
(2764.5 -1.59692e-10 8.36092e-15)
(2764.5 -1.48741e-10 1.21933e-14)
(2764.5 -1.53076e-10 1.06061e-14)
(2764.5 -1.68754e-10 8.67175e-15)
(2764.5 -1.85446e-10 9.17274e-15)
(2764.5 -1.94015e-10 8.55035e-15)
(2764.5 -1.90208e-10 8.63097e-15)
(2764.5 -1.91905e-10 7.55291e-15)
(2764.5 -1.91249e-10 1.04283e-14)
(2764.5 -1.86373e-10 7.4147e-15)
(2764.5 -1.75814e-10 7.08573e-15)
(2764.5 -1.59311e-10 8.9111e-15)
(2764.5 -1.58552e-10 9.10566e-15)
(2764.5 -1.60035e-10 8.18174e-15)
(2764.5 -1.57982e-10 9.92587e-15)
(2764.5 -1.62092e-10 1.23878e-14)
(2764.5 -1.74354e-10 8.33362e-15)
(2764.5 -1.73288e-10 2.82234e-15)
(2764.5 -1.76182e-10 1.21118e-14)
(2764.5 -1.8265e-10 7.48859e-15)
(2764.5 -1.91563e-10 1.14952e-14)
(2764.5 -1.90367e-10 1.2185e-14)
(2764.5 -1.87282e-10 1.10237e-14)
(2764.5 -1.84206e-10 8.65458e-15)
(2764.5 -1.82064e-10 9.44783e-15)
(2764.5 -1.80206e-10 8.71896e-15)
(2764.5 -1.73584e-10 9.66938e-15)
(2764.5 -1.73958e-10 1.00727e-14)
(2764.5 -1.80674e-10 1.07391e-14)
(2764.5 -1.88571e-10 9.79583e-15)
(2764.5 -1.92803e-10 9.6882e-15)
(2764.5 -1.91015e-10 9.3025e-15)
(2764.5 -1.88617e-10 9.07238e-15)
(2764.5 -1.89464e-10 9.24321e-15)
(2764.5 -1.81799e-10 8.75253e-15)
(2764.5 -1.8038e-10 8.42455e-15)
(2764.5 -1.76418e-10 7.74735e-15)
(2764.5 -1.74104e-10 7.18015e-15)
(2764.5 -1.7977e-10 8.3338e-15)
(2764.5 -1.72179e-10 6.27984e-15)
(2764.5 -1.66058e-10 6.01817e-15)
(2764.5 -1.64292e-10 6.27839e-15)
(2764.5 -1.57524e-10 6.61139e-15)
(2764.5 -1.467e-10 9.02045e-15)
(2764.5 -1.44142e-10 9.01217e-15)
(2764.5 -1.43646e-10 8.57722e-15)
(2764.5 -1.60906e-10 9.10664e-15)
(2764.5 -1.62189e-10 8.7723e-15)
(2764.5 -1.68894e-10 8.80532e-15)
(2764.5 -1.8068e-10 1.05321e-14)
(2764.5 -1.96012e-10 9.16148e-15)
(2764.5 -2.08489e-10 8.89037e-15)
(2764.5 -2.1746e-10 8.1401e-15)
(2764.5 -2.19164e-10 8.76693e-15)
(2764.5 -2.03748e-10 8.81146e-15)
(2764.5 -1.95636e-10 8.12035e-15)
(2764.5 -1.87439e-10 6.73512e-15)
(2764.5 -1.89579e-10 8.96761e-15)
(2764.5 -1.82394e-10 9.79531e-15)
(2764.5 -1.67533e-10 8.80015e-15)
(2764.5 -1.62214e-10 8.13496e-15)
(2764.5 -1.62208e-10 8.56319e-15)
(2764.5 -1.53571e-10 8.68049e-15)
(2764.5 -1.47138e-10 9.36576e-15)
(2764.5 -1.69453e-10 7.93606e-15)
(2764.5 -1.80323e-10 7.2471e-15)
(2764.5 -2.00294e-10 8.71309e-15)
(2764.5 -2.08731e-10 9.08403e-15)
(2764.5 -2.00253e-10 1.09908e-14)
(2764.5 -1.91726e-10 7.13568e-15)
(2764.5 -1.79096e-10 8.5733e-15)
(2764.5 -1.68404e-10 7.66962e-15)
(2764.5 -1.67774e-10 6.35469e-15)
(2764.5 -1.55899e-10 4.76453e-15)
(2764.5 -1.54012e-10 4.85654e-15)
(2764.5 -1.55495e-10 6.62741e-15)
(2764.5 -1.74302e-10 7.32341e-15)
(2764.5 -1.85221e-10 6.49786e-15)
(2764.5 -1.81745e-10 6.98947e-15)
(2764.5 -1.78466e-10 9.92483e-15)
(2764.5 -1.57977e-10 7.56864e-15)
(2764.5 -1.51302e-10 6.1946e-15)
(2764.5 -1.53762e-10 8.46754e-15)
(2764.5 -1.58021e-10 8.77732e-15)
(2764.5 -1.637e-10 7.95851e-15)
(2764.5 -1.79923e-10 6.54365e-15)
(2764.5 -1.88701e-10 6.42776e-15)
(2764.5 -1.89225e-10 6.96641e-15)
(2764.5 -1.9384e-10 7.55506e-15)
(2764.5 -1.87274e-10 5.58918e-15)
(2764.5 -1.78224e-10 4.77211e-15)
(2764.5 -1.76405e-10 5.47862e-15)
(2764.5 -1.96243e-10 6.10173e-15)
(2764.5 -1.95499e-10 5.86373e-15)
(2764.5 -1.93437e-10 6.65747e-15)
(2764.5 -1.85135e-10 6.89972e-15)
(2764.5 -1.77892e-10 7.74312e-15)
(2764.5 -1.58456e-10 6.96883e-15)
(2764.5 -1.49643e-10 6.26389e-15)
(2764.5 -1.61119e-10 7.83113e-15)
(2764.5 -1.45848e-10 7.37367e-15)
(2764.5 -1.47559e-10 5.37343e-15)
(2764.5 -1.37722e-10 6.42092e-15)
(2764.5 -1.3573e-10 6.8504e-15)
(2764.5 -2.89167e-10 2.83227e-14)
(2764.5 -2.86099e-10 2.72143e-14)
(2764.5 -2.83723e-10 2.40428e-14)
(2764.5 -2.85446e-10 2.99488e-14)
(2764.5 -2.87216e-10 2.98148e-14)
(2764.5 -2.85124e-10 2.30446e-14)
(2764.5 -2.8399e-10 2.59681e-14)
(2764.5 -2.81056e-10 2.81102e-14)
(2764.5 -2.8059e-10 2.53176e-14)
(2764.5 -2.81827e-10 2.33683e-14)
(2764.5 -2.79599e-10 3.17374e-14)
(2764.5 -2.77727e-10 2.99504e-14)
(2764.5 -2.79329e-10 2.89608e-14)
(2764.5 -2.85293e-10 2.75091e-14)
(2764.5 -2.85183e-10 2.84818e-14)
(2764.5 -2.87443e-10 2.58509e-14)
(2764.5 -4.08853e-10 1.87571e-14)
(2764.5 -3.63691e-10 1.71861e-14)
(2764.5 -3.37723e-10 1.7795e-14)
(2764.5 -2.97815e-10 1.70255e-14)
(2764.5 -2.67296e-10 1.9236e-14)
(2764.5 -2.16719e-10 1.96873e-14)
(2764.5 -1.67937e-10 1.81318e-14)
(2764.5 -1.09526e-10 1.8607e-14)
(2764.5 -6.47992e-11 1.9036e-14)
(2764.5 -4.22778e-11 2.14455e-14)
(2764.5 -2.38756e-11 1.80928e-14)
(2764.5 -1.21202e-11 1.9537e-14)
(2764.5 4.10306e-12 1.6635e-14)
(2764.5 1.81466e-11 1.67113e-14)
(2764.5 3.67099e-11 1.88181e-14)
(2764.5 6.53211e-11 1.71873e-14)
(2764.5 7.44411e-11 1.68942e-14)
(2764.5 9.15676e-11 1.6663e-14)
(2764.5 1.00591e-10 1.28666e-14)
(2764.5 1.13548e-10 1.51692e-14)
(2764.5 1.23317e-10 1.72947e-14)
(2764.5 1.35067e-10 1.90279e-14)
(2764.5 1.45689e-10 1.96774e-14)
(2764.5 1.55711e-10 1.90154e-14)
(2764.5 1.53619e-10 1.73946e-14)
(2764.5 1.49185e-10 1.6638e-14)
(2764.5 1.39559e-10 1.83819e-14)
(2764.5 1.28037e-10 1.61284e-14)
(2764.5 1.17323e-10 2.00303e-14)
(2764.5 9.52386e-11 1.90487e-14)
(2764.5 6.93618e-11 1.59069e-14)
(2764.5 4.87945e-11 1.8289e-14)
(2764.5 2.80023e-11 1.63474e-14)
(2764.5 5.07225e-12 1.63894e-14)
(2764.5 -2.90944e-11 1.72745e-14)
(2764.5 -6.11103e-11 1.71356e-14)
(2764.5 -1.19698e-10 1.73161e-14)
(2764.5 -1.69656e-10 1.92233e-14)
(2764.5 -2.37384e-10 1.86705e-14)
(2764.5 -3.12446e-10 1.51582e-14)
(2764.5 -3.8707e-10 1.84013e-14)
(2764.5 -4.58141e-10 1.71128e-14)
(2764.5 -5.21127e-10 1.63415e-14)
(2764.5 -5.45971e-10 1.79957e-14)
(2764.5 -5.76183e-10 1.82432e-14)
(2764.5 -5.81019e-10 1.79167e-14)
(2764.5 -5.74016e-10 1.72845e-14)
(2764.5 -5.61137e-10 1.67073e-14)
(2764.5 -5.39142e-10 1.69004e-14)
(2764.5 -5.04648e-10 1.48e-14)
(2764.5 -4.39082e-10 1.18308e-14)
(2764.5 -3.56725e-10 1.63002e-14)
(2764.5 -2.51657e-10 1.51741e-14)
(2764.5 -1.52962e-10 1.42517e-14)
(2764.5 -7.66147e-11 1.45347e-14)
(2764.5 -2.96142e-11 1.74149e-14)
(2764.5 -9.27784e-12 1.51624e-14)
(2764.5 -2.72191e-11 1.52702e-14)
(2764.5 -5.53521e-11 1.60739e-14)
(2764.5 -9.18947e-11 1.65192e-14)
(2764.5 -1.30162e-10 1.76406e-14)
(2764.5 -1.8667e-10 1.70824e-14)
(2764.5 -2.81132e-10 1.48253e-14)
(2764.5 -3.36136e-10 1.67021e-14)
(2764.5 -3.61442e-10 1.43831e-14)
(2764.5 -3.49523e-10 1.38663e-14)
(2764.5 -3.40672e-10 1.55519e-14)
(2764.5 -3.16544e-10 1.49139e-14)
(2764.5 -2.96413e-10 1.47784e-14)
(2764.5 -2.34769e-10 1.47734e-14)
(2764.5 -1.97912e-10 1.48546e-14)
(2764.5 -1.76527e-10 1.48867e-14)
(2764.5 -1.80751e-10 1.54297e-14)
(2764.5 -2.01024e-10 1.50065e-14)
(2764.5 -2.23119e-10 1.55326e-14)
(2764.5 -2.47185e-10 1.4598e-14)
(2764.5 -2.82174e-10 1.59136e-14)
(2764.5 -3.15982e-10 1.5281e-14)
(2764.5 -3.24921e-10 1.55281e-14)
(2764.5 -3.1336e-10 1.54023e-14)
(2764.5 -2.896e-10 1.66101e-14)
(2764.5 -2.59319e-10 1.43708e-14)
(2764.5 -2.27278e-10 1.44798e-14)
(2764.5 -2.12017e-10 1.31195e-14)
(2764.5 -2.0646e-10 1.52471e-14)
(2764.5 -2.17725e-10 1.57772e-14)
(2764.5 -2.42417e-10 1.42453e-14)
(2764.5 -2.64057e-10 1.30993e-14)
(2764.5 -2.79578e-10 1.07902e-14)
(2764.5 -2.79235e-10 1.44522e-14)
(2764.5 -2.72106e-10 1.51612e-14)
(2764.5 -2.50443e-10 1.3521e-14)
(2764.5 -2.33735e-10 1.41707e-14)
(2764.5 -2.36814e-10 1.45456e-14)
(2764.5 -2.39279e-10 1.34153e-14)
(2764.5 -2.44087e-10 1.22396e-14)
(2764.5 -2.52608e-10 1.14922e-14)
(2764.5 -2.79138e-10 1.36549e-14)
(2764.5 -2.85593e-10 1.49544e-14)
(2764.5 -2.9014e-10 1.31956e-14)
(2764.5 -2.91682e-10 1.36506e-14)
(2764.5 -2.83263e-10 1.29928e-14)
(2764.5 -2.7287e-10 1.28557e-14)
(2764.5 -2.53095e-10 1.40525e-14)
(2764.5 -2.46457e-10 1.43183e-14)
(2764.5 -2.43362e-10 1.30933e-14)
(2764.5 -2.29174e-10 1.3681e-14)
(2764.5 -2.19403e-10 1.4887e-14)
(2764.5 -2.11885e-10 1.24275e-14)
(2764.5 -2.13708e-10 1.0904e-14)
(2764.5 -2.13227e-10 1.17479e-14)
(2764.5 -2.36034e-10 1.47545e-14)
(2764.5 -2.42799e-10 1.35193e-14)
(2764.5 -2.47427e-10 1.34939e-14)
(2764.5 -2.49301e-10 1.30166e-14)
(2764.5 -2.44698e-10 1.14863e-14)
(2764.5 -2.41943e-10 1.26469e-14)
(2764.5 -2.36669e-10 1.10521e-14)
(2764.5 -2.40851e-10 1.38463e-14)
(2764.5 -2.43156e-10 1.5543e-14)
(2764.5 -2.42904e-10 1.35687e-14)
(2764.5 -2.40775e-10 1.23805e-14)
(2764.5 -2.43615e-10 1.37214e-14)
(2764.5 -2.44184e-10 1.36456e-14)
(2764.5 -2.44473e-10 1.30857e-14)
(2764.5 -2.42945e-10 1.43958e-14)
(2764.5 -2.44574e-10 1.07898e-14)
(2764.5 -2.4987e-10 9.61532e-15)
(2764.5 -2.58589e-10 1.2043e-14)
(2764.5 -2.56869e-10 1.18007e-14)
(2764.5 -2.58395e-10 1.11938e-14)
(2764.5 -2.55556e-10 1.10463e-14)
(2764.5 -2.51213e-10 1.02614e-14)
(2764.5 -2.32857e-10 1.01892e-14)
(2764.5 -2.15285e-10 1.03277e-14)
(2764.5 -2.04959e-10 1.05065e-14)
(2764.5 -2.11311e-10 1.09456e-14)
(2764.5 -2.06749e-10 1.30479e-14)
(2764.5 -2.11681e-10 1.24348e-14)
(2764.5 -2.18984e-10 1.07257e-14)
(2764.5 -2.32693e-10 9.66767e-15)
(2764.5 -2.45987e-10 1.01556e-14)
(2764.5 -2.62025e-10 1.03399e-14)
(2764.5 -2.71949e-10 1.09359e-14)
(2764.5 -2.64132e-10 9.11724e-15)
(2764.5 -2.73224e-10 1.19718e-14)
(2764.5 -2.73957e-10 1.15712e-14)
(2764.5 -2.79591e-10 1.12629e-14)
(2764.5 -2.76056e-10 1.1022e-14)
(2764.5 -2.64537e-10 1.10773e-14)
(2764.5 -2.5604e-10 1.20279e-14)
(2764.5 -2.42437e-10 9.60496e-15)
(2764.5 -2.17909e-10 1.03295e-14)
(2764.5 -2.11442e-10 9.23129e-15)
(2764.5 -2.09439e-10 1.00263e-14)
(2764.5 -2.14285e-10 8.96231e-15)
(2764.5 -2.2904e-10 9.74996e-15)
(2764.5 -2.55247e-10 1.13202e-14)
(2764.5 -2.58109e-10 1.20746e-14)
(2764.5 -2.55552e-10 8.80093e-15)
(2764.5 -2.41978e-10 1.14089e-14)
(2764.5 -2.38368e-10 1.12175e-14)
(2764.5 -2.14985e-10 1.09274e-14)
(2764.5 -1.96469e-10 8.65462e-15)
(2764.5 -1.81638e-10 9.5683e-15)
(2764.5 -1.9406e-10 1.00299e-14)
(2764.5 -2.0096e-10 9.06927e-15)
(2764.5 -2.34269e-10 9.38168e-15)
(2764.5 -2.49323e-10 9.88071e-15)
(2764.5 -2.57786e-10 7.07993e-15)
(2764.5 -2.53175e-10 1.14877e-14)
(2764.5 -2.567e-10 9.10429e-15)
(2764.5 -2.42538e-10 1.00055e-14)
(2764.5 -2.30163e-10 1.18144e-14)
(2764.5 -2.24466e-10 1.14469e-14)
(2764.5 -2.31652e-10 9.87471e-15)
(2764.5 -2.2871e-10 1.14684e-14)
(2764.5 -2.32097e-10 9.83824e-15)
(2764.5 -2.34864e-10 8.79153e-15)
(2764.5 -2.30801e-10 9.02112e-15)
(2764.5 -2.25534e-10 9.68321e-15)
(2764.5 -2.34458e-10 9.22053e-15)
(2764.5 -2.48251e-10 8.51359e-15)
(2764.5 -2.65088e-10 1.01351e-14)
(2764.5 -2.6688e-10 9.83234e-15)
(2764.5 -2.64426e-10 9.19076e-15)
(2764.5 -2.64007e-10 8.13562e-15)
(2764.5 -2.56609e-10 8.03117e-15)
(2764.5 -2.38228e-10 8.88938e-15)
(2764.5 -2.37927e-10 9.61116e-15)
(2764.5 -2.24661e-10 9.13521e-15)
(2764.5 -2.22114e-10 9.86788e-15)
(2764.5 -1.99172e-10 9.48306e-15)
(2764.5 -3.8301e-10 3.3116e-14)
(2764.5 -3.80705e-10 3.26153e-14)
(2764.5 -3.73815e-10 3.75957e-14)
(2764.5 -3.71898e-10 3.93855e-14)
(2764.5 -3.7198e-10 3.53938e-14)
(2764.5 -3.71604e-10 3.21406e-14)
(2764.5 -3.69113e-10 3.70135e-14)
(2764.5 -3.66269e-10 3.71716e-14)
(2764.5 -3.62755e-10 3.53441e-14)
(2764.5 -3.61044e-10 3.79207e-14)
(2764.5 -3.59591e-10 4.04409e-14)
(2764.5 -3.54974e-10 3.38536e-14)
(2764.5 -3.48406e-10 3.68056e-14)
(2764.5 -3.46803e-10 3.21442e-14)
(2764.5 -3.45343e-10 3.27116e-14)
(2764.5 -9.99788e-11 2.68211e-14)
(2764.5 -2.08522e-10 2.39821e-14)
(2764.5 -2.9441e-10 2.24414e-14)
(2764.5 -3.5348e-10 2.14888e-14)
(2764.5 -3.74425e-10 2.29163e-14)
(2764.5 -3.98176e-10 2.26326e-14)
(2764.5 -4.45282e-10 2.02383e-14)
(2764.5 -5.12919e-10 2.25682e-14)
(2764.5 -5.65754e-10 2.27656e-14)
(2764.5 -5.8999e-10 2.47335e-14)
(2764.5 -6.13444e-10 2.46214e-14)