/*--------------------------------*- C++ -*----------------------------------*\
| =========                 |                                                 |
| \\      /  F ield         | OpenFOAM: The Open Source CFD Toolbox           |
|  \\    /   O peration     | Version:  v1706                                 |
|   \\  /    A nd           | Web:      www.OpenFOAM.com                      |
|    \\/     M anipulation  |                                                 |
\*---------------------------------------------------------------------------*/
FoamFile
{
    version     2.0;
    format      ascii;
    class       volScalarField;
    location    "2e-05";
    object      wallHeatFlux;
}
// * * * * * * * * * * * * * * * * * * * * * * * * * * * * * * * * * * * * * //

dimensions      [1 0 -3 0 0 0 0];


internalField   uniform 0;

boundaryField
{
    cone
    {
        type            calculated;
        value           nonuniform List<scalar> 
147
(
12301.7
12299
12293.9
12287.8
12279.8
12270.1
12259.2
12247.7
12235.4
12222
12207.4
12191.6
12174.6
12156.4
12136.8
12116
12094
12070.7
12046.2
12020.4
11993.5
11965.3
11935.8
11905.3
11873.5
11840.5
11806.4
11771.1
11734.7
11697.2
11658.6
11618.8
11578
11536.1
11493.1
11449.1
11404
11358
11310.9
11262.8
11213.8
11163.8
11112.8
11060.9
11008.1
10954.4
10899.8
10844.4
10788.1
10730.9
10673
10614.2
10554.7
10494.4
10433.3
10371.5
10309
10245.8
10181.9
10117.3
10052
9986.1
9919.57
9852.43
9784.67
9716.33
9647.42
9577.95
9507.93
9437.37
9366.3
9294.71
9222.64
9150.07
9077.03
9003.53
8929.58
8855.19
8780.37
8705.13
8629.48
8553.43
8476.99
8400.18
8322.99
8245.43
8167.53
8089.27
8010.69
7931.77
7852.53
7772.97
7693.1
7612.93
7532.47
7451.71
7370.66
7289.33
7207.73
7125.86
7043.71
6961.3
6878.64
6795.72
6712.55
6629.12
6545.45
6461.54
6377.4
6293.01
6208.38
6123.53
6038.46
5953.17
5867.67
5781.96
5696.05
5609.96
5523.68
5437.22
5350.6
5263.83
5176.91
5089.85
5002.68
4915.4
4828.02
4740.57
4653.05
4565.47
4477.86
4390.23
4302.59
4214.96
4127.35
4039.78
3952.25
3864.77
3777.37
3690.04
3602.79
3515.62
3428.55
3341.56
3254.65
3167.82
12317
)
;
    }
    inlet
    {
        type            calculated;
        value           uniform 0;
    }
    rWedge
    {
        type            wedge;
    }
    lWedge
    {
        type            wedge;
    }
    outlet
    {
        type            calculated;
        value           nonuniform 0();
    }
    procBoundary3to2
    {
        type            processor;
        value           uniform 0;
    }
}


// ************************************************************************* //
