/*--------------------------------*- C++ -*----------------------------------*\
| =========                 |                                                 |
| \\      /  F ield         | OpenFOAM: The Open Source CFD Toolbox           |
|  \\    /   O peration     | Version:  v1706                                 |
|   \\  /    A nd           | Web:      www.OpenFOAM.com                      |
|    \\/     M anipulation  |                                                 |
\*---------------------------------------------------------------------------*/
FoamFile
{
    version     2.0;
    format      ascii;
    class       volVectorField;
    location    "1.4e-05";
    object      U;
}
// * * * * * * * * * * * * * * * * * * * * * * * * * * * * * * * * * * * * * //

dimensions      [0 1 -1 0 0 0 0];


internalField   nonuniform List<vector> 
29987
(
(2764.5 -2.0883e-08 4.08067e-11)
(2764.5 -6.56133e-09 1.20069e-11)
(2764.5 -3.16092e-09 5.8129e-12)
(2764.5 -1.95548e-09 3.47848e-12)
(2764.5 -1.3359e-09 2.3253e-12)
(2764.5 -9.6709e-10 1.7001e-12)
(2764.5 -7.29668e-10 1.28288e-12)
(2764.5 -5.71135e-10 1.00905e-12)
(2764.5 -4.62599e-10 8.13491e-13)
(2764.5 -3.80456e-10 7.00501e-13)
(2764.5 -3.19505e-10 5.13348e-13)
(2764.5 -2.73615e-10 4.53598e-13)
(2764.5 -2.35103e-10 4.22404e-13)
(2764.5 -2.06121e-10 3.50602e-13)
(2764.5 -1.82892e-10 3.12007e-13)
(2764.5 -1.6626e-10 2.61653e-13)
(2764.5 -1.45968e-10 2.23421e-13)
(2764.5 -1.32456e-10 1.973e-13)
(2764.5 -1.18772e-10 1.85429e-13)
(2764.5 -1.13052e-10 1.74038e-13)
(2764.5 -1.01044e-10 1.67707e-13)
(2764.5 -9.81013e-11 1.39834e-13)
(2764.5 -8.77694e-11 1.31356e-13)
(2764.5 -8.07768e-11 1.16021e-13)
(2764.5 -7.55293e-11 1.16957e-13)
(2764.5 -7.37474e-11 1.14708e-13)
(2764.5 -6.4499e-11 9.32071e-14)
(2764.5 -6.66073e-11 7.84939e-14)
(2764.5 -5.9369e-11 9.02609e-14)
(2764.5 -5.66148e-11 8.07054e-14)
(2764.5 -5.36793e-11 8.76153e-14)
(2764.5 -5.33196e-11 7.46432e-14)
(2764.5 -4.97332e-11 6.4823e-14)
(2764.5 -4.98682e-11 6.28649e-14)
(2764.5 -4.60183e-11 6.36448e-14)
(2764.5 -4.7367e-11 5.64393e-14)
(2764.5 -4.32842e-11 5.33163e-14)
(2764.5 -3.87399e-11 4.31639e-14)
(2764.5 -4.04312e-11 4.29666e-14)
(2764.5 -4.22781e-11 4.74695e-14)
(2764.5 -3.9138e-11 3.93642e-14)
(2764.5 -3.73652e-11 3.87184e-14)
(2764.5 -3.62852e-11 4.49984e-14)
(2764.5 -3.50026e-11 3.93858e-14)
(2764.5 -3.32217e-11 3.90223e-14)
(2764.5 -3.23971e-11 3.19736e-14)
(2764.5 -3.36685e-11 4.35703e-14)
(2764.5 -3.39152e-11 3.40757e-14)
(2764.5 -3.02899e-11 2.96881e-14)
(2764.5 -3.15822e-11 3.2308e-14)
(2764.5 -2.88869e-11 3.08808e-14)
(2764.5 -3.02902e-11 3.08396e-14)
(2764.5 -2.87132e-11 2.92463e-14)
(2764.5 -2.88788e-11 2.67773e-14)
(2764.5 -2.79465e-11 2.74223e-14)
(2764.5 -2.70803e-11 2.42836e-14)
(2764.5 -2.91517e-11 1.97173e-14)
(2764.5 -2.96645e-11 1.89178e-14)
(2764.5 -2.92043e-11 2.08461e-14)
(2764.5 -2.90695e-11 2.43526e-14)
(2764.5 -2.7928e-11 2.46271e-14)
(2764.5 -2.58388e-11 1.41142e-14)
(2764.5 -2.62713e-11 1.86526e-14)
(2764.5 -2.62926e-11 2.1381e-14)
(2764.5 -2.46879e-11 1.68546e-14)
(2764.5 -2.59931e-11 1.45424e-14)
(2764.5 -2.48755e-11 1.53184e-14)
(2764.5 -2.57257e-11 1.75114e-14)
(2764.5 -2.69213e-11 1.80227e-14)
(2764.5 -2.57748e-11 1.62477e-14)
(2764.5 -2.54262e-11 1.40851e-14)
(2764.5 -2.4321e-11 1.56439e-14)
(2764.5 -2.57857e-11 1.59108e-14)
(2764.5 -2.32939e-11 1.4026e-14)
(2764.5 -2.12893e-11 1.6804e-14)
(2764.5 -2.47765e-11 1.54869e-14)
(2764.5 -2.35601e-11 1.4427e-14)
(2764.5 -2.56585e-11 1.67393e-14)
(2764.5 -2.55647e-11 9.97922e-15)
(2764.5 -2.37567e-11 7.90076e-15)
(2764.5 -2.46862e-11 1.2536e-14)
(2764.5 -2.53252e-11 1.17323e-14)
(2764.5 -2.50883e-11 7.72512e-15)
(2764.5 -2.407e-11 1.07652e-14)
(2764.5 -2.39619e-11 1.21498e-14)
(2764.5 -2.34806e-11 1.02168e-14)
(2764.5 -2.39029e-11 9.35565e-15)
(2764.5 -2.41897e-11 9.65254e-15)
(2764.5 -2.32734e-11 1.26383e-14)
(2764.5 -2.47187e-11 9.19821e-15)
(2764.5 -2.49862e-11 6.59226e-15)
(2764.5 -2.42984e-11 7.06191e-15)
(2764.5 -2.33646e-11 1.08351e-14)
(2764.5 -2.4296e-11 1.23224e-14)
(2764.5 -2.51913e-11 1.24854e-14)
(2764.5 -2.44441e-11 1.14209e-14)
(2764.5 -2.32044e-11 7.17993e-15)
(2764.5 -2.24128e-11 1.06445e-14)
(2764.5 -2.3697e-11 1.2342e-14)
(2764.5 -2.40163e-11 8.402e-15)
(2764.5 -2.50419e-11 6.91425e-15)
(2764.5 -2.52268e-11 1.25503e-14)
(2764.5 -2.45674e-11 1.33519e-14)
(2764.5 -2.32678e-11 9.79783e-15)
(2764.5 -2.19286e-11 9.88886e-15)
(2764.5 -2.40276e-11 9.08087e-15)
(2764.5 -2.62193e-11 7.21416e-15)
(2764.5 -2.71085e-11 6.92865e-15)
(2764.5 -2.57324e-11 9.7094e-15)
(2764.5 -2.41625e-11 6.91065e-15)
(2764.5 -2.46765e-11 7.19937e-15)
(2764.5 -2.53156e-11 7.03431e-15)
(2764.5 -2.39754e-11 8.77996e-15)
(2764.5 -2.32735e-11 8.22441e-15)
(2764.5 -2.40852e-11 1.0096e-14)
(2764.5 -2.40945e-11 7.57043e-15)
(2764.5 -2.55877e-11 8.30301e-15)
(2764.5 -2.59139e-11 1.14506e-14)
(2764.5 -2.58682e-11 1.13223e-14)
(2764.5 -2.78224e-11 6.606e-15)
(2764.5 -2.90586e-11 7.85455e-15)
(2764.5 -2.91437e-11 9.69283e-15)
(2764.5 -2.85646e-11 6.7478e-15)
(2764.5 -2.98958e-11 8.784e-15)
(2764.5 -2.89176e-11 9.30636e-15)
(2764.5 -2.87041e-11 8.24903e-15)
(2764.5 -2.81747e-11 8.75904e-15)
(2764.5 -2.84643e-11 6.29771e-15)
(2764.5 -3.21638e-11 9.66204e-15)
(2764.5 -3.27567e-11 8.56602e-15)
(2764.5 -3.21278e-11 1.14323e-14)
(2764.5 -3.21828e-11 1.38207e-14)
(2764.5 -3.31995e-11 5.04532e-15)
(2764.5 -3.26639e-11 4.06734e-15)
(2764.5 -3.00287e-11 5.50446e-15)
(2764.5 -2.72483e-11 5.04015e-15)
(2764.5 -2.64703e-11 7.18548e-15)
(2764.5 -2.69348e-11 7.60748e-15)
(2764.5 -2.82282e-11 5.43927e-15)
(2764.5 -2.68589e-11 8.21446e-15)
(2764.5 -2.90202e-11 1.87398e-15)
(2764.5 -3.03904e-11 2.46772e-15)
(2764.5 -3.86594e-11 1.1362e-14)
(2764.5 -3.72123e-11 4.207e-15)
(2764.5 -3.5099e-11 6.91874e-15)
(2764.5 -3.47949e-11 7.65373e-15)
(2764.5 -2.81005e-11 1.14632e-14)
(2764.5 -2.99128e-11 8.07907e-15)
(2764.5 -3.23102e-11 6.60126e-15)
(2764.5 -3.27516e-11 7.52318e-15)
(2764.5 -3.77682e-11 2.98039e-15)
(2764.5 -3.61301e-11 3.60533e-15)
(2764.5 -4.1435e-11 4.30422e-15)
(2764.5 -3.99128e-11 7.62719e-15)
(2764.5 -3.779e-11 6.53843e-15)
(2764.5 -3.93791e-11 7.49378e-15)
(2764.5 -6.69613e-08 1.17748e-10)
(2764.5 -2.47846e-08 4.14731e-11)
(2764.5 -1.13544e-08 1.8763e-11)
(2764.5 -6.61058e-09 1.11274e-11)
(2764.5 -4.39072e-09 7.40776e-12)
(2764.5 -3.14401e-09 5.3308e-12)
(2764.5 -2.37186e-09 3.98929e-12)
(2764.5 -1.85504e-09 3.09751e-12)
(2764.5 -1.4951e-09 2.51487e-12)
(2764.5 -1.22952e-09 2.04438e-12)
(2764.5 -1.0333e-09 1.60043e-12)
(2764.5 -8.80833e-10 1.41832e-12)
(2764.5 -7.5657e-10 1.19504e-12)
(2764.5 -6.56812e-10 1.04872e-12)
(2764.5 -5.84783e-10 8.85289e-13)
(2764.5 -5.30019e-10 8.26327e-13)
(2764.5 -4.7134e-10 7.07497e-13)
(2764.5 -4.25129e-10 6.36099e-13)
(2764.5 -3.88599e-10 5.86708e-13)
(2764.5 -3.55789e-10 5.22267e-13)
(2764.5 -3.21416e-10 4.82495e-13)
(2764.5 -3.04455e-10 4.1017e-13)
(2764.5 -2.82009e-10 3.93357e-13)
(2764.5 -2.62432e-10 3.5603e-13)
(2764.5 -2.40043e-10 3.42303e-13)
(2764.5 -2.29721e-10 3.36439e-13)
(2764.5 -2.08676e-10 2.93869e-13)
(2764.5 -2.10489e-10 2.65879e-13)
(2764.5 -1.9444e-10 2.66994e-13)
(2764.5 -1.8147e-10 2.47681e-13)
(2764.5 -1.68804e-10 2.16727e-13)
(2764.5 -1.6656e-10 2.1671e-13)
(2764.5 -1.55293e-10 1.73453e-13)
(2764.5 -1.53369e-10 1.64692e-13)
(2764.5 -1.45178e-10 1.71997e-13)
(2764.5 -1.47463e-10 1.72847e-13)
(2764.5 -1.3776e-10 1.60486e-13)
(2764.5 -1.25106e-10 1.52984e-13)
(2764.5 -1.2717e-10 1.41856e-13)
(2764.5 -1.26559e-10 1.30855e-13)
(2764.5 -1.18079e-10 1.11987e-13)
(2764.5 -1.11922e-10 1.164e-13)
(2764.5 -1.21992e-10 1.30037e-13)
(2764.5 -1.13114e-10 1.12546e-13)
(2764.5 -1.06849e-10 9.03086e-14)
(2764.5 -9.99347e-11 1.06526e-13)
(2764.5 -1.01172e-10 1.10832e-13)
(2764.5 -1.0138e-10 8.96582e-14)
(2764.5 -9.73999e-11 8.76745e-14)
(2764.5 -1.00037e-10 9.61057e-14)
(2764.5 -9.63658e-11 9.60549e-14)
(2764.5 -9.3821e-11 8.51201e-14)
(2764.5 -8.87912e-11 8.15643e-14)
(2764.5 -8.7583e-11 6.49598e-14)
(2764.5 -8.87269e-11 7.25531e-14)
(2764.5 -8.12047e-11 6.59543e-14)
(2764.5 -8.055e-11 6.15255e-14)
(2764.5 -8.26692e-11 6.2553e-14)
(2764.5 -8.54335e-11 7.1416e-14)
(2764.5 -8.67208e-11 7.16643e-14)
(2764.5 -8.46532e-11 6.27961e-14)
(2764.5 -8.25971e-11 4.47627e-14)
(2764.5 -8.22716e-11 6.35887e-14)
(2764.5 -7.94734e-11 5.82665e-14)
(2764.5 -7.55197e-11 5.32679e-14)
(2764.5 -7.66481e-11 5.43095e-14)
(2764.5 -7.62096e-11 4.79539e-14)
(2764.5 -7.47479e-11 5.20539e-14)
(2764.5 -7.37573e-11 5.27932e-14)
(2764.5 -7.68698e-11 4.66695e-14)
(2764.5 -7.8477e-11 4.83613e-14)
(2764.5 -7.26887e-11 4.98277e-14)
(2764.5 -7.76718e-11 4.42505e-14)
(2764.5 -7.82365e-11 4.28017e-14)
(2764.5 -7.16055e-11 4.89181e-14)
(2764.5 -7.01175e-11 5.02572e-14)
(2764.5 -7.11348e-11 4.47461e-14)
(2764.5 -6.91366e-11 4.54823e-14)
(2764.5 -7.27476e-11 3.05297e-14)
(2764.5 -7.30424e-11 3.00263e-14)
(2764.5 -6.98373e-11 3.52531e-14)
(2764.5 -7.19656e-11 3.33029e-14)
(2764.5 -7.59759e-11 3.02171e-14)
(2764.5 -7.14777e-11 3.87648e-14)
(2764.5 -7.25075e-11 4.40739e-14)
(2764.5 -7.37167e-11 4.09316e-14)
(2764.5 -7.11381e-11 3.42676e-14)
(2764.5 -7.34045e-11 3.97517e-14)
(2764.5 -6.90209e-11 3.61733e-14)
(2764.5 -6.75602e-11 2.69087e-14)
(2764.5 -7.26078e-11 3.1959e-14)
(2764.5 -7.58209e-11 2.72296e-14)
(2764.5 -7.21901e-11 3.18169e-14)
(2764.5 -6.8601e-11 3.24819e-14)
(2764.5 -7.10011e-11 3.95184e-14)
(2764.5 -7.57653e-11 3.23647e-14)
(2764.5 -7.3694e-11 2.56178e-14)
(2764.5 -7.05047e-11 2.77127e-14)
(2764.5 -7.01417e-11 2.76312e-14)
(2764.5 -6.85201e-11 2.6852e-14)
(2764.5 -6.93217e-11 2.66407e-14)
(2764.5 -7.11494e-11 2.74766e-14)
(2764.5 -7.28798e-11 3.05963e-14)
(2764.5 -7.53514e-11 2.08897e-14)
(2764.5 -7.02055e-11 2.208e-14)
(2764.5 -6.73546e-11 2.13052e-14)
(2764.5 -6.64884e-11 2.28779e-14)
(2764.5 -7.19773e-11 2.22033e-14)
(2764.5 -7.52101e-11 1.96264e-14)
(2764.5 -7.34729e-11 2.02298e-14)
(2764.5 -7.39081e-11 2.3724e-14)
(2764.5 -7.56655e-11 2.23759e-14)
(2764.5 -7.6758e-11 2.33156e-14)
(2764.5 -7.45695e-11 2.49111e-14)
(2764.5 -7.54613e-11 2.68631e-14)
(2764.5 -7.42553e-11 2.62675e-14)
(2764.5 -7.51295e-11 2.7588e-14)
(2764.5 -7.53471e-11 2.80741e-14)
(2764.5 -7.47858e-11 2.38272e-14)
(2764.5 -7.60759e-11 1.79209e-14)
(2764.5 -7.90997e-11 2.02724e-14)
(2764.5 -8.0584e-11 2.11671e-14)
(2764.5 -8.03092e-11 2.16003e-14)
(2764.5 -8.20775e-11 2.28667e-14)
(2764.5 -8.41815e-11 2.37971e-14)
(2764.5 -8.60374e-11 2.21324e-14)
(2764.5 -8.51109e-11 2.19232e-14)
(2764.5 -8.25035e-11 2.12948e-14)
(2764.5 -8.30789e-11 2.0922e-14)
(2764.5 -8.66168e-11 2.3678e-14)
(2764.5 -8.70588e-11 2.4518e-14)
(2764.5 -8.57731e-11 2.03756e-14)
(2764.5 -8.73936e-11 1.82992e-14)
(2764.5 -9.22483e-11 1.95882e-14)
(2764.5 -9.08642e-11 1.93966e-14)
(2764.5 -9.42244e-11 1.53776e-14)
(2764.5 -9.41853e-11 2.84927e-14)
(2764.5 -8.70247e-11 1.78295e-14)
(2764.5 -8.77378e-11 1.90067e-14)
(2764.5 -8.82161e-11 2.03961e-14)
(2764.5 -8.34093e-11 1.84352e-14)
(2764.5 -8.04307e-11 2.11072e-14)
(2764.5 -8.39431e-11 2.06691e-14)
(2764.5 -9.53936e-11 2.27435e-14)
(2764.5 -9.76137e-11 1.57145e-14)
(2764.5 -1.04491e-10 2.08197e-14)
(2764.5 -1.02221e-10 2.18644e-14)
(2764.5 -1.02719e-10 1.9595e-14)
(2764.5 -9.59844e-11 2.64304e-14)
(2764.5 -9.50094e-11 2.06197e-14)
(2764.5 -1.00542e-10 1.65405e-14)
(2764.5 -9.6266e-11 1.2788e-14)
(2764.5 -1.01188e-10 1.47768e-14)
(2764.5 -1.10536e-10 1.92082e-14)
(2764.5 -1.16115e-10 1.72959e-14)
(2764.5 -1.12753e-10 1.72737e-14)
(2764.5 -1.06284e-07 1.82085e-10)
(2764.5 -4.53321e-08 7.34322e-11)
(2764.5 -2.12526e-08 3.34745e-11)
(2764.5 -1.20391e-08 1.92138e-11)
(2764.5 -7.84526e-09 1.25098e-11)
(2764.5 -5.56427e-09 8.82058e-12)
(2764.5 -4.1791e-09 6.68786e-12)
(2764.5 -3.26777e-09 5.14705e-12)
(2764.5 -2.61961e-09 4.16138e-12)
(2764.5 -2.15246e-09 3.35003e-12)
(2764.5 -1.80895e-09 2.78703e-12)
(2764.5 -1.54058e-09 2.40236e-12)
(2764.5 -1.31893e-09 2.02343e-12)
(2764.5 -1.15503e-09 1.74662e-12)
(2764.5 -1.02508e-09 1.54105e-12)
(2764.5 -9.15138e-10 1.36641e-12)
(2764.5 -8.19451e-10 1.17686e-12)
(2764.5 -7.41771e-10 1.07132e-12)
(2764.5 -6.78843e-10 9.58031e-13)
(2764.5 -6.19874e-10 8.96566e-13)
(2764.5 -5.62231e-10 8.00773e-13)
(2764.5 -5.29308e-10 6.87038e-13)
(2764.5 -4.88256e-10 6.71623e-13)
(2764.5 -4.51895e-10 6.06172e-13)
(2764.5 -4.18492e-10 5.97289e-13)
(2764.5 -3.96334e-10 5.48579e-13)
(2764.5 -3.73264e-10 5.19151e-13)
(2764.5 -3.57924e-10 4.66258e-13)
(2764.5 -3.34508e-10 4.23423e-13)
(2764.5 -3.13921e-10 4.087e-13)
(2764.5 -2.96433e-10 3.63623e-13)
(2764.5 -2.8815e-10 3.72329e-13)
(2764.5 -2.69411e-10 3.19503e-13)
(2764.5 -2.59651e-10 3.1481e-13)
(2764.5 -2.5218e-10 3.11224e-13)
(2764.5 -2.52417e-10 2.76184e-13)
(2764.5 -2.37518e-10 2.55771e-13)
(2764.5 -2.18156e-10 2.59903e-13)
(2764.5 -2.15611e-10 2.52571e-13)
(2764.5 -2.13588e-10 2.24279e-13)
(2764.5 -2.03854e-10 2.12014e-13)
(2764.5 -1.94695e-10 2.07542e-13)
(2764.5 -1.98307e-10 2.1185e-13)
(2764.5 -1.94223e-10 1.94678e-13)
(2764.5 -1.84612e-10 1.67926e-13)
(2764.5 -1.74855e-10 1.79092e-13)
(2764.5 -1.71852e-10 1.75305e-13)
(2764.5 -1.73347e-10 1.65465e-13)
(2764.5 -1.70798e-10 1.59215e-13)
(2764.5 -1.67383e-10 1.7258e-13)
(2764.5 -1.64246e-10 1.57165e-13)
(2764.5 -1.58352e-10 1.43505e-13)
(2764.5 -1.53762e-10 1.34691e-13)
(2764.5 -1.52932e-10 1.30575e-13)
(2764.5 -1.51616e-10 1.24478e-13)
(2764.5 -1.43912e-10 1.18182e-13)
(2764.5 -1.37691e-10 1.11083e-13)
(2764.5 -1.36688e-10 1.05697e-13)
(2764.5 -1.3823e-10 1.22346e-13)
(2764.5 -1.44132e-10 1.16853e-13)
(2764.5 -1.43923e-10 1.07076e-13)
(2764.5 -1.38966e-10 1.08557e-13)
(2764.5 -1.41552e-10 1.01879e-13)
(2764.5 -1.36241e-10 8.31985e-14)
(2764.5 -1.3201e-10 9.33175e-14)
(2764.5 -1.30328e-10 9.09439e-14)
(2764.5 -1.25328e-10 8.17908e-14)
(2764.5 -1.24737e-10 9.07035e-14)
(2764.5 -1.24557e-10 8.2367e-14)
(2764.5 -1.23452e-10 7.87783e-14)
(2764.5 -1.29758e-10 7.66885e-14)
(2764.5 -1.2743e-10 7.70448e-14)
(2764.5 -1.2661e-10 7.18597e-14)
(2764.5 -1.28777e-10 7.4018e-14)
(2764.5 -1.25272e-10 7.99273e-14)
(2764.5 -1.2146e-10 8.06464e-14)
(2764.5 -1.22597e-10 6.803e-14)
(2764.5 -1.19499e-10 6.87884e-14)
(2764.5 -1.17806e-10 6.83998e-14)
(2764.5 -1.2015e-10 6.4213e-14)
(2764.5 -1.15755e-10 6.19599e-14)
(2764.5 -1.15163e-10 5.76482e-14)
(2764.5 -1.22938e-10 5.42846e-14)
(2764.5 -1.20945e-10 5.39193e-14)
(2764.5 -1.19964e-10 5.47422e-14)
(2764.5 -1.22034e-10 5.44543e-14)
(2764.5 -1.19952e-10 5.99266e-14)
(2764.5 -1.21569e-10 6.63153e-14)
(2764.5 -1.18283e-10 5.84273e-14)
(2764.5 -1.15433e-10 5.72826e-14)
(2764.5 -1.15541e-10 5.22941e-14)
(2764.5 -1.20739e-10 4.96202e-14)
(2764.5 -1.20675e-10 5.70684e-14)
(2764.5 -1.14635e-10 6.40738e-14)
(2764.5 -1.14851e-10 6.4387e-14)
(2764.5 -1.22926e-10 4.8685e-14)
(2764.5 -1.23576e-10 4.13323e-14)
(2764.5 -1.19968e-10 4.50022e-14)
(2764.5 -1.19068e-10 4.86609e-14)
(2764.5 -1.17489e-10 4.91855e-14)
(2764.5 -1.19848e-10 4.28352e-14)
(2764.5 -1.19206e-10 4.81478e-14)
(2764.5 -1.19948e-10 4.91959e-14)
(2764.5 -1.22961e-10 4.35233e-14)
(2764.5 -1.20888e-10 4.9644e-14)
(2764.5 -1.17766e-10 4.46459e-14)
(2764.5 -1.1491e-10 3.9977e-14)
(2764.5 -1.15604e-10 3.61898e-14)
(2764.5 -1.22183e-10 3.7924e-14)
(2764.5 -1.21238e-10 4.18721e-14)
(2764.5 -1.23886e-10 3.55755e-14)
(2764.5 -1.26016e-10 3.51276e-14)
(2764.5 -1.27338e-10 3.63164e-14)
(2764.5 -1.25354e-10 3.86986e-14)
(2764.5 -1.25085e-10 3.81673e-14)
(2764.5 -1.26035e-10 4.43483e-14)
(2764.5 -1.2719e-10 4.66202e-14)
(2764.5 -1.26761e-10 4.68641e-14)
(2764.5 -1.25227e-10 3.92427e-14)
(2764.5 -1.24888e-10 3.70763e-14)
(2764.5 -1.27699e-10 3.83766e-14)
(2764.5 -1.30516e-10 3.80082e-14)
(2764.5 -1.31677e-10 3.55922e-14)
(2764.5 -1.32415e-10 3.21475e-14)
(2764.5 -1.34112e-10 3.43156e-14)
(2764.5 -1.36509e-10 3.59217e-14)
(2764.5 -1.37604e-10 3.51542e-14)
(2764.5 -1.36924e-10 3.50295e-14)
(2764.5 -1.36844e-10 3.81841e-14)
(2764.5 -1.3978e-10 3.76869e-14)
(2764.5 -1.4317e-10 3.3776e-14)
(2764.5 -1.43236e-10 4.03367e-14)
(2764.5 -1.43532e-10 4.03107e-14)
(2764.5 -1.4668e-10 3.54833e-14)
(2764.5 -1.48387e-10 3.69411e-14)
(2764.5 -1.51093e-10 3.06631e-14)
(2764.5 -1.52956e-10 2.37746e-14)
(2764.5 -1.55988e-10 3.11464e-14)
(2764.5 -1.53094e-10 3.87518e-14)
(2764.5 -1.52642e-10 3.49238e-14)
(2764.5 -1.48636e-10 2.93615e-14)
(2764.5 -1.44976e-10 2.79661e-14)
(2764.5 -1.40535e-10 2.98722e-14)
(2764.5 -1.44402e-10 2.87323e-14)
(2764.5 -1.50818e-10 3.45495e-14)
(2764.5 -1.59737e-10 2.94781e-14)
(2764.5 -1.63703e-10 3.00282e-14)
(2764.5 -1.67444e-10 3.00634e-14)
(2764.5 -1.64838e-10 3.76616e-14)
(2764.5 -1.66361e-10 3.35637e-14)
(2764.5 -1.62174e-10 3.094e-14)
(2764.5 -1.61704e-10 3.13142e-14)
(2764.5 -1.58971e-10 3.16253e-14)
(2764.5 -1.63592e-10 2.61619e-14)
(2764.5 -1.72874e-10 3.29739e-14)
(2764.5 -1.77458e-10 3.1818e-14)
(2764.5 -1.37736e-07 2.33404e-10)
(2764.5 -6.63945e-08 1.05223e-10)
(2764.5 -3.25611e-08 4.94868e-11)
(2764.5 -1.83156e-08 2.76486e-11)
(2764.5 -1.17516e-08 1.77635e-11)
(2764.5 -8.25815e-09 1.2496e-11)
(2764.5 -6.165e-09 9.40592e-12)
(2764.5 -4.80111e-09 7.28979e-12)
(2764.5 -3.84406e-09 5.83722e-12)
(2764.5 -3.15496e-09 4.77979e-12)
(2764.5 -2.6472e-09 3.8951e-12)
(2764.5 -2.25123e-09 3.3601e-12)
(2764.5 -1.93198e-09 2.87621e-12)
(2764.5 -1.68532e-09 2.49688e-12)
(2764.5 -1.49629e-09 2.25529e-12)
(2764.5 -1.33495e-09 1.92932e-12)
(2764.5 -1.19276e-09 1.68609e-12)
(2764.5 -1.08315e-09 1.49771e-12)
(2764.5 -9.8824e-10 1.32473e-12)
(2764.5 -9.02237e-10 1.26909e-12)
(2764.5 -8.25738e-10 1.12009e-12)
(2764.5 -7.67637e-10 1.03462e-12)
(2764.5 -7.04035e-10 9.54025e-13)
(2764.5 -6.52632e-10 8.78202e-13)
(2764.5 -6.08334e-10 8.15146e-13)
(2764.5 -5.77962e-10 7.4868e-13)
(2764.5 -5.48854e-10 7.01692e-13)
(2764.5 -5.1418e-10 6.37671e-13)
(2764.5 -4.84168e-10 6.21293e-13)
(2764.5 -4.54982e-10 5.67928e-13)
(2764.5 -4.32552e-10 5.39319e-13)
(2764.5 -4.13505e-10 5.12228e-13)
(2764.5 -3.91656e-10 4.96769e-13)
(2764.5 -3.77257e-10 4.62808e-13)
(2764.5 -3.64811e-10 4.34905e-13)
(2764.5 -3.63153e-10 3.98218e-13)
(2764.5 -3.41607e-10 3.74485e-13)
(2764.5 -3.17212e-10 3.47587e-13)
(2764.5 -3.08587e-10 3.53545e-13)
(2764.5 -3.07189e-10 3.16063e-13)
(2764.5 -2.98713e-10 3.03422e-13)
(2764.5 -2.82626e-10 2.83674e-13)
(2764.5 -2.78285e-10 2.84403e-13)
(2764.5 -2.7125e-10 2.64111e-13)
(2764.5 -2.65394e-10 2.69432e-13)
(2764.5 -2.55885e-10 2.45016e-13)
(2764.5 -2.46459e-10 2.47198e-13)
(2764.5 -2.46471e-10 2.34997e-13)
(2764.5 -2.41e-10 2.35194e-13)
(2764.5 -2.37848e-10 2.3104e-13)
(2764.5 -2.33823e-10 2.09198e-13)
(2764.5 -2.26952e-10 2.03548e-13)
(2764.5 -2.20203e-10 1.91798e-13)
(2764.5 -2.18942e-10 1.88291e-13)
(2764.5 -2.14561e-10 1.68377e-13)
(2764.5 -2.09322e-10 1.71722e-13)
(2764.5 -1.98125e-10 1.65454e-13)
(2764.5 -1.98748e-10 1.60671e-13)
(2764.5 -1.99177e-10 1.71433e-13)
(2764.5 -2.02532e-10 1.66669e-13)
(2764.5 -2.01637e-10 1.55488e-13)
(2764.5 -1.98117e-10 1.4079e-13)
(2764.5 -2.02233e-10 1.33046e-13)
(2764.5 -1.96225e-10 1.31066e-13)
(2764.5 -1.90227e-10 1.44649e-13)
(2764.5 -1.86942e-10 1.34192e-13)
(2764.5 -1.81309e-10 1.23297e-13)
(2764.5 -1.79526e-10 1.29003e-13)
(2764.5 -1.77354e-10 1.10226e-13)
(2764.5 -1.7698e-10 1.06478e-13)
(2764.5 -1.79674e-10 1.06765e-13)
(2764.5 -1.819e-10 1.15184e-13)
(2764.5 -1.79974e-10 1.11694e-13)
(2764.5 -1.82331e-10 1.14437e-13)
(2764.5 -1.77074e-10 1.09715e-13)
(2764.5 -1.72594e-10 1.04768e-13)
(2764.5 -1.73119e-10 1.05271e-13)
(2764.5 -1.70208e-10 1.08725e-13)
(2764.5 -1.68078e-10 1.02778e-13)
(2764.5 -1.71812e-10 9.27299e-14)
(2764.5 -1.65312e-10 8.3417e-14)
(2764.5 -1.63746e-10 9.36524e-14)
(2764.5 -1.64868e-10 8.79344e-14)
(2764.5 -1.65335e-10 8.76198e-14)
(2764.5 -1.68939e-10 8.48785e-14)
(2764.5 -1.68374e-10 8.81499e-14)
(2764.5 -1.6837e-10 8.58161e-14)
(2764.5 -1.68672e-10 8.10765e-14)
(2764.5 -1.70869e-10 7.56898e-14)
(2764.5 -1.67375e-10 8.00087e-14)
(2764.5 -1.63234e-10 7.82948e-14)
(2764.5 -1.64548e-10 7.88092e-14)
(2764.5 -1.67147e-10 8.1937e-14)
(2764.5 -1.67271e-10 8.73702e-14)
(2764.5 -1.618e-10 7.53229e-14)
(2764.5 -1.65763e-10 7.29413e-14)
(2764.5 -1.74799e-10 7.4729e-14)
(2764.5 -1.70663e-10 6.67893e-14)
(2764.5 -1.66805e-10 6.62857e-14)
(2764.5 -1.63287e-10 6.52887e-14)
(2764.5 -1.67301e-10 5.99688e-14)
(2764.5 -1.67347e-10 6.38722e-14)
(2764.5 -1.70021e-10 6.73416e-14)
(2764.5 -1.74405e-10 6.75754e-14)
(2764.5 -1.73201e-10 6.57258e-14)
(2764.5 -1.69124e-10 6.42547e-14)
(2764.5 -1.66478e-10 6.1389e-14)
(2764.5 -1.65957e-10 6.00971e-14)
(2764.5 -1.68264e-10 5.61113e-14)
(2764.5 -1.68041e-10 5.00657e-14)
(2764.5 -1.66767e-10 5.14695e-14)
(2764.5 -1.71105e-10 5.06843e-14)
(2764.5 -1.73468e-10 5.63293e-14)
(2764.5 -1.72599e-10 5.73887e-14)
(2764.5 -1.73335e-10 6.15359e-14)
(2764.5 -1.76614e-10 6.05705e-14)
(2764.5 -1.76544e-10 6.06469e-14)
(2764.5 -1.77619e-10 5.45645e-14)
(2764.5 -1.77601e-10 5.05434e-14)
(2764.5 -1.74768e-10 5.31965e-14)
(2764.5 -1.75344e-10 5.40094e-14)
(2764.5 -1.77384e-10 5.26736e-14)
(2764.5 -1.78793e-10 4.8594e-14)
(2764.5 -1.8193e-10 5.05018e-14)
(2764.5 -1.83592e-10 5.60183e-14)
(2764.5 -1.87712e-10 5.28078e-14)
(2764.5 -1.905e-10 5.64027e-14)
(2764.5 -1.91207e-10 5.66263e-14)
(2764.5 -1.90956e-10 5.15833e-14)
(2764.5 -1.92927e-10 5.03633e-14)
(2764.5 -1.96188e-10 5.00376e-14)
(2764.5 -1.9919e-10 5.18845e-14)
(2764.5 -2.01666e-10 4.95336e-14)
(2764.5 -2.03027e-10 4.8711e-14)
(2764.5 -2.05364e-10 5.09367e-14)
(2764.5 -2.08247e-10 4.71479e-14)
(2764.5 -2.09422e-10 5.17395e-14)
(2764.5 -2.13149e-10 4.98922e-14)
(2764.5 -2.166e-10 4.96071e-14)
(2764.5 -2.18228e-10 4.56639e-14)
(2764.5 -2.15872e-10 4.63446e-14)
(2764.5 -2.10903e-10 4.68489e-14)
(2764.5 -2.09066e-10 4.24101e-14)
(2764.5 -2.07092e-10 4.47793e-14)
(2764.5 -2.1158e-10 4.76803e-14)
(2764.5 -2.13234e-10 4.7078e-14)
(2764.5 -2.17802e-10 4.57283e-14)
(2764.5 -2.20953e-10 4.93198e-14)
(2764.5 -2.24463e-10 4.74401e-14)
(2764.5 -2.29443e-10 4.24356e-14)
(2764.5 -2.28495e-10 4.52498e-14)
(2764.5 -2.31452e-10 4.66969e-14)
(2764.5 -2.31318e-10 5.23316e-14)
(2764.5 -2.29094e-10 4.09851e-14)
(2764.5 -2.32948e-10 4.37691e-14)
(2764.5 -2.38426e-10 4.12418e-14)
(2764.5 -1.62705e-07 2.73915e-10)
(2764.5 -8.6854e-08 1.35838e-10)
(2764.5 -4.48832e-08 6.63438e-11)
(2764.5 -2.54154e-08 3.67506e-11)
(2764.5 -1.61515e-08 2.34839e-11)
(2764.5 -1.12448e-08 1.6451e-11)
(2764.5 -8.34245e-09 1.21812e-11)
(2764.5 -6.4716e-09 9.47452e-12)
(2764.5 -5.17266e-09 7.60868e-12)
(2764.5 -4.23674e-09 6.26181e-12)
(2764.5 -3.5491e-09 5.13949e-12)
(2764.5 -3.01318e-09 4.34986e-12)
(2764.5 -2.58492e-09 3.69754e-12)
(2764.5 -2.25418e-09 3.22309e-12)
(2764.5 -1.99898e-09 2.87325e-12)
(2764.5 -1.78557e-09 2.51431e-12)
(2764.5 -1.59595e-09 2.18632e-12)
(2764.5 -1.44616e-09 1.98339e-12)
(2764.5 -1.31496e-09 1.80098e-12)
(2764.5 -1.20009e-09 1.63122e-12)
(2764.5 -1.10373e-09 1.49059e-12)
(2764.5 -1.02146e-09 1.37145e-12)
(2764.5 -9.40493e-10 1.22853e-12)
(2764.5 -8.68649e-10 1.14745e-12)
(2764.5 -8.12431e-10 1.03458e-12)
(2764.5 -7.68048e-10 1.00374e-12)
(2764.5 -7.26912e-10 9.15365e-13)
(2764.5 -6.80749e-10 8.72604e-13)
(2764.5 -6.41679e-10 8.29306e-13)
(2764.5 -6.07739e-10 7.60012e-13)
(2764.5 -5.76985e-10 6.94041e-13)
(2764.5 -5.46565e-10 6.68112e-13)
(2764.5 -5.21433e-10 6.12882e-13)
(2764.5 -5.03466e-10 5.7148e-13)
(2764.5 -4.85254e-10 5.54325e-13)
(2764.5 -4.7171e-10 5.34515e-13)
(2764.5 -4.5025e-10 4.94216e-13)
(2764.5 -4.25044e-10 4.6848e-13)
(2764.5 -4.07939e-10 4.34832e-13)
(2764.5 -4.04127e-10 4.05662e-13)
(2764.5 -3.91447e-10 4.09354e-13)
(2764.5 -3.76166e-10 3.93676e-13)
(2764.5 -3.63889e-10 3.75826e-13)
(2764.5 -3.53883e-10 3.65409e-13)
(2764.5 -3.48907e-10 3.50412e-13)
(2764.5 -3.40486e-10 3.32446e-13)
(2764.5 -3.25879e-10 3.11474e-13)
(2764.5 -3.23425e-10 3.04925e-13)
(2764.5 -3.13895e-10 2.91341e-13)
(2764.5 -3.07983e-10 2.69624e-13)
(2764.5 -3.06623e-10 2.7534e-13)
(2764.5 -2.99203e-10 2.64998e-13)
(2764.5 -2.90612e-10 2.56063e-13)
(2764.5 -2.8448e-10 2.43125e-13)
(2764.5 -2.81619e-10 2.40396e-13)
(2764.5 -2.70616e-10 2.34621e-13)
(2764.5 -2.60058e-10 2.13424e-13)
(2764.5 -2.54538e-10 2.05967e-13)
(2764.5 -2.58007e-10 2.14745e-13)
(2764.5 -2.58608e-10 1.97758e-13)
(2764.5 -2.58348e-10 1.88223e-13)
(2764.5 -2.59219e-10 1.77611e-13)
(2764.5 -2.60758e-10 1.80859e-13)
(2764.5 -2.56466e-10 1.91094e-13)
(2764.5 -2.48198e-10 1.74468e-13)
(2764.5 -2.43226e-10 1.76444e-13)
(2764.5 -2.36066e-10 1.69846e-13)
(2764.5 -2.33079e-10 1.54908e-13)
(2764.5 -2.33026e-10 1.62441e-13)
(2764.5 -2.33922e-10 1.59251e-13)
(2764.5 -2.32021e-10 1.50485e-13)
(2764.5 -2.31568e-10 1.50378e-13)
(2764.5 -2.30339e-10 1.42559e-13)
(2764.5 -2.33564e-10 1.42147e-13)
(2764.5 -2.30954e-10 1.44433e-13)
(2764.5 -2.29798e-10 1.37524e-13)
(2764.5 -2.27369e-10 1.39858e-13)
(2764.5 -2.22443e-10 1.32007e-13)
(2764.5 -2.20667e-10 1.20827e-13)
(2764.5 -2.24048e-10 1.20547e-13)
(2764.5 -2.19722e-10 1.26851e-13)
(2764.5 -2.16603e-10 1.19409e-13)
(2764.5 -2.15981e-10 1.13515e-13)
(2764.5 -2.12902e-10 1.15119e-13)
(2764.5 -2.13603e-10 1.12906e-13)
(2764.5 -2.16039e-10 1.07736e-13)
(2764.5 -2.14208e-10 1.027e-13)
(2764.5 -2.10771e-10 1.08616e-13)
(2764.5 -2.16888e-10 1.13321e-13)
(2764.5 -2.19615e-10 1.1225e-13)
(2764.5 -2.17357e-10 1.03018e-13)
(2764.5 -2.15742e-10 1.01127e-13)
(2764.5 -2.15867e-10 9.95791e-14)
(2764.5 -2.15676e-10 9.52535e-14)
(2764.5 -2.11952e-10 9.51759e-14)
(2764.5 -2.13367e-10 9.6576e-14)
(2764.5 -2.21645e-10 8.91402e-14)
(2764.5 -2.21803e-10 8.7038e-14)
(2764.5 -2.19837e-10 8.99596e-14)
(2764.5 -2.11444e-10 8.41019e-14)
(2764.5 -2.14149e-10 7.88109e-14)
(2764.5 -2.13441e-10 8.32851e-14)
(2764.5 -2.15822e-10 8.73547e-14)
(2764.5 -2.20932e-10 8.00386e-14)
(2764.5 -2.2306e-10 7.98503e-14)
(2764.5 -2.19092e-10 8.37613e-14)
(2764.5 -2.14231e-10 8.05958e-14)
(2764.5 -2.16976e-10 7.98135e-14)
(2764.5 -2.17477e-10 7.45915e-14)
(2764.5 -2.17822e-10 7.62182e-14)
(2764.5 -2.18168e-10 7.69011e-14)
(2764.5 -2.20159e-10 7.44237e-14)
(2764.5 -2.23287e-10 7.73098e-14)
(2764.5 -2.21964e-10 6.47112e-14)
(2764.5 -2.21729e-10 6.36045e-14)
(2764.5 -2.23954e-10 6.81026e-14)
(2764.5 -2.26545e-10 7.27473e-14)
(2764.5 -2.28793e-10 6.94279e-14)
(2764.5 -2.3049e-10 7.40004e-14)
(2764.5 -2.28428e-10 7.52843e-14)
(2764.5 -2.29023e-10 7.04185e-14)
(2764.5 -2.29558e-10 6.68823e-14)
(2764.5 -2.28488e-10 6.92323e-14)
(2764.5 -2.31736e-10 7.24204e-14)
(2764.5 -2.34247e-10 6.66675e-14)
(2764.5 -2.3874e-10 6.89091e-14)
(2764.5 -2.42766e-10 7.2821e-14)
(2764.5 -2.45547e-10 6.29268e-14)
(2764.5 -2.47798e-10 6.1814e-14)
(2764.5 -2.49531e-10 6.04698e-14)
(2764.5 -2.50296e-10 6.167e-14)
(2764.5 -2.51401e-10 6.60771e-14)
(2764.5 -2.54713e-10 6.49528e-14)
(2764.5 -2.58039e-10 6.79632e-14)
(2764.5 -2.60596e-10 6.84876e-14)
(2764.5 -2.64798e-10 6.7305e-14)
(2764.5 -2.66516e-10 6.27123e-14)
(2764.5 -2.66655e-10 5.90194e-14)
(2764.5 -2.69832e-10 6.14512e-14)
(2764.5 -2.73493e-10 5.72277e-14)
(2764.5 -2.78084e-10 6.04428e-14)
(2764.5 -2.76711e-10 5.69343e-14)
(2764.5 -2.7218e-10 6.14819e-14)
(2764.5 -2.72732e-10 6.00844e-14)
(2764.5 -2.73862e-10 6.18237e-14)
(2764.5 -2.74717e-10 6.28278e-14)
(2764.5 -2.77853e-10 5.79323e-14)
(2764.5 -2.84404e-10 5.4635e-14)
(2764.5 -2.88563e-10 5.5073e-14)
(2764.5 -2.8815e-10 5.68286e-14)
(2764.5 -2.88198e-10 5.33888e-14)
(2764.5 -2.89182e-10 6.24946e-14)
(2764.5 -2.91472e-10 5.61847e-14)
(2764.5 -2.93478e-10 5.33754e-14)
(2764.5 -2.98544e-10 6.16209e-14)
(2764.5 -3.04046e-10 6.1464e-14)
(2764.5 -1.8279e-07 3.07123e-10)
(2764.5 -1.06082e-07 1.64609e-10)
(2764.5 -5.78122e-08 8.35022e-11)
(2764.5 -3.32633e-08 4.65221e-11)
(2764.5 -2.1066e-08 2.94566e-11)
(2764.5 -1.4543e-08 2.0462e-11)
(2764.5 -1.07134e-08 1.52547e-11)
(2764.5 -8.28302e-09 1.17237e-11)
(2764.5 -6.61435e-09 9.35084e-12)
(2764.5 -5.40231e-09 7.655e-12)
(2764.5 -4.51196e-09 6.34927e-12)
(2764.5 -3.82616e-09 5.35156e-12)
(2764.5 -3.28412e-09 4.58743e-12)
(2764.5 -2.86269e-09 4.01857e-12)
(2764.5 -2.53472e-09 3.48429e-12)
(2764.5 -2.26305e-09 3.0576e-12)
(2764.5 -2.02804e-09 2.7305e-12)
(2764.5 -1.82925e-09 2.42483e-12)
(2764.5 -1.6626e-09 2.20908e-12)
(2764.5 -1.51724e-09 1.97155e-12)
(2764.5 -1.39516e-09 1.81972e-12)
(2764.5 -1.29236e-09 1.66365e-12)
(2764.5 -1.18964e-09 1.51506e-12)
(2764.5 -1.09822e-09 1.36659e-12)
(2764.5 -1.02819e-09 1.29278e-12)
(2764.5 -9.69669e-10 1.22336e-12)
(2764.5 -9.11934e-10 1.12678e-12)
(2764.5 -8.57423e-10 1.06878e-12)
(2764.5 -8.09932e-10 9.73975e-13)
(2764.5 -7.67625e-10 8.88224e-13)
(2764.5 -7.2758e-10 8.57582e-13)
(2764.5 -6.86917e-10 8.03825e-13)
(2764.5 -6.59059e-10 7.50113e-13)
(2764.5 -6.34721e-10 7.18136e-13)
(2764.5 -6.11616e-10 6.78097e-13)
(2764.5 -5.85923e-10 6.12713e-13)
(2764.5 -5.61439e-10 6.22414e-13)
(2764.5 -5.37429e-10 5.78675e-13)
(2764.5 -5.1646e-10 5.49968e-13)
(2764.5 -5.02233e-10 5.29304e-13)
(2764.5 -4.90269e-10 4.93572e-13)
(2764.5 -4.70889e-10 4.71112e-13)
(2764.5 -4.56525e-10 4.53176e-13)
(2764.5 -4.44893e-10 4.45063e-13)
(2764.5 -4.3346e-10 4.21417e-13)
(2764.5 -4.24579e-10 4.1983e-13)
(2764.5 -4.11742e-10 3.82474e-13)
(2764.5 -4.00181e-10 3.71694e-13)
(2764.5 -3.92058e-10 3.65294e-13)
(2764.5 -3.83389e-10 3.42586e-13)
(2764.5 -3.78962e-10 3.32592e-13)
(2764.5 -3.74938e-10 3.21117e-13)
(2764.5 -3.64972e-10 3.06946e-13)
(2764.5 -3.55123e-10 3.01895e-13)
(2764.5 -3.49318e-10 2.869e-13)
(2764.5 -3.39087e-10 2.75239e-13)
(2764.5 -3.25751e-10 2.64979e-13)
(2764.5 -3.16253e-10 2.65507e-13)
(2764.5 -3.15552e-10 2.52448e-13)
(2764.5 -3.20314e-10 2.38864e-13)
(2764.5 -3.19619e-10 2.38225e-13)
(2764.5 -3.19384e-10 2.26859e-13)
(2764.5 -3.1773e-10 2.24796e-13)
(2764.5 -3.13884e-10 2.18334e-13)
(2764.5 -3.07751e-10 2.12979e-13)
(2764.5 -3.02147e-10 2.17088e-13)
(2764.5 -2.94262e-10 2.01894e-13)
(2764.5 -2.9018e-10 1.88748e-13)
(2764.5 -2.90902e-10 1.99619e-13)
(2764.5 -2.9082e-10 1.89513e-13)
(2764.5 -2.8902e-10 1.76311e-13)
(2764.5 -2.87876e-10 1.74274e-13)
(2764.5 -2.83656e-10 1.75786e-13)
(2764.5 -2.8167e-10 1.66508e-13)
(2764.5 -2.79929e-10 1.73193e-13)
(2764.5 -2.82893e-10 1.67834e-13)
(2764.5 -2.79624e-10 1.63591e-13)
(2764.5 -2.74599e-10 1.5549e-13)
(2764.5 -2.73641e-10 1.65634e-13)
(2764.5 -2.76019e-10 1.57274e-13)
(2764.5 -2.73052e-10 1.53536e-13)
(2764.5 -2.70254e-10 1.4035e-13)