/*--------------------------------*- C++ -*----------------------------------*\
| =========                 |                                                 |
| \\      /  F ield         | OpenFOAM: The Open Source CFD Toolbox           |
|  \\    /   O peration     | Version:  v1706                                 |
|   \\  /    A nd           | Web:      www.OpenFOAM.com                      |
|    \\/     M anipulation  |                                                 |
\*---------------------------------------------------------------------------*/
FoamFile
{
    version     2.0;
    format      ascii;
    class       volScalarField;
    location    "1.4e-05";
    object      wallHeatFlux;
}
// * * * * * * * * * * * * * * * * * * * * * * * * * * * * * * * * * * * * * //

dimensions      [1 0 -3 0 0 0 0];


internalField   uniform 0;

boundaryField
{
    cone
    {
        type            calculated;
        value           nonuniform List<scalar> 
147
(
1.10534e+06
1.10503e+06
1.10469e+06
1.10432e+06
1.1039e+06
1.10342e+06
1.10286e+06
1.10224e+06
1.10154e+06
1.10078e+06
1.09994e+06
1.09904e+06
1.09806e+06
1.09702e+06
1.09591e+06
1.09473e+06
1.09348e+06
1.09216e+06
1.09078e+06
1.08932e+06
1.0878e+06
1.0862e+06
1.08454e+06
1.08281e+06
1.081e+06
1.07913e+06
1.07718e+06
1.07517e+06
1.07309e+06
1.07094e+06
1.06871e+06
1.06643e+06
1.06407e+06
1.06164e+06
1.05915e+06
1.05659e+06
1.05397e+06
1.05128e+06
1.04853e+06
1.04571e+06
1.04283e+06
1.03988e+06
1.03687e+06
1.03379e+06
1.03065e+06
1.02746e+06
1.0242e+06
1.02087e+06
1.01749e+06
1.01405e+06
1.01055e+06
1.007e+06
1.00338e+06
999709
995980
992196
988357
984464
980518
976518
972466
968362
964208
960002
955747
951444
947092
942693
938248
933756
929220
924639
920015
915348
910639
905888
901098
896268
891399
886492
881548
876567
871551
866501
861416
856298
851148
845968
840755
835513
830243
824944
819617
814265
808887
803485
798058
792608
787137
781645
776131
770599
765049
759482
753898
748297
742682
737053
731412
725758
720092
714416
708732
703039
697337
691629
685915
680195
674471
668745
663019
657293
651566
645840
640114
634391
628671
622954
617241
611533
605830
600134
594445
588764
583092
577429
571776
566134
560504
554885
549283
543699
538143
532611
527093
521580
1.10652e+06
)
;
    }
    inlet
    {
        type            calculated;
        value           uniform 0;
    }
    rWedge
    {
        type            wedge;
    }
    lWedge
    {
        type            wedge;
    }
    outlet
    {
        type            calculated;
        value           nonuniform 0();
    }
    procBoundary3to2
    {
        type            processor;
        value           uniform 0;
    }
}


// ************************************************************************* //
