/*--------------------------------*- C++ -*----------------------------------*\
| =========                 |                                                 |
| \\      /  F ield         | OpenFOAM: The Open Source CFD Toolbox           |
|  \\    /   O peration     | Version:  v1706                                 |
|   \\  /    A nd           | Web:      www.OpenFOAM.com                      |
|    \\/     M anipulation  |                                                 |
\*---------------------------------------------------------------------------*/
FoamFile
{
    version     2.0;
    format      ascii;
    class       volScalarField;
    location    "2e-05";
    object      Mach;
}
// * * * * * * * * * * * * * * * * * * * * * * * * * * * * * * * * * * * * * //

dimensions      [0 0 0 0 0 0 0];


internalField   nonuniform List<scalar> 
29871
(
11.2859
11.2859
11.2859
11.2859
11.2859
11.2859
11.2859
11.2859
11.2859
11.2859
11.2859
11.2859
11.2859
11.2859
11.2859
11.2859
11.2859
11.2859
11.2859
11.2859
11.2859
11.2859
11.2859
11.2859
11.2859
11.2859
11.2859
11.2859
11.2859
11.2859
11.2859
11.2859
11.2859
11.2859
11.2859
11.2859
11.2859
11.2859
11.2859
11.2859
11.2859
11.2859
11.2859
11.2859
11.2859
11.2859
11.2859
11.2859
11.2859
11.2859
11.2859
11.2859
11.2859
11.2859
11.2859
11.2859
11.2859
11.2859
11.2859
11.2859
11.2859
11.2859
11.2859
11.2859
11.2859
11.2859
11.2859
11.2859
11.2859
11.2859
11.2859
11.2859
11.2859
11.2859
11.2859
11.2859
11.2859
11.2859
11.2859
11.2859
11.2859
11.2859
11.2859
11.2859
11.2859
11.2859
11.2859
11.2859
11.2859
11.2859
11.2859
11.2859
11.2859
11.2859
11.2859
11.2859
11.2859
11.2859
11.2859
11.2859
11.2859
11.2859
11.2859
11.2859
11.2859
11.2859
11.2859
11.2859
11.2859
11.2859
11.2859
11.2859
11.2859
11.2859
11.2859
11.2859
11.2859
11.2859
11.2859
11.2859
11.2859
11.2859
11.2859
11.2859
11.2859
11.2859
11.2859
11.2859
11.2859
11.2859
11.2859
11.2859
11.2859
11.2859
11.2859
11.2859
11.2859
11.2859
11.2859
11.2859
11.2859
11.2859
11.2859
11.2859
11.2859
11.2859
11.2859
11.2859
11.2859
11.2859
11.2859
11.2859
11.2859
11.2859
11.2859
11.2859
11.2859
11.2859
11.2859
11.2859
11.2859
11.2859
11.2859
11.2859
11.2859
11.2859
11.2859
11.2859
11.2859
11.2859
11.2859
11.2859
11.2859
11.2859
11.2859
11.2859
11.2859
11.2859
11.2859
11.2859
11.2859
11.2859
11.2859
11.2859
11.2859
11.2859
11.2859
11.2859
11.2859
11.2859
11.2859
11.2859
11.2859
11.2859
11.2859
11.2859
11.2859
11.2859
11.2859
11.2859
11.2859
11.2859
11.2859
11.2859
11.2859
11.2859
11.2859
11.2859
11.2859
11.2859
11.2859
11.2859
11.2859
11.2859
11.2859
11.2859
11.2859
11.2859
11.2859
11.2859
11.2859
11.2859
11.2859
11.2859
11.2859
11.2859
11.2859
11.2859
11.2859
11.2859
11.2859
11.2859
11.2859
11.2859
11.2859
11.2859
11.2859
11.2859
11.2859
11.2859
11.2859
11.2859
11.2859
11.2859
11.2859
11.2859
11.2859
11.2859
11.2859
11.2859
11.2859
11.2859
11.2859
11.2859
11.2859
11.2859
11.2859
11.2859
11.2859
11.2859
11.2859
11.2859
11.2859
11.2859
11.2859
11.2859
11.2859
11.2859
11.2859
11.2859
11.2859
11.2859
11.2859
11.2859
11.2859
11.2859
11.2859
11.2859
11.2859
11.2859
11.2859
11.2859
11.2859
11.2859
11.2859
11.2859
11.2859
11.2859
11.2859
11.2859
11.2859
11.2859
11.2859
11.2859
11.2859
11.2859
11.2859
11.2859
11.2859
11.2859
11.2859
11.2859
11.2859
11.2859
11.2859
11.2859
11.2859
11.2859
11.2859
11.2859
11.2859
11.2859
11.2859
11.2859
11.2859
11.2859
11.2859
11.2859
11.2859
11.2859
11.2859
11.2859
11.2859
11.2859
11.2859
11.2859
11.2859
11.2859
11.2859
11.2859
11.2859
11.2859
11.2859
11.2859
11.2859
11.2859
11.2859
11.2859
11.2859
11.2859
11.2859
11.2859
11.2859
11.2859
11.2859
11.2859
11.2859
11.2859
11.2859
11.2859
11.2859
11.2859
11.2859
11.2859
11.2859
11.2859
11.2859
11.2859
11.2859
11.2859
11.2859
11.2859
11.2859
11.2859
11.2859
11.2859
11.2859
11.2859
11.2859
11.2859
11.2859
11.2859
11.2859
11.2859
11.2859
11.2859
11.2859
11.2859
11.2859
11.2859
11.2859
11.2859
11.2859
11.2859
11.2859
11.2859
11.2859
11.2859
11.2859
11.2859
11.2859
11.2859
11.2859
11.2859
11.2859
11.2859
11.2859
11.2859
11.2859
11.2859
11.2859
11.2859
11.2859
11.2859
11.2859
11.2859
11.2859
11.2859
11.2859
11.2859
11.2859
11.2859
11.2859
11.2859
11.2859
11.2859
11.2859
11.2859
11.2859
11.2859
11.2859
11.2859
11.2859
11.2859
11.2859
11.2859
11.2859
11.2859
11.2859
11.2859
11.2859
11.2859
11.2859
11.2859
11.2859
11.2859
11.2859
11.2859
11.2859
11.2859
11.2859
11.2859
11.2859
11.2859
11.2859
11.2859
11.2859
11.2859
11.2859
11.2859
11.2859
11.2859
11.2859
11.2859
11.2859
11.2859
11.2859
11.2859
11.2859
11.2859
11.2859
11.2859
11.2859
11.2859
11.2859
11.2859
11.2859
11.2859
11.2859
11.2859
11.2859
11.2859
11.2859
11.2859
11.2859
11.2859
11.2859
11.2859
11.2859
11.2859
11.2859
11.2859
11.2859
11.2859
11.2859
11.2859
11.2859
11.2859
11.2859
11.2859
11.2859
11.2859
11.2859
11.2859
11.2859
11.2859
11.2859
11.2859
11.2859
11.2859
11.2859
11.2859
11.2859
11.2859
11.2859
11.2859
11.2859
11.2859
11.2859
11.2859
11.2859
11.2859
11.2859
11.2859
11.2859
11.2859
11.2859
11.2859
11.2859
11.2859
11.2859
11.2859
11.2859
11.2859
11.2859
11.2859
11.2859
11.2859
11.2859
11.2859
11.2859
11.2859
11.2859
11.2859
11.2859
11.2859
11.2859
11.2859
11.2859
11.2859
11.2859
11.2859
11.2859
11.2859
11.2859
11.2859
11.2859
11.2859
11.2859
11.2859
11.2859
11.2859
11.2859
11.2859
11.2859
11.2859
11.2859
11.2859
11.2859
11.2859
11.2859
11.2859
11.2859
11.2859
11.2859
11.2859
11.2859
11.2859
11.2859
11.2859
11.2859
11.2859
11.2859
11.2859
11.2859
11.2859
11.2859
11.2859
11.2859
11.2859
11.2859
11.2859
11.2859
11.2859
11.2859
11.2859
11.2859
11.2859
11.2859
11.2859
11.2859
11.2859
11.2859
11.2859
11.2859
11.2859
11.2859
11.2859
11.2859
11.2859
11.2859
11.2859
11.2859
11.2859
11.2859
11.2859
11.2859
11.2859
11.2859
11.2859
11.2859
11.2859
11.2859
11.2859
11.2859
11.2859
11.2859
11.2859
11.2859
11.2859
11.2859
11.2859
11.2859
11.2859
11.2859
11.2859
11.2859
11.2859
11.2859
11.2859
11.2859
11.2859
11.2859
11.2859
11.2859
11.2859
11.2859
11.2859
11.2859
11.2859
11.2859
11.2859
11.2859
11.2859
11.2859
11.2859
11.2859
11.2859
11.2859
11.2859
11.2859
11.2859
11.2859
11.2859
11.2859
11.2859
11.2859
11.2859
11.2859
11.2859
11.2859
11.2859
11.2859
11.2859
11.2859
11.2859
11.2859
11.2859
11.2859
11.2859
11.2859
11.2859
11.2859
11.2859
11.2859
11.2859
11.2859
11.2859
11.2859
11.2859
11.2859
11.2859
11.2859
11.2859
11.2859
11.2859
11.2859
11.2859
11.2859
11.2859
11.2859
11.2859
11.2859
11.2859
11.2859
11.2859
11.2859
11.2859
11.2859
11.2859
11.2859
11.2859
11.2859
11.2859
11.2859
11.2859
11.2859
11.2859
11.2859
11.2859
11.2859
11.2859
11.2859
11.2859
11.2859
11.2859
11.2859
11.2859
11.2859
11.2859
11.2859
11.2859
11.2859
11.2859
11.2859
11.2859
11.2859
11.2859
11.2859
11.2859
11.2859
11.2859
11.2859
11.2859
11.2859
11.2859
11.2859
11.2859
11.2859
11.2859
11.2859
11.2859
11.2859
11.2859
11.2859
11.2859
11.2859
11.2859
11.2859
11.2859
11.2859
11.2859
11.2859
11.2859
11.2859
11.2859
11.2859
11.2859
11.2859
11.2859
11.2859
11.2859
11.2859
11.2859
11.2859
11.2859
11.2859
11.2859
11.2859
11.2859
11.2859
11.2859
11.2859
11.2859
11.2859
11.2859
11.2859
11.2859
11.2859
11.2859
11.2859
11.2859
11.2859
11.2859
11.2859
11.2859
11.2859
11.2859
11.2859
11.2859
11.2859
11.2859
11.2859
11.2859
11.2859
11.2859
11.2859
11.2859
11.2859
11.2859
11.2859
11.2859
11.2859
11.2859
11.2859
11.2859
11.2859
11.2859
11.2859
11.2859
11.2859
11.2859
11.2859
11.2859
11.2859
11.2859
11.2859
11.2859
11.2859
11.2859
11.2859
11.2859
11.2859
11.2859
11.2859
11.2859
11.2859
11.2859
11.2859
11.2859
11.2859
11.2859
11.2859
11.2859
11.2859
11.2859
11.2859
11.2859
11.2859
11.2859
11.2859
11.2859
11.2859
11.2859
11.2859
11.2859
11.2859
11.2859
11.2859
11.2859
11.2859
11.2859
11.2859
11.2859
11.2859
11.2859
11.2859
11.2859
11.2859
11.2859
11.2859
11.2859
11.2859
11.2859
11.2859
11.2859
11.2859
11.2859
11.2859
11.2859
11.2859
11.2859
11.2859
11.2859
11.2859
11.2859
11.2859
11.2859
11.2859
11.2859
11.2859
11.2859
11.2859
11.2859
11.2859
11.2859
11.2859
11.2859
11.2859
11.2859
11.2859
11.2859
11.2859
11.2859
11.2859
11.2859
11.2859
11.2859
11.2859
11.2859
11.2859
11.2859
11.2859
11.2859
11.2859
11.2859
11.2859
11.2859
11.2859
11.2859
11.2859
11.2859
11.2859
11.2859
11.2859
11.2859
11.2859
11.2859
11.2859
11.2859
11.2859
11.2859
11.2859
11.2859
11.2859
11.2859
11.2859
11.2859
11.2859
11.2859
11.2859
11.2859
11.2859
11.2859
11.2859
11.2859
11.2859
11.2859
11.2859
11.2859
11.2859
11.2859
11.2859
11.2859
11.2859
11.2859
11.2859
11.2859
11.2859
11.2859
11.2859
11.2859
11.2859
11.2859
11.2859
11.2859
11.2859
11.2859
11.2859
11.2859
11.2859
11.2859
11.2859
11.2859
11.2859
11.2859
11.2859
11.2859
11.2859
11.2859
11.2859
11.2859
11.2859
11.2859
11.2859
11.2859
11.2859
11.2859
11.2859
11.2859
11.2859
11.2859
11.2859
11.2859
11.2859
11.2859
11.2859
11.2859
11.2859
11.2859
11.2859
11.2859
11.2859
11.2859
11.2859
11.2859
11.2859
11.2859
11.2859
11.2859
11.2859
11.2859
11.2859
11.2859
11.2859
11.2859
11.2859
11.2859
11.2859
11.2859
11.2859
11.2859
11.2859
11.2859
11.2859
11.2859
11.2859
11.2859
11.2859
11.2859
11.2859
11.2859
11.2859
11.2859
11.2859
11.2859
11.2859
11.2859
11.2859
11.2859
11.2859
11.2859
11.2859
11.2859
11.2859
11.2859
11.2859
11.2859
11.2859
11.2859
11.2859
11.2859
11.2859
11.2859
11.2859
11.2859
11.2859
11.2859
11.2859
11.2859
11.2859
11.2859
11.2859
11.2859
11.2859
11.2859
11.2859
11.2859
11.2859
11.2859
11.2859
11.2859
11.2859
11.2859
11.2859
11.2859
11.2859
11.2859
11.2859
11.2859
11.2859
11.2859
11.2859
11.2859
11.2859
11.2859
11.2859
11.2859
11.2859
11.2859
11.2859
11.2859
11.2859
11.2859
11.2859
11.2859
11.2859
11.2859
11.2859
11.2859
11.2859
11.2859
11.2859
11.2859
11.2859
11.2859
11.2859
11.2859
11.2859
11.2859
11.2859
11.2859
11.2859
11.2859
11.2859
11.2859
11.2859
11.2859
11.2859
11.2859
11.2859
11.2859
11.2859
11.2859
11.2859
11.2859
11.2859
11.2859
11.2859
11.2859
11.2859
11.2859
11.2859
11.2859
11.2859
11.2859
11.2859
11.2859
11.2859
11.2859
11.2859
11.2859
11.2859
11.2859
11.2859
11.2859
11.2859
11.2859
11.2859
11.2859
11.2859
11.2859
11.2859
11.2859
11.2859
11.2859
11.2859
11.2859
11.2859
11.2859
11.2859
11.2859
11.2859
11.2859
11.2859
11.2859
11.2859
11.2859
11.2859
11.2859
11.2859
11.2859
11.2859
11.2859
11.2859
11.2859
11.2859
11.2859
11.2859
11.2859
11.2859
11.2859
11.2859
11.2859
11.2859
11.2859
11.2859
11.2859
11.2859
11.2859
11.2859
11.2859
11.2859
11.2859
11.2859
11.2859
11.2859
11.2859
11.2859
11.2859
11.2859
11.2859
11.2859
11.2859
11.2859
11.2859
11.2859
11.2859
11.2859
11.2859
11.2859
11.2859
11.2859
11.2859
11.2859
11.2859
11.2859
11.2859
11.2859
11.2859
11.2859
11.2859
11.2859
11.2859
11.2859
11.2859
11.2859
11.2859
11.2859
11.2859
11.2859
11.2859
11.2859
11.2859
11.2859
11.2859
11.2859
11.2859
11.2859
11.2859
11.2859
11.2859
11.2859
11.2859
11.2859
11.2859
11.2859
11.2859
11.2859
11.2859
11.2859
11.2859
11.2859
11.2859
11.2859
11.2859
11.2859
11.2859
11.2859
11.2859
11.2859
11.2859
11.2859
11.2859
11.2859
11.2859
11.2859
11.2859
11.2859
11.2859
11.2859
11.2859
11.2859
11.2859
11.2859
11.2859
11.2859
11.2859
11.2859
11.2859
11.2859
11.2859
11.2859
11.2859
11.2859
11.2859
11.2859
11.2859
11.2859
11.2859
11.2859
11.2859
11.2859
11.2859
11.2859
11.2859
11.2859
11.2859
11.2859
11.2859
11.2859
11.2859
11.2859
11.2859
11.2859
11.2859
11.2859
11.2859
11.2859
11.2859
11.2859
11.2859
11.2859
11.2859
11.2859
11.2859
11.2859
11.2859
11.2859
11.2859
11.2859
11.2859
11.2859
11.2859
11.2859
11.2859
11.2859
11.2859
11.2859
11.2859
11.2859
11.2859
11.2859
11.2859
11.2859
11.2859
11.2859
11.2859
11.2859
11.2859
11.2859
11.2859
11.2859
11.2859
11.2859
11.2859
11.2859
11.2859
11.2859
11.2859
11.2859
11.2859
11.2859
11.2859
11.2859
11.2859
11.2859
11.2859
11.2859
11.2859
11.2859
11.2859
11.2859
11.2859
11.2859
11.2859
11.2859
11.2859
11.2859
11.2859
11.2859
11.2859
11.2859
11.2859
11.2859
11.2859
11.2859
11.2859
11.2859
11.2859
11.2859
11.2859
11.2859
11.2859
11.2859
11.2859
11.2859
11.2859
11.2859
11.2859
11.2859
11.2859
11.2859
11.2859
11.2859
11.2859
11.2859
11.2859
11.2859
11.2859
11.2859
11.2859
11.2859
11.2859
11.2859
11.2859
11.2859
11.2859
11.2859
11.2859
11.2859
11.2859
11.2859
11.2859
11.2859
11.2859
11.2859
11.2859
11.2859
11.2859
11.2859
11.2859
11.2859
11.2859
11.2859
11.2859
11.2859
11.2859
11.2859
11.2859
11.2859
11.2859
11.2859
11.2859
11.2859
11.2859
11.2859
11.2859
11.2859
11.2859
11.2859
11.2859
11.2859
11.2859
11.2859
11.2859
11.2859
11.2859
11.2859
11.2859
11.2859
11.2859
11.2859
11.2859
11.2859
11.2859
11.2859
11.2859
11.2859
11.2859
11.2859
11.2859
11.2859
11.2859
11.2859
11.2859
11.2859
11.2859
11.2859
11.2859
11.2859
11.2859
11.2859
11.2859
11.2859
11.2859
11.2859
11.2859
11.2859
11.2859
11.2859
11.2859
11.2859
11.2859
11.2859
11.2859
11.2859
11.2859
11.2859
11.2859
11.2859
11.2859
11.2859
11.2859
11.2859
11.2859
11.2859
11.2859
11.2859
11.2859
11.2859
11.2859
11.2859
11.2859
11.2859
11.2859
11.2859
11.2859
11.2859
11.2859
11.2859
11.2859
11.2859
11.2859
11.2859
11.2859
11.2859
11.2859
11.2859
11.2859
11.2859
11.2859
11.2859
11.2859
11.2859
11.2859
11.2859
11.2859
11.2859
11.2859
11.2859
11.2859
11.2859
11.2859
11.2859
11.2859
11.2859
11.2859
11.2859
11.2859
11.2859
11.2859
11.2859
11.2859
11.2859
11.2859
11.2859
11.2859
11.2859
11.2859
11.2859
11.2859
11.2859
11.2859
11.2859
11.2859
11.2859
11.2859
11.2859
11.2859
11.2859
11.2859
11.2859
11.2859
11.2859
11.2859
11.2859
11.2859
11.2859
11.2859
11.2859
11.2859
11.2859
11.2859
11.2859
11.2859
11.2859
11.2859
11.2859
11.2859
11.2859
11.2859
11.2859
11.2859
11.2859
11.2859
11.2859
11.2859
11.2859
11.2859
11.2859
11.2859
11.2859
11.2859
11.2859
11.2859
11.2859
11.2859
11.2859
11.2859
11.2859
11.2859
11.2859
11.2859
11.2859
11.2859
11.2859
11.2859
11.2859
11.2859
11.2859
11.2859
11.2859
11.2859
11.2859
11.2859
11.2859
11.2859
11.2859
11.2859
11.2859
11.2859
11.2859
11.2859
11.2859
11.2859
11.2859
11.2859
11.2859
11.2859
11.2859
11.2859
11.2859
11.2859
11.2859
11.2859
11.2859
11.2859
11.2859
11.2859
11.2859
11.2859
11.2859
11.2859
11.2859
11.2859
11.2859
11.2859
11.2859
11.2859
11.2859
11.2859
11.2859
11.2859
11.2859
11.2859
11.2859
11.2859
11.2859
11.2859
11.2859
11.2859
11.2859
11.2859
11.2859
11.2859
11.2859
11.2859
11.2859
11.2859
11.2859
11.2859
11.2859
11.2859
11.2859
11.2859
11.2859
11.2859
11.2859
11.2859
11.2859
11.2859
11.2859
11.2859
11.2859
11.2859
11.2859
11.2859
11.2859
11.2859
11.2859
11.2859
11.2859
11.2859
11.2859
11.2859
11.2859
11.2859
11.2859
11.2859
11.2859
11.2859
11.2859
11.2859
11.2859
11.2859
11.2859
11.2859
11.2859
11.2859
11.2859
11.2859
11.2859
11.2859
11.2859
11.2859
11.2859
11.2859
11.2859
11.2859
11.2859
11.2859
11.2859
11.2859
11.2859
11.2859
11.2859
11.2859
11.2859
11.2859
11.2859
11.2859
11.2859
11.2859
11.2859
11.2859
11.2859
11.2859
11.2859
11.2859
11.2859
11.2859
11.2859
11.2859
11.2859
11.2859
11.2859
11.2859
11.2859
11.2859
11.2859
11.2859
11.2859
11.2859
11.2859
11.2859
11.2859
11.2859
11.2859
11.2859
11.2859
11.2859
11.2859
11.2859
11.2859
11.2859
11.2859
11.2859
11.2859
11.2859
11.2859
11.2859
11.2859
11.2859
11.2859
11.2859
11.2859
11.2859
11.2859
11.2859
11.2859
11.2859
11.2859
11.2859
11.2859
11.2859
11.2859
11.2859
11.2859
11.2859
11.2859
11.2859
11.2859
11.2859
11.2859
11.2859
11.2859
11.2859
11.2859
11.2859
11.2859
11.2859
11.2859
11.2859
11.2859
11.2859
11.2859
11.2859
11.2859
11.2859
11.2859
11.2859
11.2859
11.2859
11.2859
11.2859
11.2859
11.2859
11.2859
11.2859
11.2859
11.2859
11.2859
11.2859
11.2859
11.2859
11.2859
11.2859
11.2859
11.2859
11.2859
11.2859
11.2859
11.2859
11.2859
11.2859
11.2859
11.2859
11.2859
11.2859
11.2859
11.2859
11.2859
11.2859
11.2859
11.2859
11.2859
11.2859
11.2859
11.2859
11.2859
11.2859
11.2859
11.2859
11.2859
11.2859
11.2859
11.2859
11.2859
11.2859
11.2859
11.2859
11.2859
11.2859
11.2859
11.2859
11.2859
11.2859
11.2859
11.2859
11.2859
11.2859
11.2859
11.2859
11.2858
11.2858
11.2858
11.2858
11.2858
11.2858
11.2858
11.2858
11.2858
11.2858
11.2858
11.2858
11.2858
11.2859
11.2859
11.2859
11.2859
11.2859
11.2859
11.2859
11.2859
11.2859
11.2859
11.2859
11.2859
11.2859
11.2859
11.2859
11.2859
11.2859
11.2859
11.2859
11.2859
11.2859
11.2859
11.2859
11.2859
11.2859
11.2859
11.2859
11.2859
11.2859
11.2859
11.2859
11.2859
11.2859
11.2859
11.2859
11.2859
11.2859
11.2859
11.2859
11.2859
11.2859
11.2859
11.2859
11.2859
11.2859
11.2859
11.2859
11.2859
11.2859
11.2859
11.2859
11.2859
11.2859
11.2859
11.2859
11.2859
11.2859
11.2859
11.2859
11.2859
11.2859
11.2859
11.2859
11.2859
11.2859
11.2859
11.2859
11.2859
11.2859
11.2859
11.2859
11.2859
11.2859
11.2859
11.2859
11.2859
11.2859
11.2859
11.2859
11.2859
11.2859
11.2859
11.2859
11.2859
11.2859
11.2859
11.2859
11.2859
11.2859
11.2858
11.2858
11.2858
11.2858
11.2858
11.2858
11.2858
11.2858
11.2858
11.2858
11.2858
11.2858
11.2858
11.2858
11.2858
11.2858
11.2858
11.2858
11.2858
11.2858
11.2858
11.2858
11.2858
11.2858
11.2858
11.2858
11.2858
11.2858
11.2857
11.2857
11.2857
11.2857
11.2857
11.2857
11.2859
11.2859
11.2859
11.2859
11.2859
11.2859
11.2859
11.2859
11.2859
11.2859
11.2859
11.2859
11.2859
11.2859
11.2859
11.2859
11.2859
11.2859
11.2859
11.2859
11.2859
11.2859
11.2859
11.2859
11.2859
11.2859
11.2859
11.2859
11.2859
11.2859
11.2859
11.2859
11.2859
11.2859
11.2859
11.2859
11.2859
11.2859
11.2859
11.2859
11.2859
11.2859
11.2859
11.2859
11.2859
11.2859
11.2859
11.2859
11.2859
11.2859
11.2859
11.2859
11.2859
11.2859
11.2859
11.2859
11.2859
11.2859
11.2859
11.2859
11.2859
11.2859
11.2859
11.2859
11.2858
11.2858
11.2858
11.2858
11.2858
11.2858
11.2858
11.2858
11.2858
11.2858
11.2858
11.2858
11.2858
11.2858
11.2858
11.2858
11.2858
11.2858
11.2858
11.2858
11.2858
11.2858
11.2858
11.2858
11.2858
11.2858
11.2858
11.2858
11.2858
11.2858
11.2858
11.2858
11.2857
11.2857
11.2857
11.2857
11.2857
11.2857
11.2857
11.2856
11.2856
11.2856
11.2856
11.2855
11.2855
11.2855
11.2854
11.2854
11.2853
11.2853
11.2852
11.2852
11.2851
11.285
11.285
11.2849
11.2848
11.2846
11.2845
11.2859
11.2859
11.2859
11.2859
11.2859
11.2859
11.2859
11.2859
11.2859
11.2859
11.2859
11.2859
11.2859
11.2859
11.2859
11.2859
11.2859
11.2859
11.2859
11.2859
11.2859
11.2859
11.2859
11.2859
11.2859
11.2859
11.2859
11.2859
11.2859
11.2859
11.2859
11.2859
11.2858
11.2858
11.2858
11.2858
11.2858
11.2858
11.2858
11.2858
11.2858
11.2858
11.2858
11.2858
11.2858
11.2858
11.2858
11.2858
11.2858
11.2858
11.2858
11.2858
11.2858
11.2858
11.2858
11.2858
11.2858
11.2858
11.2858
11.2858
11.2858
11.2858
11.2858
11.2858
11.2858
11.2858
11.2858
11.2858
11.2858
11.2858
11.2858
11.2858
11.2858
11.2858
11.2857
11.2857
11.2857
11.2857
11.2857
11.2857
11.2857
11.2857
11.2856
11.2856
11.2856
11.2856
11.2856
11.2855
11.2855
11.2855
11.2854
11.2854
11.2853
11.2853
11.2852
11.2851
11.2851
11.285
11.2849
11.2848
11.2847
11.2846
11.2845
11.2844
11.2842
11.2841
11.2839
11.2836
11.2834
11.2831
11.2828
11.2825
11.2822
11.2819
11.2815
11.2811
11.2807
11.2802
11.2797
11.279
11.2782
11.2773
11.2763
11.2751
11.2739
11.2859
11.2859
11.2859
11.2859
11.2859
11.2859
11.2858
11.2858
11.2858
11.2858
11.2858
11.2858
11.2858
11.2858
11.2858
11.2858
11.2858
11.2858
11.2858
11.2858
11.2858
11.2858
11.2858
11.2858
11.2858
11.2858
11.2858
11.2858
11.2858
11.2858
11.2858
11.2858
11.2858
11.2858
11.2858
11.2858
11.2858
11.2858
11.2858
11.2858
11.2858
11.2858
11.2858
11.2858
11.2858
11.2858
11.2857
11.2857
11.2857
11.2857
11.2857
11.2857
11.2857
11.2857
11.2857
11.2857
11.2857
11.2856
11.2856
11.2856
11.2856
11.2856
11.2856
11.2855
11.2855
11.2855
11.2855
11.2854
11.2854
11.2854
11.2853
11.2853
11.2853
11.2852
11.2852
11.2851
11.285
11.2849
11.2849
11.2848
11.2847
11.2846
11.2844
11.2843
11.2842
11.284
11.2839
11.2837
11.2835
11.2833
11.283
11.2827
11.2824
11.282
11.2816
11.2812
11.2807
11.2802
11.2797
11.2791
11.2785
11.2778
11.2771
11.2761
11.2751
11.2739
11.2725
11.271
11.2693
11.2675
11.2655
11.2634
11.2613
11.259
11.2566
11.254
11.2512
11.2479
11.2439
11.2393
11.2338
11.2276
11.2207
11.2131
11.2049
11.2858
11.2858
11.2858
11.2858
11.2858
11.2858
11.2858
11.2858
11.2858
11.2858
11.2858
11.2858
11.2858
11.2858
11.2858
11.2858
11.2857
11.2857
11.2857
11.2857
11.2857
11.2857
11.2857
11.2857
11.2857
11.2857
11.2856
11.2856
11.2856
11.2856
11.2856
11.2856
11.2856
11.2855
11.2855
11.2855
11.2855
11.2855
11.2854
11.2854
11.2854
11.2854
11.2853
11.2853
11.2853
11.2852
11.2852
11.2852
11.2851
11.2851
11.285
11.285
11.2849
11.2849
11.2848
11.2848
11.2847
11.2846
11.2845
11.2844
11.2843
11.2842
11.2841
11.2839
11.2838
11.2836
11.2835
11.2833
11.2831
11.2829
11.2827
11.2825
11.2822
11.2818
11.2815
11.2811
11.2806
11.2801
11.2796
11.279
11.2784
11.2777
11.277
11.2763
11.2754
11.2745
11.2735
11.2723
11.271
11.2695
11.2677
11.2657
11.2636
11.2612
11.2586
11.2558
11.2528
11.2496
11.2462
11.2426
11.2387
11.2343
11.2292
11.2232
11.2163
11.2083
11.1994
11.1896
11.1789
11.1673
11.1549
11.1418
11.128
11.1136
11.0985
11.0826
11.0649
11.0443
11.0196
10.9902
10.9562
10.918
10.876
10.8307
10.7826
11.2857
11.2857
11.2857
11.2857
11.2856
11.2856
11.2856
11.2856
11.2855
11.2855
11.2855
11.2855
11.2854
11.2854
11.2853
11.2853
11.2853
11.2852
11.2852
11.2851
11.2851
11.285
11.285
11.2849
11.2848
11.2848
11.2847
11.2846
11.2846
11.2845
11.2844
11.2843
11.2842
11.2841
11.284
11.2839
11.2838
11.2837
11.2836
11.2834
11.2833
11.2831
11.283
11.2828
11.2826
11.2824
11.2822
11.282
11.2818
11.2816
11.2814
11.2811
11.2808
11.2805
11.2802
11.2798
11.2794
11.2789
11.2784
11.2779
11.2773
11.2767
11.276
11.2752
11.2745
11.2736
11.2727
11.2718
11.2707
11.2696
11.2684
11.2671
11.2655
11.2637
11.2617
11.2595
11.257
11.2542
11.2512
11.2479
11.2443
11.2404
11.2363
11.2319
11.2273
11.2222
11.2166
11.2103
11.2031
11.1948
11.1852
11.1745
11.1625
11.1492
11.1348
11.1192
11.1025
11.0847
11.0659
11.046
11.025
11.0022
10.9765
10.9466
10.9116
10.8715
10.8263
10.7765
10.7226
10.6651
10.6045
10.5411
10.4756
10.4083
10.3397
10.2698
10.1978
10.1201
10.0309
9.92649
9.80727
9.67623
9.53678
9.39195
9.24422
9.09551
11.285
11.2849
11.2848
11.2847
11.2846
11.2845
11.2843
11.2842
11.2841
11.2839
11.2838
11.2836
11.2834
11.2832
11.283
11.2828
11.2825
11.2823
11.282
11.2818
11.2815
11.2812
11.2809
11.2805
11.2802
11.2798
11.2794
11.2791
11.2786
11.2782
11.2778
11.2773
11.2768
11.2763
11.2757
11.2751
11.2745
11.2738
11.2731
11.2723
11.2715
11.2707
11.2698
11.2688
11.2678
11.2667
11.2656
11.2645
11.2633
11.262
11.2607
11.2592
11.2576
11.2558
11.2538
11.2517
11.2492
11.2465
11.2436
11.2404
11.237
11.2332
11.2292
11.2249
11.2203
11.2154
11.2102
11.2046
11.1987
11.1923
11.1853
11.1773
11.1682
11.1579
11.1462
11.1332
11.1188
11.1029
11.0857
11.0671
11.047
11.0256
11.0028
10.9787
10.9532
10.926
10.896
10.8619
10.8228
10.7781
10.7278
10.6721
10.6115
10.5463
10.4771
10.4043
10.3284
10.2498
10.1691
10.0865
10.0016
9.91237
9.81396
9.7025
9.57753
9.44115
9.29631
9.1459
8.99248
8.83818
8.68476
8.53361
8.38582
8.24228
8.10344
7.96917
7.83821
7.7041
7.55347
7.38348
7.20214
7.01806
6.83698
6.66238
6.49619
6.33928
6.19191
6.05403
11.2811
11.2806
11.2801
11.2795
11.2789
11.2783
11.2776
11.2768
11.276
11.2752
11.2743
11.2734
11.2724
11.2714
11.2703
11.2691
11.2678
11.2665
11.2651
11.2636
11.2621
11.2605
11.2588
11.257
11.2552
11.2532
11.2513
11.2492
11.2471
11.2448
11.2425
11.24
11.2373
11.2344
11.2314
11.2281
11.2246
11.2208
11.2169
11.2127
11.2082
11.2035
11.1986
11.1934
11.188
11.1823
11.1764
11.1702
11.1637
11.1568
11.1495
11.1416
11.1328
11.1231
11.1123
11.1004
11.0873
11.0729
11.0573
11.0403
11.022
11.0024
10.9814
10.9591
10.9354
10.9103
10.884
10.8562
10.8268
10.7952
10.7601
10.7206
10.6759
10.6257
10.5702
10.5095
10.4439
10.3737
10.2993
10.2212
10.1396
10.0551
9.96813
9.87905
9.78786
9.69338
9.59216
9.48039
9.3567
9.22219
9.07911
8.92988
8.77675
8.62176
8.46667
8.31291
8.1616
8.01369
7.86983
7.73019
7.59427
7.4586
7.31332
7.15388
6.98495
6.81314
6.64336
6.4788
6.32145
6.17244
6.03224
5.90094
5.77836
5.66418
5.55797
5.45901
5.36557
5.27365
5.16813
5.04881
4.9267
4.80849
4.69715
4.59398
4.49937
4.4131
4.33476
4.26392
11.2601
11.2575
11.2548
11.2518
11.2486
11.2452
11.2416
11.2378
11.2337
11.2294
11.2249
11.2201
11.215
11.2096
11.2039
11.1978
11.1913
11.1845
11.1773
11.1698
11.1618
11.1536
11.1449
11.136
11.1267
11.1171
11.1072
11.097
11.0863
11.0752
11.0634
11.0509
11.0376
11.0234
11.0083
10.9922
10.9751
10.957
10.9379
10.9177
10.8966
10.8744
10.8512
10.8271
10.802
10.7759
10.7489
10.7209
10.6917
10.6612
10.6288
10.5936
10.555
10.5124
10.4656
10.4146
10.3595
10.3004
10.2375
10.171
10.1012
10.0281
9.95204
9.87335
9.79229
9.70919
9.6243
9.53768
9.44866
9.35527
9.25437
9.14401
9.0242
8.89619
8.76173
8.62253
8.4802
8.33615
8.19167
8.04788
7.90569
7.76591
7.62928
7.49613
7.36633
7.23822
7.10548
6.96245
6.81079
6.65525
6.49993
6.34764
6.20029
6.05915
5.92498
5.7981
5.67854
5.5662
5.46086
5.36215
5.26889
5.17879
5.08138
4.97317
4.86207
4.75363
4.65062
4.55439
4.46557
4.38423
4.3102
4.2431
4.18252
4.12799
4.07901
4.03516
3.996
3.96092
3.92995
3.90219
3.87659
3.85276
3.83084
3.8111
3.79362
3.77821
3.76473
3.75316
11.1527
11.1398
11.126
11.1113
11.0957
11.0792
11.0618
11.0434
11.0242
11.0039
10.9826
10.9601
10.9365
10.9116
10.8854
10.8579
10.8291
10.7991
10.7678
10.7353
10.7016
10.6669
10.6312
10.5946
10.5572
10.5191
10.4802
10.4406
10.3998
10.3573
10.3128
10.2659
10.2164
10.1644
10.1098
10.0529
9.99369
9.93233
9.86898
9.80379
9.73693
9.66858
9.59894
9.52819
9.4565
9.384
9.3107
9.23657
9.1614
9.08453
9.00453
8.91948
8.82824
8.73076
8.62772
8.52003
8.40861
8.29429
8.17785
8.06002
7.94146
7.82277
7.70453
7.58725
7.47143
7.35751
7.24575
7.13599
7.0274
6.91714
6.80004
6.67532
6.54544
6.41346
6.28179
6.15216
6.02578
5.90352
5.78598
5.67353
5.56634
5.46449
5.36801
5.27685
5.19038
5.1071
5.02112
4.92607
4.8272
4.7292
4.6347
4.54507
4.46103
4.38298
4.31101
4.24498
4.18461
4.12964
4.07976
4.03459
3.99389
3.95739
3.92534
3.89707
3.87127
3.84736
3.82532
3.80537
3.78761
3.77194
3.75825
3.74644
3.73635
3.72786
3.72088
3.71542
3.71122
3.7077
3.70435
3.7008
3.69692
3.69261
3.68805
3.68362
3.67952
3.67576
3.67229
3.66907
3.66624
10.6131
10.5579
10.5004
10.4406
10.3789
10.3153
10.2501
10.1831
10.1142
10.0432
9.9701
9.89488
9.81763
9.73851
9.65775
9.57558
9.49228
9.40813
9.32343
9.23849
9.15362
9.06914
8.98533
8.90239
8.82045
8.73943
8.65886
8.57772
8.49498
8.41014
8.32318
8.23433
8.14395
8.05242
7.9601
7.86732
7.77439
7.6816
7.58921
7.4975
7.40671
7.31707
7.22876
7.14192
7.05654
6.97256
6.8898
6.80788
6.72608
6.64252
6.55448
6.46162
6.36518
6.26671
6.16751
6.06852
5.97047
5.87392
5.77933
5.68703
5.59729
5.51032
5.4263
5.34535
5.26758
5.19296
5.12125
5.05143
4.98155
4.90479
4.82313
4.74018
4.65826
4.57882
4.50273
4.43046
4.36234
4.29852
4.23901
4.18377
4.13271
4.08575
4.04272
4.00341
3.96765
3.93551
3.90676
3.88044
3.85608
3.83348
3.81271
3.79382
3.77681
3.76164
3.74818
3.73631
3.72595
3.71701
3.70948
3.70329
3.69825
3.69408
3.69019
3.68611
3.68173
3.67718
3.67285
3.66895
3.66538
3.66211
3.6592
3.65663
3.65439
3.6527
3.65184
3.65179
3.65223
3.65297
3.6536
3.65392
3.65371
3.65264
3.65106
3.64917
3.64741
3.64598
3.64391
3.64183
9.04091
8.91831
8.79617
8.67507
8.5555
8.43788
8.32222
8.20805
8.09496
7.98278
7.87159
7.76158
7.65299
7.54608
7.44108
7.33822
7.23769
7.13966
7.04428
6.95171
6.8621
6.77557
6.69217
6.61185
6.53445
6.45958
6.38654
6.31365
6.23987
6.16516
6.08997
6.01482
5.94015
5.8663
5.79354
5.72207
5.65204
5.58358
5.51681
5.45179
5.38862
5.32734
5.26799
5.21051
5.15478
5.10061
5.0478
4.99609
4.94477
4.89243
4.83536
4.77514
4.71363
4.65213
4.59143
4.53207
4.47441
4.41871
4.36516
4.31389
4.265
4.21856
4.17462
4.13322
4.09439
4.05806
4.02401
3.99202
3.96205
3.93452
3.90896
3.88505
3.86259
3.84154
3.82201
3.80395
3.78736
3.77222
3.75846
3.74603
3.7349
3.72505
3.71638
3.70889
3.70255
3.69706
3.69178
3.68655
3.68156
3.67649
3.67138
3.66661
3.66219
3.65804
3.6542
3.65062
3.64728
3.64431
3.64197
3.64027
3.63927
3.63905
3.63919
3.63925
3.6391
3.63829
3.63706
3.636
3.63482
3.63346
3.63205
3.63075
3.62949
3.62836
3.62786
3.62758
3.62748
3.62772
3.6283
3.62895
3.62933
3.62902
3.62841
3.62765
3.62653
3.62563
3.62414
3.62263
6.63667
6.52203
6.4125
6.30809
6.20863
6.11358
6.02162
5.93219
5.84521
5.76078
5.67904
5.60011
5.52404
5.45088
5.38065
5.31332
5.24888
5.1873
5.12856
5.07265
5.01953
4.96911
4.92116
4.87546
4.83166
4.78904
4.74551
4.70045
4.65477
4.60918
4.56415
4.51996
4.47683
4.4349
4.39425
4.35495
4.31707
4.28062
4.24565
4.21217
4.18021
4.14976
4.12074
4.09304
4.0665
4.04097
4.01632
3.99248
3.96959
3.94805
3.92763
3.90817
3.88959
3.87188
3.85503
3.83905
3.82394
3.8097
3.79631
3.78378
3.77208
3.76122
3.75122
3.74204
3.73363
3.7259
3.71875
3.71211
3.70579
3.69966
3.69382
3.68798
3.6821
3.67667
3.67145
3.6662
3.66136
3.65694
3.65256
3.6484
3.64467
3.64132
3.6386
3.63669
3.63548
3.63443
3.63326
3.63261
3.63161
3.62951
3.62779
3.6262
3.62421
3.62219
3.62025
3.61826
3.61633
3.61493
3.61362
3.61248
3.61188
3.61179
3.61199
3.61225
3.61222
3.61202
3.61169
3.61126
3.61073
3.61013
3.60952
3.60891
3.60814
3.60707
3.60641
3.60579
3.60521
3.60518
3.6055
3.60584
3.60593
3.60571
3.60528
3.60464
3.60374
3.60255
3.60116
4.86266
4.79815
4.73772
4.68113
4.62769
4.57522
4.52389
4.47411
4.42613
4.38012
4.33616
4.29429
4.25454
4.21693
4.18145
4.14804
4.1167
4.0874
4.06013
4.03486
4.01143
3.98963
3.96923
3.95004
3.93191
3.91504
3.89936
3.88468
3.87086
3.85785
3.84559
3.83402
3.82313
3.81286
3.80318
3.79408
3.7855
3.77745
3.76989
3.76281
3.7562
3.74999
3.74409
3.73837
3.73278
3.72728
3.72188
3.7166
3.71147
3.70645
3.70149
3.69655
3.69164
3.68679
3.682
3.6773
3.67268
3.66817
3.66377
3.65947
3.6553
3.65133
3.64763
3.64435
3.64159
3.63925
3.63731
3.63555
3.63366
3.63205
3.63029
3.62763
3.62554
3.62369
3.62057
3.61794
3.61597
3.6134
3.61066
3.60858
3.60657
3.60461
3.60301
3.60188
3.60092
3.6002
3.59997
3.59943
3.59852
3.59787
3.59714
3.59617
3.59504
3.59392
3.59284
3.5918
3.59043
3.58928
3.58797
3.58682
3.58606
3.58592
3.58605
3.58629
3.58659
3.58679
3.58686
3.58678
3.58656
3.58625
3.58585
3.58536
3.58466
3.584
3.5833
3.58267
3.58227
3.58219
3.58219
3.58212
3.58183
3.58143
3.58083
3.57993
3.57902
3.57767
3.57614
3.57437
3.92651
3.89556
3.86744
3.84205
3.81926
3.79915
3.78129
3.76533
3.75101
3.73817