/*--------------------------------*- C++ -*----------------------------------*\
| =========                 |                                                 |
| \\      /  F ield         | OpenFOAM: The Open Source CFD Toolbox           |
|  \\    /   O peration     | Version:  v1706                                 |
|   \\  /    A nd           | Web:      www.OpenFOAM.com                      |
|    \\/     M anipulation  |                                                 |
\*---------------------------------------------------------------------------*/
FoamFile
{
    version     2.0;
    format      ascii;
    class       volScalarField;
    location    "2e-05";
    object      Tt;
}
// * * * * * * * * * * * * * * * * * * * * * * * * * * * * * * * * * * * * * //

dimensions      [0 0 0 1 0 0 0];


internalField   nonuniform List<scalar> 
29871
(
144.4
144.4
144.4
144.4
144.4
144.4
144.4
144.4
144.4
144.4
144.4
144.4
144.4
144.4
144.4
144.4
144.4
144.4
144.4
144.4
144.4
144.4
144.4
144.4
144.4
144.4
144.4
144.4
144.4
144.4
144.4
144.4
144.4
144.4
144.4
144.4
144.4
144.4
144.4
144.4
144.4
144.4
144.4
144.4
144.4
144.4
144.4
144.4
144.4
144.4
144.4
144.4
144.4
144.4
144.4
144.4
144.4
144.4
144.4
144.4
144.4
144.4
144.4
144.4
144.4
144.4
144.4
144.4
144.4
144.4
144.4
144.4
144.4
144.4
144.4
144.4
144.4
144.4
144.4
144.4
144.4
144.4
144.4
144.4
144.4
144.4
144.4
144.4
144.4
144.4
144.4
144.4
144.4
144.4
144.4
144.4
144.4
144.4
144.4
144.4
144.4
144.4
144.4
144.4
144.4
144.4
144.4
144.4
144.4
144.4
144.4
144.4
144.4
144.4
144.4
144.4
144.4
144.4
144.4
144.4
144.4
144.4
144.4
144.4
144.4
144.4
144.4
144.4
144.4
144.4
144.4
144.4
144.4
144.4
144.4
144.4
144.4
144.4
144.4
144.4
144.4
144.4
144.4
144.4
144.4
144.4
144.4
144.4
144.4
144.4
144.4
144.4
144.4
144.4
144.4
144.4
144.4
144.4
144.4
144.4
144.4
144.4
144.4
144.4
144.4
144.4
144.4
144.4
144.4
144.4
144.4
144.4
144.4
144.4
144.4
144.4
144.4
144.4
144.4
144.4
144.4
144.4
144.4
144.4
144.4
144.4
144.4
144.4
144.4
144.4
144.4
144.4
144.4
144.4
144.4
144.4
144.4
144.4
144.4
144.4
144.4
144.4
144.4
144.4
144.4
144.4
144.4
144.4
144.4
144.4
144.4
144.4
144.4
144.4
144.4
144.4
144.4
144.4
144.4
144.4
144.4
144.4
144.4
144.4
144.4
144.4
144.4
144.4
144.4
144.4
144.4
144.4
144.4
144.4
144.4
144.4
144.4
144.4
144.4
144.4
144.4
144.4
144.4
144.4
144.4
144.4
144.4
144.4
144.4
144.4
144.4
144.4
144.4
144.4
144.4
144.4
144.4
144.4
144.4
144.4
144.4
144.4
144.4
144.4
144.4
144.4
144.4
144.4
144.4
144.4
144.4
144.4
144.4
144.4
144.4
144.4
144.4
144.4
144.4
144.4
144.4
144.4
144.4
144.4
144.4
144.4
144.4
144.4
144.4
144.4
144.4
144.4
144.4
144.4
144.4
144.4
144.4
144.4
144.4
144.4
144.4
144.4
144.4
144.4
144.4
144.4
144.4
144.4
144.4
144.4
144.4
144.4
144.4
144.4
144.4
144.4
144.4
144.4
144.4
144.4
144.4
144.4
144.4
144.4
144.4
144.4
144.4
144.4
144.4
144.4
144.4
144.4
144.4
144.4
144.4
144.4
144.4
144.4
144.4
144.4
144.4
144.4
144.4
144.4
144.4
144.4
144.4
144.4
144.4
144.4
144.4
144.4
144.4
144.4
144.4
144.4
144.4
144.4
144.4
144.4
144.4
144.4
144.4
144.4
144.4
144.4
144.4
144.4
144.4
144.4
144.4
144.4
144.4
144.4
144.4
144.4
144.4
144.4
144.4
144.4
144.4
144.4
144.4
144.4
144.4
144.4
144.4
144.4
144.4
144.4
144.4
144.4
144.4
144.4
144.4
144.4
144.4
144.4
144.4
144.4
144.4
144.4
144.4
144.4
144.4
144.4
144.4
144.4
144.4
144.4
144.4
144.4
144.4
144.4
144.4
144.4
144.4
144.4
144.4
144.4
144.4
144.4
144.4
144.4
144.4
144.4
144.4
144.4
144.4
144.4
144.4
144.4
144.4
144.4
144.4
144.4
144.4
144.4
144.4
144.4
144.4
144.4
144.4
144.4
144.4
144.4
144.4
144.4
144.4
144.4
144.4
144.4
144.4
144.4
144.4
144.4
144.4
144.4
144.4
144.4
144.4
144.4
144.4
144.4
144.4
144.4
144.4
144.4
144.4
144.4
144.4
144.4
144.4
144.4
144.4
144.4
144.4
144.4
144.4
144.4
144.4
144.4
144.4
144.4
144.4
144.4
144.4
144.4
144.4
144.4
144.4
144.4
144.4
144.4
144.4
144.4
144.4
144.4
144.4
144.4
144.4
144.4
144.4
144.4
144.4
144.4
144.4
144.4
144.4
144.4
144.4
144.4
144.4
144.4
144.4
144.4
144.4
144.4
144.4
144.4
144.4
144.4
144.4
144.4
144.4
144.4
144.4
144.4
144.4
144.4
144.4
144.4
144.4
144.4
144.4
144.4
144.4
144.4
144.4
144.4
144.4
144.4
144.4
144.4
144.4
144.4
144.4
144.4
144.4
144.4
144.4
144.4
144.4
144.4
144.4
144.4
144.4
144.4
144.4
144.4
144.4
144.4
144.4
144.4
144.4
144.4
144.4
144.4
144.4
144.4
144.4
144.4
144.4
144.4
144.4
144.4
144.4
144.4
144.4
144.4
144.4
144.4
144.4
144.4
144.4
144.4
144.4
144.4
144.4
144.4
144.4
144.4
144.4
144.4
144.4
144.4
144.4
144.4
144.4
144.4
144.4
144.4
144.4
144.4
144.4
144.4
144.4
144.4
144.4
144.4
144.4
144.4
144.4
144.4
144.4
144.4
144.4
144.4
144.4
144.4
144.4
144.4
144.4
144.4
144.4
144.4
144.4
144.4
144.4
144.4
144.4
144.4
144.4
144.4
144.4
144.4
144.4
144.4
144.4
144.4
144.4
144.4
144.4
144.4
144.4
144.4
144.4
144.4
144.4
144.4
144.4
144.4
144.4
144.4
144.4
144.4
144.4
144.4
144.4
144.4
144.4
144.4
144.4
144.4
144.4
144.4
144.4
144.4
144.4
144.4
144.4
144.4
144.4
144.4
144.4
144.4
144.4
144.4
144.4
144.4
144.4
144.4
144.4
144.4
144.4
144.4
144.4
144.4
144.4
144.4
144.4
144.4
144.4
144.4
144.4
144.4
144.4
144.4
144.4
144.4
144.4
144.4
144.4
144.4
144.4
144.4
144.4
144.4
144.4
144.4
144.4
144.4
144.4
144.4
144.4
144.4
144.4
144.4
144.4
144.4
144.4
144.4
144.4
144.4
144.4
144.4
144.4
144.4
144.4
144.4
144.4
144.4
144.4
144.4
144.4
144.4
144.4
144.4
144.4
144.4
144.4
144.4
144.4
144.4
144.4
144.4
144.4
144.4
144.4
144.4
144.4
144.4
144.4
144.4
144.4
144.4
144.4
144.4
144.4
144.4
144.4
144.4
144.4
144.4
144.4
144.4
144.4
144.4
144.4
144.4
144.4
144.4
144.4
144.4
144.4
144.4
144.4
144.4
144.4
144.4
144.4
144.4
144.4
144.4
144.4
144.4
144.4
144.4
144.4
144.4
144.4
144.4
144.4
144.4
144.4
144.4
144.4
144.4
144.4
144.4
144.4
144.4
144.4
144.4
144.4
144.4
144.4
144.4
144.4
144.4
144.4
144.4
144.4
144.4
144.4
144.4
144.4
144.4
144.4
144.4
144.4
144.4
144.4
144.4
144.4
144.4
144.4
144.4
144.4
144.4
144.4
144.4
144.4
144.4
144.4
144.4
144.4
144.4
144.4
144.4
144.4
144.4
144.4
144.4
144.4
144.4
144.4
144.4
144.4
144.4
144.4
144.4
144.4
144.4
144.4
144.4
144.4
144.4
144.4
144.4
144.4
144.4
144.4
144.4
144.4
144.4
144.4
144.4
144.4
144.4
144.4
144.4
144.4
144.4
144.4
144.4
144.4
144.4
144.4
144.4
144.4
144.4
144.4
144.4
144.4
144.4
144.4
144.4
144.4
144.4
144.4
144.4
144.4
144.4
144.4
144.4
144.4
144.4
144.4
144.4
144.4
144.4
144.4
144.4
144.4
144.4
144.4
144.4
144.4
144.4
144.4
144.4
144.4
144.4
144.4
144.4
144.4
144.4
144.4
144.4
144.4
144.4
144.4
144.4
144.4
144.4
144.4
144.4
144.4
144.4
144.4
144.4
144.4
144.4
144.4
144.4
144.4
144.4
144.4
144.4
144.4
144.4
144.4
144.4
144.4
144.4
144.4
144.4
144.4
144.4
144.4
144.4
144.4
144.4
144.4
144.4
144.4
144.4
144.4
144.4
144.4
144.4
144.4
144.4
144.4
144.4
144.4
144.4
144.4
144.4
144.4
144.4
144.4
144.4
144.4
144.4
144.4
144.4
144.4
144.4
144.4
144.4
144.4
144.4
144.4
144.4
144.4
144.4
144.4
144.4
144.4
144.4
144.4
144.4
144.4
144.4
144.4
144.4
144.4
144.4
144.4
144.4
144.4
144.4
144.4
144.4
144.4
144.4
144.4
144.4
144.4
144.4
144.4
144.4
144.4
144.4
144.4
144.4
144.4
144.4
144.4
144.4
144.4
144.4
144.4
144.4
144.4
144.4
144.4
144.4
144.4
144.4
144.4
144.4
144.4
144.4
144.4
144.4
144.4
144.4
144.4
144.4
144.4
144.4
144.4
144.4
144.4
144.4
144.4
144.4
144.4
144.4
144.4
144.4
144.4
144.4
144.4
144.4
144.4
144.4
144.4
144.4
144.4
144.4
144.4
144.4
144.4
144.4
144.4
144.4
144.4
144.4
144.4
144.4
144.4
144.4
144.4
144.4
144.4
144.4
144.4
144.4
144.4
144.4
144.4
144.4
144.4
144.4
144.4
144.4
144.4
144.4
144.4
144.4
144.4
144.4
144.4
144.4
144.4
144.4
144.4
144.4
144.4
144.4
144.4
144.4
144.4
144.4
144.4
144.4
144.4
144.4
144.4
144.4
144.4
144.4
144.4
144.4
144.4
144.4
144.4
144.4
144.4
144.4
144.4
144.4
144.4
144.4
144.4
144.4
144.4
144.4
144.4
144.4
144.4
144.4
144.4
144.4
144.4
144.4
144.4
144.4
144.4
144.4
144.4
144.4
144.4
144.4
144.4
144.4
144.4
144.4
144.4
144.4
144.4
144.4
144.4
144.4
144.4
144.4
144.4
144.4
144.4
144.4
144.4
144.4
144.4
144.4
144.4
144.4
144.4
144.4
144.4
144.4
144.4
144.4
144.4
144.4
144.4
144.4
144.4
144.4
144.4
144.4
144.4
144.4
144.4
144.4
144.4
144.4
144.4
144.4
144.4
144.4
144.4
144.4
144.4
144.4
144.4
144.4
144.4
144.4
144.4
144.4
144.4
144.4
144.4
144.4
144.4
144.4
144.4
144.4
144.4
144.4
144.4
144.4
144.4
144.4
144.4
144.4
144.4
144.4
144.4
144.4
144.4
144.4
144.4
144.4
144.4
144.4
144.4
144.4
144.4
144.4
144.4
144.4
144.4
144.4
144.4
144.4
144.4
144.4
144.4
144.4
144.4
144.4
144.4
144.4
144.4
144.4
144.4
144.4
144.4
144.4
144.4
144.4
144.4
144.4
144.4
144.4
144.4
144.4
144.4
144.4
144.4
144.4
144.4
144.4
144.4
144.4
144.4
144.4
144.4
144.4
144.4
144.4
144.4
144.4
144.4
144.4
144.4
144.4
144.4
144.4
144.4
144.4
144.4
144.4
144.4
144.4
144.4
144.4
144.4
144.4
144.4
144.4
144.4
144.4
144.4
144.4
144.4
144.4
144.4
144.4
144.4
144.4
144.4
144.4
144.4
144.4
144.4
144.4
144.4
144.4
144.4
144.4
144.4
144.4
144.4
144.4
144.4
144.4
144.4
144.4
144.4
144.4
144.4
144.4
144.4
144.4
144.4
144.4
144.4
144.4
144.4
144.4
144.4
144.4
144.4
144.4
144.4
144.4
144.4
144.4
144.4
144.4
144.4
144.4
144.4
144.4
144.4
144.4
144.4
144.4
144.4
144.4
144.4
144.4
144.4
144.4
144.4
144.4
144.4
144.4
144.4
144.4
144.4
144.4
144.4
144.4
144.4
144.4
144.4
144.4
144.4
144.4
144.4
144.4
144.4
144.4
144.4
144.4
144.4
144.4
144.4
144.4
144.4
144.4
144.4
144.4
144.4
144.4
144.4
144.4
144.4
144.4
144.4
144.4
144.4
144.4
144.4
144.4
144.4
144.4
144.4
144.4
144.4
144.4
144.4
144.4
144.4
144.4
144.4
144.4
144.4
144.4
144.4
144.4
144.4
144.4
144.4
144.4
144.4
144.4
144.4
144.4
144.4
144.4
144.4
144.4
144.4
144.4
144.4
144.4
144.4
144.4
144.4
144.4
144.4
144.4
144.4
144.4
144.4
144.4
144.4
144.4
144.4
144.4
144.4
144.4
144.4
144.4
144.4
144.4
144.4
144.4
144.4
144.4
144.4
144.4
144.4
144.4
144.4
144.4
144.4
144.4
144.4
144.4
144.4
144.4
144.4
144.4
144.4
144.4
144.4
144.4
144.4
144.4
144.4
144.4
144.4
144.4
144.4
144.4
144.4
144.4
144.4
144.4
144.4
144.4
144.4
144.4
144.4
144.4
144.4
144.4
144.4
144.4
144.4
144.4
144.4
144.4
144.4
144.4
144.4
144.4
144.4
144.4
144.4
144.4
144.4
144.4
144.4
144.4
144.4
144.4
144.4
144.4
144.4
144.4
144.4
144.4
144.4
144.4
144.4
144.4
144.4
144.4
144.4
144.4
144.4
144.4
144.4
144.4
144.4
144.4
144.4
144.4
144.4
144.4
144.4
144.4
144.4
144.4
144.4
144.4
144.4
144.4
144.4
144.4
144.4
144.4
144.4
144.4
144.4
144.4
144.4
144.4
144.4
144.4
144.4
144.4
144.4
144.4
144.4
144.4
144.4
144.4
144.4
144.4
144.4
144.4
144.4
144.4
144.4
144.4
144.4
144.4
144.4
144.4
144.4
144.4
144.4
144.4
144.4
144.4
144.4
144.4
144.4
144.4
144.4
144.4
144.4
144.4
144.4
144.4
144.4
144.4
144.4
144.4
144.4
144.4
144.4
144.4
144.4
144.4
144.4
144.4
144.4
144.4
144.4
144.4
144.4
144.4
144.4
144.4
144.4
144.4
144.4
144.4
144.4
144.4
144.4
144.4
144.4
144.4
144.4
144.4
144.4
144.4
144.4
144.4
144.4
144.4
144.4
144.4
144.4
144.4
144.4
144.4
144.4
144.4
144.4
144.4
144.4
144.4
144.4
144.4
144.4
144.4
144.4
144.4
144.4
144.4
144.4
144.4
144.4
144.4
144.4
144.4
144.4
144.4
144.4
144.4
144.4
144.4
144.4
144.4
144.4
144.4
144.4
144.4
144.4
144.4
144.4
144.4
144.4
144.4
144.4
144.4
144.4
144.4
144.4
144.4
144.4
144.4
144.4
144.4
144.4
144.4
144.4
144.4
144.4
144.4
144.4
144.4
144.4
144.4
144.4
144.4
144.4
144.4
144.4
144.4
144.4
144.4
144.4
144.4
144.4
144.4
144.4
144.4
144.4
144.4
144.4
144.4
144.4
144.4
144.4
144.4
144.4
144.4
144.4
144.4
144.4
144.4
144.4
144.4
144.4
144.4
144.4
144.4
144.4
144.4
144.4
144.4
144.4
144.4
144.4
144.4
144.4
144.4
144.4
144.4
144.4
144.4
144.4
144.4
144.4
144.4
144.4
144.4
144.4
144.4
144.4
144.4
144.4
144.4
144.4
144.4
144.4
144.4
144.4
144.4
144.4
144.4
144.4
144.4
144.4
144.4
144.4
144.4
144.4
144.4
144.4
144.4
144.4
144.4
144.4
144.4
144.4
144.4
144.4
144.4
144.4
144.4
144.4
144.4
144.4
144.4
144.4
144.4
144.4
144.4
144.4
144.4
144.4
144.4
144.4
144.4
144.4
144.4
144.4
144.4
144.4
144.4
144.4
144.4
144.4
144.4
144.4
144.4
144.4
144.4
144.4
144.4
144.4
144.4
144.4
144.4
144.4
144.4
144.4
144.4
144.4
144.4
144.4
144.4
144.4
144.4
144.4
144.4
144.4
144.4
144.4
144.4
144.4
144.4
144.4
144.4
144.4
144.4
144.4
144.4
144.4
144.4
144.4
144.4
144.4
144.4
144.4
144.4
144.4
144.4
144.4
144.4
144.4
144.4
144.4
144.4
144.4
144.4
144.4
144.4
144.4
144.4
144.4
144.4
144.4
144.4
144.4
144.4
144.4
144.4
144.401
144.401
144.401
144.4
144.4
144.4
144.4
144.4
144.4
144.4
144.4
144.4
144.4
144.4
144.4
144.4
144.4
144.4
144.4
144.4
144.4
144.4
144.4
144.4
144.4
144.4
144.4
144.4
144.4
144.4
144.4
144.4
144.4
144.4
144.4
144.4
144.4
144.4
144.4
144.4
144.4
144.4
144.4
144.4
144.4
144.4
144.4
144.4
144.4
144.4
144.4
144.4
144.4
144.4
144.4
144.4
144.4
144.4
144.4
144.4
144.4
144.4
144.4
144.4
144.4
144.4
144.4
144.4
144.4
144.4
144.4
144.4
144.4
144.4
144.4
144.4
144.4
144.4
144.4
144.4
144.4
144.4
144.4
144.4
144.4
144.4
144.4
144.4
144.4
144.4
144.4
144.4
144.4
144.4
144.4
144.4
144.4
144.4
144.4
144.4
144.4
144.4
144.401
144.401
144.401
144.401
144.401
144.401
144.401
144.401
144.401
144.401
144.401
144.402
144.402
144.402
144.402
144.402
144.402
144.403
144.403
144.403
144.403
144.404
144.404
144.405
144.4
144.4
144.4
144.4
144.4
144.4
144.4
144.4
144.4
144.4
144.4
144.4
144.4
144.4
144.4
144.4
144.4
144.4
144.4
144.4
144.4
144.4
144.4
144.4
144.4
144.4
144.4
144.4
144.4
144.4
144.4
144.4
144.4
144.4
144.4
144.4
144.4
144.4
144.4
144.4
144.4
144.4
144.4
144.4
144.4
144.4
144.4
144.4
144.4
144.4
144.4
144.4
144.4
144.4
144.4
144.4
144.4
144.4
144.4
144.4
144.4
144.4
144.4
144.4
144.4
144.4
144.4
144.4
144.4
144.4
144.4
144.4
144.4
144.4
144.4
144.4
144.4
144.401
144.401
144.401
144.401
144.401
144.401
144.401
144.401
144.401
144.401
144.401
144.401
144.401
144.402
144.402
144.402
144.402
144.402
144.403
144.403
144.403
144.403
144.404
144.404
144.404
144.405
144.405
144.406
144.406
144.407
144.408
144.409
144.41
144.411
144.412
144.413
144.414
144.415
144.416
144.418
144.42
144.421
144.424
144.426
144.429
144.433
144.4
144.4
144.4
144.4
144.4
144.4
144.4
144.4
144.4
144.4
144.4
144.4
144.4
144.4
144.4
144.4
144.4
144.4
144.4
144.4
144.4
144.4
144.4
144.4
144.4
144.4
144.4
144.4
144.4
144.4
144.4
144.4
144.4
144.4
144.4
144.4
144.4
144.4
144.4
144.4
144.4
144.4
144.4
144.4
144.4
144.4
144.4
144.4
144.401
144.401
144.401
144.401
144.401
144.401
144.401
144.401
144.401
144.401
144.401
144.401
144.401
144.401
144.401
144.401
144.401
144.401
144.402
144.402
144.402
144.402
144.402
144.402
144.402
144.402
144.403
144.403
144.403
144.403
144.404
144.404
144.404
144.405
144.405
144.406
144.406
144.407
144.407
144.408
144.409
144.41
144.411
144.412
144.413
144.414
144.416
144.417
144.419
144.421
144.423
144.425
144.427
144.429
144.432
144.435
144.439
144.443
144.448
144.454
144.459
144.466
144.473
144.48
144.488
144.496
144.505
144.514
144.524
144.536
144.549
144.566
144.585
144.607
144.631
144.658
144.688
144.4
144.4
144.4
144.4
144.4
144.4
144.4
144.4
144.4
144.4
144.4
144.4
144.4
144.4
144.4
144.4
144.4
144.4
144.401
144.401
144.401
144.401
144.401
144.401
144.401
144.401
144.401
144.401
144.401
144.401
144.401
144.401
144.401
144.401
144.401
144.401
144.402
144.402
144.402
144.402
144.402
144.402
144.402
144.402
144.402
144.403
144.403
144.403
144.403
144.403
144.403
144.404
144.404
144.404
144.404
144.404
144.405
144.405
144.405
144.406
144.406
144.407
144.407
144.408
144.408
144.409
144.409
144.41
144.411
144.412
144.412
144.413
144.414
144.416
144.417
144.419
144.42
144.422
144.424
144.426
144.429
144.431
144.434
144.437
144.44
144.444
144.447
144.452
144.457
144.462
144.469
144.476
144.484
144.493
144.503
144.513
144.525
144.537
144.549
144.563
144.578
144.594
144.613
144.635
144.661
144.69
144.723
144.76
144.801
144.845
144.892
144.942
144.996
145.051
145.11
145.173
145.242
145.322
145.418
145.532
145.665
145.819
145.991
146.18
146.385
144.401
144.401
144.401
144.401
144.401
144.401
144.401
144.401
144.401
144.402
144.402
144.402
144.402
144.402
144.402
144.403
144.403
144.403
144.403
144.403
144.404
144.404
144.404
144.404
144.405
144.405
144.405
144.406
144.406
144.406
144.407
144.407
144.407
144.408
144.408
144.409
144.409
144.41
144.41
144.411
144.412
144.412
144.413
144.414
144.414
144.415
144.416
144.417
144.418
144.419
144.42
144.421
144.422
144.424
144.425
144.427
144.429
144.431
144.433
144.435
144.438
144.441
144.443
144.447
144.45
144.454
144.458
144.462
144.466
144.471
144.476
144.482
144.489
144.497
144.506
144.515
144.526
144.538
144.551
144.565
144.581
144.597
144.614
144.633
144.653
144.675
144.7
144.728
144.76
144.798
144.84
144.888
144.94
144.999
145.062
145.13
145.203
145.281
145.364
145.452
145.548
145.657
145.782
145.929
146.1
146.296
146.518
146.764
147.033
147.324
147.636
147.967
148.317
148.684
149.069
149.478
149.93
150.458
151.092
151.852
152.739
153.747
154.869
156.095
157.417
144.404
144.404
144.404
144.405
144.405
144.406
144.406
144.407
144.408
144.408
144.409
144.41
144.411
144.412
144.412
144.413
144.414
144.415
144.417
144.418
144.419
144.42
144.422
144.423
144.425
144.426
144.428
144.43
144.432
144.433
144.435
144.437
144.439
144.442
144.444
144.447
144.449
144.452
144.455
144.459
144.462
144.466
144.47
144.474
144.478
144.483
144.488
144.493
144.498
144.503
144.509
144.515
144.522
144.529
144.537
144.546
144.556
144.568
144.58
144.593
144.607
144.623
144.64
144.658
144.677
144.698
144.72
144.743
144.768
144.795
144.824
144.858
144.895
144.938
144.986
145.041
145.102
145.17
145.244
145.324
145.412
145.506
145.608
145.716
145.831
145.955
146.092
146.248
146.427
146.634
146.872
147.142
147.444
147.778
148.144
148.54
148.967
149.424
149.909
150.423
150.971
151.566
152.239
153.024
153.947
155.019
156.239
157.603
159.102
160.728
162.472
164.324
166.275
168.315
170.435
172.636
174.947
177.481
180.452
184.029
188.258
193.094
198.459
204.272
210.465
216.977
144.421
144.423
144.425
144.428
144.431
144.434
144.437
144.44
144.443
144.447
144.451
144.455
144.46
144.465
144.47
144.475
144.48
144.486
144.493
144.499
144.506
144.514
144.521
144.53
144.538
144.547
144.556
144.565
144.575
144.585
144.596
144.607
144.619
144.632
144.646
144.66
144.676
144.693
144.71
144.729
144.749
144.77
144.793
144.816
144.841
144.866
144.893
144.922
144.951
144.982
145.015
145.051
145.09
145.134
145.182
145.235
145.294
145.36
145.431
145.509
145.594
145.686
145.785
145.892
146.005
146.127
146.256
146.393
146.539
146.698
146.874
147.074
147.301
147.56
147.854
148.184
148.551
148.956
149.399
149.88
150.4
150.958
151.554
152.189
152.865
153.592
154.397
155.314
156.375
157.598
158.992
160.558
162.293
164.192
166.248
168.454
170.803
173.285
175.894
178.626
181.496
184.583
188.07
192.138
196.867
202.245
208.214
214.701
221.632
228.939
236.555
244.422
252.482
260.685
268.987
277.375
285.936
295.069
305.668
318.175
332.378
347.858
364.228
381.171
398.44
415.849
433.257
450.546
144.516
144.528
144.541
144.554
144.569
144.585
144.602
144.62
144.639
144.659
144.68
144.703
144.727
144.753
144.78
144.809
144.839
144.872
144.906
144.942
144.98
145.02
145.062
145.106
145.151
145.198
145.247
145.298
145.351
145.406
145.464
145.526
145.592
145.662
145.738
145.818
145.904
145.996
146.094
146.198
146.308
146.424
146.547
146.676
146.811
146.953
147.102
147.258
147.421
147.593
147.777
147.977
148.198
148.444
148.718
149.023
149.359
149.73
150.135
150.576
151.054
151.569
152.123
152.716
153.349
154.021
154.733
155.488
156.294
157.168
158.141
159.245
160.504
161.934
163.54
165.325
167.289
169.43
171.747
174.235
176.89
179.706
182.677
185.796
189.071
192.551
196.378
200.731
205.723
211.377
217.664
224.532
231.923
239.775
248.027
256.619
265.5
274.616
283.921
293.385
303.046
313.148
324.383
337.238
351.638
367.273
383.82
400.99
418.533
436.242
453.952
471.533
488.876
505.901
522.542
538.79
554.769
571.105
590.553
613.576
638.454
663.922
689.247
713.951
737.719
760.378
781.834
802.024
145.029
145.092
145.161
145.234
145.313
145.396
145.486
145.58
145.681
145.787
145.9
146.019
146.146
146.281
146.424
146.576
146.736
146.906
147.086
147.275
147.474
147.682
147.9
148.126
148.362
148.606
148.858
149.12
149.392
149.678
149.981
150.305
150.65
151.021
151.418
151.842
152.294
152.775
153.286
153.828
154.399
155.002
155.635
156.299
156.994
157.72
158.477
159.268
160.097
160.971
161.907
162.928
164.058
165.315
166.711
168.252
169.941
171.782
173.775
175.922
178.224
180.681
183.292
186.055
188.968
192.025
195.224
198.572
202.099
205.893
210.106
214.861
220.214
226.168
232.695
239.758
247.317
255.329
263.751
272.539
281.651
291.041
300.664
310.481
320.5
330.861
342.034
354.54
368.438
383.53
399.57
416.328
433.593
451.175
468.906
486.653
504.306
521.778
538.987
555.895
572.561
589.314
608.152
629.987
653.515
677.662
701.762
725.365
748.153
769.913
790.519
809.899
828.017
844.879
860.527
874.962
888.206
900.413
911.392
921.172
930.023
938.123
945.539
952.251
958.256
963.613
968.358
972.476
147.712
148.037
148.387
148.761
149.16
149.584
150.034
150.509
151.01
151.54
152.101
152.696
153.326
153.995
154.702
155.451
156.241
157.073
157.947
158.863
159.82
160.816
161.851
162.921
164.024
165.161
166.329
167.535
168.789
170.107
171.504
172.991
174.576
176.264
178.058
179.96
181.971
184.092
186.321
188.658
191.103
193.651
196.302
199.05
201.895
204.834
207.87
211.008
214.263
217.666
221.288
225.233
229.581
234.37
239.604
245.271
251.353
257.833
264.69
271.906
279.459
287.329
295.492
303.923
312.592
321.47
330.534
339.789
349.32
359.371
370.4
382.578
395.829
409.998
424.923
440.451
456.443
472.771
489.314
505.969
522.644
539.257
555.727
571.989
588.061
604.112
621.316
641.08
662.529
684.764
707.18
729.378
751.067
772.022
792.077
811.138
829.15
846.072
861.903
876.659
890.303
902.896
914.298
924.478
933.694
942.12
949.821
956.787
963.015
968.539
973.402
977.635
981.271
984.353
986.914
988.959
990.59
992.051
993.564
995.207
996.914
998.647
1000.37
1001.96
1003.36
1004.6
1005.74
1006.75
1007.63
162.368
163.991
165.711
167.526
169.433
171.43
173.517
175.699
177.985
180.382
182.899
185.54
188.307
191.2
194.219
197.362
200.625
204.002
207.489
211.077
214.755
218.513
222.339
226.224
230.163
234.159
238.232
242.438
246.836
251.47
256.358
261.504
266.903
272.545
278.422
284.52
290.828
297.333
304.021
310.879
317.889
325.037
332.305
339.682
347.162
354.75
362.457
370.313
378.405
386.912
396.104
406.061
416.739
428.053
439.924
452.28
465.054
478.181
491.599
505.25
519.075
533.022
547.034
561.058
575.042
588.947
602.786
616.671
630.994
647.246
665.152
684.037
703.407
722.914
742.294
761.357
779.952
797.952
815.261
831.814
847.556
862.441
876.452
889.556
901.767
913.052
923.307
932.71
941.375
949.367
956.703
963.377
969.402
974.805
979.625
983.885
987.604
990.813
993.517
995.767
997.689
999.438
1001.19
1003.01
1004.9
1006.77
1008.51
1010.05
1011.42
1012.62
1013.64
1014.49
1015.18
1015.71
1016.04
1016.09
1016.05
1015.98
1015.94
1015.97
1016.16
1016.49
1016.86
1017.26
1017.66
1018.12
1018.59
1018.99
219.962
225.646
231.524
237.578
243.788
250.135
256.616
263.258
270.089
277.126
284.375
291.83
299.481
307.314
315.309
323.448
331.705
340.059
348.483
356.95
365.43
373.894
382.319
390.689
399.001
407.274
415.583
424.09
432.907
442.045
451.474
461.161
471.076
481.191
491.481
501.919
512.478
523.132
533.854
544.616
555.392
566.153
576.879
587.556
598.191
608.799
619.403
630.051
640.839
652.091
664.677
678.318
692.654
707.41
722.394
737.464
752.511
767.445
782.187
796.67
810.83
824.613
837.966
850.84
863.187
874.99
886.265
897.02
907.288
916.889
925.873
934.295
942.193
949.591
956.481
962.863
968.747
974.141
979.061
983.519
987.51
991.031
994.111
996.809
999.182
1001.33
1003.5
1005.72
1007.89
1010.05
1012.12
1014.02
1015.76
1017.34
1018.75
1020.01
1021.12
1022.07
1022.8
1023.34
1023.69
1023.88
1023.99
1024.13
1024.36
1024.67
1025
1025.37
1025.75
1026.11
1026.44
1026.73
1027
1027.21
1027.33
1027.38
1027.36
1027.25
1027.06
1026.86
1026.8
1026.82
1026.9
1027.05
1027.25
1027.56
1027.93
1028.28
388.1
400.436
412.76
425.021
437.187
449.284
461.42
473.631
485.896
498.179
510.448
522.676
534.843
546.929
558.912
570.768
582.473
594
605.32
616.401
627.214
637.749
648.013
658.027
667.843
677.567
687.703
698.426
709.545
720.891
732.341
743.808
755.225
766.543
777.723
788.734
799.549
810.144
820.495
830.576
840.367
849.852
859.031
867.925
876.561
884.967
893.172
901.177
908.964
916.386
923.473
930.248
936.724
942.909
948.807
954.417
959.738
964.769
969.51
973.962
978.124
981.989
985.546
988.805
991.816
994.639
997.322
999.893
1002.42
1004.96
1007.42
1009.84
1012.23
1014.43
1016.48
1018.46
1020.27
1021.89
1023.43
1024.83
1026.04
1027.06
1027.89
1028.51
1029
1029.47
1029.84
1030.23
1030.75
1031.28
1031.82
1032.4
1033
1033.57
1034.13
1034.66
1035.15
1035.57
1035.98
1036.31
1036.47
1036.47
1036.42
1036.38
1036.37
1036.38
1036.42
1036.52
1036.65
1036.81
1036.97
1037.14
1037.29
1037.4
1037.46
1037.46
1037.37
1037.17
1036.93
1036.73
1036.58
1036.55
1036.59
1036.69
1036.88
1037.17
1037.5
662.541
677.094
691.171
704.756
717.926
731.229
744.607
757.937
771.117
784.062
796.702
808.985
820.865
832.305
843.282
853.78
863.784
873.278
882.243
890.671
898.59
906.048
913.101
919.8
926.176
932.178
937.803
943.097
948.086
952.79
957.223
961.398
965.326
969.02
972.49
975.746
978.797
981.652
984.311
986.784
989.097
991.301
993.451
995.58
997.708
999.832
1001.94
1004.03
1006.11
1008.17
1010.21
1012.22
1014.19
1016.11
1017.95
1019.73
1021.43
1023.06
1024.61
1026.08
1027.46
1028.73
1029.85
1030.81
1031.67
1032.43
1033.12
1033.78
1034.39
1034.99
1035.7
1036.41
1037.1
1037.89
1038.67
1039.37
1040.11
1040.86
1041.53
1042.18
1042.85
1043.46
1043.96
1044.38
1044.65
1044.72
1044.79
1044.95
1045.08
1045.23
1045.46
1045.74
1046.04
1046.37
1046.71
1047.05
1047.4
1047.73
1048.06
1048.22
1048.19
1048.09
1047.94
1047.74
1047.55
1047.41
1047.31
1047.27
1047.27
1047.3
1047.34
1047.4
1047.46
1047.51
1047.52
1047.49
1047.38
1047.24
1047.11
1047.03
1047.03
1047.08
1047.19
1047.37
1047.64
1047.99
1048.35
1048.67
930.352
941.504
951.791
961.21
969.786
977.472
984.385
990.632
996.282
1001.38
1005.98
1010.11
1013.79
1017.06
1019.93
1022.42
1024.56
1026.34
1027.76
1028.88
1029.81
1030.65
1031.46
1032.26
1033.04
1033.8
1034.54
1035.26
1035.97
1036.66
1037.32
1037.96
1038.58
1039.16
1039.72
1040.24
1040.72
1041.16
1041.55
1041.86
1042.08
1042.23
1042.38
1042.53
1042.7
1042.9
1043.12
1043.36
1043.64
1043.96
1044.34
1044.78
1045.29
1045.84
1046.43
1047.05
1047.69
1048.34
1049.01
1049.68
1050.36
1051.04
1051.72
1052.36
1052.93
1053.4
1053.77
1054.06
1054.24
1054.39
1054.62
1054.8
1055
1055.32
1055.65
1055.93
1056.3
1056.7
1057.07
1057.46
1057.92
1058.39
1058.79
1059.15
1059.25
1059.2
1059.12
1059.03
1058.93
1058.83
1058.8
1058.83
1058.91
1059.03
1059.19
1059.37
1059.56
1059.77
1060.01
1060.19
1060.22
1060.17
1060.06
1059.9
1059.71
1059.55
1059.42
1059.33
1059.27
1059.25
1059.25
1059.28
1059.34
1059.42
1059.51
1059.55
1059.55
1059.53
1059.53
1059.55
1059.59
1059.68
1059.82
1060.01
1060.28
1060.64
1061.02
1061.37
1086.35
1088.44
1089.97
1090.95
1091.55
1091.92
1092.16
1092.31
1092.36
1092.31
1092.2
1092.01
1091.72
1091.36
1090.91
1090.39
1089.77
1089.01
1088.07
1086.93
1085.65
1084.33
1083.04
1081.79
1080.59
1079.44
1078.37
1077.36
1076.45
1075.63
1074.89
1074.25
1073.7
1073.22
1072.82
1072.49
1072.23
1072.03
1071.9
1071.82
1071.77
1071.71
1071.6
1071.44
1071.26
1071.06
1070.86
1070.68
1070.51
1070.37
1070.26
1070.21
1070.22
1070.28
1070.39
1070.54
1070.74
1070.97
1071.23
1071.51
1071.83
1072.19
1072.58
1072.99
1073.36
1073.61
1073.75
1073.75
1073.67
1073.53
1073.41
1073.22
1073.07
1072.99
1072.94
1072.92
1072.96
1073.02
1073.12
1073.24
1073.41
1073.63
1073.87
1074.1
1074.2
1074.19
1074.14
1074.06
1073.95
1073.83
1073.73
1073.69
1073.7
1073.74
1073.81
1073.91
1074.04
1074.21
1074.41
1074.6
1074.71
1074.71
1074.65
1074.54
1074.38
1074.22
1074.06
1073.93
1073.82
1073.74
1073.68
1073.66
1073.68
1073.75
1073.84
1073.91
1073.97
1074.04
1074.15
1074.26
1074.38
1074.49
1074.68
1074.91
1075.21
1075.59
1075.99
1076.38
1152.06
1150.67
1148.91
1146.88
1144.79
1142.7
1140.6
1138.53
1136.52
1134.55
1132.62
1130.78
1129.02
1127.34
1125.73
1124.23
1122.84
1121.57
1120.37
1119.12
1117.74
1116.26
1114.72
1113.17
1111.64
1110.16
1108.75
1107.41
1106.16
1105
1103.95
1103
1102.15
1101.39
1100.73
1100.15
1099.67
1099.27
1098.98
1098.78
1098.6
1098.38
1098.1
1097.75
1097.36
1096.93
1096.5
1096.06
1095.63
1095.21
1094.83
1094.49
1094.2
1093.95
1093.74
1093.58
1093.46
1093.37
1093.31
1093.3
1093.32
1093.37
1093.45
1093.55
1093.62
1093.62
1093.55
1093.4
1093.2
1092.98
1092.7
1092.45
1092.22
1092.02
1091.87
1091.74
1091.64
1091.57
1091.56
1091.58
1091.65
1091.77
1091.93
1092.03
1092.04
1092.02
1091.95
1091.84
1091.71
1091.57
1091.47
1091.4
1091.36
1091.36
1091.37
1091.41
1091.5
1091.61
1091.75
1091.85
1091.85
1091.81
1091.71
1091.57
1091.4
1091.23
1091.06
1090.91
1090.78
1090.67
1090.59
1090.58
1090.6
1090.66
1090.73
1090.82
1090.94
1091.1
1091.28
1091.47
1091.64
1091.87
1092.15
1092.51
1092.94
1093.37
1093.81
1187.35
1185.3
1183.43
1181.52
1179.4
1177.07
1174.58
1172.04
1169.55
1167.08
1164.62
1162.27
1160.03
1157.86
1155.79
1153.85
1152.05
1150.41
1148.94
1147.56
1146.16
1144.7
1143.15
1141.56
1139.94
1138.34
1136.77
1135.26
1133.82
1132.46
1131.2
1130.04
1128.98
1128.02
1127.15
1126.38
1125.69
1125.1
1124.6
1124.19
1123.86
1123.58
1123.28
1122.95
1122.58
1122.17
1121.72
1121.27
1120.8
1120.33
1119.87
1119.43
1119.01
1118.62
1118.26
1117.93
1117.63
1117.35
1117.11
1116.9
1116.72
1116.57
1116.47
1116.4
1116.33
1116.25
1116.11
1115.91
1115.66
1115.36
1115.01
1114.66
1114.32
1114
1113.71
1113.45
1113.21
1112.99
1112.84
1112.71
1112.63
1112.63
1112.66
1112.69
1112.68
1112.64
1112.55
1112.43
1112.28
1112.12
1111.97
1111.84
1111.74
1111.65
1111.59
1111.55
1111.55
1111.58
1111.62
1111.65
1111.63
1111.56
1111.44
1111.27
1111.08
1110.88
1110.68
1110.5
1110.33
1110.17
1110.05
1109.98
1109.97
1109.99
1110.04
1110.13
1110.27
1110.45
1110.67
1110.91
1111.15
1111.4
1111.75
1112.21
1112.69
1113.15
1113.66
1114.18
1114.69
1217.17
1214.46
1211.98
1209.59
1207.23
1204.81
1202.15
1199.46
1196.9
1194.28
1191.55
1189.01
1186.62
1184.22
1181.92
1179.8
1177.82
1175.97
1174.3
1172.84
1171.53
1170.27
1169
1167.71
1166.4
1165.07
1163.73
1162.42
1161.15
1159.92
1158.75
1157.66
1156.63
1155.68
1154.81
1154.01
1153.29
1152.64
1152.07