/*--------------------------------*- C++ -*----------------------------------*\
| =========                 |                                                 |
| \\      /  F ield         | OpenFOAM: The Open Source CFD Toolbox           |
|  \\    /   O peration     | Version:  v1706                                 |
|   \\  /    A nd           | Web:      www.OpenFOAM.com                      |
|    \\/     M anipulation  |                                                 |
\*---------------------------------------------------------------------------*/
FoamFile
{
    version     2.0;
    format      ascii;
    class       volVectorField;
    location    "2e-05";
    object      U;
}
// * * * * * * * * * * * * * * * * * * * * * * * * * * * * * * * * * * * * * //

dimensions      [0 1 -1 0 0 0 0];


internalField   nonuniform List<vector> 
29871
(
(2764.5 -3.91832e-11 6.62026e-15)
(2764.5 -4.13036e-11 4.37643e-15)
(2764.5 -4.18859e-11 5.01131e-15)
(2764.5 -4.19669e-11 3.86822e-15)
(2764.5 -4.08e-11 1.77939e-15)
(2764.5 -3.97025e-11 2.22323e-15)
(2764.5 -3.92395e-11 2.90595e-15)
(2764.5 -3.67669e-11 2.92357e-15)
(2764.5 -3.5578e-11 3.58476e-15)
(2764.5 -3.59817e-11 3.51504e-15)
(2764.5 -3.71365e-11 4.11238e-15)
(2764.5 -3.87198e-11 5.82252e-15)
(2764.5 -3.982e-11 4.6566e-15)
(2764.5 -3.91268e-11 5.39058e-15)
(2764.5 -3.96713e-11 4.40376e-15)
(2764.5 -4.12157e-11 2.46357e-15)
(2764.5 -4.14917e-11 2.72748e-15)
(2764.5 -4.18843e-11 3.32546e-15)
(2764.5 -4.19406e-11 4.54408e-15)
(2764.5 -4.11048e-11 4.35818e-15)
(2764.5 -4.08234e-11 2.95412e-15)
(2764.5 -4.12733e-11 2.96441e-15)
(2764.5 -4.18205e-11 1.68249e-15)
(2764.5 -4.41269e-11 2.73003e-15)
(2764.5 -4.62349e-11 4.72795e-15)
(2764.5 -4.69401e-11 4.1494e-15)
(2764.5 -4.4684e-11 6.34723e-15)
(2764.5 -4.23733e-11 3.6539e-15)
(2764.5 -4.04675e-11 1.78028e-15)
(2764.5 -4.12423e-11 3.3441e-15)
(2764.5 -4.33105e-11 3.8799e-15)
(2764.5 -4.44812e-11 2.52689e-15)
(2764.5 -4.45417e-11 4.12594e-15)
(2764.5 -4.4315e-11 6.03703e-15)
(2764.5 -4.5886e-11 2.88446e-15)
(2764.5 -4.68227e-11 7.5589e-16)
(2764.5 -4.63103e-11 8.74537e-16)
(2764.5 -4.50825e-11 2.91201e-15)
(2764.5 -4.4409e-11 3.41055e-15)
(2764.5 -4.45553e-11 3.93072e-15)
(2764.5 -4.38744e-11 5.1293e-15)
(2764.5 -4.26924e-11 5.70833e-15)
(2764.5 -4.06317e-11 5.82476e-15)
(2764.5 -3.8411e-11 3.70379e-15)
(2764.5 -3.80613e-11 3.36074e-15)
(2764.5 -3.99742e-11 3.57915e-15)
(2764.5 -4.21497e-11 2.50621e-15)
(2764.5 -4.28768e-11 5.12273e-16)
(2764.5 -4.14013e-11 1.5848e-15)
(2764.5 -3.92894e-11 4.01891e-15)
(2764.5 -3.42465e-11 5.02818e-15)
(2764.5 -3.10248e-11 1.42425e-15)
(2764.5 -3.04291e-11 1.27444e-15)
(2764.5 -3.42635e-11 3.53246e-15)
(2764.5 -3.68452e-11 3.54536e-15)
(2764.5 -3.77798e-11 3.66134e-15)
(2764.5 -3.82227e-11 4.6238e-15)
(2764.5 -3.92103e-11 4.9042e-15)
(2764.5 -4.03379e-11 4.36789e-15)
(2764.5 -4.12359e-11 3.17749e-15)
(2764.5 -4.22521e-11 1.98483e-15)
(2764.5 -4.30318e-11 1.9842e-15)
(2764.5 -4.37713e-11 3.79249e-15)
(2764.5 -4.36064e-11 -1.19365e-15)
(2764.5 -4.10287e-11 3.4097e-15)
(2764.5 -4.00414e-11 5.52869e-15)
(2764.5 -3.78656e-11 3.05284e-15)
(2764.5 -3.71383e-11 2.7689e-15)
(2764.5 -3.75425e-11 1.22008e-15)
(2764.5 -4.03369e-11 1.55859e-15)
(2764.5 -4.49567e-11 3.1064e-15)
(2764.5 -4.89514e-11 3.41378e-15)
(2764.5 -5.0808e-11 2.38686e-15)
(2764.5 -5.10428e-11 2.76637e-15)
(2764.5 -4.9689e-11 2.64338e-15)
(2764.5 -4.90723e-11 4.14157e-15)
(2764.5 -4.94756e-11 1.43065e-15)
(2764.5 -5.08955e-11 1.59161e-15)
(2764.5 -5.18567e-11 2.5186e-15)
(2764.5 -5.16096e-11 3.99224e-15)
(2764.5 -4.86522e-11 4.53011e-15)
(2764.5 -4.33785e-11 3.89472e-15)
(2764.5 -3.75156e-11 4.65079e-15)
(2764.5 -2.94071e-11 3.51108e-15)
(2764.5 -2.92252e-11 4.48423e-15)
(2764.5 -3.12499e-11 2.89756e-15)
(2764.5 -3.31098e-11 3.27563e-15)
(2764.5 -3.4027e-11 4.00319e-15)
(2764.5 -3.24977e-11 3.84417e-15)
(2764.5 -3.2094e-11 3.44691e-15)
(2764.5 -3.16395e-11 3.27062e-15)
(2764.5 -3.20142e-11 1.82189e-15)
(2764.5 -3.20527e-11 2.51529e-15)
(2764.5 -3.12779e-11 3.5993e-15)
(2764.5 -3.22517e-11 2.52893e-15)
(2764.5 -3.26734e-11 2.23997e-15)
(2764.5 -3.24455e-11 2.13392e-15)
(2764.5 -3.35942e-11 2.7253e-15)
(2764.5 -3.49281e-11 2.65975e-15)
(2764.5 -3.53429e-11 2.93619e-15)
(2764.5 -3.50625e-11 3.65979e-15)
(2764.5 -3.53079e-11 3.33416e-15)
(2764.5 -3.65538e-11 2.14525e-15)
(2764.5 -3.86698e-11 2.10672e-15)
(2764.5 -3.80676e-11 7.53531e-16)
(2764.5 -1.20119e-10 1.00698e-14)
(2764.5 -1.18684e-10 1.02131e-14)
(2764.5 -1.17758e-10 1.29845e-14)
(2764.5 -1.18185e-10 1.26798e-14)
(2764.5 -1.20592e-10 8.93465e-15)
(2764.5 -1.2257e-10 1.27194e-14)
(2764.5 -1.23793e-10 1.27743e-14)
(2764.5 -1.26414e-10 1.14241e-14)
(2764.5 -1.24439e-10 1.20039e-14)
(2764.5 -1.23221e-10 1.24445e-14)
(2764.5 -1.18368e-10 1.24488e-14)
(2764.5 -1.14538e-10 1.14325e-14)
(2764.5 -1.1583e-10 1.36986e-14)
(2764.5 -1.17115e-10 1.01964e-14)
(2764.5 -1.14834e-10 6.85775e-15)
(2764.5 -1.14278e-10 7.78839e-15)
(2764.5 -1.17725e-10 1.0584e-14)
(2764.5 -1.1775e-10 1.12655e-14)
(2764.5 -1.19918e-10 1.02266e-14)
(2764.5 -1.20445e-10 7.77399e-15)
(2764.5 -1.19916e-10 7.53427e-15)
(2764.5 -1.19378e-10 1.08485e-14)
(2764.5 -1.18895e-10 1.10601e-14)
(2764.5 -1.17973e-10 1.51346e-14)
(2764.5 -1.18959e-10 1.04057e-14)
(2764.5 -1.2146e-10 1.07057e-14)
(2764.5 -1.25586e-10 1.14123e-14)
(2764.5 -1.26142e-10 1.06569e-14)
(2764.5 -1.23961e-10 1.08373e-14)
(2764.5 -1.17874e-10 1.08033e-14)
(2764.5 -1.1597e-10 1.29899e-14)
(2764.5 -1.13877e-10 6.2246e-15)
(2764.5 -1.16864e-10 8.1223e-15)
(2764.5 -1.16752e-10 1.42729e-14)
(2764.5 -1.15139e-10 1.28329e-14)
(2764.5 -1.17837e-10 1.30162e-14)
(2764.5 -1.2092e-10 8.40103e-15)
(2764.5 -1.24305e-10 1.21876e-14)
(2764.5 -1.24212e-10 1.16372e-14)
(2764.5 -1.23968e-10 1.19709e-14)
(2764.5 -1.27928e-10 1.26703e-14)
(2764.5 -1.31595e-10 1.08651e-14)
(2764.5 -1.35948e-10 1.10517e-14)
(2764.5 -1.358e-10 1.04314e-14)
(2764.5 -1.33156e-10 1.00969e-14)
(2764.5 -1.27808e-10 1.12121e-14)
(2764.5 -1.2642e-10 1.15182e-14)
(2764.5 -1.2655e-10 7.89383e-15)
(2764.5 -1.28055e-10 9.77447e-15)
(2764.5 -1.29017e-10 8.88231e-15)
(2764.5 -1.30467e-10 7.61308e-15)
(2764.5 -1.28813e-10 9.47733e-15)
(2764.5 -1.24334e-10 1.19426e-14)
(2764.5 -1.18626e-10 9.38786e-15)
(2764.5 -1.14843e-10 8.67597e-15)
(2764.5 -1.15246e-10 8.54771e-15)
(2764.5 -1.12278e-10 1.04875e-14)
(2764.5 -1.12882e-10 1.35005e-14)
(2764.5 -1.10028e-10 6.82669e-15)
(2764.5 -1.0791e-10 6.05137e-15)
(2764.5 -1.05917e-10 9.49936e-15)
(2764.5 -1.06897e-10 6.49038e-15)
(2764.5 -1.0419e-10 7.85604e-15)
(2764.5 -1.08452e-10 6.44054e-15)
(2764.5 -1.13659e-10 8.50158e-15)
(2764.5 -1.14954e-10 8.23699e-15)
(2764.5 -1.12716e-10 7.23441e-15)
(2764.5 -1.10595e-10 8.37176e-15)
(2764.5 -1.0975e-10 1.15193e-14)
(2764.5 -1.02216e-10 8.21247e-15)
(2764.5 -1.03005e-10 1.1193e-14)
(2764.5 -1.00016e-10 6.58378e-15)
(2764.5 -9.84223e-11 5.72561e-15)
(2764.5 -1.0263e-10 9.56487e-15)
(2764.5 -1.04775e-10 7.01451e-15)
(2764.5 -1.04091e-10 7.57912e-15)
(2764.5 -1.02639e-10 7.24181e-15)
(2764.5 -1.0146e-10 7.61167e-15)
(2764.5 -1.0287e-10 8.98035e-15)
(2764.5 -1.06582e-10 1.12622e-14)
(2764.5 -1.13396e-10 9.10494e-15)
(2764.5 -1.23987e-10 8.14457e-15)
(2764.5 -1.29766e-10 8.49474e-15)
(2764.5 -1.31285e-10 1.02963e-14)
(2764.5 -1.21726e-10 1.05442e-14)
(2764.5 -1.17937e-10 9.65102e-15)
(2764.5 -1.15942e-10 1.0588e-14)
(2764.5 -1.16533e-10 9.95108e-15)
(2764.5 -1.21986e-10 1.0195e-14)
(2764.5 -1.20453e-10 1.07355e-14)
(2764.5 -1.25827e-10 8.92548e-15)
(2764.5 -1.22143e-10 6.12731e-15)
(2764.5 -1.26503e-10 1.32718e-14)
(2764.5 -1.28688e-10 1.21845e-14)
(2764.5 -1.28777e-10 9.42262e-15)
(2764.5 -1.30897e-10 8.94804e-15)
(2764.5 -1.33402e-10 8.79498e-15)
(2764.5 -1.34067e-10 8.19507e-15)
(2764.5 -1.34397e-10 8.60083e-15)
(2764.5 -1.33068e-10 6.63325e-15)
(2764.5 -1.33732e-10 8.51134e-15)
(2764.5 -1.31926e-10 1.01901e-14)
(2764.5 -1.2947e-10 7.20179e-15)
(2764.5 -1.28902e-10 7.41335e-15)
(2764.5 -1.29076e-10 6.06889e-15)
(2764.5 -2.09328e-10 2.23703e-14)
(2764.5 -2.06395e-10 2.49801e-14)
(2764.5 -2.05107e-10 1.81641e-14)
(2764.5 -2.05008e-10 1.87377e-14)
(2764.5 -2.02343e-10 2.21488e-14)
(2764.5 -1.9989e-10 1.78459e-14)
(2764.5 -1.99668e-10 2.0064e-14)
(2764.5 -1.97024e-10 1.81849e-14)
(2764.5 -1.98092e-10 2.23116e-14)
(2764.5 -2.01962e-10 2.10797e-14)
(2764.5 -2.03681e-10 1.90922e-14)
(2764.5 -2.03846e-10 1.66789e-14)
(2764.5 -2.02974e-10 1.45108e-14)
(2764.5 -2.0039e-10 1.55194e-14)
(2764.5 -2.01062e-10 1.795e-14)
(2764.5 -2.00532e-10 1.91452e-14)
(2764.5 -1.96682e-10 1.69317e-14)
(2764.5 -1.97247e-10 1.76715e-14)
(2764.5 -1.95854e-10 1.72017e-14)
(2764.5 -1.9869e-10 1.61225e-14)
(2764.5 -1.98836e-10 1.85233e-14)
(2764.5 -1.99046e-10 1.3941e-14)
(2764.5 -1.99722e-10 1.49507e-14)
(2764.5 -1.97943e-10 2.13611e-14)
(2764.5 -1.9339e-10 1.50327e-14)
(2764.5 -1.92635e-10 1.67326e-14)
(2764.5 -1.91247e-10 1.92142e-14)
(2764.5 -1.94388e-10 1.8104e-14)
(2764.5 -1.98409e-10 1.78645e-14)
(2764.5 -2.02096e-10 1.76135e-14)
(2764.5 -2.00968e-10 1.74662e-14)
(2764.5 -1.94257e-10 1.80422e-14)
(2764.5 -1.91194e-10 1.70522e-14)
(2764.5 -1.89547e-10 1.68183e-14)
(2764.5 -1.90079e-10 1.81438e-14)
(2764.5 -1.86452e-10 1.83303e-14)
(2764.5 -1.83671e-10 1.87072e-14)
(2764.5 -1.83844e-10 1.81262e-14)
(2764.5 -1.88969e-10 1.7156e-14)
(2764.5 -1.90001e-10 1.90596e-14)
(2764.5 -1.87872e-10 1.98661e-14)
(2764.5 -1.86212e-10 1.68015e-14)
(2764.5 -1.83535e-10 1.67523e-14)
(2764.5 -1.86012e-10 1.63702e-14)
(2764.5 -1.9621e-10 1.6842e-14)
(2764.5 -1.98704e-10 1.64155e-14)
(2764.5 -1.98647e-10 1.84561e-14)
(2764.5 -1.98751e-10 1.72894e-14)
(2764.5 -1.99287e-10 1.57946e-14)
(2764.5 -1.98529e-10 1.48304e-14)
(2764.5 -1.98896e-10 1.3485e-14)
(2764.5 -2.00594e-10 1.5696e-14)
(2764.5 -2.01096e-10 1.41886e-14)
(2764.5 -2.002e-10 1.37347e-14)
(2764.5 -1.97078e-10 1.50752e-14)
(2764.5 -1.94853e-10 1.61431e-14)
(2764.5 -1.95097e-10 1.47196e-14)
(2764.5 -1.93539e-10 1.77092e-14)
(2764.5 -1.92092e-10 2.12083e-14)
(2764.5 -1.9389e-10 1.70722e-14)
(2764.5 -1.92582e-10 1.55937e-14)
(2764.5 -1.91842e-10 1.29079e-14)
(2764.5 -1.89999e-10 1.49861e-14)
(2764.5 -1.88813e-10 1.95922e-14)
(2764.5 -1.85469e-10 1.34102e-14)
(2764.5 -1.83643e-10 1.44795e-14)
(2764.5 -1.87729e-10 1.45734e-14)
(2764.5 -1.94468e-10 1.47994e-14)
(2764.5 -1.98725e-10 1.51561e-14)
(2764.5 -2.02077e-10 1.64208e-14)
(2764.5 -1.99027e-10 1.52863e-14)
(2764.5 -1.96349e-10 1.80228e-14)
(2764.5 -1.96569e-10 1.3949e-14)
(2764.5 -1.9666e-10 1.42404e-14)
(2764.5 -1.96255e-10 1.45065e-14)
(2764.5 -2.00996e-10 1.24833e-14)
(2764.5 -2.04054e-10 1.4682e-14)
(2764.5 -2.05905e-10 1.62794e-14)
(2764.5 -2.06487e-10 1.41023e-14)
(2764.5 -2.02545e-10 1.38099e-14)
(2764.5 -1.98294e-10 1.56894e-14)
(2764.5 -1.93605e-10 1.50614e-14)
(2764.5 -1.97898e-10 1.53097e-14)
(2764.5 -2.0066e-10 1.50583e-14)
(2764.5 -2.01891e-10 1.68562e-14)
(2764.5 -2.01121e-10 1.83443e-14)
(2764.5 -1.97101e-10 1.52604e-14)
(2764.5 -1.86178e-10 1.48039e-14)
(2764.5 -1.79578e-10 1.71841e-14)
(2764.5 -1.78013e-10 1.55636e-14)
(2764.5 -1.70322e-10 1.59591e-14)
(2764.5 -1.70499e-10 1.72818e-14)
(2764.5 -1.65227e-10 1.43794e-14)
(2764.5 -1.6261e-10 1.58781e-14)
(2764.5 -1.60937e-10 1.59887e-14)
(2764.5 -1.54929e-10 1.55455e-14)
(2764.5 -1.51057e-10 1.29919e-14)
(2764.5 -1.48372e-10 1.59885e-14)
(2764.5 -1.45344e-10 1.46801e-14)
(2764.5 -1.43367e-10 1.30235e-14)
(2764.5 -1.44584e-10 1.23285e-14)
(2764.5 -1.52355e-10 1.38597e-14)
(2764.5 -1.53102e-10 1.31186e-14)
(2764.5 -1.58696e-10 1.32785e-14)
(2764.5 -1.62558e-10 1.38087e-14)
(2764.5 -1.71225e-10 1.32443e-14)
(2764.5 -2.92663e-10 2.84831e-14)
(2764.5 -2.92758e-10 3.12002e-14)
(2764.5 -2.91325e-10 2.68115e-14)
(2764.5 -2.90312e-10 2.61869e-14)
(2764.5 -2.90436e-10 2.86418e-14)
(2764.5 -2.87505e-10 2.63774e-14)
(2764.5 -2.85925e-10 2.86995e-14)
(2764.5 -2.85183e-10 2.94488e-14)
(2764.5 -2.84864e-10 2.54633e-14)
(2764.5 -2.87709e-10 2.30447e-14)
(2764.5 -2.89762e-10 2.71618e-14)
(2764.5 -2.89867e-10 2.72309e-14)
(2764.5 -2.89696e-10 2.62424e-14)
(2764.5 -2.87297e-10 2.47669e-14)
(2764.5 -2.85585e-10 2.65796e-14)
(2764.5 -2.8013e-10 2.2852e-14)
(2764.5 -2.76523e-10 2.2031e-14)
(2764.5 -2.72982e-10 2.36342e-14)
(2764.5 -2.68914e-10 2.41885e-14)
(2764.5 -2.67929e-10 2.42631e-14)
(2764.5 -2.70253e-10 2.35529e-14)
(2764.5 -2.7276e-10 2.5709e-14)
(2764.5 -2.71653e-10 2.71625e-14)
(2764.5 -2.74016e-10 2.58677e-14)
(2764.5 -2.71492e-10 2.45233e-14)
(2764.5 -2.72454e-10 2.31686e-14)
(2764.5 -2.69443e-10 2.67635e-14)
(2764.5 -2.67296e-10 2.46227e-14)
(2764.5 -2.68793e-10 2.1174e-14)
(2764.5 -2.73732e-10 2.48917e-14)
(2764.5 -2.76972e-10 2.43702e-14)
(2764.5 -2.8036e-10 2.51632e-14)
(2764.5 -2.81434e-10 2.41077e-14)
(2764.5 -2.77272e-10 2.65966e-14)
(2764.5 -2.75903e-10 2.674e-14)
(2764.5 -2.74714e-10 2.55608e-14)
(2764.5 -2.71534e-10 2.7389e-14)
(2764.5 -2.66148e-10 2.46607e-14)
(2764.5 -2.65294e-10 2.59272e-14)
(2764.5 -2.67586e-10 2.22994e-14)
(2764.5 -2.65299e-10 2.40686e-14)
(2764.5 -2.68467e-10 2.72251e-14)
(2764.5 -2.71271e-10 2.45189e-14)
(2764.5 -2.695e-10 2.51467e-14)
(2764.5 -2.71305e-10 2.70544e-14)
(2764.5 -2.81606e-10 2.39379e-14)
(2764.5 -2.83723e-10 2.29408e-14)
(2764.5 -2.83856e-10 2.41796e-14)
(2764.5 -2.88179e-10 2.69686e-14)
(2764.5 -2.92096e-10 2.51384e-14)
(2764.5 -2.94715e-10 2.15957e-14)
(2764.5 -2.95131e-10 2.16172e-14)
(2764.5 -2.98188e-10 2.34886e-14)
(2764.5 -2.96512e-10 2.43e-14)
(2764.5 -2.93739e-10 2.1074e-14)
(2764.5 -2.88585e-10 2.00669e-14)
(2764.5 -2.83807e-10 2.37916e-14)
(2764.5 -2.79499e-10 2.34293e-14)
(2764.5 -2.73667e-10 2.22285e-14)
(2764.5 -2.69206e-10 2.19855e-14)
(2764.5 -2.66293e-10 2.51437e-14)
(2764.5 -2.61951e-10 2.19622e-14)
(2764.5 -2.60099e-10 2.06987e-14)
(2764.5 -2.56248e-10 2.07781e-14)
(2764.5 -2.54634e-10 2.02273e-14)
(2764.5 -2.49549e-10 2.05939e-14)
(2764.5 -2.41391e-10 2.038e-14)
(2764.5 -2.37127e-10 2.03085e-14)
(2764.5 -2.33971e-10 2.0358e-14)
(2764.5 -2.36578e-10 2.03048e-14)
(2764.5 -2.3593e-10 2.166e-14)
(2764.5 -2.33317e-10 2.17982e-14)
(2764.5 -2.28747e-10 2.12774e-14)
(2764.5 -2.28623e-10 2.09602e-14)
(2764.5 -2.27516e-10 1.87212e-14)
(2764.5 -2.29423e-10 1.68101e-14)
(2764.5 -2.29395e-10 2.15263e-14)
(2764.5 -2.27571e-10 2.07227e-14)
(2764.5 -2.33272e-10 2.07215e-14)
(2764.5 -2.37876e-10 2.41327e-14)
(2764.5 -2.38391e-10 2.41372e-14)
(2764.5 -2.41317e-10 2.04211e-14)
(2764.5 -2.47332e-10 1.8897e-14)
(2764.5 -2.60239e-10 1.74233e-14)
(2764.5 -2.721e-10 2.17802e-14)
(2764.5 -2.88507e-10 1.79554e-14)
(2764.5 -2.93196e-10 1.88156e-14)
(2764.5 -2.98755e-10 2.28212e-14)
(2764.5 -3.00554e-10 2.22035e-14)
(2764.5 -3.0336e-10 2.00018e-14)
(2764.5 -3.03378e-10 2.06662e-14)
(2764.5 -3.02963e-10 2.10546e-14)
(2764.5 -3.0505e-10 2.16378e-14)
(2764.5 -3.03915e-10 2.21824e-14)
(2764.5 -3.07656e-10 2.04054e-14)
(2764.5 -3.09814e-10 1.73535e-14)
(2764.5 -3.1217e-10 2.46129e-14)
(2764.5 -3.1269e-10 2.39508e-14)
(2764.5 -3.1534e-10 2.01036e-14)
(2764.5 -3.11859e-10 2.10023e-14)
(2764.5 -2.96685e-10 2.13029e-14)
(2764.5 -2.86678e-10 2.0113e-14)
(2764.5 -2.73522e-10 2.15195e-14)
(2764.5 -2.62176e-10 2.05249e-14)
(2764.5 -2.55748e-10 1.81629e-14)
(2764.5 -2.4543e-10 1.83713e-14)
(2764.5 -3.60624e-10 3.33049e-14)
(2764.5 -3.68547e-10 3.80586e-14)
(2764.5 -3.71035e-10 3.56205e-14)
(2764.5 -3.72361e-10 3.44605e-14)
(2764.5 -3.73748e-10 3.79207e-14)
(2764.5 -3.74223e-10 3.62692e-14)
(2764.5 -3.73767e-10 3.38187e-14)
(2764.5 -3.69152e-10 3.76805e-14)
(2764.5 -3.65483e-10 3.8627e-14)
(2764.5 -3.62685e-10 3.89691e-14)
(2764.5 -3.61779e-10 3.60116e-14)
(2764.5 -3.64077e-10 3.49338e-14)
(2764.5 -3.66444e-10 3.4984e-14)
(2764.5 -3.67764e-10 3.3666e-14)
(2764.5 -3.65896e-10 3.05181e-14)
(2764.5 -3.6756e-10 3.63812e-14)
(2764.5 -3.68969e-10 3.33307e-14)
(2764.5 -3.66987e-10 3.73584e-14)
(2764.5 -3.63881e-10 3.63032e-14)
(2764.5 -3.61253e-10 3.36505e-14)
(2764.5 -3.56692e-10 3.32776e-14)
(2764.5 -3.54778e-10 3.32007e-14)
(2764.5 -3.54971e-10 3.40535e-14)
(2764.5 -3.562e-10 3.6661e-14)
(2764.5 -3.55269e-10 3.69818e-14)
(2764.5 -3.56367e-10 3.31114e-14)
(2764.5 -3.56409e-10 3.5399e-14)
(2764.5 -3.57497e-10 2.92854e-14)
(2764.5 -3.53306e-10 2.8434e-14)
(2764.5 -3.49075e-10 3.1284e-14)
(2764.5 -3.48195e-10 3.09924e-14)
(2764.5 -3.48281e-10 3.12371e-14)
(2764.5 -3.52702e-10 3.1004e-14)
(2764.5 -3.53213e-10 3.14789e-14)
(2764.5 -3.52779e-10 3.20127e-14)
(2764.5 -3.54379e-10 3.08157e-14)
(2764.5 -3.49464e-10 3.31231e-14)
(2764.5 -3.48702e-10 3.48284e-14)
(2764.5 -3.43572e-10 2.93421e-14)
(2764.5 -3.37052e-10 2.85499e-14)
(2764.5 -3.36719e-10 3.25518e-14)
(2764.5 -3.34554e-10 3.35576e-14)
(2764.5 -3.29529e-10 3.03607e-14)
(2764.5 -3.2504e-10 3.00256e-14)
(2764.5 -3.1991e-10 3.22847e-14)
(2764.5 -3.19061e-10 3.25952e-14)
(2764.5 -3.17554e-10 3.15748e-14)
(2764.5 -3.24067e-10 3.31439e-14)
(2764.5 -3.23377e-10 3.00983e-14)
(2764.5 -3.22838e-10 3.05656e-14)
(2764.5 -3.232e-10 2.98243e-14)
(2764.5 -3.32319e-10 2.85447e-14)
(2764.5 -3.35459e-10 2.63281e-14)
(2764.5 -3.45496e-10 3.2325e-14)
(2764.5 -3.52186e-10 3.1105e-14)
(2764.5 -3.54332e-10 2.96311e-14)
(2764.5 -3.5811e-10 2.93666e-14)
(2764.5 -3.61572e-10 2.98263e-14)
(2764.5 -3.65902e-10 2.97343e-14)
(2764.5 -3.67575e-10 2.78586e-14)
(2764.5 -3.69433e-10 2.69998e-14)
(2764.5 -3.69924e-10 2.98779e-14)
(2764.5 -3.71362e-10 2.86704e-14)
(2764.5 -3.72488e-10 2.74567e-14)
(2764.5 -3.7307e-10 2.98747e-14)
(2764.5 -3.74944e-10 2.95893e-14)
(2764.5 -3.7576e-10 2.5802e-14)
(2764.5 -3.75945e-10 2.45572e-14)
(2764.5 -3.77898e-10 2.41027e-14)
(2764.5 -3.71989e-10 2.50371e-14)
(2764.5 -3.70422e-10 2.86101e-14)
(2764.5 -3.69952e-10 2.58154e-14)
(2764.5 -3.68628e-10 2.80261e-14)
(2764.5 -3.66764e-10 2.81455e-14)
(2764.5 -3.63649e-10 2.65374e-14)
(2764.5 -3.61241e-10 2.79191e-14)
(2764.5 -3.62252e-10 2.72721e-14)
(2764.5 -3.65457e-10 2.76221e-14)
(2764.5 -3.65196e-10 2.84623e-14)
(2764.5 -3.60194e-10 2.79175e-14)
(2764.5 -3.57075e-10 2.91678e-14)
(2764.5 -3.50477e-10 3.04717e-14)
(2764.5 -3.39797e-10 2.6634e-14)
(2764.5 -3.259e-10 2.40816e-14)
(2764.5 -3.22877e-10 2.40093e-14)
(2764.5 -3.17775e-10 2.78324e-14)
(2764.5 -3.18371e-10 2.74764e-14)
(2764.5 -3.19744e-10 2.72701e-14)
(2764.5 -3.23687e-10 2.78406e-14)
(2764.5 -3.23655e-10 2.55455e-14)
(2764.5 -3.19886e-10 2.51518e-14)
(2764.5 -3.14356e-10 2.87775e-14)
(2764.5 -3.08151e-10 2.73682e-14)
(2764.5 -3.01497e-10 2.64748e-14)
(2764.5 -2.91642e-10 2.65543e-14)
(2764.5 -2.79819e-10 2.49623e-14)
(2764.5 -2.73052e-10 2.51756e-14)
(2764.5 -2.67778e-10 2.76222e-14)
(2764.5 -2.6595e-10 2.54034e-14)
(2764.5 -2.70383e-10 2.43069e-14)
(2764.5 -2.8115e-10 2.78641e-14)
(2764.5 -2.82994e-10 2.4099e-14)
(2764.5 -2.90252e-10 2.53107e-14)
(2764.5 -2.98779e-10 2.74158e-14)
(2764.5 -3.05633e-10 2.54635e-14)
(2764.5 -3.12556e-10 2.54791e-14)
(2764.5 -3.18997e-10 2.70074e-14)
(2764.5 -4.39666e-10 4.6185e-14)
(2764.5 -4.44538e-10 4.26939e-14)
(2764.5 -4.46182e-10 4.40097e-14)
(2764.5 -4.46118e-10 4.38736e-14)
(2764.5 -4.48238e-10 4.42564e-14)
(2764.5 -4.49497e-10 4.50008e-14)
(2764.5 -4.51166e-10 4.86533e-14)
(2764.5 -4.50744e-10 4.62924e-14)
(2764.5 -4.50211e-10 4.67061e-14)
(2764.5 -4.47935e-10 4.54898e-14)
(2764.5 -4.47005e-10 4.25447e-14)
(2764.5 -4.47026e-10 4.38724e-14)
(2764.5 -4.47773e-10 4.38165e-14)
(2764.5 -4.49627e-10 4.34197e-14)
(2764.5 -4.48411e-10 4.6641e-14)
(2764.5 -4.42965e-10 4.73885e-14)
(2764.5 -4.40659e-10 3.99955e-14)
(2764.5 -4.4229e-10 4.12012e-14)
(2764.5 -4.43724e-10 4.04069e-14)
(2764.5 -4.43569e-10 3.96867e-14)
(2764.5 -4.39778e-10 4.05899e-14)
(2764.5 -4.33518e-10 4.22739e-14)
(2764.5 -4.28317e-10 4.38276e-14)
(2764.5 -4.26842e-10 4.3285e-14)
(2764.5 -4.25049e-10 3.84847e-14)
(2764.5 -4.25012e-10 3.78791e-14)
(2764.5 -4.25655e-10 3.73637e-14)
(2764.5 -4.30919e-10 3.5411e-14)
(2764.5 -4.32923e-10 4.00856e-14)
(2764.5 -4.3351e-10 3.83568e-14)
(2764.5 -4.35118e-10 3.89753e-14)
(2764.5 -4.33224e-10 3.82944e-14)
(2764.5 -4.35389e-10 4.03028e-14)
(2764.5 -4.43362e-10 3.75276e-14)
(2764.5 -4.44908e-10 4.11352e-14)
(2764.5 -4.4346e-10 4.17635e-14)
(2764.5 -4.45336e-10 4.00421e-14)
(2764.5 -4.49249e-10 3.87405e-14)
(2764.5 -4.50593e-10 3.6487e-14)
(2764.5 -4.50961e-10 3.9426e-14)
(2764.5 -4.52236e-10 3.92984e-14)
(2764.5 -4.50599e-10 3.78455e-14)
(2764.5 -4.54175e-10 3.91828e-14)
(2764.5 -4.52425e-10 3.70967e-14)
(2764.5 -4.50368e-10 4.03204e-14)
(2764.5 -4.48587e-10 3.96713e-14)
(2764.5 -4.44353e-10 3.74882e-14)
(2764.5 -4.41787e-10 3.83182e-14)
(2764.5 -4.38309e-10 3.67282e-14)
(2764.5 -4.3953e-10 3.88704e-14)
(2764.5 -4.36373e-10 3.96231e-14)
(2764.5 -4.31729e-10 3.33481e-14)
(2764.5 -4.29347e-10 3.47511e-14)
(2764.5 -4.33182e-10 3.73134e-14)
(2764.5 -4.35878e-10 4.11637e-14)
(2764.5 -4.38823e-10 4.11116e-14)
(2764.5 -4.37734e-10 3.96162e-14)
(2764.5 -4.32702e-10 3.70457e-14)
(2764.5 -4.29279e-10 3.34441e-14)
(2764.5 -4.26008e-10 3.52471e-14)
(2764.5 -4.2422e-10 3.53097e-14)
(2764.5 -4.1918e-10 3.41075e-14)
(2764.5 -4.15465e-10 3.50929e-14)
(2764.5 -4.06825e-10 3.55927e-14)
(2764.5 -4.01638e-10 3.21043e-14)
(2764.5 -3.98076e-10 3.13277e-14)
(2764.5 -3.95889e-10 3.82075e-14)
(2764.5 -3.91529e-10 3.86204e-14)
(2764.5 -3.88289e-10 3.04395e-14)
(2764.5 -3.79365e-10 3.32624e-14)
(2764.5 -3.70717e-10 3.34657e-14)
(2764.5 -3.66197e-10 3.00393e-14)
(2764.5 -3.64715e-10 3.02893e-14)
(2764.5 -3.59879e-10 3.34982e-14)
(2764.5 -3.53283e-10 3.31796e-14)
(2764.5 -3.48277e-10 3.36549e-14)
(2764.5 -3.4444e-10 3.37257e-14)
(2764.5 -3.45991e-10 3.46813e-14)
(2764.5 -3.49825e-10 3.66502e-14)
(2764.5 -3.62019e-10 3.29852e-14)
(2764.5 -3.73675e-10 2.97107e-14)
(2764.5 -3.81888e-10 3.28476e-14)
(2764.5 -4.02009e-10 3.5154e-14)
(2764.5 -4.08781e-10 3.46194e-14)
(2764.5 -4.15224e-10 3.41553e-14)
(2764.5 -4.24829e-10 3.31982e-14)
(2764.5 -4.35339e-10 3.33623e-14)
(2764.5 -4.48123e-10 3.37903e-14)
(2764.5 -4.58049e-10 3.65475e-14)
(2764.5 -4.66512e-10 3.15691e-14)
(2764.5 -4.85836e-10 3.45395e-14)
(2764.5 -4.98861e-10 3.17914e-14)
(2764.5 -5.11579e-10 3.14732e-14)
(2764.5 -5.18953e-10 3.38809e-14)
(2764.5 -5.27644e-10 3.44116e-14)
(2764.5 -5.34941e-10 3.04331e-14)
(2764.5 -5.30244e-10 3.07279e-14)
(2764.5 -5.28645e-10 3.22678e-14)
(2764.5 -5.21699e-10 3.09749e-14)
(2764.5 -5.15581e-10 2.95701e-14)
(2764.5 -5.16987e-10 3.34941e-14)
(2764.5 -5.12837e-10 3.29313e-14)
(2764.5 -5.01178e-10 3.37532e-14)
(2764.5 -4.90356e-10 3.27325e-14)
(2764.5 -4.6874e-10 3.01173e-14)
(2764.5 -4.49828e-10 2.94271e-14)
(2764.5 -4.15785e-10 3.16622e-14)
(2764.5 -5.43419e-10 5.26067e-14)
(2764.5 -5.3549e-10 5.3307e-14)
(2764.5 -5.28482e-10 5.34569e-14)
(2764.5 -5.21717e-10 4.94718e-14)
(2764.5 -5.20004e-10 4.89802e-14)
(2764.5 -5.2127e-10 5.00306e-14)
(2764.5 -5.18051e-10 4.97994e-14)
(2764.5 -5.15706e-10 5.60178e-14)
(2764.5 -5.21184e-10 5.53131e-14)
(2764.5 -5.31638e-10 5.24275e-14)
(2764.5 -5.3484e-10 4.87646e-14)
(2764.5 -5.38078e-10 4.972e-14)
(2764.5 -5.39818e-10 5.10654e-14)
(2764.5 -5.39718e-10 4.98606e-14)
(2764.5 -5.41307e-10 5.07019e-14)
(2764.5 -5.41364e-10 5.11506e-14)
(2764.5 -5.4077e-10 5.12113e-14)
(2764.5 -5.43383e-10 5.18468e-14)
(2764.5 -5.464e-10 5.07056e-14)
(2764.5 -5.45892e-10 5.0473e-14)
(2764.5 -5.44355e-10 4.88683e-14)
(2764.5 -5.45491e-10 4.90479e-14)
(2764.5 -5.47744e-10 5.21085e-14)
(2764.5 -5.43549e-10 4.53806e-14)
(2764.5 -5.40176e-10 4.51354e-14)
(2764.5 -5.38524e-10 4.82964e-14)
(2764.5 -5.3533e-10 4.90409e-14)
(2764.5 -5.33148e-10 4.80952e-14)
(2764.5 -5.26465e-10 4.81236e-14)
(2764.5 -5.18834e-10 4.70501e-14)
(2764.5 -5.15281e-10 4.75516e-14)
(2764.5 -5.12719e-10 4.67933e-14)
(2764.5 -5.0654e-10 4.80309e-14)
(2764.5 -5.01413e-10 5.13705e-14)
(2764.5 -4.97241e-10 4.89305e-14)
(2764.5 -4.91131e-10 4.71332e-14)
(2764.5 -4.90783e-10 4.48028e-14)
(2764.5 -4.93206e-10 4.5063e-14)
(2764.5 -4.9078e-10 4.54675e-14)
(2764.5 -4.82493e-10 4.506e-14)
(2764.5 -4.76797e-10 4.52429e-14)
(2764.5 -4.75867e-10 4.59179e-14)
(2764.5 -4.71922e-10 4.39254e-14)
(2764.5 -4.69363e-10 4.28231e-14)
(2764.5 -4.65548e-10 4.48468e-14)
(2764.5 -4.64008e-10 4.52623e-14)
(2764.5 -4.6328e-10 4.55305e-14)
(2764.5 -4.61845e-10 4.45511e-14)
(2764.5 -4.60118e-10 4.71698e-14)
(2764.5 -4.56441e-10 4.71002e-14)
(2764.5 -4.55888e-10 4.50829e-14)
(2764.5 -4.54019e-10 4.37381e-14)
(2764.5 -4.54965e-10 4.50742e-14)
(2764.5 -4.60598e-10 4.41913e-14)
(2764.5 -4.63043e-10 4.78438e-14)
(2764.5 -4.64574e-10 4.43136e-14)
(2764.5 -4.6651e-10 3.86332e-14)
(2764.5 -4.79969e-10 4.5622e-14)
(2764.5 -4.91487e-10 4.52206e-14)
(2764.5 -5.0641e-10 4.22834e-14)
(2764.5 -5.2354e-10 4.08346e-14)
(2764.5 -5.32688e-10 4.49137e-14)
(2764.5 -5.40896e-10 4.10439e-14)
(2764.5 -5.57789e-10 4.12376e-14)
(2764.5 -5.66291e-10 4.20932e-14)
(2764.5 -5.67777e-10 3.8808e-14)
(2764.5 -5.715e-10 4.638e-14)
(2764.5 -5.73566e-10 4.38898e-14)
(2764.5 -5.75114e-10 4.36247e-14)
(2764.5 -5.76322e-10 4.34764e-14)
(2764.5 -5.79644e-10 4.22327e-14)
(2764.5 -5.84977e-10 4.26192e-14)
(2764.5 -5.91322e-10 3.88513e-14)
(2764.5 -5.97567e-10 3.74656e-14)
(2764.5 -5.99481e-10 4.05763e-14)
(2764.5 -6.03356e-10 4.02729e-14)
(2764.5 -6.02637e-10 3.97742e-14)
(2764.5 -5.98654e-10 4.14394e-14)
(2764.5 -5.8926e-10 3.8433e-14)
(2764.5 -5.77718e-10 3.88353e-14)
(2764.5 -5.66303e-10 3.92211e-14)
(2764.5 -5.55318e-10 3.94798e-14)
(2764.5 -5.36217e-10 3.79396e-14)
(2764.5 -5.21404e-10 3.53318e-14)
(2764.5 -5.08564e-10 4.03612e-14)
(2764.5 -4.83958e-10 3.98892e-14)
(2764.5 -4.75436e-10 3.94751e-14)
(2764.5 -4.58731e-10 3.89303e-14)
(2764.5 -4.32404e-10 3.69238e-14)
(2764.5 -4.14558e-10 3.75577e-14)
(2764.5 -3.98947e-10 3.76104e-14)
(2764.5 -3.90695e-10 3.84011e-14)
(2764.5 -3.80687e-10 4.01917e-14)
(2764.5 -3.76277e-10 3.38083e-14)
(2764.5 -3.72342e-10 3.74293e-14)
(2764.5 -3.7124e-10 4.07223e-14)
(2764.5 -3.64389e-10 3.79833e-14)
(2764.5 -3.61135e-10 3.96539e-14)
(2764.5 -3.58054e-10 3.91428e-14)
(2764.5 -3.47708e-10 3.72062e-14)
(2764.5 -3.45611e-10 3.65708e-14)
(2764.5 -3.45112e-10 3.62305e-14)
(2764.5 -3.44808e-10 3.81137e-14)
(2764.5 -3.50087e-10 3.66066e-14)
(2764.5 -3.56431e-10 3.85306e-14)
(2764.5 -3.79636e-10 3.94634e-14)
(2764.5 -4.16496e-10 3.64836e-14)
(2764.5 -4.44678e-10 3.98558e-14)
(2764.5 -4.81175e-10 3.51721e-14)
(2764.5 -5.31662e-10 3.76337e-14)
(2764.5 -6.34659e-10 5.68345e-14)
(2764.5 -6.35214e-10 5.86363e-14)
(2764.5 -6.32495e-10 5.9445e-14)
(2764.5 -6.28703e-10 5.73094e-14)
(2764.5 -6.23034e-10 5.83755e-14)
(2764.5 -6.18638e-10 5.99052e-14)
(2764.5 -6.15914e-10 6.18542e-14)
(2764.5 -6.10952e-10 5.73048e-14)
(2764.5 -6.08781e-10 6.12656e-14)
(2764.5 -6.10733e-10 5.73803e-14)
(2764.5 -6.11237e-10 5.55196e-14)
(2764.5 -6.09377e-10 5.96571e-14)
(2764.5 -6.07661e-10 5.87451e-14)
(2764.5 -6.05137e-10 5.78023e-14)
(2764.5 -6.0297e-10 5.46762e-14)
(2764.5 -6.00255e-10 5.22654e-14)
(2764.5 -5.90177e-10 5.99495e-14)
(2764.5 -5.83528e-10 5.98881e-14)
(2764.5 -5.83962e-10 6.04402e-14)
(2764.5 -5.83235e-10 5.61008e-14)
(2764.5 -5.8301e-10 5.61544e-14)
(2764.5 -5.83625e-10 5.58895e-14)
(2764.5 -5.87597e-10 5.7514e-14)
(2764.5 -5.91783e-10 5.93208e-14)
(2764.5 -5.92686e-10 5.62137e-14)
(2764.5 -5.96447e-10 5.57557e-14)
(2764.5 -6.01744e-10 5.70651e-14)
(2764.5 -6.05254e-10 5.96568e-14)
(2764.5 -6.0795e-10 5.76795e-14)
(2764.5 -6.10395e-10 5.24909e-14)
(2764.5 -6.12964e-10 5.04849e-14)
(2764.5 -6.16855e-10 5.5273e-14)
(2764.5 -6.19795e-10 5.75904e-14)
(2764.5 -6.22302e-10 5.16971e-14)
(2764.5 -6.25993e-10 5.03213e-14)
(2764.5 -6.28684e-10 5.43562e-14)
(2764.5 -6.33328e-10 5.33212e-14)
(2764.5 -6.44475e-10 5.48067e-14)
(2764.5 -6.4833e-10 5.18257e-14)
(2764.5 -6.53406e-10 5.53114e-14)
(2764.5 -6.52417e-10 5.48387e-14)
(2764.5 -6.5373e-10 5.3288e-14)
(2764.5 -6.56719e-10 5.15986e-14)
(2764.5 -6.57292e-10 5.35378e-14)
(2764.5 -6.5629e-10 5.32554e-14)
(2764.5 -6.58742e-10 5.28379e-14)
(2764.5 -6.58659e-10 5.44827e-14)
(2764.5 -6.57859e-10 5.58889e-14)
(2764.5 -6.57429e-10 5.24507e-14)
(2764.5 -6.60038e-10 5.27703e-14)
(2764.5 -6.55735e-10 5.17292e-14)
(2764.5 -6.48653e-10 5.23895e-14)
(2764.5 -6.36884e-10 4.97285e-14)
(2764.5 -6.28594e-10 5.21305e-14)
(2764.5 -6.1445e-10 5.26424e-14)
(2764.5 -6.03775e-10 4.83014e-14)
(2764.5 -5.92734e-10 5.2097e-14)
(2764.5 -5.75383e-10 4.89664e-14)
(2764.5 -5.60537e-10 4.92776e-14)
(2764.5 -5.49488e-10 5.30404e-14)
(2764.5 -5.39646e-10 4.87303e-14)
(2764.5 -5.29372e-10 5.11234e-14)
(2764.5 -5.19644e-10 4.98543e-14)
(2764.5 -5.1723e-10 4.92255e-14)
(2764.5 -5.16312e-10 4.61629e-14)
(2764.5 -5.15174e-10 4.84788e-14)
(2764.5 -5.06168e-10 5.11538e-14)
(2764.5 -5.01296e-10 4.54377e-14)
(2764.5 -4.98842e-10 4.78396e-14)
(2764.5 -4.92648e-10 5.20012e-14)
(2764.5 -4.77135e-10 4.86775e-14)
(2764.5 -4.66592e-10 4.6802e-14)
(2764.5 -4.56679e-10 4.67835e-14)
(2764.5 -4.48143e-10 4.93861e-14)
(2764.5 -4.37997e-10 4.62466e-14)
(2764.5 -4.33452e-10 4.45282e-14)
(2764.5 -4.33475e-10 4.75804e-14)
(2764.5 -4.31837e-10 4.68666e-14)
(2764.5 -4.33994e-10 4.60773e-14)
(2764.5 -4.39305e-10 4.47498e-14)
(2764.5 -4.49613e-10 4.39284e-14)
(2764.5 -4.69772e-10 4.27745e-14)
(2764.5 -4.91914e-10 4.53489e-14)
(2764.5 -5.01784e-10 4.31401e-14)
(2764.5 -5.27456e-10 4.48145e-14)
(2764.5 -5.54684e-10 4.53694e-14)
(2764.5 -5.792e-10 4.80078e-14)
(2764.5 -6.13104e-10 4.13673e-14)
(2764.5 -6.47144e-10 4.30515e-14)
(2764.5 -6.6579e-10 4.22051e-14)
(2764.5 -6.79835e-10 4.5355e-14)
(2764.5 -6.88737e-10 4.26164e-14)
(2764.5 -6.91223e-10 4.5132e-14)
(2764.5 -7.12386e-10 4.24846e-14)
(2764.5 -7.29877e-10 4.62587e-14)
(2764.5 -7.52457e-10 4.5121e-14)
(2764.5 -7.71659e-10 4.39867e-14)
(2764.5 -7.80633e-10 4.46454e-14)
(2764.5 -8.08715e-10 4.28805e-14)
(2764.5 -8.27431e-10 4.50811e-14)
(2764.5 -8.37831e-10 4.58362e-14)
(2764.5 -8.35228e-10 4.59879e-14)
(2764.5 -8.27091e-10 4.53555e-14)
(2764.5 -8.05468e-10 4.19701e-14)
(2764.5 -7.68237e-10 4.39165e-14)
(2764.5 -7.32546e-10 4.13158e-14)
(2764.5 -6.93477e-10 4.20228e-14)
(2764.5 -6.48368e-10 4.31066e-14)
(2764.5 -5.86034e-10 4.37559e-14)
(2764.5 -5.28503e-10 4.08806e-14)
(2764.5 -6.91923e-10 7.14372e-14)
(2764.5 -6.95899e-10 6.82641e-14)
(2764.5 -6.9538e-10 6.65417e-14)
(2764.5 -6.9672e-10 6.8701e-14)
(2764.5 -6.97987e-10 7.02047e-14)
(2764.5 -6.98192e-10 6.78454e-14)
(2764.5 -6.97242e-10 6.67527e-14)