/*--------------------------------*- C++ -*----------------------------------*\
| =========                 |                                                 |
| \\      /  F ield         | OpenFOAM: The Open Source CFD Toolbox           |
|  \\    /   O peration     | Version:  v1706                                 |
|   \\  /    A nd           | Web:      www.OpenFOAM.com                      |
|    \\/     M anipulation  |                                                 |
\*---------------------------------------------------------------------------*/
FoamFile
{
    version     2.0;
    format      ascii;
    class       volScalarField;
    location    "2e-05";
    object      wallHeatFlux;
}
// * * * * * * * * * * * * * * * * * * * * * * * * * * * * * * * * * * * * * //

dimensions      [1 0 -3 0 0 0 0];


internalField   uniform 0;

boundaryField
{
    cone
    {
        type            calculated;
        value           nonuniform List<scalar> 
181
(
127707
126316
124945
123595
122265
120956
119669
118403
117159
115938
114738
113561
112407
111275
110167
109081
108019
106980
105964
104971
104002
103055
102131
101230
100350
99492.6
98656.8
97843
97051.6
96283.3
95539.1
94820.3
94127.9
93462.7
92825.1
92214.4
91629.1
91066.2
90521.7
89990.5
89467
88945.4
88420.6
87888.6
87347.3
86797
86240.4
85683.2
85133.1
84599.6
84093.8
83627.3
83212
82860.7
82585.8
82395.7
82291.3
82268.2
82321.6
82454.2
82666.6
82947.9
83283.1
83656
84046.3
84429.7
84777
85056.3
85241
85296.8
85178.6
84846.1
84270.3
83428.7
82307.4
80907.4
79245.9
77358.2
75296.7
73127.4
70924.9
68766.1
66724.6
64866.4
63249.7
61924.9
60927.1
60290.5
60046.1
60215.4
60822.7
61885.2
63418
65426.3
67907.9
70849.2
74223.2
77985.9
82074.1
86403.9
90870.8
95353
99716.2
103823
107542
110759
113375
115314
116516
116918
116482
115165
112946
109827
105838
101052
95582
89582.2
83239
76755.2
70331.8
64148.7
58351
53041.6
48280.1
44088.6
40459.5
37364.5
34763.6
32611.2
30863.3
29481.4
28427.5
27672.3
27192
26963.9
26972.4
27206
27656.2
28317.6
29185.9
30258.3
31533.6
33010.8
34688.4
36564.2
38634.2
40892
43328.4
45930.6
48682
51562.4
54547.9
57611.9
60726
63860.6
66986.6
70075.4
73100.1
76035.4
78857.8
81545.6
84078.8
86438.9
88608.2
90569.4
92306
93802.5
95040.8
96001.8
96667.1
97017.2
97035.5
96705.2
96012.4
94949.1
93512.1
91705.8
89544.3
87051.6
84263.4
)
;
    }
    inlet
    {
        type            calculated;
        value           uniform 0;
    }
    rWedge
    {
        type            wedge;
    }
    lWedge
    {
        type            wedge;
    }
    outlet
    {
        type            calculated;
        value           nonuniform 0();
    }
    procBoundary1to0
    {
        type            processor;
        value           uniform 0;
    }
    procBoundary1to2
    {
        type            processor;
        value           uniform 0;
    }
}


// ************************************************************************* //
