/*--------------------------------*- C++ -*----------------------------------*\
| =========                 |                                                 |
| \\      /  F ield         | OpenFOAM: The Open Source CFD Toolbox           |
|  \\    /   O peration     | Version:  v1706                                 |
|   \\  /    A nd           | Web:      www.OpenFOAM.com                      |
|    \\/     M anipulation  |                                                 |
\*---------------------------------------------------------------------------*/
FoamFile
{
    version     2.0;
    format      ascii;
    class       volScalarField;
    location    "3.6e-05";
    object      kappave;
}
// * * * * * * * * * * * * * * * * * * * * * * * * * * * * * * * * * * * * * //

dimensions      [1 1 -3 -1 0 0 0];


internalField   nonuniform List<scalar> 
30038
(
1.46038e-10
1.46038e-10
1.46038e-10
1.46038e-10
1.46038e-10
1.46038e-10
1.46038e-10
1.46038e-10
1.46038e-10
1.46038e-10
1.46038e-10
1.46038e-10
1.46038e-10
1.46038e-10
1.46038e-10
1.46038e-10
1.46038e-10
1.46038e-10
1.46038e-10
1.46038e-10
1.46038e-10
1.46038e-10
1.46038e-10
1.46038e-10
1.46038e-10
1.46038e-10
1.46038e-10
1.46038e-10
1.46038e-10
1.46038e-10
1.46038e-10
1.46038e-10
1.46038e-10
1.46038e-10
1.46038e-10
1.46038e-10
1.46038e-10
1.46038e-10
1.46038e-10
1.46038e-10
1.46038e-10
1.46038e-10
1.46038e-10
1.46038e-10
1.46038e-10
1.46038e-10
1.46038e-10
1.46038e-10
1.46038e-10
1.46038e-10
1.46038e-10
1.46038e-10
1.46038e-10
1.46038e-10
1.46038e-10
1.46038e-10
1.46038e-10
1.46038e-10
1.46038e-10
1.46038e-10
1.46038e-10
1.46038e-10
1.46038e-10
1.46038e-10
1.46038e-10
1.46038e-10
1.46038e-10
1.46038e-10
1.46038e-10
1.46038e-10
1.46038e-10
1.46038e-10
1.46038e-10
1.46038e-10
1.46038e-10
1.46038e-10
1.46038e-10
1.46038e-10
1.46038e-10
1.46038e-10
1.46038e-10
1.46038e-10
1.46038e-10
1.46038e-10
1.46038e-10
1.46038e-10
1.46038e-10
1.46038e-10
1.46038e-10
1.46038e-10
1.46038e-10
1.46038e-10
1.46038e-10
1.46038e-10
1.46038e-10
1.46038e-10
1.46038e-10
1.46038e-10
1.46038e-10
1.46038e-10
1.46038e-10
1.46038e-10
1.46038e-10
1.46038e-10
1.46038e-10
1.46038e-10
1.46038e-10
1.46038e-10
1.46038e-10
1.46038e-10
1.46038e-10
1.46038e-10
1.46038e-10
1.46038e-10
1.46038e-10
1.46038e-10
1.46038e-10
1.46038e-10
1.46038e-10
1.46038e-10
1.46038e-10
1.46038e-10
1.46038e-10
1.46038e-10
1.46038e-10
1.46038e-10
1.46038e-10
1.46038e-10
1.46038e-10
1.46038e-10
1.46038e-10
1.46038e-10
1.46038e-10
1.46038e-10
1.46038e-10
1.46038e-10
1.46038e-10
1.46038e-10
1.46038e-10
1.46038e-10
1.46038e-10
1.46038e-10
1.46038e-10
1.46038e-10
1.46038e-10
1.46038e-10
1.46038e-10
1.46038e-10
1.46038e-10
1.46038e-10
1.46038e-10
1.46038e-10
1.46038e-10
1.46038e-10
1.46038e-10
1.46038e-10
1.46038e-10
1.46038e-10
1.46038e-10
1.46038e-10
1.46038e-10
1.46038e-10
1.46038e-10
1.46038e-10
1.46038e-10
1.46038e-10
1.46038e-10
1.46038e-10
1.46038e-10
1.46038e-10
1.46038e-10
1.46038e-10
1.46038e-10
1.46038e-10
1.46038e-10
1.46038e-10
1.46038e-10
1.46038e-10
1.46038e-10
1.46038e-10
1.46038e-10
1.46038e-10
1.46038e-10
1.46038e-10
1.46038e-10
1.46038e-10
1.46038e-10
1.46038e-10
1.46038e-10
1.46038e-10
1.46038e-10
1.46038e-10
1.46038e-10
1.46038e-10
1.46038e-10
1.46038e-10
1.46038e-10
1.46038e-10
1.46038e-10
1.46038e-10
1.46038e-10
1.46038e-10
1.46038e-10
1.46038e-10
1.46038e-10
1.46038e-10
1.46038e-10
1.46038e-10
1.46038e-10
1.46038e-10
1.46038e-10
1.46038e-10
1.46038e-10
1.46038e-10
1.46038e-10
1.46038e-10
1.46038e-10
1.46038e-10
1.46038e-10
1.46038e-10
1.46038e-10
1.46038e-10
1.46038e-10
1.46038e-10
1.46038e-10
1.46038e-10
1.46038e-10
1.46038e-10
1.46038e-10
1.46038e-10
1.46038e-10
1.46038e-10
1.46038e-10
1.46038e-10
1.46038e-10
1.46038e-10
1.46038e-10
1.46038e-10
1.46038e-10
1.46038e-10
1.46038e-10
1.46038e-10
1.46038e-10
1.46038e-10
1.46038e-10
1.46038e-10
1.46038e-10
1.46038e-10
1.46038e-10
1.46038e-10
1.46038e-10
1.46038e-10
1.46038e-10
1.46038e-10
1.46038e-10
1.46038e-10
1.46038e-10
1.46038e-10
1.46038e-10
1.46038e-10
1.46038e-10
1.46038e-10
1.46038e-10
1.46038e-10
1.46038e-10
1.46038e-10
1.46038e-10
1.46038e-10
1.46038e-10
1.46038e-10
1.46038e-10
1.46038e-10
1.46038e-10
1.46038e-10
1.46038e-10
1.46038e-10
1.46038e-10
1.46038e-10
1.46038e-10
1.46038e-10
1.46038e-10
1.46038e-10
1.46038e-10
1.46038e-10
1.46038e-10
1.46038e-10
1.46038e-10
1.46038e-10
1.46038e-10
1.46038e-10
1.46038e-10
1.46038e-10
1.46038e-10
1.46038e-10
1.46038e-10
1.46038e-10
1.46038e-10
1.46038e-10
1.46038e-10
1.46038e-10
1.46038e-10
1.46038e-10
1.46038e-10
1.46038e-10
1.46038e-10
1.46038e-10
1.46038e-10
1.46038e-10
1.46038e-10
1.46038e-10
1.46038e-10
1.46038e-10
1.46038e-10
1.46038e-10
1.46038e-10
1.46038e-10
1.46038e-10
1.46038e-10
1.46038e-10
1.46038e-10
1.46038e-10
1.46038e-10
1.46038e-10
1.46038e-10
1.46038e-10
1.46038e-10
1.46038e-10
1.46038e-10
1.46038e-10
1.46038e-10
1.46038e-10
1.46038e-10
1.46038e-10
1.46038e-10
1.46038e-10
1.46038e-10
1.46038e-10
1.46038e-10
1.46038e-10
1.46038e-10
1.46038e-10
1.46038e-10
1.46038e-10
1.46038e-10
1.46038e-10
1.46038e-10
1.46038e-10
1.46038e-10
1.46038e-10
1.46038e-10
1.46038e-10
1.46038e-10
1.46038e-10
1.46038e-10
1.46038e-10
1.46038e-10
1.46038e-10
1.46038e-10
1.46038e-10
1.46038e-10
1.46038e-10
1.46038e-10
1.46038e-10
1.46038e-10
1.46038e-10
1.46038e-10
1.46038e-10
1.46038e-10
1.46038e-10
1.46038e-10
1.46038e-10
1.46038e-10
1.46038e-10
1.46038e-10
1.46038e-10
1.46038e-10
1.46038e-10
1.46038e-10
1.46038e-10
1.46038e-10
1.46038e-10
1.46038e-10
1.46038e-10
1.46038e-10
1.46038e-10
1.46038e-10
1.46038e-10
1.46038e-10
1.46038e-10
1.46038e-10
1.46038e-10
1.46038e-10
1.46038e-10
1.46038e-10
1.46038e-10
1.46038e-10
1.46038e-10
1.46038e-10
1.46038e-10
1.46038e-10
1.46038e-10
1.46038e-10
1.46038e-10
1.46038e-10
1.46038e-10
1.46038e-10
1.46038e-10
1.46038e-10
1.46038e-10
1.46038e-10
1.46038e-10
1.46038e-10
1.46038e-10
1.46038e-10
1.46038e-10
1.46038e-10
1.46038e-10
1.46038e-10
1.46038e-10
1.46038e-10
1.46038e-10
1.46038e-10
1.46038e-10
1.46038e-10
1.46038e-10
1.46038e-10
1.46038e-10
1.46038e-10
1.46038e-10
1.46038e-10
1.46038e-10
1.46038e-10
1.46038e-10
1.46038e-10
1.46038e-10
1.46038e-10
1.46038e-10
1.46038e-10
1.46038e-10
1.46038e-10
1.46038e-10
1.46038e-10
1.46038e-10
1.46038e-10
1.46038e-10
1.46038e-10
1.46038e-10
1.46038e-10
1.46038e-10
1.46038e-10
1.46038e-10
1.46038e-10
1.46038e-10
1.46038e-10
1.46038e-10
1.46038e-10
1.46038e-10
1.46038e-10
1.46038e-10
1.46038e-10
1.46038e-10
1.46038e-10
1.46038e-10
1.46038e-10
1.46038e-10
1.46038e-10
1.46038e-10
1.46038e-10
1.46038e-10
1.46038e-10
1.46038e-10
1.46038e-10
1.46038e-10
1.46038e-10
1.46038e-10
1.46038e-10
1.46038e-10
1.46038e-10
1.46038e-10
1.46038e-10
1.46038e-10
1.46038e-10
1.46038e-10
1.46038e-10
1.46038e-10
1.46038e-10
1.46038e-10
1.46038e-10
1.46038e-10
1.46038e-10
1.46038e-10
1.46038e-10
1.46038e-10
1.46038e-10
1.46038e-10
1.46038e-10
1.46038e-10
1.46038e-10
1.46038e-10
1.46038e-10
1.46038e-10
1.46038e-10
1.46038e-10
1.46038e-10
1.46038e-10
1.46038e-10
1.46038e-10
1.46038e-10
1.46038e-10
1.46038e-10
1.46038e-10
1.46038e-10
1.46038e-10
1.46038e-10
1.46038e-10
1.46038e-10
1.46038e-10
1.46038e-10
1.46038e-10
1.46038e-10
1.46038e-10
1.46038e-10
1.46038e-10
1.46038e-10
1.46038e-10
1.46038e-10
1.46038e-10
1.46038e-10
1.46038e-10
1.46038e-10
1.46038e-10
1.46038e-10
1.46038e-10
1.46038e-10
1.46038e-10
1.46038e-10
1.46038e-10
1.46038e-10
1.46038e-10
1.46038e-10
1.46038e-10
1.46038e-10
1.46038e-10
1.46038e-10
1.46038e-10
1.46038e-10
1.46038e-10
1.46038e-10
1.46038e-10
1.46038e-10
1.46038e-10
1.46038e-10
1.46038e-10
1.46038e-10
1.46038e-10
1.46038e-10
1.46038e-10
1.46038e-10
1.46038e-10
1.46038e-10
1.46038e-10
1.46038e-10
1.46038e-10
1.46038e-10
1.46038e-10
1.46038e-10
1.46038e-10
1.46038e-10
1.46038e-10
1.46038e-10
1.46038e-10
1.46038e-10
1.46038e-10
1.46038e-10
1.46038e-10
1.46038e-10
1.46038e-10
1.46038e-10
1.46038e-10
1.46038e-10
1.46038e-10
1.46038e-10
1.46038e-10
1.46038e-10
1.46038e-10
1.46038e-10
1.46038e-10
1.46038e-10
1.46038e-10
1.46038e-10
1.46038e-10
1.46038e-10
1.46038e-10
1.46038e-10
1.46038e-10
1.46038e-10
1.46038e-10
1.46038e-10
1.46038e-10
1.46038e-10
1.46038e-10
1.46038e-10
1.46038e-10
1.46038e-10
1.46038e-10
1.46038e-10
1.46038e-10
1.46038e-10
1.46038e-10
1.46038e-10
1.46038e-10
1.46038e-10
1.46038e-10
1.46038e-10
1.46038e-10
1.46038e-10
1.46038e-10
1.46038e-10
1.46038e-10
1.46038e-10
1.46038e-10
1.46038e-10
1.46038e-10
1.46038e-10
1.46038e-10
1.46038e-10
1.46038e-10
1.46038e-10
1.46038e-10
1.46038e-10
1.46038e-10
1.46038e-10
1.46038e-10
1.46038e-10
1.46038e-10
1.46038e-10
1.46038e-10
1.46038e-10
1.46038e-10
1.46038e-10
1.46038e-10
1.46038e-10
1.46038e-10
1.46038e-10
1.46038e-10
1.46038e-10
1.46038e-10
1.46038e-10
1.46038e-10
1.46038e-10
1.46038e-10
1.46038e-10
1.46038e-10
1.46038e-10
1.46038e-10
1.46038e-10
1.46038e-10
1.46038e-10
1.46038e-10
1.46038e-10
1.46038e-10
1.46038e-10
1.46038e-10
1.46038e-10
1.46038e-10
1.46038e-10
1.46038e-10
1.46038e-10
1.46038e-10
1.46038e-10
1.46038e-10
1.46038e-10
1.46038e-10
1.46038e-10
1.46038e-10
1.46038e-10
1.46038e-10
1.46038e-10
1.46038e-10
1.46038e-10
1.46038e-10
1.46038e-10
1.46038e-10
1.46038e-10
1.46038e-10
1.46038e-10
1.46038e-10
1.46038e-10
1.46038e-10
1.46038e-10
1.46038e-10
1.46038e-10
1.46038e-10
1.46038e-10
1.46038e-10
1.46038e-10
1.46038e-10
1.46038e-10
1.46038e-10
1.46038e-10
1.46038e-10
1.46038e-10
1.46038e-10
1.46038e-10
1.46038e-10
1.46038e-10
1.46038e-10
1.46038e-10
1.46038e-10
1.46038e-10
1.46038e-10
1.46038e-10
1.46038e-10
1.46038e-10
1.46038e-10
1.46038e-10
1.46038e-10
1.46038e-10
1.46038e-10
1.46038e-10
1.46038e-10
1.46038e-10
1.46038e-10
1.46038e-10
1.46038e-10
1.46038e-10
1.46038e-10
1.46038e-10
1.46038e-10
1.46038e-10
1.46038e-10
1.46038e-10
1.46038e-10
1.46038e-10
1.46038e-10
1.46038e-10
1.46038e-10
1.46038e-10
1.46038e-10
1.46038e-10
1.46038e-10
1.46038e-10
1.46038e-10
1.46038e-10
1.46038e-10
1.46038e-10
1.46038e-10
1.46038e-10
1.46038e-10
1.46038e-10
1.46038e-10
1.46038e-10
1.46038e-10
1.46038e-10
1.46038e-10
1.46038e-10
1.46038e-10
1.46038e-10
1.46038e-10
1.46038e-10
1.46038e-10
1.46038e-10
1.46038e-10
1.46038e-10
1.46038e-10
1.46038e-10
1.46038e-10
1.46038e-10
1.46038e-10
1.46038e-10
1.46038e-10
1.46038e-10
1.46038e-10
1.46038e-10
1.46038e-10
1.46038e-10
1.46038e-10
1.46038e-10
1.46038e-10
1.46038e-10
1.46038e-10
1.46038e-10
1.46038e-10
1.46038e-10
1.46038e-10
1.46038e-10
1.46038e-10
1.46038e-10
1.46038e-10
1.46038e-10
1.46038e-10
1.46038e-10
1.46038e-10
1.46038e-10
1.46038e-10
1.46038e-10
1.46038e-10
1.46038e-10
1.46038e-10
1.46038e-10
1.46038e-10
1.46038e-10
1.46038e-10
1.46038e-10
1.46038e-10
1.46038e-10
1.46038e-10
1.46038e-10
1.46038e-10
1.46038e-10
1.46038e-10
1.46038e-10
1.46038e-10
1.46038e-10
1.46038e-10
1.46038e-10
1.46038e-10
1.46038e-10
1.46038e-10
1.46038e-10
1.46038e-10
1.46038e-10
1.46038e-10
1.46038e-10
1.46038e-10
1.46038e-10
1.46038e-10
1.46038e-10
1.46038e-10
1.46038e-10
1.46038e-10
1.46038e-10
1.46038e-10
1.46038e-10
1.46038e-10
1.46038e-10
1.46038e-10
1.46038e-10
1.46038e-10
1.46038e-10
1.46038e-10
1.46038e-10
1.46038e-10
1.46038e-10
1.46038e-10
1.46038e-10
1.46038e-10
1.46038e-10
1.46038e-10
1.46038e-10
1.46038e-10
1.46038e-10
1.46038e-10
1.46038e-10
1.46038e-10
1.46038e-10
1.46038e-10
1.46038e-10
1.46038e-10
1.46038e-10
1.46038e-10
1.46038e-10
1.46038e-10
1.46038e-10
1.46038e-10
1.46038e-10
1.46038e-10
1.46038e-10
1.46038e-10
1.46038e-10
1.46038e-10
1.46038e-10
1.46038e-10
1.46038e-10
1.46038e-10
1.46038e-10
1.46038e-10
1.46038e-10
1.46038e-10
1.46038e-10
1.46038e-10
1.46038e-10
1.46038e-10
1.46038e-10
1.46038e-10
1.46038e-10
1.46038e-10
1.46038e-10
1.46038e-10
1.46038e-10
1.46038e-10
1.46038e-10
1.46038e-10
1.46038e-10
1.46038e-10
1.46038e-10
1.46038e-10
1.46038e-10
1.46038e-10
1.46038e-10
1.46038e-10
1.46038e-10
1.46038e-10
1.46038e-10
1.46038e-10
1.46038e-10
1.46038e-10
1.46038e-10
1.46038e-10
1.46038e-10
1.46038e-10
1.46038e-10
1.46038e-10
1.46038e-10
1.46038e-10
1.46038e-10
1.46038e-10
1.46038e-10
1.46038e-10
1.46038e-10
1.46038e-10
1.46038e-10
1.46038e-10
1.46038e-10
1.46038e-10
1.46038e-10
1.46038e-10
1.46038e-10
1.46038e-10
1.46038e-10
1.46038e-10
1.46038e-10
1.46038e-10
1.46038e-10
1.46038e-10
1.46038e-10
1.46038e-10
1.46038e-10
1.46038e-10
1.46038e-10
1.46038e-10
1.46038e-10
1.46038e-10
1.46038e-10
1.46038e-10
1.46038e-10
1.46038e-10
1.46038e-10
1.46038e-10
1.46038e-10
1.46038e-10
1.46038e-10
1.46038e-10
1.46038e-10
1.46038e-10
1.46038e-10
1.46038e-10
1.46038e-10
1.46038e-10
1.46038e-10
1.46038e-10
1.46038e-10
1.46038e-10
1.46038e-10
1.46038e-10
1.46038e-10
1.46038e-10
1.46038e-10
1.46038e-10
1.46038e-10
1.46038e-10
1.46038e-10
1.46038e-10
1.46038e-10
1.46038e-10
1.46038e-10
1.46038e-10
1.46038e-10
1.46038e-10
1.46038e-10
1.46038e-10
1.46038e-10
1.46038e-10
1.46038e-10
1.46038e-10
1.46038e-10
1.46038e-10
1.46038e-10
1.46038e-10
1.46038e-10
1.46038e-10
1.46038e-10
1.46038e-10
1.46038e-10
1.46038e-10
1.46038e-10
1.46038e-10
1.46038e-10
1.46038e-10
1.46038e-10
1.46038e-10
1.46038e-10
1.46038e-10
1.46038e-10
1.46038e-10
1.46038e-10
1.46038e-10
1.46038e-10
1.46038e-10
1.46038e-10
1.46038e-10
1.46038e-10
1.46038e-10
1.46038e-10
1.46038e-10
1.46038e-10
1.46038e-10
1.46038e-10
1.46038e-10
1.46038e-10
1.46038e-10
1.46038e-10
1.46038e-10
1.46038e-10
1.46038e-10
1.46038e-10
1.46038e-10
1.46038e-10
1.46038e-10
1.46038e-10
1.46038e-10
1.46038e-10
1.46038e-10
1.46038e-10
1.46038e-10
1.46038e-10
1.46038e-10
1.46038e-10
1.46038e-10
1.46038e-10
1.46038e-10
1.46038e-10
1.46038e-10
1.46038e-10
1.46038e-10
1.46038e-10
1.46038e-10
1.46038e-10
1.46038e-10
1.46038e-10
1.46038e-10
1.46038e-10
1.46038e-10
1.46038e-10
1.46038e-10
1.46038e-10
1.46038e-10
1.46038e-10
1.46038e-10
1.46038e-10
1.46038e-10
1.46038e-10
1.46038e-10
1.46038e-10
1.46038e-10
1.46038e-10
1.46038e-10
1.46038e-10
1.46038e-10
1.46038e-10
1.46038e-10
1.46038e-10
1.46038e-10
1.46038e-10
1.46038e-10
1.46038e-10
1.46038e-10
1.46038e-10
1.46038e-10
1.46038e-10
1.46038e-10
1.46038e-10
1.46038e-10
1.46038e-10
1.46038e-10
1.46038e-10
1.46038e-10
1.46038e-10
1.46038e-10
1.46038e-10
1.46038e-10
1.46038e-10
1.46038e-10
1.46038e-10
1.46038e-10
1.46038e-10
1.46038e-10
1.46038e-10
1.46038e-10
1.46038e-10
1.46038e-10
1.46038e-10
1.46038e-10
1.46038e-10
1.46038e-10
1.46038e-10
1.46038e-10
1.46038e-10
1.46038e-10
1.46038e-10
1.46038e-10
1.46038e-10
1.46038e-10
1.46038e-10
1.46038e-10
1.46038e-10
1.46038e-10
1.46038e-10
1.46038e-10
1.46038e-10
1.46038e-10
1.46038e-10
1.46038e-10
1.46038e-10
1.46038e-10
1.46038e-10
1.46038e-10
1.46038e-10
1.46038e-10
1.46038e-10
1.46038e-10
1.46038e-10
1.46038e-10
1.46038e-10
1.46038e-10
1.46038e-10
1.46038e-10
1.46038e-10
1.46038e-10
1.46038e-10
1.46038e-10
1.46038e-10
1.46038e-10
1.46038e-10
1.46038e-10
1.46038e-10
1.46038e-10
1.46038e-10
1.46038e-10
1.46038e-10
1.46038e-10
1.46038e-10
1.46038e-10
1.46038e-10
1.46038e-10
1.46038e-10
1.46038e-10
1.46038e-10
1.46038e-10
1.46038e-10
1.46038e-10
1.46038e-10
1.46038e-10
1.46038e-10
1.46038e-10
1.46038e-10
1.46038e-10
1.46038e-10
1.46038e-10
1.46038e-10
1.46038e-10
1.46038e-10
1.46038e-10
1.46038e-10
1.46038e-10
1.46038e-10
1.46038e-10
1.46038e-10
1.46038e-10
1.46038e-10
1.46038e-10
1.46038e-10
1.46038e-10
1.46038e-10
1.46038e-10
1.46038e-10
1.46038e-10
1.46038e-10
1.46038e-10
1.46038e-10
1.46038e-10
1.46038e-10
1.46038e-10
1.46038e-10
1.46038e-10
1.46038e-10
1.46038e-10
1.46038e-10
1.46038e-10
1.46038e-10
1.46038e-10
1.46038e-10
1.46038e-10
1.46038e-10
1.46038e-10
1.46038e-10
1.46038e-10
1.46038e-10
1.46038e-10
1.46038e-10
1.46038e-10
1.46038e-10
1.46038e-10
1.46038e-10
1.46038e-10
1.46038e-10
1.46038e-10
1.46038e-10
1.46038e-10
1.46038e-10
1.46038e-10
1.46038e-10
1.46038e-10
1.46038e-10
1.46038e-10
1.46038e-10
1.46038e-10
1.46038e-10
1.46038e-10
1.46038e-10
1.46038e-10
1.46038e-10
1.46038e-10
1.46038e-10
1.46038e-10
1.46038e-10
1.46038e-10
1.46038e-10
1.46038e-10
1.46038e-10
1.46039e-10
1.46039e-10
1.46038e-10
1.46038e-10
1.46038e-10
1.46038e-10
1.46038e-10
1.46038e-10
1.46038e-10
1.46038e-10
1.46038e-10
1.46038e-10
1.46038e-10
1.46038e-10
1.46038e-10
1.46038e-10
1.46038e-10
1.46038e-10
1.46038e-10
1.46038e-10
1.46038e-10
1.46038e-10
1.46038e-10
1.46038e-10
1.46038e-10
1.46038e-10
1.46038e-10
1.46038e-10
1.46038e-10
1.46038e-10
1.46038e-10
1.46038e-10
1.46038e-10
1.46038e-10
1.46038e-10
1.46038e-10
1.46038e-10
1.46038e-10
1.46038e-10
1.46038e-10
1.46038e-10
1.46038e-10
1.46038e-10
1.46038e-10
1.46038e-10
1.46038e-10
1.46038e-10
1.46039e-10
1.46039e-10
1.4604e-10
1.46041e-10
1.46043e-10
1.46038e-10
1.46038e-10
1.46038e-10
1.46038e-10
1.46038e-10
1.46038e-10
1.46038e-10
1.46038e-10
1.46038e-10
1.46038e-10
1.46038e-10
1.46038e-10
1.46038e-10
1.46038e-10
1.46038e-10
1.46038e-10
1.46038e-10
1.46038e-10
1.46038e-10
1.46038e-10
1.46038e-10
1.46038e-10
1.46038e-10
1.46038e-10
1.46038e-10
1.46038e-10
1.46038e-10
1.46038e-10
1.46038e-10
1.46038e-10
1.46038e-10
1.46038e-10
1.46038e-10
1.46038e-10
1.46038e-10
1.46038e-10
1.46038e-10
1.46038e-10
1.46038e-10
1.46038e-10
1.46038e-10
1.46038e-10
1.46039e-10
1.46039e-10
1.4604e-10
1.46041e-10
1.46043e-10
1.46045e-10
1.4605e-10
1.46056e-10
1.46038e-10
1.46038e-10
1.46038e-10
1.46038e-10
1.46038e-10
1.46038e-10
1.46038e-10
1.46038e-10
1.46038e-10
1.46038e-10
1.46038e-10
1.46038e-10
1.46038e-10
1.46038e-10
1.46038e-10
1.46038e-10
1.46038e-10
1.46038e-10
1.46038e-10
1.46038e-10
1.46038e-10
1.46038e-10
1.46038e-10
1.46038e-10
1.46038e-10
1.46038e-10
1.46038e-10
1.46038e-10
1.46038e-10
1.46038e-10
1.46038e-10
1.46038e-10
1.46038e-10
1.46038e-10
1.46038e-10
1.46038e-10
1.46038e-10
1.46038e-10
1.46038e-10
1.46039e-10
1.46039e-10
1.4604e-10
1.46041e-10
1.46043e-10
1.46046e-10
1.4605e-10
1.46056e-10
1.46066e-10
1.46081e-10
1.46105e-10
1.46038e-10
1.46038e-10
1.46038e-10
1.46038e-10
1.46038e-10
1.46038e-10
1.46038e-10
1.46038e-10
1.46038e-10
1.46038e-10
1.46038e-10
1.46038e-10
1.46038e-10
1.46038e-10
1.46038e-10
1.46038e-10
1.46038e-10
1.46038e-10
1.46038e-10
1.46038e-10
1.46038e-10
1.46038e-10
1.46038e-10
1.46038e-10
1.46038e-10
1.46038e-10
1.46038e-10
1.46038e-10
1.46038e-10
1.46038e-10
1.46038e-10
1.46038e-10
1.46038e-10
1.46038e-10
1.46038e-10
1.46038e-10
1.46039e-10
1.46039e-10
1.4604e-10
1.46042e-10
1.46043e-10
1.46046e-10
1.46051e-10
1.46057e-10
1.46067e-10
1.46082e-10
1.46104e-10
1.46139e-10
1.46192e-10
1.46278e-10
1.46038e-10
1.46038e-10
1.46038e-10
1.46038e-10
1.46038e-10
1.46038e-10
1.46038e-10
1.46038e-10
1.46038e-10
1.46038e-10
1.46038e-10
1.46038e-10
1.46038e-10
1.46038e-10
1.46038e-10
1.46038e-10
1.46038e-10
1.46038e-10
1.46038e-10
1.46038e-10
1.46038e-10
1.46038e-10
1.46038e-10
1.46038e-10
1.46038e-10
1.46038e-10
1.46038e-10
1.46038e-10
1.46038e-10
1.46038e-10
1.46038e-10
1.46038e-10
1.46039e-10
1.46039e-10
1.4604e-10
1.46041e-10
1.46042e-10
1.46044e-10
1.46047e-10
1.46051e-10
1.46058e-10
1.46068e-10
1.46083e-10
1.46106e-10
1.46141e-10
1.46193e-10
1.46273e-10
1.46395e-10
1.46584e-10
1.46885e-10
1.46038e-10
1.46038e-10
1.46038e-10
1.46038e-10
1.46038e-10
1.46038e-10
1.46038e-10
1.46038e-10
1.46038e-10
1.46038e-10
1.46038e-10
1.46038e-10
1.46038e-10
1.46038e-10
1.46038e-10
1.46038e-10
1.46038e-10
1.46038e-10
1.46038e-10
1.46038e-10
1.46038e-10
1.46038e-10
1.46038e-10
1.46038e-10
1.46038e-10
1.46038e-10
1.46038e-10
1.46038e-10
1.46038e-10
1.46039e-10
1.46039e-10
1.4604e-10
1.46041e-10
1.46042e-10
1.46045e-10
1.46048e-10
1.46053e-10
1.4606e-10
1.46071e-10
1.46086e-10
1.4611e-10
1.46146e-10
1.46199e-10
1.46279e-10
1.46401e-10
1.46585e-10
1.46865e-10
1.47294e-10
1.47955e-10
1.49005e-10
1.46038e-10
1.46038e-10
1.46038e-10
1.46038e-10
1.46038e-10
1.46038e-10
1.46038e-10
1.46038e-10
1.46038e-10
1.46038e-10
1.46038e-10
1.46038e-10
1.46038e-10
1.46038e-10
1.46038e-10
1.46038e-10
1.46038e-10
1.46038e-10
1.46038e-10
1.46038e-10
1.46038e-10
1.46038e-10
1.46038e-10
1.46038e-10
1.46038e-10
1.46039e-10
1.46039e-10
1.46039e-10
1.4604e-10
1.46041e-10
1.46043e-10
1.46046e-10
1.46049e-10
1.46054e-10
1.46062e-10
1.46074e-10
1.46091e-10
1.46116e-10
1.46153e-10
1.46208e-10
1.46291e-10
1.46415e-10
1.46602e-10
1.46883e-10
1.47308e-10
1.47952e-10
1.48929e-10
1.5042e-10
1.52708e-10
1.56302e-10
1.46038e-10
1.46038e-10
1.46038e-10
1.46038e-10
1.46038e-10
1.46038e-10
1.46038e-10
1.46038e-10
1.46038e-10
1.46038e-10
1.46038e-10
1.46038e-10
1.46038e-10
1.46038e-10
1.46038e-10
1.46038e-10
1.46038e-10
1.46038e-10
1.46038e-10
1.46038e-10
1.46038e-10
1.46038e-10
1.46039e-10
1.46039e-10
1.4604e-10
1.46041e-10
1.46042e-10
1.46044e-10
1.46047e-10
1.46051e-10
1.46057e-10
1.46065e-10
1.46078e-10
1.46096e-10
1.46123e-10
1.46163e-10
1.46222e-10
1.46309e-10
1.46438e-10
1.46631e-10
1.4692e-10
1.47352e-10
1.48002e-10
1.4898e-10
1.50456e-10
1.52684e-10
1.56049e-10
1.61132e-10
1.68831e-10
1.80651e-10
1.46038e-10
1.46038e-10
1.46038e-10
1.46038e-10
1.46038e-10
1.46038e-10
1.46038e-10
1.46038e-10
1.46038e-10
1.46038e-10
1.46038e-10
1.46038e-10
1.46038e-10
1.46038e-10
1.46038e-10
1.46038e-10
1.46038e-10
1.46038e-10
1.46039e-10
1.46039e-10
1.4604e-10
1.4604e-10
1.46041e-10
1.46043e-10
1.46045e-10
1.46048e-10
1.46053e-10
1.4606e-10
1.46069e-10
1.46083e-10
1.46104e-10
1.46133e-10
1.46177e-10
1.4624e-10
1.46334e-10
1.46471e-10
1.46675e-10
1.46977e-10
1.47426e-10
1.48096e-10
1.49097e-10
1.50596e-10
1.52842e-10
1.56207e-10
1.61245e-10
1.68767e-10
1.79957e-10
1.96534e-10
2.21033e-10
2.57402e-10
1.46038e-10
1.46038e-10
1.46038e-10
1.46038e-10
1.46038e-10
1.46038e-10
1.46038e-10
1.46038e-10
1.46038e-10
1.46038e-10
1.46038e-10
1.46038e-10
1.46038e-10
1.46038e-10
1.46039e-10
1.46039e-10
1.46039e-10
1.4604e-10
1.46041e-10
1.46042e-10
1.46044e-10
1.46047e-10
1.46051e-10
1.46056e-10
1.46064e-10
1.46075e-10
1.46091e-10
1.46114e-10
1.46147e-10
1.46195e-10
1.46265e-10
1.46367e-10
1.46516e-10
1.46736e-10
1.47058e-10
1.47535e-10
1.4824e-10
1.49285e-10
1.50839e-10
1.53152e-10
1.56594e-10
1.61712e-10
1.69307e-10
1.80537e-10
1.97056e-10
2.2119e-10
2.56151e-10
3.06287e-10
3.77492e-10
4.77852e-10
1.46038e-10
1.46038e-10
1.46038e-10
1.46038e-10
1.46038e-10
1.46038e-10
1.46038e-10
1.46038e-10
1.46038e-10
1.46038e-10
1.46038e-10
1.46039e-10
1.46039e-10
1.4604e-10
1.46041e-10
1.46042e-10
1.46043e-10
1.46046e-10
1.46049e-10
1.46053e-10
1.4606e-10
1.46069e-10
1.46082e-10
1.461e-10
1.46127e-10
1.46164e-10
1.46219e-10
1.46298e-10
1.46411e-10
1.46577e-10
1.46818e-10
1.4717e-10
1.47685e-10
1.48443e-10
1.49558e-10
1.51204e-10
1.53635e-10
1.5723e-10
1.62541e-10
1.70374e-10
1.81891e-10
1.9875e-10
2.23268e-10
2.58624e-10
3.09043e-10
3.79918e-10
4.77857e-10
6.10661e-10
7.87743e-10
1.02063e-09
1.46038e-10
1.46038e-10
1.46038e-10
1.46038e-10
1.46038e-10
1.46038e-10
1.46038e-10
1.46039e-10
1.46039e-10
1.4604e-10
1.4604e-10
1.46042e-10
1.46043e-10
1.46045e-10
1.46048e-10
1.46052e-10
1.46057e-10
1.46065e-10
1.46076e-10
1.46091e-10
1.46113e-10
1.46144e-10
1.46188e-10
1.46251e-10
1.46341e-10
1.46471e-10
1.46658e-10
1.46928e-10
1.47319e-10
1.47889e-10
1.4872e-10
1.49935e-10
1.51715e-10
1.54327e-10
1.58161e-10
1.6379e-10
1.72039e-10
1.841e-10
2.01659e-10
2.27073e-10
2.63559e-10
3.1537e-10
3.87916e-10
4.87745e-10
6.22423e-10
8.00237e-10
1.02997e-09
1.32071e-09
1.68268e-09
2.12911e-09
1.46038e-10
1.46038e-10
1.46038e-10
1.46039e-10
1.46039e-10
1.4604e-10
1.4604e-10
1.46041e-10
1.46043e-10
1.46045e-10
1.46047e-10
1.46051e-10
1.46056e-10
1.46062e-10
1.46072e-10
1.46085e-10
1.46104e-10
1.4613e-10
1.46167e-10
1.4622e-10
1.46294e-10
1.46399e-10
1.4655e-10
1.46765e-10
1.47074e-10
1.4752e-10
1.48163e-10
1.49094e-10
1.50446e-10
1.52413e-10
1.5528e-10
1.59459e-10
1.65553e-10
1.74429e-10
1.87327e-10
2.05998e-10
2.32874e-10
2.71258e-10
3.25488e-10
4.01054e-10
5.04569e-10
6.43629e-10
8.26544e-10
1.06199e-09
1.35873e-09
1.72486e-09
2.16806e-09
2.69532e-09
3.31494e-09
4.04142e-09
1.46039e-10
1.46039e-10
1.4604e-10
1.4604e-10
1.46041e-10
1.46043e-10
1.46044e-10
1.46047e-10
1.4605e-10
1.46055e-10
1.46061e-10
1.4607e-10
1.46082e-10
1.46098e-10
1.46121e-10
1.46154e-10
1.46199e-10
1.46262e-10
1.46351e-10
1.46477e-10
1.46656e-10
1.46909e-10
1.47271e-10
1.47788e-10
1.4853e-10
1.49596e-10
1.51134e-10
1.53356e-10
1.56571e-10
1.61227e-10
1.67971e-10
1.7773e-10
1.91821e-10
2.12093e-10
2.41099e-10
2.82274e-10
3.40098e-10
4.20185e-10
5.29259e-10
6.74984e-10
8.65746e-10
1.11026e-09
1.4173e-09
1.79518e-09
2.25141e-09
2.79264e-09
3.42403e-09
4.14819e-09
4.96527e-09
5.87825e-09
6.91182e-09
1.46042e-10
1.46043e-10
1.46045e-10
1.46047e-10
1.4605e-10
1.46055e-10
1.46061e-10
1.46069e-10
1.4608e-10
1.46095e-10
1.46116e-10
1.46145e-10
1.46186e-10
1.46242e-10
1.4632e-10
1.4643e-10
1.46584e-10
1.468e-10
1.47105e-10
1.47537e-10
1.4815e-10
1.49024e-10
1.50273e-10
1.52061e-10
1.54626e-10
1.58314e-10
1.63617e-10
1.71248e-10
1.82215e-10
1.97947e-10
2.20429e-10
2.52381e-10
2.97424e-10
3.60232e-10
4.46598e-10
5.63393e-10
7.18394e-10
9.20041e-10
1.1771e-09
1.49834e-09
1.89228e-09
2.36643e-09
2.92761e-09
3.58127e-09
4.33066e-09
5.17586e-09
6.11495e-09
7.14609e-09
8.27013e-09
9.49464e-09
1.08655e-08
1.46047e-10
1.46051e-10
1.46055e-10
1.46061e-10
1.46069e-10
1.4608e-10
1.46094e-10
1.46114e-10
1.46142e-10
1.46179e-10
1.46231e-10
1.46302e-10
1.46401e-10
1.46539e-10
1.4673e-10
1.46998e-10
1.47373e-10
1.479e-10
1.48645e-10
1.49698e-10
1.51193e-10
1.53319e-10
1.56349e-10
1.60674e-10
1.66853e-10
1.75681e-10
1.88284e-10
2.06233e-10
2.31701e-10
2.67624e-10
3.17869e-10
3.87354e-10
4.821e-10
6.09165e-10
7.76455e-10
9.92478e-10
1.26604e-09
1.60593e-09
2.02067e-09
2.51786e-09
3.1044e-09
3.78588e-09
4.56613e-09
5.44593e-09
6.42342e-09
7.49597e-09
8.66229e-09
9.92382e-09
1.12838e-08
1.27486e-08
1.43297e-08
1.60902e-08
1.4607e-10
1.46081e-10
1.46096e-10
1.46115e-10
1.46142e-10
1.46178e-10
1.46228e-10
1.46295e-10
1.46388e-10
1.46516e-10
1.46692e-10
1.46935e-10
1.47274e-10
1.47745e-10
1.48404e-10
1.49328e-10
1.50627e-10
1.52458e-10
1.55044e-10
1.58706e-10
1.63897e-10
1.71262e-10
1.8171e-10
1.96516e-10
2.17447e-10
2.46912e-10
2.88124e-10
3.45252e-10
4.23515e-10
5.29204e-10
6.69591e-10
8.5273e-10
1.08719e-09
1.38182e-09
1.74537e-09
2.18632e-09
2.71237e-09
3.33027e-09
4.04582e-09
4.86316e-09
5.78369e-09
6.80577e-09
7.92636e-09
9.14298e-09
1.04558e-08
1.18668e-08
1.33802e-08
1.50023e-08
1.67387e-08
1.85982e-08
2.05955e-08
2.28053e-08
1.46146e-10
1.46182e-10
1.46232e-10
1.46298e-10
1.46388e-10
1.46511e-10
1.4668e-10
1.4691e-10
1.47228e-10
1.47666e-10
1.48272e-10
1.49115e-10
1.50288e-10
1.51927e-10
1.54222e-10
1.57444e-10
1.61973e-10
1.6835e-10
1.77332e-10
1.89981e-10
2.07769e-10
2.32708e-10
2.67509e-10
3.15725e-10
3.81886e-10
4.71563e-10
5.91351e-10
7.48756e-10
9.51983e-10
1.20967e-09
1.53064e-09
1.92362e-09
2.39697e-09
2.95843e-09
3.61461e-09
4.37133e-09
5.23283e-09
6.20098e-09
7.27451e-09
8.45021e-09
9.72476e-09
1.10968e-08
1.25673e-08
1.41391e-08
1.58178e-08
1.76087e-08
1.9518e-08
2.15556e-08
2.37262e-08
2.60389e-08
2.85192e-08
3.12543e-08
1.46402e-10
1.46526e-10
1.46693e-10
1.4692e-10
1.47229e-10
1.47653e-10
1.48233e-10
1.49032e-10
1.50135e-10
1.51661e-10
1.53779e-10
1.56726e-10
1.60834e-10
1.6657e-10
1.74588e-10
1.85798e-10
2.01462e-10
2.23304e-10
2.53653e-10
2.95584e-10
3.53061e-10
4.3103e-10
5.35454e-10
6.73256e-10
8.52184e-10
1.08058e-09
1.36713e-09
1.72063e-09
2.14969e-09
2.66257e-09
3.26689e-09
3.96913e-09
4.77504e-09
5.68877e-09
6.71254e-09
7.84543e-09
9.08406e-09
1.04244e-08
1.18639e-08
1.34028e-08
1.50425e-08
1.6787e-08
1.86421e-08
2.06122e-08
2.27071e-08
2.49328e-08
2.72927e-08
2.98069e-08
3.2481e-08
3.53186e-08
3.83388e-08
4.16529e-08
1.47279e-10
1.47704e-10
1.48283e-10
1.49071e-10
1.50149e-10
1.51627e-10
1.53661e-10
1.56466e-10
1.60341e-10
1.65707e-10
1.73146e-10
1.83466e-10
1.97781e-10
2.17612e-10
2.45009e-10
2.82689e-10
3.34172e-10
4.03892e-10
4.97263e-10
6.20665e-10
7.81356e-10
9.87311e-10
1.24699e-09
1.56908e-09
1.96231e-09
2.43515e-09
2.99569e-09
3.65136e-09
4.40846e-09
5.27252e-09
6.24766e-09
7.33616e-09
8.53733e-09
9.84763e-09
1.12626e-08
1.27788e-08
1.4395e-08
1.61119e-08
1.79322e-08
1.98614e-08
2.1903e-08
2.40647e-08
2.63556e-08
2.8776e-08
3.13428e-08
3.40671e-08
3.69514e-08
4.00018e-08
4.32298e-08
4.66488e-08
5.02811e-08
5.42566e-08
1.50333e-10
1.51824e-10
1.53857e-10
1.56635e-10
1.6044e-10
1.65663e-10
1.72842e-10
1.82719e-10
1.96312e-10
2.15003e-10
2.40649e-10
2.75709e-10
3.23373e-10
3.87679e-10
4.73589e-10
5.87014e-10
7.34759e-10
9.24401e-10
1.16411e-09
1.46242e-09
1.82797e-09
2.26936e-09
2.79488e-09
3.41239e-09
4.12907e-09
4.95097e-09
5.88332e-09
6.93013e-09
8.09357e-09
9.37296e-09
1.07648e-08
1.22641e-08
1.38666e-08
1.557e-08
1.7374e-08
1.92806e-08
2.12937e-08
2.34169e-08
2.56567e-08
2.80224e-08
3.05145e-08
3.31453e-08
3.59297e-08
3.88715e-08
4.19745e-08
4.52488e-08
4.87064e-08
5.23568e-08
5.62145e-08
6.0297e-08
6.4632e-08
6.93614e-08
1.6115e-10
1.66442e-10
1.73653e-10
1.83488e-10
1.9691e-10
2.15215e-10
2.40139e-10
2.73967e-10
3.1966e-10
3.80966e-10
4.62503e-10
5.69802e-10
7.0928e-10
8.88144e-10
1.11425e-09
1.3959e-09
1.74164e-09
2.16002e-09
2.65942e-09
3.24791e-09
3.93304e-09
4.72168e-09
5.61957e-09
6.63159e-09
7.76152e-09
9.01123e-09
1.038e-08
1.18643e-08
1.34586e-08
1.51579e-08
1.6959e-08
1.88609e-08
2.08641e-08
2.29716e-08
2.51872e-08
2.75164e-08
2.99664e-08
3.25406e-08
3.52482e-08
3.81019e-08
4.11108e-08
4.42777e-08
4.76094e-08
5.11176e-08
5.48128e-08
5.87058e-08
6.28132e-08
6.71489e-08
7.17258e-08
7.65598e-08
8.16831e-08
8.72544e-08
2.18318e-10
2.43484e-10
2.77363e-10
3.22773e-10
3.8327e-10
4.63232e-10
5.67905e-10
7.03396e-10
8.76598e-10
1.09507e-09
1.36688e-09
1.70038e-09
2.10406e-09
2.58627e-09
3.15514e-09
3.81843e-09
4.58335e-09
5.45636e-09
6.44281e-09
7.54718e-09
8.7729e-09
1.01215e-08
1.15921e-08
1.31808e-08
1.48817e-08
1.66892e-08
1.85994e-08
2.061e-08
2.27208e-08
2.49341e-08
2.72531e-08
2.9682e-08
3.22273e-08
3.48944e-08
3.76903e-08
4.06236e-08
4.37088e-08
4.69499e-08
5.03493e-08
5.39187e-08
5.76702e-08
6.16113e-08
6.57575e-08
7.01236e-08
7.47225e-08
7.95669e-08
8.46715e-08
9.0051e-08
9.57227e-08
1.01723e-07
1.08227e-07
3.95042e-10
4.76153e-10
5.81584e-10
7.17217e-10
8.89698e-10
1.10634e-09
1.37495e-09
1.70371e-09
2.10096e-09
2.57499e-09
3.13391e-09
3.78551e-09
4.53718e-09
5.39568e-09
6.36702e-09
7.45609e-09
8.66691e-09
1.00024e-08
1.14638e-08
1.30497e-08
1.47559e-08
1.65761e-08
1.85041e-08
2.05352e-08
2.2666e-08
2.48961e-08
2.72269e-08