/*--------------------------------*- C++ -*----------------------------------*\
| =========                 |                                                 |
| \\      /  F ield         | OpenFOAM: The Open Source CFD Toolbox           |
|  \\    /   O peration     | Version:  v1706                                 |
|   \\  /    A nd           | Web:      www.OpenFOAM.com                      |
|    \\/     M anipulation  |                                                 |
\*---------------------------------------------------------------------------*/
FoamFile
{
    version     2.0;
    format      ascii;
    class       volScalarField;
    location    "3.6e-05";
    object      kappatr;
}
// * * * * * * * * * * * * * * * * * * * * * * * * * * * * * * * * * * * * * //

dimensions      [1 1 -3 -1 0 0 0];


internalField   nonuniform List<scalar> 
30038
(
0.014593
0.014593
0.014593
0.014593
0.014593
0.014593
0.014593
0.014593
0.014593
0.014593
0.014593
0.014593
0.014593
0.014593
0.014593
0.014593
0.014593
0.014593
0.014593
0.014593
0.014593
0.014593
0.014593
0.014593
0.014593
0.014593
0.014593
0.014593
0.014593
0.014593
0.014593
0.014593
0.014593
0.014593
0.014593
0.014593
0.014593
0.014593
0.014593
0.014593
0.014593
0.014593
0.014593
0.014593
0.014593
0.014593
0.014593
0.014593
0.014593
0.014593
0.014593
0.014593
0.014593
0.014593
0.014593
0.014593
0.014593
0.014593
0.014593
0.014593
0.014593
0.014593
0.014593
0.014593
0.014593
0.014593
0.014593
0.014593
0.014593
0.014593
0.014593
0.014593
0.014593
0.014593
0.014593
0.014593
0.014593
0.014593
0.014593
0.014593
0.014593
0.014593
0.014593
0.014593
0.014593
0.014593
0.014593
0.014593
0.014593
0.014593
0.014593
0.014593
0.014593
0.014593
0.014593
0.014593
0.014593
0.014593
0.014593
0.014593
0.014593
0.014593
0.014593
0.014593
0.014593
0.014593
0.014593
0.014593
0.014593
0.014593
0.014593
0.014593
0.014593
0.014593
0.014593
0.014593
0.014593
0.014593
0.014593
0.014593
0.014593
0.014593
0.014593
0.014593
0.014593
0.014593
0.014593
0.014593
0.014593
0.014593
0.014593
0.014593
0.014593
0.014593
0.014593
0.014593
0.014593
0.014593
0.014593
0.014593
0.014593
0.014593
0.014593
0.014593
0.014593
0.014593
0.014593
0.014593
0.014593
0.014593
0.014593
0.014593
0.014593
0.014593
0.014593
0.014593
0.014593
0.014593
0.014593
0.014593
0.014593
0.014593
0.014593
0.014593
0.014593
0.014593
0.014593
0.014593
0.014593
0.014593
0.014593
0.014593
0.014593
0.014593
0.014593
0.014593
0.014593
0.014593
0.014593
0.014593
0.014593
0.014593
0.014593
0.014593
0.014593
0.014593
0.014593
0.014593
0.014593
0.014593
0.014593
0.014593
0.014593
0.014593
0.014593
0.014593
0.014593
0.014593
0.014593
0.014593
0.014593
0.014593
0.014593
0.014593
0.014593
0.014593
0.014593
0.014593
0.014593
0.014593
0.014593
0.014593
0.014593
0.014593
0.014593
0.014593
0.014593
0.014593
0.014593
0.014593
0.014593
0.014593
0.014593
0.014593
0.014593
0.014593
0.014593
0.014593
0.014593
0.014593
0.014593
0.014593
0.014593
0.014593
0.014593
0.014593
0.014593
0.014593
0.014593
0.014593
0.014593
0.014593
0.014593
0.014593
0.014593
0.014593
0.014593
0.014593
0.014593
0.014593
0.014593
0.014593
0.014593
0.014593
0.014593
0.014593
0.014593
0.014593
0.014593
0.014593
0.014593
0.014593
0.014593
0.014593
0.014593
0.014593
0.014593
0.014593
0.014593
0.014593
0.014593
0.014593
0.014593
0.014593
0.014593
0.014593
0.014593
0.014593
0.014593
0.014593
0.014593
0.014593
0.014593
0.014593
0.014593
0.014593
0.014593
0.014593
0.014593
0.014593
0.014593
0.014593
0.014593
0.014593
0.014593
0.014593
0.014593
0.014593
0.014593
0.014593
0.014593
0.014593
0.014593
0.014593
0.014593
0.014593
0.014593
0.014593
0.014593
0.014593
0.014593
0.014593
0.014593
0.014593
0.014593
0.014593
0.014593
0.014593
0.014593
0.014593
0.014593
0.014593
0.014593
0.014593
0.014593
0.014593
0.014593
0.014593
0.014593
0.014593
0.014593
0.014593
0.014593
0.014593
0.014593
0.014593
0.014593
0.014593
0.014593
0.014593
0.014593
0.014593
0.014593
0.014593
0.014593
0.014593
0.014593
0.014593
0.014593
0.014593
0.014593
0.014593
0.014593
0.014593
0.014593
0.014593
0.014593
0.014593
0.014593
0.014593
0.014593
0.014593
0.014593
0.014593
0.014593
0.014593
0.014593
0.014593
0.014593
0.014593
0.014593
0.014593
0.014593
0.014593
0.014593
0.014593
0.014593
0.014593
0.014593
0.014593
0.014593
0.014593
0.014593
0.014593
0.014593
0.014593
0.014593
0.014593
0.014593
0.014593
0.014593
0.014593
0.014593
0.014593
0.014593
0.014593
0.014593
0.014593
0.014593
0.014593
0.014593
0.014593
0.014593
0.014593
0.014593
0.014593
0.014593
0.014593
0.014593
0.014593
0.014593
0.014593
0.014593
0.014593
0.014593
0.014593
0.014593
0.014593
0.014593
0.014593
0.014593
0.014593
0.014593
0.014593
0.014593
0.014593
0.014593
0.014593
0.014593
0.014593
0.014593
0.014593
0.014593
0.014593
0.014593
0.014593
0.014593
0.014593
0.014593
0.014593
0.014593
0.014593
0.014593
0.014593
0.014593
0.014593
0.014593
0.014593
0.014593
0.014593
0.014593
0.014593
0.014593
0.014593
0.014593
0.014593
0.014593
0.014593
0.014593
0.014593
0.014593
0.014593
0.014593
0.014593
0.014593
0.014593
0.014593
0.014593
0.014593
0.014593
0.014593
0.014593
0.014593
0.014593
0.014593
0.014593
0.014593
0.014593
0.014593
0.014593
0.014593
0.014593
0.014593
0.014593
0.014593
0.014593
0.014593
0.014593
0.014593
0.014593
0.014593
0.014593
0.014593
0.014593
0.014593
0.014593
0.014593
0.014593
0.014593
0.014593
0.014593
0.014593
0.014593
0.014593
0.014593
0.014593
0.014593
0.014593
0.014593
0.014593
0.014593
0.014593
0.014593
0.014593
0.014593
0.014593
0.014593
0.014593
0.014593
0.014593
0.014593
0.014593
0.014593
0.014593
0.014593
0.014593
0.014593
0.014593
0.014593
0.014593
0.014593
0.014593
0.014593
0.014593
0.014593
0.014593
0.014593
0.014593
0.014593
0.014593
0.014593
0.014593
0.014593
0.014593
0.014593
0.014593
0.014593
0.014593
0.014593
0.014593
0.014593
0.014593
0.014593
0.014593
0.014593
0.014593
0.014593
0.014593
0.014593
0.014593
0.014593
0.014593
0.014593
0.014593
0.014593
0.014593
0.014593
0.014593
0.014593
0.014593
0.014593
0.014593
0.014593
0.014593
0.014593
0.014593
0.014593
0.014593
0.014593
0.014593
0.014593
0.014593
0.014593
0.014593
0.014593
0.014593
0.014593
0.014593
0.014593
0.014593
0.014593
0.014593
0.014593
0.014593
0.014593
0.014593
0.014593
0.014593
0.014593
0.014593
0.014593
0.014593
0.014593
0.014593
0.014593
0.014593
0.014593
0.014593
0.014593
0.014593
0.014593
0.014593
0.014593
0.014593
0.014593
0.014593
0.014593
0.014593
0.014593
0.014593
0.014593
0.014593
0.014593
0.014593
0.014593
0.014593
0.014593
0.014593
0.014593
0.014593
0.014593
0.014593
0.014593
0.014593
0.014593
0.014593
0.014593
0.014593
0.014593
0.014593
0.014593
0.014593
0.014593
0.014593
0.014593
0.014593
0.014593
0.014593
0.014593
0.014593
0.014593
0.014593
0.014593
0.014593
0.014593
0.014593
0.014593
0.014593
0.014593
0.014593
0.014593
0.014593
0.014593
0.014593
0.014593
0.014593
0.014593
0.014593
0.014593
0.014593
0.014593
0.014593
0.014593
0.014593
0.014593
0.014593
0.014593
0.014593
0.014593
0.014593
0.014593
0.014593
0.014593
0.014593
0.014593
0.014593
0.014593
0.014593
0.014593
0.014593
0.014593
0.014593
0.014593
0.014593
0.014593
0.014593
0.014593
0.014593
0.014593
0.014593
0.014593
0.014593
0.014593
0.014593
0.014593
0.014593
0.014593
0.014593
0.014593
0.014593
0.014593
0.014593
0.014593
0.014593
0.014593
0.014593
0.014593
0.014593
0.014593
0.014593
0.014593
0.014593
0.014593
0.014593
0.014593
0.014593
0.014593
0.014593
0.014593
0.014593
0.014593
0.014593
0.014593
0.014593
0.014593
0.014593
0.014593
0.014593
0.014593
0.014593
0.014593
0.014593
0.014593
0.014593
0.014593
0.014593
0.014593
0.014593
0.014593
0.014593
0.014593
0.014593
0.014593
0.014593
0.014593
0.014593
0.014593
0.014593
0.014593
0.014593
0.014593
0.014593
0.014593
0.014593
0.014593
0.014593
0.014593
0.014593
0.014593
0.014593
0.014593
0.014593
0.014593
0.014593
0.014593
0.014593
0.014593
0.014593
0.014593
0.014593
0.014593
0.014593
0.014593
0.014593
0.014593
0.014593
0.014593
0.014593
0.014593
0.014593
0.014593
0.014593
0.014593
0.014593
0.014593
0.014593
0.014593
0.014593
0.014593
0.014593
0.014593
0.014593
0.014593
0.014593
0.014593
0.014593
0.014593
0.014593
0.014593
0.014593
0.014593
0.014593
0.014593
0.014593
0.014593
0.014593
0.014593
0.014593
0.014593
0.014593
0.014593
0.014593
0.014593
0.014593
0.014593
0.014593
0.014593
0.014593
0.014593
0.014593
0.014593
0.014593
0.014593
0.014593
0.014593
0.014593
0.014593
0.014593
0.014593
0.014593
0.014593
0.014593
0.014593
0.014593
0.014593
0.014593
0.014593
0.014593
0.014593
0.014593
0.014593
0.014593
0.014593
0.014593
0.014593
0.014593
0.014593
0.014593
0.014593
0.014593
0.014593
0.014593
0.014593
0.014593
0.014593
0.014593
0.014593
0.014593
0.014593
0.014593
0.014593
0.014593
0.014593
0.014593
0.014593
0.014593
0.014593
0.014593
0.014593
0.014593
0.014593
0.014593
0.014593
0.014593
0.014593
0.014593
0.014593
0.014593
0.014593
0.014593
0.014593
0.014593
0.014593
0.014593
0.014593
0.014593
0.014593
0.014593
0.014593
0.014593
0.014593
0.014593
0.014593
0.014593
0.014593
0.014593
0.014593
0.014593
0.014593
0.014593
0.014593
0.014593
0.014593
0.014593
0.014593
0.014593
0.014593
0.014593
0.014593
0.014593
0.014593
0.014593
0.014593
0.014593
0.014593
0.014593
0.014593
0.014593
0.014593
0.014593
0.014593
0.014593
0.014593
0.014593
0.014593
0.014593
0.014593
0.014593
0.014593
0.014593
0.014593
0.014593
0.014593
0.014593
0.014593
0.014593
0.014593
0.014593
0.014593
0.014593
0.014593
0.014593
0.014593
0.014593
0.014593
0.014593
0.014593
0.014593
0.014593
0.014593
0.014593
0.014593
0.014593
0.014593
0.014593
0.014593
0.014593
0.014593
0.014593
0.014593
0.014593
0.014593
0.014593
0.014593
0.014593
0.014593
0.014593
0.014593
0.014593
0.014593
0.014593
0.014593
0.014593
0.014593
0.014593
0.014593
0.014593
0.014593
0.014593
0.014593
0.014593
0.014593
0.014593
0.014593
0.014593
0.014593
0.014593
0.014593
0.014593
0.014593
0.014593
0.014593
0.014593
0.014593
0.014593
0.014593
0.014593
0.014593
0.014593
0.014593
0.014593
0.014593
0.014593
0.014593
0.014593
0.014593
0.014593
0.014593
0.014593
0.014593
0.014593
0.014593
0.014593
0.014593
0.014593
0.014593
0.014593
0.014593
0.014593
0.014593
0.014593
0.014593
0.014593
0.014593
0.014593
0.014593
0.014593
0.014593
0.014593
0.014593
0.014593
0.014593
0.014593
0.014593
0.014593
0.014593
0.014593
0.014593
0.014593
0.014593
0.014593
0.014593
0.014593
0.014593
0.014593
0.014593
0.014593
0.014593
0.014593
0.014593
0.014593
0.014593
0.014593
0.014593
0.014593
0.014593
0.014593
0.014593
0.014593
0.014593
0.014593
0.014593
0.014593
0.014593
0.014593
0.014593
0.014593
0.014593
0.014593
0.014593
0.014593
0.014593
0.014593
0.014593
0.014593
0.014593
0.014593
0.014593
0.014593
0.014593
0.014593
0.014593
0.014593
0.014593
0.014593
0.014593
0.014593
0.014593
0.014593
0.014593
0.014593
0.014593
0.014593
0.014593
0.014593
0.014593
0.014593
0.014593
0.014593
0.014593
0.014593
0.014593
0.014593
0.014593
0.014593
0.014593
0.014593
0.014593
0.014593
0.014593
0.014593
0.014593
0.014593
0.014593
0.014593
0.014593
0.014593
0.014593
0.014593
0.014593
0.014593
0.014593
0.014593
0.014593
0.014593
0.014593
0.014593
0.014593
0.014593
0.014593
0.014593
0.014593
0.014593
0.014593
0.014593
0.014593
0.014593
0.014593
0.014593
0.014593
0.014593
0.014593
0.014593
0.014593
0.014593
0.014593
0.014593
0.014593
0.014593
0.014593
0.014593
0.014593
0.014593
0.014593
0.014593
0.014593
0.014593
0.014593
0.014593
0.014593
0.014593
0.014593
0.014593
0.014593
0.014593
0.014593
0.014593
0.014593
0.014593
0.014593
0.014593
0.014593
0.014593
0.014593
0.014593
0.014593
0.014593
0.014593
0.014593
0.014593
0.014593
0.014593
0.014593
0.014593
0.014593
0.014593
0.014593
0.014593
0.014593
0.014593
0.014593
0.014593
0.014593
0.014593
0.014593
0.014593
0.014593
0.014593
0.014593
0.014593
0.014593
0.014593
0.014593
0.014593
0.014593
0.014593
0.014593
0.014593
0.014593
0.014593
0.014593
0.014593
0.014593
0.014593
0.014593
0.014593
0.014593
0.014593
0.014593
0.014593
0.014593
0.014593
0.014593
0.014593
0.014593
0.014593
0.014593
0.014593
0.014593
0.0145931
0.0145931
0.0145931
0.014593
0.014593
0.014593
0.014593
0.014593
0.014593
0.014593
0.014593
0.014593
0.014593
0.014593
0.014593
0.014593
0.014593
0.014593
0.014593
0.014593
0.014593
0.014593
0.014593
0.014593
0.014593
0.014593
0.014593
0.014593
0.014593
0.014593
0.014593
0.014593
0.014593
0.014593
0.014593
0.014593
0.014593
0.014593
0.014593
0.014593
0.014593
0.014593
0.014593
0.014593
0.014593
0.014593
0.014593
0.0145931
0.0145931
0.0145931
0.0145932
0.0145933
0.0145935
0.014593
0.014593
0.014593
0.014593
0.014593
0.014593
0.014593
0.014593
0.014593
0.014593
0.014593
0.014593
0.014593
0.014593
0.014593
0.014593
0.014593
0.014593
0.014593
0.014593
0.014593
0.014593
0.014593
0.014593
0.014593
0.014593
0.014593
0.014593
0.014593
0.014593
0.014593
0.014593
0.014593
0.014593
0.014593
0.014593
0.014593
0.014593
0.014593
0.014593
0.014593
0.0145931
0.0145931
0.0145931
0.0145932
0.0145933
0.0145935
0.0145938
0.0145942
0.0145948
0.014593
0.014593
0.014593
0.014593
0.014593
0.014593
0.014593
0.014593
0.014593
0.014593
0.014593
0.014593
0.014593
0.014593
0.014593
0.014593
0.014593
0.014593
0.014593
0.014593
0.014593
0.014593
0.014593
0.014593
0.014593
0.014593
0.014593
0.014593
0.014593
0.014593
0.014593
0.014593
0.014593
0.014593
0.014593
0.014593
0.014593
0.0145931
0.0145931
0.0145931
0.0145932
0.0145932
0.0145934
0.0145935
0.0145938
0.0145942
0.0145948
0.0145957
0.0145972
0.0145995
0.014593
0.014593
0.014593
0.014593
0.014593
0.014593
0.014593
0.014593
0.014593
0.014593
0.014593
0.014593
0.014593
0.014593
0.014593
0.014593
0.014593
0.014593
0.014593
0.014593
0.014593
0.014593
0.014593
0.014593
0.014593
0.014593
0.014593
0.014593
0.014593
0.014593
0.014593
0.014593
0.014593
0.014593
0.0145931
0.0145931
0.0145931
0.0145932
0.0145933
0.0145934
0.0145936
0.0145938
0.0145943
0.0145949
0.0145958
0.0145972
0.0145994
0.0146026
0.0146077
0.0146156
0.014593
0.014593
0.014593
0.014593
0.014593
0.014593
0.014593
0.014593
0.014593
0.014593
0.014593
0.014593
0.014593
0.014593
0.014593
0.014593
0.014593
0.014593
0.014593
0.014593
0.014593
0.014593
0.014593
0.014593
0.014593
0.014593
0.014593
0.014593
0.014593
0.014593
0.014593
0.0145931
0.0145931
0.0145931
0.0145932
0.0145933
0.0145934
0.0145936
0.0145939
0.0145943
0.014595
0.014596
0.0145974
0.0145996
0.0146028
0.0146077
0.0146151
0.0146262
0.0146433
0.0146699
0.014593
0.014593
0.014593
0.014593
0.014593
0.014593
0.014593
0.014593
0.014593
0.014593
0.014593
0.014593
0.014593
0.014593
0.014593
0.014593
0.014593
0.014593
0.014593
0.014593
0.014593
0.014593
0.014593
0.014593
0.014593
0.014593
0.014593
0.0145931
0.0145931
0.0145931
0.0145932
0.0145932
0.0145933
0.0145935
0.0145937
0.014594
0.0145945
0.0145951
0.0145962
0.0145977
0.0145999
0.0146032
0.0146082
0.0146155
0.0146265
0.014643
0.0146677
0.0147049
0.0147612
0.0148478
0.014593
0.014593
0.014593
0.014593
0.014593
0.014593
0.014593
0.014593
0.014593
0.014593
0.014593
0.014593
0.014593
0.014593
0.014593
0.014593
0.014593
0.014593
0.014593
0.014593
0.014593
0.014593
0.014593
0.014593
0.0145931
0.0145931
0.0145931
0.0145932
0.0145933
0.0145934
0.0145935
0.0145938
0.0145941
0.0145946
0.0145954
0.0145964
0.014598
0.0146004
0.0146038
0.0146089
0.0146165
0.0146276
0.0146441
0.0146687
0.0147051
0.0147592
0.0148395
0.0149586
0.0151356
0.0154004
0.014593
0.014593
0.014593
0.014593
0.014593
0.014593
0.014593
0.014593
0.014593
0.014593
0.014593
0.014593
0.014593
0.014593
0.014593
0.014593
0.014593
0.014593
0.014593
0.014593
0.0145931
0.0145931
0.0145931
0.0145932
0.0145932
0.0145933
0.0145934
0.0145936
0.0145939
0.0145943
0.0145948
0.0145956
0.0145968
0.0145985
0.014601
0.0146047
0.01461
0.0146179
0.0146294
0.0146463
0.0146711
0.0147077
0.0147615
0.0148405
0.0149565
0.0151258
0.0153716
0.0157253
0.0162292
0.0169387
0.014593
0.014593
0.014593
0.014593
0.014593
0.014593
0.014593
0.014593
0.014593
0.014593
0.014593
0.014593
0.014593
0.014593
0.014593
0.014593
0.0145931
0.0145931
0.0145931
0.0145931
0.0145932
0.0145933
0.0145934
0.0145935
0.0145937
0.014594
0.0145945
0.0145951
0.014596
0.0145973
0.0145992
0.0146019
0.0146059
0.0146116
0.0146199
0.0146319
0.0146495
0.0146751
0.0147125
0.014767
0.0148464
0.0149617
0.0151287
0.0153689
0.0157109
0.0161914
0.0168542
0.0177475
0.0189204
0.0204141
0.014593
0.014593
0.014593
0.014593
0.014593
0.014593
0.014593
0.014593
0.014593
0.014593
0.014593
0.014593
0.014593
0.0145931
0.0145931
0.0145931
0.0145932
0.0145932
0.0145933
0.0145934
0.0145936
0.0145939
0.0145942
0.0145947
0.0145955
0.0145965
0.014598
0.0146001
0.0146031
0.0146074
0.0146136
0.0146226
0.0146355
0.0146541
0.014681
0.0147198
0.014776
0.0148571
0.014974
0.0151416
0.0153805
0.015718
0.0161882
0.0168318
0.0176925
0.0188119
0.020222
0.0219385
0.023959
0.0262561
0.014593
0.014593
0.014593
0.014593
0.014593
0.014593
0.014593
0.014593
0.014593
0.0145931
0.0145931
0.0145931
0.0145932
0.0145932
0.0145933
0.0145934
0.0145936
0.0145938
0.0145941
0.0145945
0.0145951
0.0145959
0.0145971
0.0145988
0.0146012
0.0146046
0.0146094
0.0146163
0.0146261
0.0146401
0.0146602
0.0146889
0.0147301
0.014789
0.0148733
0.0149937
0.0151648
0.0154065
0.0157449
0.0162123
0.0168471
0.0176901
0.0187801
0.0201465
0.0218031
0.0237432
0.0259398
0.0283492
0.0309214
0.0335935
0.014593
0.014593
0.014593
0.014593
0.014593
0.0145931
0.0145931
0.0145931
0.0145931
0.0145932
0.0145933
0.0145934
0.0145935
0.0145937
0.014594
0.0145943
0.0145948
0.0145956
0.0145966
0.014598
0.0145999
0.0146027
0.0146066
0.014612
0.0146198
0.0146307
0.0146463
0.0146683
0.0146995
0.0147438
0.0148067
0.0148959
0.0150219
0.0151995
0.015448
0.0157925
0.0162641
0.0168989
0.0177353
0.018809
0.0201476
0.0217639
0.0236521
0.025787
0.028127
0.0306195
0.0332069
0.0358279
0.0384238
0.0409469
0.014593
0.0145931
0.0145931
0.0145931
0.0145931
0.0145932
0.0145933
0.0145934
0.0145935
0.0145937
0.0145939
0.0145942
0.0145947
0.0145953
0.0145962
0.0145974
0.0145991
0.0146014
0.0146046
0.0146092
0.0146155
0.0146244
0.0146368
0.0146542
0.0146788
0.0147133
0.0147618
0.0148301
0.0149259
0.0150602
0.0152475
0.0155069
0.015863
0.0163457
0.0169891
0.017829
0.0188985
0.0202223
0.021812
0.0236618
0.0257486
0.0280342
0.0304699
0.0330018
0.0355726
0.0381222
0.0405964
0.0429462
0.045116
0.0470578
0.0145931
0.0145932
0.0145932
0.0145933
0.0145934
0.0145935
0.0145936
0.0145939
0.0145942
0.0145946
0.0145952
0.014596
0.014597
0.0145985
0.0146005
0.0146033
0.0146072
0.0146126
0.01462
0.0146303
0.0146447
0.0146647
0.0146925
0.0147313
0.0147853
0.0148606
0.0149653
0.0151106
0.0153111
0.0155861
0.0159596
0.0164604
0.0171209
0.0179742
0.0190506
0.0203718
0.021947
0.0237702
0.0258193
0.0280589
0.0304439
0.0329247
0.0354492
0.0379622
0.0404113
0.0427494
0.0449274
0.0468866
0.048571
0.0499429
0.0510217
0.0145934
0.0145935
0.0145937
0.0145939
0.0145942
0.0145946
0.0145951
0.0145958
0.0145968
0.0145982
0.0146
0.0146025
0.014606
0.0146107
0.0146171
0.014626
0.0146382
0.0146551
0.0146783
0.0147103
0.0147546
0.0148158
0.0149002
0.0150164
0.015176
0.015394
0.0156897
0.0160868
0.0166131
0.0172992
0.0181758
0.0192696
0.0205992
0.0221714
0.0239787
0.0259998
0.0282011
0.030541
0.0329735
0.0354511
0.0379241
0.0403427
0.0426627
0.0448412
0.0468274
0.0485656
0.0500135
0.051157
0.0520184
0.0526354
0.0530735
0.0145939
0.0145942
0.0145946
0.0145951
0.0145958
0.0145968
0.0145981
0.0145998
0.0146021
0.0146053
0.0146095
0.0146154
0.0146233
0.014634
0.0146487
0.0146688
0.0146962
0.0147338
0.0147852
0.0148554
0.0149515
0.0150825
0.0152604
0.0155007
0.0158229
0.0162505
0.0168103
0.0175309
0.0184402
0.0195615
0.0209099
0.022489
0.0242899
0.0262912
0.0284612
0.0307608
0.0331477
0.0355783
0.038008
0.0403904
0.042684
0.0448501
0.0468453
0.0486188
0.0501253
0.0513417
0.0522755
0.0529601
0.0534401
0.0537666
0.0539786
0.0541182
0.0145959
0.0145969
0.0145981
0.0145998
0.014602
0.014605
0.014609
0.0146144
0.0146217
0.0146315
0.0146448
0.0146628
0.0146871
0.01472
0.0147646
0.0148252
0.0149072
0.0150181
0.0151678
0.0153689
0.0156374
0.0159929
0.0164587
0.0170604
0.0178246
0.018776
0.0199342
0.0213105
0.0229054
0.024708
0.0266966
0.028841
0.0311046
0.0334483
0.0358322
0.0382161
0.0405576
0.0428175
0.0449605
0.0469494
0.0487392
0.0502847
0.0515571
0.0525536
0.0532986
0.0538312
0.0541965
0.0544386
0.0545915
0.0546847
0.054737
0.0547584
0.0146022
0.0146052
0.0146091
0.0146143
0.0146212
0.0146305
0.0146429
0.0146595
0.0146818
0.0147117
0.0147518
0.0148057
0.014878
0.0149751
0.015105
0.0152784
0.0155085
0.0158121
0.0162088
0.0167213
0.0173741
0.018191
0.0191936
0.0203974
0.0218096
0.0234275
0.0252381
0.0272196
0.0293428
0.0315736
0.0338759
0.036213
0.038549
0.0408455
0.0430657
0.045177
0.047147
0.0489362
0.0505024
0.0518136
0.0528596
0.0536557
0.0542351
0.0546388
0.0549098
0.0550835
0.0551878
0.0552481
0.0552736
0.0552726
0.0552687
0.0552582
0.0146217
0.0146308
0.0146428
0.0146586
0.0146797
0.0147078
0.014745
0.0147946
0.0148606
0.0149483
0.0150648
0.0152189
0.0154221
0.0156885
0.0160353
0.0164822
0.017051
0.0177643
0.0186433
0.0197056
0.0209625
0.0224171
0.0240634
0.0258866
0.0278647
0.0299695
0.0321695
0.0344313
0.0367216
0.0390077
0.0412553
0.0434303
0.0455026
0.0474431
0.049218
0.0507884
0.0521215
0.053202
0.0540381
0.0546574
0.0550956
0.0553931
0.0555868
0.0557038
0.0557715
0.055803
0.0558018
0.0557933
0.0557793
0.0557495
0.0557049
0.055653
0.0146807
0.0147079
0.0147437
0.0147908
0.014853
0.0149348
0.0150425
0.0151839
0.0153688
0.0156095
0.015921
0.0163206
0.0168278
0.0174631
0.0182467
0.0191966
0.0203261
0.0216421
0.0231437
0.0248219
0.0266603
0.0286367
0.0307245
0.0328942
0.0351153
0.0373576
0.0395917
0.0417868
0.0439116
0.0459382
0.0478407
0.0495895
0.0511497
0.052489
0.0535895
0.0544539
0.0551035
0.0555702
0.0558914
0.0561035
0.0562327
0.0563067
0.0563441
0.0563452
0.0563325
0.0563146
0.056287
0.0562421
0.056187
0.0561245
0.0560565
0.0559888
0.0148542
0.0149331
0.0150358
0.0151696
0.015343
0.015567
0.0158548
0.0162217
0.0166851
0.0172636
0.0179759
0.0188395
0.0198681
0.0210707
0.0224499
0.0240008
0.025712
0.0275659
0.0295405
0.0316107
0.0337494
0.0359286
0.0381212
0.0403007
0.0424397
0.0445094
0.0464844
0.0483412
0.0500539
0.0515911
0.0529225
0.054029
0.0549091
0.0555792
0.0560674
0.056408
0.0566347
0.056775
0.0568557
0.0568969
0.0569004
0.0568855
0.0568634
0.0568341
0.0567903
0.0567341
0.0566707
0.0565997
0.0565261
0.0564527
0.056381
0.0563108
0.015342
0.0155567
0.0158302
0.0161763
0.0166105
0.0171498
0.0178112
0.018611
0.0195628
0.0206762
0.0219557
0.0233995
0.0249997
0.0267425
0.0286099
0.0305806
0.032631
0.0347363
0.0368713
0.0390116
0.0411336
0.0432126
0.0452225
0.0471401
0.0489443
0.050612
0.0521154
0.0534264
0.0545255
0.0554089
0.0560894
0.0565914
0.0569453
0.0571832
0.0573327
0.0574189
0.0574616
0.057468
0.0574527
0.0574248
0.0573917
0.0573493
0.0572922
0.0572269
0.0571546
0.0570771
0.056999
0.0569217
0.0568454
0.0567694
0.0566947
0.0566212
0.0171123
0.0177402
0.0184957
0.0193919
0.0204383
0.0216401
0.0229972
0.0245041
0.0261504
0.0279209
0.0297976
0.0317603
0.0337871
0.0358555
0.0379429
0.0400276
0.0420884
0.0441033
0.0460487
0.0479035
0.0496486
0.0512636
0.0527235
0.0540027
0.0550824
0.0559575
0.0566383
0.0571453
0.0575064
0.0577515
0.0579069
0.0579964
0.0580403
0.0580483
0.0580321
0.0579995
0.0579616
0.0579182
0.0578596
0.0577917
0.0577188
0.0576387
0.0575565
0.0574746
0.0573935
0.0573127
0.0572325
0.0571532
0.057074
0.0569958
0.0569184
0.0203439
0.0214881
0.0227781
0.02421
0.0257753
0.0274616
0.0292534
0.031133
0.0330817
0.0350795
0.0371063
0.0391417
0.0411667
0.0431624
0.0451089
0.046985
0.0487716
0.0504516
0.0520068
0.0534146
0.0546519
0.0557012
0.0565573
0.0572282
0.0577317
0.0580936
0.0583413
0.0584985
0.0585897
0.058634
0.0586408
0.0586233
0.0585881
0.0585445
0.0584973
0.0584383
0.0583682
0.0582927
0.0582103
0.0581239
0.0580375
0.0579519
0.057867
0.0577822
0.0576982
0.0576145
0.0575311
0.0574481
0.0573651
0.0572829
0.0572013
0.0256064
0.0272218
0.0289393
0.0307434
0.0326178
0.034545
0.0365073
0.0384866
0.0404649
0.0424256
0.0443517
0.0462252
0.048027
0.0497403
0.0513496
0.0528384
0.0541865
0.0553728
0.056382
0.0572089
0.0578603
0.0583525
0.0587087
0.0589535
0.0591089
0.0591994
0.0592426
0.0592462
0.0592276
0.0591895
0.0591394
0.0590873
0.0590277
0.0589546
0.0588756
0.058792
0.0587022
0.0586115
0.0585213
0.0584316
0.058342
0.0582533
0.0581653
0.0580776
0.0579902
0.0579031
0.0578159
0.057729
0.057642
0.0575556
0.0574697
0.0342515
0.0361488
0.038068
0.0399931
0.0419086
0.0437996
0.0456513
0.0474469
0.0491696
0.0508045
0.0523376
0.053754
0.0550353
0.0561628
0.0571229
0.0579117
0.0585351
0.0590084
0.0593521
0.0595886
0.0597391
0.0598263
0.0598657
0.0598651
0.0598444
0.0598026
0.0597469
0.0596893
0.0596272
0.0595509
0.0594684
0.0593826
0.05929
0.0591948
0.0591003
0.0590063
0.0589125
0.0588192
0.0587267
0.0586345
0.0585425
0.058451
0.0583597
0.0582686
0.0581775
0.0580865
0.0579955
0.0579043
0.0578137
0.0577234
0.0416203
0.0434667
0.0452826
0.0470546
0.0487674
0.050406
0.0519574
0.0534093
0.0547478
0.055956
0.0570174
0.0579209
0.0586635
0.0592513
0.0596986
0.0600239
0.0602472
0.0603893
0.0604699
0.0605029
0.0604984
0.0604741
0.0604272
0.0603665
0.0603032
0.0602364
0.0601581
0.060072
0.0599827
0.0598874
0.0597881
0.059689
0.0595907
0.0594924
0.0593946
0.0592976
0.0592011
0.0591049
0.0590092
0.0589136
0.0588182
0.058723
0.0586278
0.0585328
0.0584377
0.0583426
0.0582474
0.0581521
0.0580572
0.0579625
0.0485542
0.050179
0.0517287
0.0531918
0.0545574
0.0558125
0.0569418
0.057931
0.0587713
0.0594611
0.0600066
0.0604217
0.0607233
0.0609289
0.0610589
0.0611301
0.0611549
0.0611457
0.0611154
0.0610634
0.0609979
0.0609282
0.0608562
0.0607755
0.0606852
0.0605917
0.0604941
0.0603911
0.0602877
0.060185
0.0600823
0.0599798
0.0598782
0.0597773
0.0596767
0.0595766
0.0594769
0.0593774
0.0592781
0.0591789
0.0590798
0.0589808
0.0588817
0.0587826
0.0586835
0.0585842
0.0584849
0.0583854
0.0582862
0.058187
0.0544985
0.0557733
0.0569402
0.0579852
0.0588967
0.059668
0.0602992
0.0607972
0.0611753
0.0614487
0.0616324
0.0617471
0.0618067
0.0618209
0.0618057
0.0617686
0.0617107
0.0616398
0.061564
0.0614863
0.0614019
0.0613075
0.0612097
0.0611094
0.061003
0.060895
0.0607881
0.0606812
0.0605745
0.0604684
0.0603631
0.0602581
0.0601536
0.0600495
0.0599458
0.0598423
0.0597391
0.0596361
0.0595331
0.0594302
0.0593272
0.0592243
0.0591212
0.0590181
0.0589149
0.0588115
0.058708
0.0586042
0.0585007
0.058397
0.0590773
0.0599065
0.0606045
0.0611725
0.0616189
0.0619556
0.0621963
0.0623561
0.0624529
0.062499
0.0625001
0.0624779
0.0624332
0.0623685
0.0622916
0.0622103
0.0621266
0.0620372
0.0619391
0.0618371
0.0617327
0.0616232
0.061511
0.0613997
0.0612888
0.0611776
0.0610672
0.0609576
0.0608485
0.0607397
0.0606315
0.0605236
0.0604159
0.0603085
0.0602013
0.0600944
0.0599875
0.0598807
0.059774
0.0596672
0.0595604
0.0594535
0.0593465
0.0592393
0.0591319
0.0590243
0.0589166
0.0588085
0.0587006
0.0585925
0.0620745
0.0624663
0.0627589
0.062964
0.0630978
0.0631741
0.0632027
0.0631932
0.0631617
0.0631085
0.063036
0.062953
0.0628662
0.0627763
0.0626813
0.0625796
0.0624731
0.0623642
0.0622515
0.0621354
0.0620197
0.0619048
0.0617895
0.0616745
0.0615606
0.0614472
0.0613342
0.0612218
0.0611098
0.0609981
0.0608868
0.0607756
0.0606646
0.0605538
0.0604431
0.0603325
0.0602219
0.0601114
0.0600008
0.0598902
0.0597794
0.0596685
0.0595574
0.0594461
0.0593346
0.0592228
0.0591107
0.0589983
0.058886
0.0587734
0.0637483
0.0638544
0.0639089
0.0639182
0.0638982
0.0638553
0.0637923
0.0637126
0.0636235
0.0635308
0.0634348
0.0633341
0.0632282
0.0631172
0.0630039
0.0628875
0.0627677
0.0626476
0.0625286
0.0624093
0.06229
0.0621719
0.0620544
0.0619371
0.0618204
0.0617043
0.0615885
0.0614731
0.061358
0.0612432
0.0611285
0.061014
0.0608996
0.0607852
0.0606709
0.0605566
0.0604423
0.060328
0.0602135
0.0600989
0.0599842
0.0598693
0.0597541
0.0596386
0.0595229
0.0594068
0.0592904
0.0591737
0.0590569
0.0589398
0.0646126
0.064558
0.0644846
0.0643976
0.0643019
0.0642029
0.064101
0.0639948
0.0638842
0.0637689
0.063651
0.0635308
0.0634073
0.063283
0.0631599
0.0630366
0.0629131
0.0627909
0.0626693
0.0625479
0.0624271
0.062307
0.0621871
0.0620676
0.0619485
0.0618297
0.0617111
0.0615928
0.0614746
0.0613566
0.0612386
0.0611207
0.0610028
0.0608848
0.0607668
0.0606487
0.0605305
0.0604121
0.0602936
0.0601748
0.0600558
0.0599364
0.0598168
0.0596968
0.0595764
0.0594557
0.0593346
0.0592134
0.0590917
0.0650896
0.0649874
0.064882
0.0647744
0.0646626
0.0645468
0.0644272
0.064305
0.0641806
0.0640535
0.0639252
0.063798
0.0636709
0.0635434
0.063417
0.0632915
0.063166
0.0630411
0.062917
0.0627932
0.0626698
0.0625468
0.0624241
0.0623017
0.0621795
0.0620575
0.0619357
0.061814
0.0616925
0.061571
0.0614495
0.061328
0.0612065
0.0610848
0.060963
0.0608411
0.060719
0.0605966
0.0604741
0.0603512
0.060228
0.0601045
0.0599806
0.0598564
0.0597317
0.0596066
0.059481
0.0593553
0.0592291
0.0654539
0.0653365
0.0652155
0.0650917
0.064965
0.0648364
0.0647056
0.0645736
0.0644423
0.0643115
0.0641802
0.0640498
0.0639203
0.063791
0.0636622
0.0635341
0.0634064
0.0632791
0.0631523
0.0630258
0.0628995
0.0627736
0.0626479
0.0625224
0.062397
0.0622718
0.0621467
0.0620217
0.0618967
0.0617717
0.0616466
0.0615215
0.0613962
0.0612708
0.0611452
0.0610194
0.0608933
0.060767
0.0606404
0.0605134
0.060386
0.0602583
0.0601302
0.0600016
0.0598725
0.0597431
0.0596131
0.0594829
0.0593521
0.0656305
0.0654977
0.065363
0.0652274
0.0650923
0.0649578
0.0648228
0.0646885
0.0645553
0.0644222
0.0642895
0.0641577
0.0640262
0.0638951
0.0637645
0.0636343
0.0635043
0.0633747
0.0632453
0.0631161
0.0629872
0.0628584
0.0627297
0.0626011
0.0624726
0.0623441
0.0622157
0.0620872
0.0619586
0.0618299
0.0617011
0.0615721
0.0614429
0.0613134
0.0611837
0.0610536
0.0609232
0.0607925
0.0606613
0.0605298
0.0603978
0.0602654
0.0601324
0.059999
0.0598652
0.0597307
0.0595961
0.0594608
0.065886
0.0657472
0.0656091
0.0654706
0.0653325
0.0651957
0.065059
0.0649226
0.0647871
0.064652
0.0645172
0.0643829
0.0642491
0.0641154
0.0639822
0.0638492
0.0637165
0.063584
0.0634517
0.0633195
0.0631875
0.0630555
0.0629236
0.0627918
0.0626599
0.062528
0.062396