/*--------------------------------*- C++ -*----------------------------------*\
| =========                 |                                                 |
| \\      /  F ield         | OpenFOAM: The Open Source CFD Toolbox           |
|  \\    /   O peration     | Version:  v1706                                 |
|   \\  /    A nd           | Web:      www.OpenFOAM.com                      |
|    \\/     M anipulation  |                                                 |
\*---------------------------------------------------------------------------*/
FoamFile
{
    version     2.0;
    format      ascii;
    class       volScalarField;
    location    "3.6e-05";
    object      Mach;
}
// * * * * * * * * * * * * * * * * * * * * * * * * * * * * * * * * * * * * * //

dimensions      [0 0 0 0 0 0 0];


internalField   nonuniform List<scalar> 
30038
(
7.18506
7.18506
7.18506
7.18506
7.18506
7.18506
7.18506
7.18506
7.18506
7.18506
7.18506
7.18506
7.18506
7.18506
7.18506
7.18506
7.18506
7.18506
7.18506
7.18506
7.18506
7.18506
7.18506
7.18506
7.18506
7.18506
7.18506
7.18506
7.18506
7.18506
7.18506
7.18506
7.18506
7.18506
7.18506
7.18506
7.18506
7.18506
7.18506
7.18506
7.18506
7.18506
7.18506
7.18506
7.18506
7.18506
7.18506
7.18506
7.18506
7.18506
7.18506
7.18506
7.18506
7.18506
7.18506
7.18506
7.18506
7.18506
7.18506
7.18506
7.18506
7.18506
7.18506
7.18506
7.18506
7.18506
7.18506
7.18506
7.18506
7.18506
7.18506
7.18506
7.18506
7.18506
7.18506
7.18506
7.18506
7.18506
7.18506
7.18506
7.18506
7.18506
7.18506
7.18506
7.18506
7.18506
7.18506
7.18506
7.18506
7.18506
7.18506
7.18506
7.18506
7.18506
7.18506
7.18506
7.18506
7.18506
7.18506
7.18506
7.18506
7.18506
7.18506
7.18506
7.18506
7.18506
7.18506
7.18506
7.18506
7.18506
7.18506
7.18506
7.18506
7.18506
7.18506
7.18506
7.18506
7.18506
7.18506
7.18506
7.18506
7.18506
7.18506
7.18506
7.18506
7.18506
7.18506
7.18506
7.18506
7.18506
7.18506
7.18506
7.18506
7.18506
7.18506
7.18506
7.18506
7.18506
7.18506
7.18506
7.18506
7.18506
7.18506
7.18506
7.18506
7.18506
7.18506
7.18506
7.18506
7.18506
7.18506
7.18506
7.18506
7.18506
7.18506
7.18506
7.18506
7.18506
7.18506
7.18506
7.18506
7.18506
7.18506
7.18506
7.18506
7.18506
7.18506
7.18506
7.18506
7.18506
7.18506
7.18506
7.18506
7.18506
7.18506
7.18506
7.18506
7.18506
7.18506
7.18506
7.18506
7.18506
7.18506
7.18506
7.18506
7.18506
7.18506
7.18506
7.18506
7.18506
7.18506
7.18506
7.18506
7.18506
7.18506
7.18506
7.18506
7.18506
7.18506
7.18506
7.18506
7.18506
7.18506
7.18506
7.18506
7.18506
7.18506
7.18506
7.18506
7.18506
7.18506
7.18506
7.18506
7.18506
7.18506
7.18506
7.18506
7.18506
7.18506
7.18506
7.18506
7.18506
7.18506
7.18506
7.18506
7.18506
7.18506
7.18506
7.18506
7.18506
7.18506
7.18506
7.18506
7.18506
7.18506
7.18506
7.18506
7.18506
7.18506
7.18506
7.18506
7.18506
7.18506
7.18506
7.18506
7.18506
7.18506
7.18506
7.18506
7.18506
7.18506
7.18506
7.18506
7.18506
7.18506
7.18506
7.18506
7.18506
7.18506
7.18506
7.18506
7.18506
7.18506
7.18506
7.18506
7.18506
7.18506
7.18506
7.18506
7.18506
7.18506
7.18506
7.18506
7.18506
7.18506
7.18506
7.18506
7.18506
7.18506
7.18506
7.18506
7.18506
7.18506
7.18506
7.18506
7.18506
7.18506
7.18506
7.18506
7.18506
7.18506
7.18506
7.18506
7.18506
7.18506
7.18506
7.18506
7.18506
7.18506
7.18506
7.18506
7.18506
7.18506
7.18506
7.18506
7.18506
7.18506
7.18506
7.18506
7.18506
7.18506
7.18506
7.18506
7.18506
7.18506
7.18506
7.18506
7.18506
7.18506
7.18506
7.18506
7.18506
7.18506
7.18506
7.18506
7.18506
7.18506
7.18506
7.18506
7.18506
7.18506
7.18506
7.18506
7.18506
7.18506
7.18506
7.18506
7.18506
7.18506
7.18506
7.18506
7.18506
7.18506
7.18506
7.18506
7.18506
7.18506
7.18506
7.18506
7.18506
7.18506
7.18506
7.18506
7.18506
7.18506
7.18506
7.18506
7.18506
7.18506
7.18506
7.18506
7.18506
7.18506
7.18506
7.18506
7.18506
7.18506
7.18506
7.18506
7.18506
7.18506
7.18506
7.18506
7.18506
7.18506
7.18506
7.18506
7.18506
7.18506
7.18506
7.18506
7.18506
7.18506
7.18506
7.18506
7.18506
7.18506
7.18506
7.18506
7.18506
7.18506
7.18506
7.18506
7.18506
7.18506
7.18506
7.18506
7.18506
7.18506
7.18506
7.18506
7.18506
7.18506
7.18506
7.18506
7.18506
7.18506
7.18506
7.18506
7.18506
7.18506
7.18506
7.18506
7.18506
7.18506
7.18506
7.18506
7.18506
7.18506
7.18506
7.18506
7.18506
7.18506
7.18506
7.18506
7.18506
7.18506
7.18506
7.18506
7.18506
7.18506
7.18506
7.18506
7.18506
7.18506
7.18506
7.18506
7.18506
7.18506
7.18506
7.18506
7.18506
7.18506
7.18506
7.18506
7.18506
7.18506
7.18506
7.18506
7.18506
7.18506
7.18506
7.18506
7.18506
7.18506
7.18506
7.18506
7.18506
7.18506
7.18506
7.18506
7.18506
7.18506
7.18506
7.18506
7.18506
7.18506
7.18506
7.18506
7.18506
7.18506
7.18506
7.18506
7.18506
7.18506
7.18506
7.18506
7.18506
7.18506
7.18506
7.18506
7.18506
7.18506
7.18506
7.18506
7.18506
7.18506
7.18506
7.18506
7.18506
7.18506
7.18506
7.18506
7.18506
7.18506
7.18506
7.18506
7.18506
7.18506
7.18506
7.18506
7.18506
7.18506
7.18506
7.18506
7.18506
7.18506
7.18506
7.18506
7.18506
7.18506
7.18506
7.18506
7.18506
7.18506
7.18506
7.18506
7.18506
7.18506
7.18506
7.18506
7.18506
7.18506
7.18506
7.18506
7.18506
7.18506
7.18506
7.18506
7.18506
7.18506
7.18506
7.18506
7.18506
7.18506
7.18506
7.18506
7.18506
7.18506
7.18506
7.18506
7.18506
7.18506
7.18506
7.18506
7.18506
7.18506
7.18506
7.18506
7.18506
7.18506
7.18506
7.18506
7.18506
7.18506
7.18506
7.18506
7.18506
7.18506
7.18506
7.18506
7.18506
7.18506
7.18506
7.18506
7.18506
7.18506
7.18506
7.18506
7.18506
7.18506
7.18506
7.18506
7.18506
7.18506
7.18506
7.18506
7.18506
7.18506
7.18506
7.18506
7.18506
7.18506
7.18506
7.18506
7.18506
7.18506
7.18506
7.18506
7.18506
7.18506
7.18506
7.18506
7.18506
7.18506
7.18506
7.18506
7.18506
7.18506
7.18506
7.18506
7.18506
7.18506
7.18506
7.18506
7.18506
7.18506
7.18506
7.18506
7.18506
7.18506
7.18506
7.18506
7.18506
7.18506
7.18506
7.18506
7.18506
7.18506
7.18506
7.18506
7.18506
7.18506
7.18506
7.18506
7.18506
7.18506
7.18506
7.18506
7.18506
7.18506
7.18506
7.18506
7.18506
7.18506
7.18506
7.18506
7.18506
7.18506
7.18506
7.18506
7.18506
7.18506
7.18506
7.18506
7.18506
7.18506
7.18506
7.18506
7.18506
7.18506
7.18506
7.18506
7.18506
7.18506
7.18506
7.18506
7.18506
7.18506
7.18506
7.18506
7.18506
7.18506
7.18506
7.18506
7.18506
7.18506
7.18506
7.18506
7.18506
7.18506
7.18506
7.18506
7.18506
7.18506
7.18506
7.18506
7.18506
7.18506
7.18506
7.18506
7.18506
7.18506
7.18506
7.18506
7.18506
7.18506
7.18506
7.18506
7.18506
7.18506
7.18506
7.18506
7.18506
7.18506
7.18506
7.18506
7.18506
7.18506
7.18506
7.18506
7.18506
7.18506
7.18506
7.18506
7.18506
7.18506
7.18506
7.18506
7.18506
7.18506
7.18506
7.18506
7.18506
7.18506
7.18506
7.18506
7.18506
7.18506
7.18506
7.18506
7.18506
7.18506
7.18506
7.18506
7.18506
7.18506
7.18506
7.18506
7.18506
7.18506
7.18506
7.18506
7.18506
7.18506
7.18506
7.18506
7.18506
7.18506
7.18506
7.18506
7.18506
7.18506
7.18506
7.18506
7.18506
7.18506
7.18506
7.18506
7.18506
7.18506
7.18506
7.18506
7.18506
7.18506
7.18506
7.18506
7.18506
7.18506
7.18506
7.18506
7.18506
7.18506
7.18506
7.18506
7.18506
7.18506
7.18506
7.18506
7.18506
7.18506
7.18506
7.18506
7.18506
7.18506
7.18506
7.18506
7.18506
7.18506
7.18506
7.18506
7.18506
7.18506
7.18506
7.18506
7.18506
7.18506
7.18506
7.18506
7.18506
7.18506
7.18506
7.18506
7.18506
7.18506
7.18506
7.18506
7.18506
7.18506
7.18506
7.18506
7.18506
7.18506
7.18506
7.18506
7.18506
7.18506
7.18506
7.18506
7.18506
7.18506
7.18506
7.18506
7.18506
7.18506
7.18506
7.18506
7.18506
7.18506
7.18506
7.18506
7.18506
7.18506
7.18506
7.18506
7.18506
7.18506
7.18506
7.18506
7.18506
7.18506
7.18506
7.18506
7.18506
7.18506
7.18506
7.18506
7.18506
7.18506
7.18506
7.18506
7.18506
7.18506
7.18506
7.18506
7.18506
7.18506
7.18506
7.18506
7.18506
7.18506
7.18506
7.18506
7.18506
7.18506
7.18506
7.18506
7.18506
7.18506
7.18506
7.18506
7.18506
7.18506
7.18506
7.18506
7.18506
7.18506
7.18506
7.18506
7.18506
7.18506
7.18506
7.18506
7.18506
7.18506
7.18506
7.18506
7.18506
7.18506
7.18506
7.18506
7.18506
7.18506
7.18506
7.18506
7.18506
7.18506
7.18506
7.18506
7.18506
7.18506
7.18506
7.18506
7.18506
7.18506
7.18506
7.18506
7.18506
7.18506
7.18506
7.18506
7.18506
7.18506
7.18506
7.18506
7.18506
7.18506
7.18506
7.18506
7.18506
7.18506
7.18506
7.18506
7.18506
7.18506
7.18506
7.18506
7.18506
7.18506
7.18506
7.18506
7.18506
7.18506
7.18506
7.18506
7.18506
7.18506
7.18506
7.18506
7.18506
7.18506
7.18506
7.18506
7.18506
7.18506
7.18506
7.18506
7.18506
7.18506
7.18506
7.18506
7.18506
7.18506
7.18506
7.18506
7.18506
7.18506
7.18506
7.18506
7.18506
7.18506
7.18506
7.18506
7.18506
7.18506
7.18506
7.18506
7.18506
7.18506
7.18506
7.18506
7.18506
7.18506
7.18506
7.18506
7.18506
7.18506
7.18506
7.18506
7.18506
7.18506
7.18506
7.18506
7.18506
7.18506
7.18506
7.18506
7.18506
7.18506
7.18506
7.18506
7.18506
7.18506
7.18506
7.18506
7.18506
7.18506
7.18506
7.18506
7.18506
7.18506
7.18506
7.18506
7.18506
7.18506
7.18506
7.18506
7.18506
7.18506
7.18506
7.18506
7.18506
7.18506
7.18506
7.18506
7.18506
7.18506
7.18506
7.18506
7.18506
7.18506
7.18506
7.18506
7.18506
7.18506
7.18506
7.18506
7.18506
7.18506
7.18506
7.18506
7.18506
7.18506
7.18506
7.18506
7.18506
7.18506
7.18506
7.18506
7.18506
7.18506
7.18506
7.18506
7.18506
7.18506
7.18506
7.18506
7.18506
7.18506
7.18506
7.18506
7.18506
7.18506
7.18506
7.18506
7.18506
7.18506
7.18506
7.18506
7.18506
7.18506
7.18506
7.18506
7.18506
7.18506
7.18506
7.18506
7.18506
7.18506
7.18506
7.18506
7.18506
7.18506
7.18506
7.18506
7.18506
7.18506
7.18506
7.18506
7.18506
7.18506
7.18506
7.18506
7.18506
7.18506
7.18506
7.18506
7.18506
7.18506
7.18506
7.18506
7.18506
7.18506
7.18506
7.18506
7.18506
7.18506
7.18506
7.18506
7.18506
7.18506
7.18506
7.18506
7.18506
7.18506
7.18506
7.18506
7.18506
7.18506
7.18506
7.18506
7.18506
7.18506
7.18506
7.18506
7.18506
7.18506
7.18506
7.18506
7.18506
7.18506
7.18506
7.18506
7.18506
7.18506
7.18506
7.18506
7.18506
7.18506
7.18506
7.18506
7.18506
7.18506
7.18506
7.18506
7.18506
7.18506
7.18506
7.18506
7.18506
7.18506
7.18506
7.18506
7.18506
7.18506
7.18506
7.18506
7.18506
7.18506
7.18506
7.18506
7.18506
7.18506
7.18506
7.18506
7.18506
7.18506
7.18506
7.18506
7.18506
7.18506
7.18506
7.18506
7.18506
7.18506
7.18506
7.18506
7.18506
7.18506
7.18506
7.18506
7.18506
7.18506
7.18506
7.18506
7.18506
7.18506
7.18506
7.18506
7.18506
7.18506
7.18506
7.18506
7.18506
7.18506
7.18506
7.18506
7.18506
7.18506
7.18506
7.18506
7.18506
7.18506
7.18506
7.18506
7.18506
7.18506
7.18506
7.18506
7.18506
7.18506
7.18505
7.18506
7.18506
7.18506
7.18506
7.18506
7.18506
7.18506
7.18506
7.18506
7.18506
7.18506
7.18506
7.18506
7.18506
7.18506
7.18506
7.18506
7.18506
7.18506
7.18506
7.18506
7.18506
7.18506
7.18506
7.18506
7.18506
7.18506
7.18506
7.18506
7.18506
7.18506
7.18506
7.18506
7.18506
7.18506
7.18506
7.18506
7.18506
7.18506
7.18506
7.18506
7.18506
7.18506
7.18506
7.18506
7.18506
7.18505
7.18504
7.18503
7.18501
7.18506
7.18506
7.18506
7.18506
7.18506
7.18506
7.18506
7.18506
7.18506
7.18506
7.18506
7.18506
7.18506
7.18506
7.18506
7.18506
7.18506
7.18506
7.18506
7.18506
7.18506
7.18506
7.18506
7.18506
7.18506
7.18506
7.18506
7.18506
7.18506
7.18506
7.18506
7.18506
7.18506
7.18506
7.18506
7.18506
7.18506
7.18506
7.18506
7.18506
7.18506
7.18506
7.18506
7.18505
7.18504
7.18503
7.18501
7.18499
7.18495
7.18488
7.18506
7.18506
7.18506
7.18506
7.18506
7.18506
7.18506
7.18506
7.18506
7.18506
7.18506
7.18506
7.18506
7.18506
7.18506
7.18506
7.18506
7.18506
7.18506
7.18506
7.18506
7.18506
7.18506
7.18506
7.18506
7.18506
7.18506
7.18506
7.18506
7.18506
7.18506
7.18506
7.18506
7.18506
7.18506
7.18506
7.18506
7.18506
7.18506
7.18505
7.18505
7.18504
7.18503
7.18501
7.18498
7.18494
7.18488
7.18478
7.18463
7.18439
7.18506
7.18506
7.18506
7.18506
7.18506
7.18506
7.18506
7.18506
7.18506
7.18506
7.18506
7.18506
7.18506
7.18506
7.18506
7.18506
7.18506
7.18506
7.18506
7.18506
7.18506
7.18506
7.18506
7.18506
7.18506
7.18506
7.18506
7.18506
7.18506
7.18506
7.18506
7.18506
7.18506
7.18506
7.18506
7.18506
7.18505
7.18505
7.18504
7.18503
7.18501
7.18498
7.18494
7.18487
7.18477
7.18462
7.1844
7.18405
7.18352
7.18267
7.18506
7.18506
7.18506
7.18506
7.18506
7.18506
7.18506
7.18506
7.18506
7.18506
7.18506
7.18506
7.18506
7.18506
7.18506
7.18506
7.18506
7.18506
7.18506
7.18506
7.18506
7.18506
7.18506
7.18506
7.18506
7.18506
7.18506
7.18506
7.18506
7.18506
7.18506
7.18506
7.18506
7.18505
7.18505
7.18504
7.18502
7.185
7.18497
7.18493
7.18486
7.18476
7.1846
7.18437
7.18403
7.18351
7.18272
7.18152
7.17967
7.17677
7.18506
7.18506
7.18506
7.18506
7.18506
7.18506
7.18506
7.18506
7.18506
7.18506
7.18506
7.18506
7.18506
7.18506
7.18506
7.18506
7.18506
7.18506
7.18506
7.18506
7.18506
7.18506
7.18506
7.18506
7.18506
7.18506
7.18506
7.18506
7.18506
7.18505
7.18505
7.18504
7.18503
7.18502
7.18499
7.18496
7.18491
7.18484
7.18473
7.18457
7.18433
7.18398
7.18344
7.18265
7.18145
7.17966
7.17696
7.17287
7.16663
7.15693
7.18506
7.18506
7.18506
7.18506
7.18506
7.18506
7.18506
7.18506
7.18506
7.18506
7.18506
7.18506
7.18506
7.18506
7.18506
7.18506
7.18506
7.18506
7.18506
7.18506
7.18506
7.18506
7.18506
7.18506
7.18506
7.18506
7.18505
7.18505
7.18504
7.18503
7.18501
7.18498
7.18495
7.18489
7.18481
7.1847
7.18453
7.18427
7.1839
7.18335
7.18253
7.18131
7.17949
7.17679
7.17275
7.16673
7.15771
7.14423
7.12388
7.09291
7.18506
7.18506
7.18506
7.18506
7.18506
7.18506
7.18506
7.18506
7.18506
7.18506
7.18506
7.18506
7.18506
7.18506
7.18506
7.18506
7.18506
7.18506
7.18506
7.18506
7.18506
7.18506
7.18505
7.18505
7.18504
7.18503
7.18502
7.185
7.18497
7.18493
7.18487
7.18478
7.18465
7.18447
7.1842
7.1838
7.18321
7.18235
7.18108
7.17921
7.17645
7.17237
7.16632
7.15738
7.14415
7.12462
7.09583
7.05364
6.99184
6.90189
7.18506
7.18506
7.18506
7.18506
7.18506
7.18506
7.18506
7.18506
7.18506
7.18506
7.18506
7.18506
7.18506
7.18506
7.18506
7.18506
7.18506
7.18506
7.18506
7.18505
7.18505
7.18504
7.18503
7.18501
7.18499
7.18495
7.18491
7.18484
7.18474
7.1846
7.18439
7.18409
7.18366
7.18303
7.18211
7.18076
7.1788
7.17593
7.17172
7.16555
7.15649
7.14322
7.1238
7.09547
7.05439
6.99531
6.91145
6.79458
6.63492
6.42389
7.18506
7.18506
7.18506
7.18506
7.18506
7.18506
7.18506
7.18506
7.18506
7.18506
7.18506
7.18506
7.18506
7.18506
7.18506
7.18505
7.18505
7.18504
7.18503
7.18502
7.185
7.18497
7.18493
7.18488
7.1848
7.18468
7.18452
7.18429
7.18396
7.18348
7.18278
7.18178
7.18034
7.17824
7.1752
7.17078
7.16436
7.15503
7.14147
7.12181
7.09339
7.05254
6.99432
6.9124
6.79925
6.64684
6.44816
6.19949
5.90104
5.56227
7.18506
7.18506
7.18506
7.18506
7.18506
7.18506
7.18506
7.18506
7.18506
7.18506
7.18506
7.18505
7.18505
7.18504
7.18503
7.18502
7.18501
7.18498
7.18495
7.1849
7.18484
7.18474
7.18461
7.18442
7.18416
7.18378
7.18324
7.18246
7.18136
7.17977
7.17749
7.17421
7.1695
7.1627
7.15291
7.13882
7.11857
7.08957
7.04825
6.98989
6.90849
6.79697
6.64787
6.45473
6.21417
5.92786
5.60339
5.25373
4.892
4.5358
7.18506
7.18506
7.18506
7.18506
7.18506
7.18506
7.18506
7.18505
7.18505
7.18504
7.18504
7.18502
7.18501
7.18499
7.18496
7.18492
7.18486
7.18478
7.18467
7.18451
7.18429
7.18398
7.18355
7.18293
7.18205
7.1808
7.17903
7.17651
7.17292
7.16779
7.16047
7.15002
7.13512
7.11391
7.08381
7.04133
6.9819
6.89979
6.7883
6.64047
6.45036
6.21492
5.93576
5.62004
5.27972
4.92911
4.58184
4.2492
3.93672
3.65209
7.18506
7.18506
7.18506
7.18505
7.18505
7.18504
7.18504
7.18503
7.18501
7.18499
7.18497
7.18493
7.18488
7.18481
7.18471
7.18457
7.18439
7.18412
7.18375
7.18324
7.18252
7.1815
7.18008
7.17806
7.17523
7.17122
7.16555
7.15754
7.1462
7.13017
7.10758
7.07582
7.03145
6.96999
6.88593
6.77294
6.62455
6.43541
6.20291
5.9288
5.61992
5.28743
4.9447
4.60469
4.27798
3.97202
3.69094
3.43699
3.20816
3.00708
7.18505
7.18504
7.18504
7.18503
7.18501
7.18499
7.18497
7.18493
7.18489
7.18482
7.18473
7.18461
7.18444
7.18421
7.18389
7.18345
7.18283
7.18198
7.18079
7.17912
7.1768
7.17356
7.16901
7.16264
7.15371
7.1412
7.12368
7.09922
7.06518
7.01812
6.95362
6.86635
6.75034
6.59964
6.40954
6.17804
5.90722
5.6038
5.27831
4.94323
4.61063
4.29038
3.9895
3.71221
3.46039
3.23449
3.0338
2.85811
2.70561
2.578
7.18502
7.18501
7.18499
7.18497
7.18493
7.18489
7.18483
7.18474
7.18463
7.18448
7.18427
7.18398
7.18358
7.18304
7.18229
7.18126
7.17984
7.17787
7.17514
7.17137
7.16613
7.15885
7.14874
7.1347
7.11525
7.08835
7.05131
7.00064
6.93199
6.8402
6.71964
6.56493
6.37209
6.13985
5.87079
5.57165
5.25252
4.92499
4.60022
4.28729
3.99266
3.72025
3.47194
3.24816
3.04845
2.87215
2.7189
2.58877
2.48237
2.39834
2.33485
7.18493
7.18488
7.18482
7.18474
7.18463
7.18449
7.18429
7.18402
7.18365
7.18316
7.18248
7.18156
7.18029
7.17857
7.1762
7.17295
7.16848
7.16234
7.15389
7.14226
7.12628
7.10433
7.0743
7.03341
6.9781
6.90407
6.80633
6.67967
6.51933
6.32213
6.08765
5.8191
5.52337
5.21013
4.89017
4.57369
4.26889
3.98159
3.71534
3.47186
3.25154
3.05404
2.87863
2.72483
2.59263
2.48241
2.39416
2.32659
2.27723
2.24231
2.21796
7.18473
7.18462
7.18448
7.18428
7.18402
7.18367
7.1832
7.18257
7.18171
7.18055
7.17898
7.17685
7.17396
7.17002
7.16466
7.15735
7.14738
7.1338
7.11531
7.0902
7.0562
7.01042
6.94927
6.86848
6.76329
6.62894
6.4614
6.25842
6.02053
5.7516
5.45872
5.15118
4.83898
4.53128
4.2354
3.95644
3.6975
3.46007
3.2445
3.05046
2.87724
2.7243
2.59147
2.47907
2.38733
2.31564
2.26206
2.22367
2.19714
2.17929
2.16759
2.15975
7.18399
7.18365
7.18318
7.18257
7.18175
7.18065
7.17917
7.17719
7.17452
7.17093
7.16608
7.15954
7.15071
7.13878
7.12268
7.10099
7.07184
7.03283
6.98095
6.91256
6.82347
6.70923
6.56562
6.38947
6.17957
5.93744
5.66766
5.3775
5.07581
4.77173
4.47342
4.18724
3.91755
3.66696
3.43669
3.227
3.03757
2.86773
2.71689
2.58478
2.4716
2.37772
2.30294
2.24596
2.20433
2.17508
2.15524
2.14211
2.13377
2.12846
2.12568
2.12432
7.18167
7.18059
7.17915
7.17724
7.1747
7.17131
7.16678
7.16072
7.15263
7.1418
7.12731
7.10797
7.08218
7.04792
7.00262
6.94318
6.86594
6.76686
6.64189
6.48754
6.30162
6.08402
5.83731
5.56671
5.27955
4.9842
4.68887
4.40066
4.12498
3.86543
3.62412
3.40199
3.19921
3.0154
2.84997
2.7023
2.57209
2.45943
2.3647
2.28796
2.22839
2.18409
2.15246
2.13073
2.11619
2.10681
2.10113
2.0978
2.09646
2.09609
2.09754
2.09852
7.17452
7.17121
7.16683
7.16104
7.15337
7.1432
7.12974
7.11192
7.08837
7.05733
7.0166
6.96348
6.89475
6.80683
6.69596
6.55866
6.39229
6.19578
5.97022
5.71915
5.44831
5.16495
4.87677
4.59103
4.31373
4.04935
3.80076
3.56956
3.35644
3.16142
2.98414
2.82402
2.68047
2.55318
2.44214
2.34772
2.27013
2.20891
2.16262
2.12901
2.10556
2.08976
2.07951
2.07323
2.06947
2.06778
2.06771
2.06845
2.07025
2.07178
2.07419
2.07688
7.15302
7.14317
7.13024
7.11329
7.09109
7.0621
7.02435
6.97548
6.91266
6.83267
6.7321
6.60765
6.45657
6.27729
6.06995
5.83682
5.58227
5.31236
5.03401
4.75418
4.47904
4.21356
3.96127
3.72437
3.50401
3.30063
3.11414
2.94414
2.7901
2.65149
2.52797
2.41952
2.32642
2.24901
2.18706
2.13949
2.10443
2.07963
2.06276
2.05166
2.04475
2.04078
2.03889
2.03865
2.03912
2.04112
2.04303
2.04522
2.04819
2.05132
2.05444
2.05764
7.09067
7.06273
7.02669
6.9804
6.92136
6.84667
6.75325
6.63803
6.49838
6.33251
6.14005
5.9224
5.68287
5.42643
5.15917
4.88749
4.61739
4.354
4.10124
3.8618
3.63725
3.42835
3.23532
3.05796
2.89587
2.74858
2.61559
2.49657
2.3915
2.30064
2.22433
2.16251
2.1144
2.07847
2.05271
2.03495
2.0232
2.01588
2.01166
2.00948
2.00905
2.00973
2.01147
2.01378
2.01592
2.01892
2.02225
2.02565
2.02901
2.03266
2.03632
2.03981
6.92172
6.85012
6.76118
6.65212
6.52047
6.36449
6.18355
5.97854
5.75202
5.50811
5.25206
4.98967
4.72656
4.46775
4.21728
3.97811
3.75217
3.54051
3.34356
3.16134
2.9936
2.83994
2.69992
2.5731
2.4592
2.35819
2.27031
2.1959
2.13502
2.0871
2.05088
2.02458
2.00627
1.99407
1.98639
1.9819
1.97967
1.97923
1.98
1.98136
1.98407
1.9865
1.98936
1.99285
1.9964
1.9999
2.0037
2.0076
2.01142
2.01524
2.01908
2.02275
6.37514
6.20255
6.0073
5.79149
5.55858
5.31315
5.06035
4.80536
4.5529
4.30692
4.07046
3.84565
3.63375
3.43538
3.25071
3.07964
2.92187
2.77701
2.64467
2.52447
2.41619
2.3198
2.23553
2.16371
2.10449
2.05743
2.02147
1.9951
1.97658
1.96414
1.95623
1.95164
1.94943
1.94894
1.94964
1.95113
1.95379
1.95665
1.95941
1.96304
1.96681
1.97057
1.97438
1.97847
1.9825
1.98654
1.99059
1.99461
1.99858
2.00257
2.0064
5.57897
5.34314
5.09971
4.85335
4.60842
4.36862
4.13689
3.91538
3.7055
3.508
3.32315
3.15096
2.99122
2.84363
2.70782
2.58346
2.47023
2.36794
2.27662
2.19648
2.12786
2.07091
2.02531
1.99017
1.96419
1.94578
1.93331
1.92539
1.92083
1.91864
1.91815
1.91895
1.92069
1.92319
1.92637
1.92928
1.93288
1.93689
1.94085
1.94471
1.94897
1.95326
1.95748
1.96172
1.96595
1.97014
1.97433
1.97849
1.98262
1.98676
1.99076
4.63387
4.40149
4.17612
3.9598
3.75393
3.55934
3.37641
3.20517
3.04549
2.89714
2.75981
2.63319
2.51698
2.41094
2.31495
2.22904
2.15345
2.08851
2.03437
1.99076
1.95695
1.93177
1.9138
1.90158
1.89382
1.88936
1.88725
1.88695
1.8879
1.88978
1.89221
1.89557
1.89898
1.90247
1.90666
1.9108
1.91491
1.91922
1.92369
1.92808
1.93251
1.93695
1.94135
1.94573
1.95009
1.95443
1.95876
1.96307
1.96736
1.97165
1.97582
3.58809
3.40891
3.2405
3.08275
2.93548
2.79844
2.67134
2.55393
2.44596
2.34725
2.25774
2.17751
2.10681
2.04593
1.99503
1.95388
1.92183
1.89783
1.88063
1.86894
1.8615
1.85726
1.85536
1.85528
1.85638
1.85836
1.86103
1.86442
1.86823
1.87171
1.87599
1.88044
1.88478
1.88913
1.89379
1.89842
1.90302
1.90765
1.91224
1.91681
1.92136
1.9259
1.93041
1.93491
1.9394
1.94387
1.94834
1.95277
1.95722
1.96155
2.95719
2.82208
2.69615
2.57915
2.47087
2.37113
2.27981
2.19691
2.12254
2.05695
2.00046
1.95315
1.91483
1.88491
1.86243
1.8463
1.83535
1.8284
1.82455
1.82301
1.82313
1.82444
1.82659
1.82954
1.83298
1.83696
1.84079
1.84509
1.84978
1.85429
1.85876
1.86358
1.86844
1.87321
1.87802
1.88282
1.88758
1.89233
1.89705
1.90175
1.90643
1.9111
1.91576
1.9204
1.92503
1.92965
1.93426
1.93884
1.94344
1.94793
2.48416
2.38485
2.29325
2.20931
2.13306
2.06465
2.00437
1.95247
1.90902
1.87383
1.84634
1.82567
1.81086
1.80085
1.79458
1.79123
1.79009
1.7905
1.7921
1.79458
1.79769
1.80126
1.80541
1.80966
1.81395
1.81879
1.82355
1.82822
1.83313
1.83817
1.84311
1.8481
1.8531
1.85806
1.86299
1.8679
1.87279
1.87765
1.8825
1.88733
1.89215
1.89696
1.90175
1.90653
1.9113
1.91606
1.92081
1.92554
1.93028
1.93491
2.13641
2.0668
2.00442
1.94955
1.9024
1.86302
1.83117
1.80633
1.7877
1.77441
1.76552
1.76006
1.75732
1.75667
1.75744
1.75937
1.76214
1.76545
1.76921
1.77353
1.77814
1.78251
1.78752
1.79255
1.79741
1.80239
1.80761
1.81277
1.81793
1.8231
1.82824
1.83335
1.83845
1.84353
1.84858
1.8536
1.85861
1.86361
1.86858
1.87354
1.87849
1.88343
1.88836
1.89328
1.89818
1.90308
1.90797
1.91283
1.91771
1.92249
1.89301
1.85071
1.8155
1.78715
1.76512
1.74869
1.73708
1.72944
1.7249
1.72287
1.72278
1.72397
1.72626
1.72936
1.73289
1.73691
1.74137
1.74618
1.75085
1.75594
1.76124
1.76629
1.77134
1.77678
1.78216
1.78748
1.79284
1.79817
1.80346
1.80874
1.81399
1.81921
1.82442
1.8296
1.83477
1.83992
1.84505
1.85017
1.85527
1.86036
1.86544
1.87051
1.87556
1.88061
1.88565
1.89068
1.8957
1.9007
1.90571
1.91062
1.74211
1.72298
1.70885
1.69902
1.69272
1.68921
1.68797
1.68846
1.69013
1.69281
1.69626
1.70005
1.70432
1.70898
1.71394
1.71897
1.72415
1.72963
1.73492
1.74016
1.74573
1.75129
1.75675
1.76229
1.76782
1.7733
1.77876
1.78418
1.78959
1.79496
1.80032
1.80566
1.81098
1.81628
1.82156
1.82683
1.83208
1.83732
1.84255
1.84776
1.85296
1.85815
1.86334
1.86851
1.87367
1.87883
1.88398
1.8891
1.89424
1.89927
1.6604
1.65549
1.65307
1.65266
1.65378
1.65596
1.65907
1.66287
1.66694
1.67147
1.67636
1.68151
1.68684
1.69216
1.69779
1.70334
1.70876
1.71444
1.72018
1.72583
1.73153
1.73723
1.74288
1.7485
1.75412
1.7597
1.76525
1.77078
1.77629
1.78177
1.78723
1.79268
1.79811
1.80352
1.80892
1.81431
1.81968
1.82503
1.83038
1.83571
1.84103
1.84634
1.85165
1.85694
1.86223
1.8675
1.87277
1.87801
1.88327
1.88843
1.6188
1.62152
1.62507
1.62922
1.63359
1.63838
1.64352
1.64889
1.65445
1.65998
1.66577
1.67153
1.67713
1.68294
1.68886
1.6947
1.70056
1.70642
1.71224
1.71804
1.72382
1.72957
1.73529
1.74099
1.74666
1.75231
1.75794
1.76355
1.76914
1.77471
1.78026
1.7858
1.79132
1.79683
1.80233
1.80781
1.81328
1.81874
1.82419
1.82962
1.83505
1.84047
1.84588
1.85128
1.85667
1.86205
1.86741
1.87278
1.87806
1.59535
1.60003
1.60509
1.61048
1.61608
1.62182
1.62761
1.63357
1.63951
1.6453
1.65124
1.65734
1.66335
1.66937
1.6754
1.68139
1.68736
1.6933
1.69922
1.7051
1.71096
1.7168
1.72261
1.7284
1.73417
1.73992
1.74564
1.75135
1.75704
1.76272
1.76837
1.77402
1.77964
1.78526
1.79086
1.79646
1.80204
1.80761
1.81316
1.81871
1.82425
1.82978
1.8353
1.84081
1.84631
1.8518
1.85727
1.86274
1.86812
1.57728
1.5831
1.58903
1.59506
1.6012
1.60729
1.61328
1.61938
1.62564
1.63182
1.63798
1.64418
1.65034
1.65647
1.66258
1.66865
1.6747
1.68072
1.68672
1.69269
1.69863
1.70455
1.71046
1.71634
1.7222
1.72804
1.73387
1.73967
1.74546
1.75124
1.75699
1.76274
1.76847
1.77419
1.7799
1.78559
1.79128
1.79695
1.80262
1.80827
1.81391
1.81955
1.82517
1.83079
1.83639
1.84198
1.84755
1.85312
1.85861
1.56867
1.57491
1.58109
1.58736
1.59377
1.60011
1.60643
1.61279
1.61911
1.62539
1.63165
1.63789
1.6441
1.65027
1.65642
1.66255
1.66865
1.67472
1.68078
1.68681
1.69282
1.69881
1.70478
1.71073
1.71667
1.72259
1.72849
1.73437
1.74024
1.7461
1.75194
1.75777
1.76359
1.7694
1.77519
1.78098
1.78675
1.79252
1.79827
1.80401
1.80975
1.81547
1.82118
1.82688
1.83257
1.83823
1.8439
1.84947
1.55519
1.56174
1.56824
1.57472
1.58123
1.5877
1.59414
1.60055
1.60694
1.6133
1.61963
1.62593
1.63221
1.63846
1.64469
1.65089
1.65707
1.66323
1.66936
1.67548
1.68157
1.68765
1.69371
1.69975
1.70577
1.71178
1.71777
1.72375
1.72972
1.73566
1.7416
1.74753
1.75344
1.75934
1.76523
1.77111
1.77698
1.78284
1.78869
1.79453
1.80035
1.80617
1.81197
1.81776
1.82354
1.82929
1.83504
1.8407
1.54952
1.55614
1.56273
1.56929
1.57583
1.58233
1.58881
1.59526
1.60169
1.60808
1.61445
1.6208
1.62713
1.63343
1.63971
1.64596
1.6522
1.65841
1.66461
1.67079
1.67695
1.68309
1.68922
1.69533
1.70143
1.70751
1.71357
1.71963
1.72567
1.73169
1.73771
1.74371
1.7497
1.75568
1.76166
1.76762
1.77356
1.7795
1.78543
1.79134
1.79724
1.80313
1.809
1.81486
1.82069
1.82652
1.83225
1.53788
1.54456
1.55121
1.55783
1.56442
1.57099
1.57753
1.58404
1.59053
1.597
1.60344
1.60986
1.61625
1.62262
1.62898
1.63531
1.64162
1.64792
1.65419
1.66045
1.66669
1.67292
1.67913
1.68532
1.6915
1.69767
1.70382
1.70996
1.71608
1.72219
1.72829
1.73438
1.74046
1.74653
1.75258
1.75863
1.76466
1.77068
1.77669
1.78268
1.78867
1.79463
1.80058
1.80651
1.81241
1.81831
1.82412
1.53344
1.54014
1.54682
1.55347
1.56009
1.5667
1.57327
1.57983
1.58636
1.59286
1.59935
1.60582
1.61226
1.61869
1.62509
1.63148
1.63785
1.6442
1.65054
1.65685
1.66316
1.66945
1.67572
1.68198
1.68822
1.69446
1.70068
1.70688
1.71308
1.71926
1.72543
1.73159
1.73773
1.74387
1.74999
1.7561
1.7622
1.76828
1.77436
1.78041
1.78645
1.79247
1.79847
1.80443
1.81039
1.81625
1.52274
1.5295
1.53624
1.54294
1.54963
1.55629
1.56293
1.56954
1.57614
1.58271
1.58927
1.5958
1.60231
1.60881
1.61528
1.62174
1.62819
1.63461
1.64102
1.64741
1.65379
1.66016
1.6665
1.67284
1.67916
1.68547
1.69177
1.69805
1.70432
1.71058
1.71682
1.72306
1.72928
1.73549
1.74169
1.74787
1.75404
1.76019
1.76633
1.77245
1.77855
1.78463
1.79069
1.79672
1.80273
1.80865
1.51247
1.51928
1.52607
1.53283
1.53957
1.54629
1.55299
1.55967
1.56633
1.57297
1.57958
1.58618
1.59276
1.59932
1.60587
1.6124
1.61891
1.6254
1.63188
1.63835
1.6448
1.65123
1.65765
1.66406
1.67046
1.67684
1.68321
1.68956
1.6959
1.70223
1.70855
1.71485
1.72114
1.72742
1.73368
1.73993
1.74617
1.75239
1.75859
1.76477
1.77093
1.77706
1.78317
1.78925
1.7953
1.80126
1.50259
1.50945
1.51629
1.52311
1.52991
1.53669
1.54345
1.55019
1.5569
1.5636
1.57028
1.57694
1.58359
1.59022
1.59683
1.60342
1.61
1.61656
1.6231
1.62964
1.63615
1.64266
1.64915
1.65562
1.66208
1.66853
1.67497
1.68139
1.6878
1.69419
1.70058
1.70694
1.7133
1.71964
1.72596
1.73227
1.73857
1.74484
1.7511
1.75733
1.76354
1.76972
1.77588
1.782
1.78809
1.79409
1.49309
1.5
1.5069
1.51377
1.52063
1.52746
1.53428
1.54107
1.54785
1.5546
1.56134
1.56807
1.57477
1.58146
1.58813
1.59479
1.60143
1.60805
1.61466
1.62126
1.62784
1.6344
1.64096
1.6475
1.65402
1.66053
1.66703
1.67352
1.67999
1.68644
1.69288
1.69931
1.70572
1.71212
1.7185
1.72486
1.73121
1.73754
1.74384
1.75012
1.75637
1.7626
1.76879
1.77494
1.78106
1.78708
1.48395
1.49092
1.49787
1.50479
1.5117
1.51859
1.52545
1.5323
1.53914
1.54595
1.55275
1.55953
1.56629
1.57304
1.57977
1.58648
1.59318
1.59986
1.60653
1.61319
1.61983
1.62646
1.63307
1.63967
1.64625
1.65282
1.65937
1.66592
1.67244
1.67895
1.68545
1.69193
1.6984
1.70484
1.71127
1.71769
1.72408
1.73045
1.73679
1.74311
1.7494
1.75565
1.76187
1.76804
1.77418
1.78021
1.47517
1.48218
1.48918
1.49615
1.50311
1.51005
1.51697
1.52387
1.53075
1.53762
1.54447
1.55131
1.55812
1.56492
1.57171
1.57848
1.58524
1.59198
1.5987
1.60541
1.61211
1.61879
1.62546
1.63211
1.63874
1.64537
1.65198
1.65857
1.66515
1.67171
1.67825
1.68478
1.69129
1.69779
1.70426
1.71072
1.71714
1.72355
1.72992
1.73627
1.74258
1.74886
1.7551
1.76129
1.76744
1.77348
1.47377
1.48081
1.48783
1.49484
1.50182
1.50879
1.51575
1.52268
1.5296
1.5365
1.54339
1.55025
1.55711
1.56395
1.57077
1.57757
1.58437
1.59114
1.5979
1.60465
1.61138
1.6181
1.6248
1.63149
1.63816
1.64481
1.65145
1.65808
1.66468
1.67127
1.67785
1.6844
1.69092
1.69743
1.70392
1.71037
1.7168
1.72321
1.72958
1.73591
1.74221
1.74846
1.75466
1.76081
1.76686
1.46566
1.47275
1.47982
1.48687
1.4939
1.50092
1.50792
1.5149
1.52186
1.52881
1.53575
1.54266
1.54956
1.55645
1.56332
1.57017
1.57701
1.58384
1.59065
1.59744
1.60422
1.61098
1.61772
1.62446
1.63117
1.63787
1.64455
1.65121
1.65786
1.66448
1.67109
1.67767
1.68423
1.69076
1.69727
1.70375
1.71021
1.71663
1.72302
1.72937
1.73567
1.74193
1.74813
1.75428
1.76032
1.45785
1.46498
1.47209
1.47918
1.48626
1.49332
1.50036
1.50739
1.5144
1.52139
1.52837
1.53533
1.54227
1.5492
1.55612
1.56302
1.5699
1.57677
1.58362
1.59045
1.59727
1.60407
1.61086
1.61763
1.62438
1.63112
1.63783
1.64453
1.6512
1.65785
1.66448
1.67109
1.67768
1.68424
1.69077
1.69727
1.70374
1.71018
1.71657
1.72293
1.72924
1.73549
1.74169
1.74782
1.75384
1.45748
1.46463
1.47176
1.47888
1.48598
1.49306
1.50013
1.50718
1.51421
1.52123
1.52823
1.53522
1.54219
1.54914
1.55608