/*--------------------------------*- C++ -*----------------------------------*\
| =========                 |                                                 |
| \\      /  F ield         | OpenFOAM: The Open Source CFD Toolbox           |
|  \\    /   O peration     | Version:  v1706                                 |
|   \\  /    A nd           | Web:      www.OpenFOAM.com                      |
|    \\/     M anipulation  |                                                 |
\*---------------------------------------------------------------------------*/
FoamFile
{
    version     2.0;
    format      ascii;
    class       volScalarField;
    location    "3.6e-05";
    object      p;
}
// * * * * * * * * * * * * * * * * * * * * * * * * * * * * * * * * * * * * * //

dimensions      [1 -1 -2 0 0 0 0];


internalField   nonuniform List<scalar> 
30038
(
21.9139
21.9139
21.9139
21.9139
21.9139
21.9139
21.9139
21.9139
21.9139
21.9139
21.9139
21.9139
21.9139
21.9139
21.9139
21.9139
21.9139
21.9139
21.9139
21.9139
21.9139
21.9139
21.9139
21.9139
21.9139
21.9139
21.9139
21.9139
21.9139
21.9139
21.9139
21.9139
21.9139
21.9139
21.9139
21.9139
21.9139
21.9139
21.9139
21.9139
21.9139
21.9139
21.9139
21.9139
21.9139
21.9139
21.9139
21.9139
21.9139
21.9139
21.9139
21.9139
21.9139
21.9139
21.9139
21.9139
21.9139
21.9139
21.9139
21.9139
21.9139
21.9139
21.9139
21.9139
21.9139
21.9139
21.9139
21.9139
21.9139
21.9139
21.9139
21.9139
21.9139
21.9139
21.9139
21.9139
21.9139
21.9139
21.9139
21.9139
21.9139
21.9139
21.9139
21.9139
21.9139
21.9139
21.9139
21.9139
21.9139
21.9139
21.9139
21.9139
21.9139
21.9139
21.9139
21.9139
21.9139
21.9139
21.9139
21.9139
21.9139
21.9139
21.9139
21.9139
21.9139
21.9139
21.9139
21.9139
21.9139
21.9139
21.9139
21.9139
21.9139
21.9139
21.9139
21.9139
21.9139
21.9139
21.9139
21.9139
21.9139
21.9139
21.9139
21.9139
21.9139
21.9139
21.9139
21.9139
21.9139
21.9139
21.9139
21.9139
21.9139
21.9139
21.9139
21.9139
21.9139
21.9139
21.9139
21.9139
21.9139
21.9139
21.9139
21.9139
21.9139
21.9139
21.9139
21.9139
21.9139
21.9139
21.9139
21.9139
21.9139
21.9139
21.9139
21.9139
21.9139
21.9139
21.9139
21.9139
21.9139
21.9139
21.9139
21.9139
21.9139
21.9139
21.9139
21.9139
21.9139
21.9139
21.9139
21.9139
21.9139
21.9139
21.9139
21.9139
21.9139
21.9139
21.9139
21.9139
21.9139
21.9139
21.9139
21.9139
21.9139
21.9139
21.9139
21.9139
21.9139
21.9139
21.9139
21.9139
21.9139
21.9139
21.9139
21.9139
21.9139
21.9139
21.9139
21.9139
21.9139
21.9139
21.9139
21.9139
21.9139
21.9139
21.9139
21.9139
21.9139
21.9139
21.9139
21.9139
21.9139
21.9139
21.9139
21.9139
21.9139
21.9139
21.9139
21.9139
21.9139
21.9139
21.9139
21.9139
21.9139
21.9139
21.9139
21.9139
21.9139
21.9139
21.9139
21.9139
21.9139
21.9139
21.9139
21.9139
21.9139
21.9139
21.9139
21.9139
21.9139
21.9139
21.9139
21.9139
21.9139
21.9139
21.9139
21.9139
21.9139
21.9139
21.9139
21.9139
21.9139
21.9139
21.9139
21.9139
21.9139
21.9139
21.9139
21.9139
21.9139
21.9139
21.9139
21.9139
21.9139
21.9139
21.9139
21.9139
21.9139
21.9139
21.9139
21.9139
21.9139
21.9139
21.9139
21.9139
21.9139
21.9139
21.9139
21.9139
21.9139
21.9139
21.9139
21.9139
21.9139
21.9139
21.9139
21.9139
21.9139
21.9139
21.9139
21.9139
21.9139
21.9139
21.9139
21.9139
21.9139
21.9139
21.9139
21.9139
21.9139
21.9139
21.9139
21.9139
21.9139
21.9139
21.9139
21.9139
21.9139
21.9139
21.9139
21.9139
21.9139
21.9139
21.9139
21.9139
21.9139
21.9139
21.9139
21.9139
21.9139
21.9139
21.9139
21.9139
21.9139
21.9139
21.9139
21.9139
21.9139
21.9139
21.9139
21.9139
21.9139
21.9139
21.9139
21.9139
21.9139
21.9139
21.9139
21.9139
21.9139
21.9139
21.9139
21.9139
21.9139
21.9139
21.9139
21.9139
21.9139
21.9139
21.9139
21.9139
21.9139
21.9139
21.9139
21.9139
21.9139
21.9139
21.9139
21.9139
21.9139
21.9139
21.9139
21.9139
21.9139
21.9139
21.9139
21.9139
21.9139
21.9139
21.9139
21.9139
21.9139
21.9139
21.9139
21.9139
21.9139
21.9139
21.9139
21.9139
21.9139
21.9139
21.9139
21.9139
21.9139
21.9139
21.9139
21.9139
21.9139
21.9139
21.9139
21.9139
21.9139
21.9139
21.9139
21.9139
21.9139
21.9139
21.9139
21.9139
21.9139
21.9139
21.9139
21.9139
21.9139
21.9139
21.9139
21.9139
21.9139
21.9139
21.9139
21.9139
21.9139
21.9139
21.9139
21.9139
21.9139
21.9139
21.9139
21.9139
21.9139
21.9139
21.9139
21.9139
21.9139
21.9139
21.9139
21.9139
21.9139
21.9139
21.9139
21.9139
21.9139
21.9139
21.9139
21.9139
21.9139
21.9139
21.9139
21.9139
21.9139
21.9139
21.9139
21.9139
21.9139
21.9139
21.9139
21.9139
21.9139
21.9139
21.9139
21.9139
21.9139
21.9139
21.9139
21.9139
21.9139
21.9139
21.9139
21.9139
21.9139
21.9139
21.9139
21.9139
21.9139
21.9139
21.9139
21.9139
21.9139
21.9139
21.9139
21.9139
21.9139
21.9139
21.9139
21.9139
21.9139
21.9139
21.9139
21.9139
21.9139
21.9139
21.9139
21.9139
21.9139
21.9139
21.9139
21.9139
21.9139
21.9139
21.9139
21.9139
21.9139
21.9139
21.9139
21.9139
21.9139
21.9139
21.9139
21.9139
21.9139
21.9139
21.9139
21.9139
21.9139
21.9139
21.9139
21.9139
21.9139
21.9139
21.9139
21.9139
21.9139
21.9139
21.9139
21.9139
21.9139
21.9139
21.9139
21.9139
21.9139
21.9139
21.9139
21.9139
21.9139
21.9139
21.9139
21.9139
21.9139
21.9139
21.9139
21.9139
21.9139
21.9139
21.9139
21.9139
21.9139
21.9139
21.9139
21.9139
21.9139
21.9139
21.9139
21.9139
21.9139
21.9139
21.9139
21.9139
21.9139
21.9139
21.9139
21.9139
21.9139
21.9139
21.9139
21.9139
21.9139
21.9139
21.9139
21.9139
21.9139
21.9139
21.9139
21.9139
21.9139
21.9139
21.9139
21.9139
21.9139
21.9139
21.9139
21.9139
21.9139
21.9139
21.9139
21.9139
21.9139
21.9139
21.9139
21.9139
21.9139
21.9139
21.9139
21.9139
21.9139
21.9139
21.9139
21.9139
21.9139
21.9139
21.9139
21.9139
21.9139
21.9139
21.9139
21.9139
21.9139
21.9139
21.9139
21.9139
21.9139
21.9139
21.9139
21.9139
21.9139
21.9139
21.9139
21.9139
21.9139
21.9139
21.9139
21.9139
21.9139
21.9139
21.9139
21.9139
21.9139
21.9139
21.9139
21.9139
21.9139
21.9139
21.9139
21.9139
21.9139
21.9139
21.9139
21.9139
21.9139
21.9139
21.9139
21.9139
21.9139
21.9139
21.9139
21.9139
21.9139
21.9139
21.9139
21.9139
21.9139
21.9139
21.9139
21.9139
21.9139
21.9139
21.9139
21.9139
21.9139
21.9139
21.9139
21.9139
21.9139
21.9139
21.9139
21.9139
21.9139
21.9139
21.9139
21.9139
21.9139
21.9139
21.9139
21.9139
21.9139
21.9139
21.9139
21.9139
21.9139
21.9139
21.9139
21.9139
21.9139
21.9139
21.9139
21.9139
21.9139
21.9139
21.9139
21.9139
21.9139
21.9139
21.9139
21.9139
21.9139
21.9139
21.9139
21.9139
21.9139
21.9139
21.9139
21.9139
21.9139
21.9139
21.9139
21.9139
21.9139
21.9139
21.9139
21.9139
21.9139
21.9139
21.9139
21.9139
21.9139
21.9139
21.9139
21.9139
21.9139
21.9139
21.9139
21.9139
21.9139
21.9139
21.9139
21.9139
21.9139
21.9139
21.9139
21.9139
21.9139
21.9139
21.9139
21.9139
21.9139
21.9139
21.9139
21.9139
21.9139
21.9139
21.9139
21.9139
21.9139
21.9139
21.9139
21.9139
21.9139
21.9139
21.9139
21.9139
21.9139
21.9139
21.9139
21.9139
21.9139
21.9139
21.9139
21.9139
21.9139
21.9139
21.9139
21.9139
21.9139
21.9139
21.9139
21.9139
21.9139
21.9139
21.9139
21.9139
21.9139
21.9139
21.9139
21.9139
21.9139
21.9139
21.9139
21.9139
21.9139
21.9139
21.9139
21.9139
21.9139
21.9139
21.9139
21.9139
21.9139
21.9139
21.9139
21.9139
21.9139
21.9139
21.9139
21.9139
21.9139
21.9139
21.9139
21.9139
21.9139
21.9139
21.9139
21.9139
21.9139
21.9139
21.9139
21.9139
21.9139
21.9139
21.9139
21.9139
21.9139
21.9139
21.9139
21.9139
21.9139
21.9139
21.9139
21.9139
21.9139
21.9139
21.9139
21.9139
21.9139
21.9139
21.9139
21.9139
21.9139
21.9139
21.9139
21.9139
21.9139
21.9139
21.9139
21.9139
21.9139
21.9139
21.9139
21.9139
21.9139
21.9139
21.9139
21.9139
21.9139
21.9139
21.9139
21.9139
21.9139
21.9139
21.9139
21.9139
21.9139
21.9139
21.9139
21.9139
21.9139
21.9139
21.9139
21.9139
21.9139
21.9139
21.9139
21.9139
21.9139
21.9139
21.9139
21.9139
21.9139
21.9139
21.9139
21.9139
21.9139
21.9139
21.9139
21.9139
21.9139
21.9139
21.9139
21.9139
21.9139
21.9139
21.9139
21.9139
21.9139
21.9139
21.9139
21.9139
21.9139
21.9139
21.9139
21.9139
21.9139
21.9139
21.9139
21.9139
21.9139
21.9139
21.9139
21.9139
21.9139
21.9139
21.9139
21.9139
21.9139
21.9139
21.9139
21.9139
21.9139
21.9139
21.9139
21.9139
21.9139
21.9139
21.9139
21.9139
21.9139
21.9139
21.9139
21.9139
21.9139
21.9139
21.9139
21.9139
21.9139
21.9139
21.9139
21.9139
21.9139
21.9139
21.9139
21.9139
21.9139
21.9139
21.9139
21.9139
21.9139
21.9139
21.9139
21.9139
21.9139
21.9139
21.9139
21.9139
21.9139
21.9139
21.9139
21.9139
21.9139
21.9139
21.9139
21.9139
21.9139
21.9139
21.9139
21.9139
21.9139
21.9139
21.9139
21.9139
21.9139
21.9139
21.9139
21.9139
21.9139
21.9139
21.9139
21.9139
21.9139
21.9139
21.9139
21.9139
21.9139
21.9139
21.9139
21.9139
21.9139
21.9139
21.9139
21.9139
21.9139
21.9139
21.9139
21.9139
21.9139
21.9139
21.9139
21.9139
21.9139
21.9139
21.9139
21.9139
21.9139
21.9139
21.9139
21.9139
21.9139
21.9139
21.9139
21.9139
21.9139
21.9139
21.9139
21.9139
21.9139
21.9139
21.9139
21.9139
21.9139
21.9139
21.9139
21.9139
21.9139
21.9139
21.9139
21.9139
21.9139
21.9139
21.9139
21.9139
21.9139
21.9139
21.9139
21.9139
21.9139
21.9139
21.9139
21.9139
21.9139
21.9139
21.9139
21.9139
21.9139
21.9139
21.9139
21.9139
21.9139
21.9139
21.9139
21.9139
21.9139
21.9139
21.9139
21.9139
21.9139
21.9139
21.9139
21.9139
21.9139
21.9139
21.9139
21.9139
21.9139
21.9139
21.9139
21.9139
21.9139
21.9139
21.9139
21.9139
21.9139
21.9139
21.9139
21.9139
21.9139
21.9139
21.9139
21.9139
21.9139
21.9139
21.9139
21.9139
21.9139
21.9139
21.9139
21.9139
21.9139
21.9139
21.9139
21.9139
21.9139
21.9139
21.9139
21.9139
21.9139
21.9139
21.9139
21.9139
21.9139
21.9139
21.9139
21.9139
21.9139
21.9139
21.9139
21.9139
21.9139
21.9139
21.9139
21.9139
21.9139
21.9139
21.9139
21.9139
21.9139
21.9139
21.9139
21.9139
21.9139
21.9139
21.9139
21.9139
21.9139
21.9139
21.9139
21.9139
21.9139
21.9139
21.9139
21.9139
21.9139
21.9139
21.9139
21.9139
21.9139
21.9139
21.9139
21.9139
21.9139
21.9139
21.9139
21.9139
21.9139
21.9139
21.9139
21.9139
21.9139
21.9139
21.9139
21.9139
21.9139
21.9139
21.9139
21.9139
21.9139
21.9139
21.9139
21.9139
21.9139
21.9139
21.9139
21.9139
21.9139
21.9139
21.9139
21.9139
21.9139
21.9139
21.9139
21.9139
21.9139
21.9139
21.9139
21.9139
21.9139
21.9139
21.9139
21.9139
21.9139
21.9139
21.9139
21.9139
21.9139
21.9139
21.9139
21.9139
21.9139
21.9139
21.9139
21.9139
21.9139
21.9139
21.9139
21.9139
21.9139
21.9139
21.9139
21.9139
21.9139
21.9139
21.9139
21.9139
21.9139
21.9139
21.9139
21.9139
21.9139
21.9139
21.9139
21.9139
21.9139
21.9139
21.914
21.914
21.9139
21.9139
21.9139
21.9139
21.9139
21.9139
21.9139
21.9139
21.9139
21.9139
21.9139
21.9139
21.9139
21.9139
21.9139
21.9139
21.9139
21.9139
21.9139
21.9139
21.9139
21.9139
21.9139
21.9139
21.9139
21.9139
21.9139
21.9139
21.9139
21.9139
21.9139
21.9139
21.9139
21.9139
21.9139
21.9139
21.9139
21.9139
21.9139
21.9139
21.9139
21.9139
21.9139
21.9139
21.9139
21.914
21.914
21.914
21.9141
21.9142
21.9139
21.9139
21.9139
21.9139
21.9139
21.9139
21.9139
21.9139
21.9139
21.9139
21.9139
21.9139
21.9139
21.9139
21.9139
21.9139
21.9139
21.9139
21.9139
21.9139
21.9139
21.9139
21.9139
21.9139
21.9139
21.9139
21.9139
21.9139
21.9139
21.9139
21.9139
21.9139
21.9139
21.9139
21.9139
21.9139
21.9139
21.9139
21.9139
21.9139
21.9139
21.9139
21.914
21.914
21.914
21.9141
21.9142
21.9144
21.9146
21.915
21.9139
21.9139
21.9139
21.9139
21.9139
21.9139
21.9139
21.9139
21.9139
21.9139
21.9139
21.9139
21.9139
21.9139
21.9139
21.9139
21.9139
21.9139
21.9139
21.9139
21.9139
21.9139
21.9139
21.9139
21.9139
21.9139
21.9139
21.9139
21.9139
21.9139
21.9139
21.9139
21.9139
21.9139
21.9139
21.9139
21.9139
21.9139
21.9139
21.914
21.914
21.914
21.9141
21.9142
21.9144
21.9146
21.915
21.9156
21.9165
21.918
21.9139
21.9139
21.9139
21.9139
21.9139
21.9139
21.9139
21.9139
21.9139
21.9139
21.9139
21.9139
21.9139
21.9139
21.9139
21.9139
21.9139
21.9139
21.9139
21.9139
21.9139
21.9139
21.9139
21.9139
21.9139
21.9139
21.9139
21.9139
21.9139
21.9139
21.9139
21.9139
21.9139
21.9139
21.9139
21.9139
21.914
21.914
21.9141
21.9141
21.9142
21.9144
21.9147
21.9151
21.9157
21.9166
21.918
21.9201
21.9233
21.9285
21.9139
21.9139
21.9139
21.9139
21.9139
21.9139
21.9139
21.9139
21.9139
21.9139
21.9139
21.9139
21.9139
21.9139
21.9139
21.9139
21.9139
21.9139
21.9139
21.9139
21.9139
21.9139
21.9139
21.9139
21.9139
21.9139
21.9139
21.9139
21.9139
21.9139
21.9139
21.9139
21.914
21.914
21.914
21.9141
21.9142
21.9143
21.9145
21.9147
21.9152
21.9158
21.9167
21.9181
21.9202
21.9234
21.9282
21.9355
21.9468
21.9646
21.9139
21.9139
21.9139
21.9139
21.9139
21.9139
21.9139
21.9139
21.9139
21.9139
21.9139
21.9139
21.9139
21.9139
21.9139
21.9139
21.9139
21.9139
21.9139
21.9139
21.9139
21.9139
21.9139
21.9139
21.9139
21.9139
21.9139
21.9139
21.9139
21.914
21.914
21.914
21.9141
21.9142
21.9143
21.9145
21.9148
21.9153
21.9159
21.9169
21.9183
21.9205
21.9237
21.9286
21.9359
21.9468
21.9633
21.9884
22.0266
22.0867
21.9139
21.9139
21.9139
21.9139
21.9139
21.9139
21.9139
21.9139
21.9139
21.9139
21.9139
21.9139
21.9139
21.9139
21.9139
21.9139
21.9139
21.9139
21.9139
21.9139
21.9139
21.9139
21.9139
21.9139
21.9139
21.914
21.914
21.914
21.9141
21.9141
21.9142
21.9144
21.9146
21.9149
21.9154
21.9161
21.9172
21.9187
21.921
21.9243
21.9293
21.9367
21.9478
21.9643
21.989
22.0259
22.0814
22.1648
22.2913
22.4877
21.9139
21.9139
21.9139
21.9139
21.9139
21.9139
21.9139
21.9139
21.9139
21.9139
21.9139
21.9139
21.9139
21.9139
21.9139
21.9139
21.9139
21.9139
21.9139
21.9139
21.9139
21.9139
21.914
21.914
21.914
21.9141
21.9142
21.9143
21.9145
21.9147
21.9151
21.9156
21.9164
21.9175
21.9192
21.9216
21.9251
21.9304
21.9381
21.9494
21.9663
21.9912
22.0282
22.0832
22.1649
22.2865
22.4675
22.7372
23.1401
23.7515
21.9139
21.9139
21.9139
21.9139
21.9139
21.9139
21.9139
21.9139
21.9139
21.9139
21.9139
21.9139
21.9139
21.9139
21.9139
21.9139
21.9139
21.9139
21.914
21.914
21.914
21.9141
21.9141
21.9142
21.9144
21.9146
21.9149
21.9153
21.9159
21.9167
21.918
21.9198
21.9224
21.9262
21.9318
21.94
21.9519
21.9694
21.995
22.0328
22.0884
22.1703
22.291
22.469
22.731
23.1162
23.6804
24.5028
25.6953
27.4291
21.9139
21.9139
21.9139
21.9139
21.9139
21.9139
21.9139
21.9139
21.9139
21.9139
21.9139
21.9139
21.9139
21.9139
21.914
21.914
21.914
21.914
21.9141
21.9142
21.9143
21.9145
21.9147
21.915
21.9155
21.9162
21.9172
21.9186
21.9206
21.9235
21.9277
21.9337
21.9425
21.9552
21.9737
22.0006
22.0399
22.0971
22.1807
22.3028
22.4813
22.7417
23.121
23.6713
24.465
25.6001
27.205
29.442
32.5091
36.68
21.9139
21.9139
21.9139
21.9139
21.9139
21.9139
21.9139
21.9139
21.9139
21.9139
21.9139
21.914
21.914
21.914
21.9141
21.9142
21.9143
21.9144
21.9146
21.9149
21.9153
21.9158
21.9166
21.9178
21.9194
21.9216
21.9249
21.9296
21.9363
21.9459
21.9597
21.9796
22.0083
22.0498
22.1098
22.1967
22.3225
22.5046
22.768
23.1483
23.6952
24.4772
25.586
27.1402
29.2869
32.1994
36.073
41.123
47.5665
55.7591
21.9139
21.9139
21.9139
21.9139
21.9139
21.9139
21.9139
21.914
21.914
21.914
21.9141
21.9141
21.9142
21.9144
21.9145
21.9148
21.9151
21.9156
21.9163
21.9172
21.9185
21.9204
21.923
21.9268
21.9321
21.9396
21.9503
21.9656
21.9874
22.0186
22.0632
22.1273
22.2191
22.3509
22.5401
22.8112
23.1992
23.7521
24.5356
25.6368
27.1678
29.2659
32.092
35.8252
40.6559
46.7797
54.3925
63.7146
74.9882
88.8347
21.9139
21.9139
21.914
21.914
21.914
21.914
21.9141
21.9141
21.9142
21.9143
21.9145
21.9147
21.915
21.9154
21.916
21.9168
21.918
21.9196
21.9218
21.9249
21.9292
21.9353
21.9439
21.9561
21.9733
21.9976
22.032
22.0809
22.1504
22.2492
22.3898
22.5896
22.8736
23.276
23.8442
24.6421
25.7533
27.2843
29.3647
32.1451
35.7917
40.4805
46.3913
53.7023
62.5978
73.2934
86.061
101.22
118.975
141.065
21.914
21.914
21.9141
21.9141
21.9142
21.9143
21.9145
21.9147
21.915
21.9153
21.9159
21.9166
21.9176
21.919
21.9209
21.9236
21.9273
21.9324
21.9396
21.9496
21.9637
21.9833
22.0109
22.0496
22.1041
22.1808
22.2889
22.4413
22.6561
22.9584
23.3828
23.9764
24.8019
25.9405
27.4944
29.5865
32.3585
35.9651
40.5692
46.337
53.4341
62.0266
72.3032
84.5089
98.9152
115.803
135.654
159.569
188.622
226.175
21.9141
21.9142
21.9143
21.9145
21.9147
21.9149
21.9153
21.9158
21.9165
21.9174
21.9187
21.9204
21.9228
21.926
21.9305
21.9367
21.9453
21.9572
21.9736
21.9964
22.0282
22.0724
22.1342
22.2203
22.3406
22.5087
22.7433
23.0704
23.5253
24.1552
25.0225
26.2066
27.8062
29.9387
32.7373
36.3465
40.9166
46.6005
53.5517
61.9213
71.8783
83.6365
97.4666
113.62
132.466
154.778
181.836
214.912
254.739
299.78
350.236
21.9147
21.915
21.9153
21.9158
21.9165
21.9173
21.9185
21.9201
21.9223
21.9253
21.9294
21.9349
21.9425
21.9529
21.9671
21.9867
22.0137
22.051
22.1024
22.1734
22.2717
22.4078
22.5961
22.8566
23.2162
23.7114
24.3902
25.3149
26.564
28.2332
30.435
33.295
36.9479
41.5323
47.1887
54.058
62.2806
72.0079
83.4287
96.8003
112.37
130.43
151.561
176.857
207.637
244.776
288.019
335.369
383.724
428.447
468.294
21.9159
21.9165
21.9174
21.9186
21.9201
21.9222
21.925
21.9288
21.9339
21.9409
21.9503
21.9631
21.9805
22.0043
22.0367
22.0811
22.1417
22.2249
22.3389
22.4953
22.7097
23.0034
23.4048
23.9519
24.694
25.6938
27.0292
28.7935
31.0942
34.0501
37.7863
42.43
48.11
54.9553
63.0965
72.6696
83.8448
96.8544
111.955
129.395
149.619
173.534
202.397
237.26
278.289
324.216
372.232
418.73
460.038
494.033
519.401
537.196
21.9203
21.9224
21.9251
21.9288
21.9337
21.9403
21.9491
21.961
21.9771
21.9987
22.0279
22.0675
22.1212
22.1939
22.2928
22.4271
22.6096
22.8574
23.1935
23.6483
24.2615
25.0838
26.1791
27.6247
29.5115
31.9426
35.0294
38.888
43.6349
49.3873
56.2633
64.3842
73.8737
84.8866
97.6331
112.372
129.332
148.864
171.704
199.01
231.909
270.87
315.145
362.496
409.634
452.997
489.786
518.605
539.293
552.716
560.413
563.676
21.9341
21.9406
21.9492
21.9606
21.9759
21.9963
22.0236
22.0601
22.1092
22.1751
22.2637
22.383
22.5436
22.7598
23.0505
23.4406
23.963
24.6593
25.5823
26.7967
28.3793
30.4187
33.013
36.2665
40.2862
45.178
51.0483
58.0052
66.1607
75.6299
86.5539
99.1248
113.599
130.195
149.204
171.223
197.295
228.556
265.669
308.274
354.652
401.891
446.592
485.685
517.419
541.098
557.332
567.1
572.234
573.567
573.481
573.266
21.9769
21.9968
22.0231
22.058
22.1044
22.1661
22.2483
22.3579
22.504
22.6988
22.9585
23.3041
23.7631
24.3707
25.1712
26.2191
27.58
29.33
31.5547
34.3471
37.8041
42.0232
47.1005
53.132
60.217
68.4592
77.9668
88.8697
101.347
115.642
131.978
150.604
172.012
197.129
227.063
262.587
303.621
348.866
395.801
441.26
482.14
516.269
542.666
561.454
573.606
580.349
583.104
583.221
583.058
582.305
580.275
576.724
22.1062
22.166
22.2448
22.3488
22.4861
22.6676
22.9072
23.2233
23.6396
24.1861
24.901
25.831
27.0326
28.5716
30.523
32.9687
35.9958
39.6935
44.15
49.4516
55.6852
62.9422
71.3191
80.9185
91.8613
104.317
118.517
134.687
153.049
174.022
198.425
227.318
261.528
301.16
345.241
391.624
437.391
479.492
515.521
544.273
565.482
579.786
588.288
592.463
593.347
593.024
592.615
591.136
588.242
584.127
579.117
573.15
22.4879
22.6625
22.8908
23.1892
23.5786
24.0856
24.7434
25.5928
26.6831
28.072
29.8253
32.0155
34.7202
38.02
41.9957
46.7265
52.2897
58.7639
66.234
74.791
84.5322
95.572
108.073
122.257
138.352
156.557
177.242
201.139
229.249
262.412
300.852
343.832
389.523
435.257
478.11
515.605
546.269
569.534
585.845
596.171
601.685
603.538
603.366
603.023
601.943
599.585
596.024
591.347
585.963
579.945
573.814
567.323
23.5736
24.0584
24.682
25.4806
26.4979
27.785
29.4003
31.408
33.8775
36.8809
40.4916
44.7822
49.8228
55.6826
62.4337
70.1556
78.935
88.865
100.055
112.665
126.908
143.01
161.157
181.683
205.253
232.813
265.187
302.662
344.662
389.609
435.076
478.308
516.823
548.941
573.954
592.088
604.036
610.798
613.809
614.049
613.533
612.808
610.961
607.829
603.631
598.582
592.835
586.711
580.497
574.162
567.909
561.419
27.6833
29.2096
31.0947
33.4004
36.1913
39.5333
43.4924
48.1328
53.5165
59.7055
66.7672
74.7776
83.8198
93.9832
105.375
118.154
132.53
148.721
166.901
187.384
210.789
238.011
269.837
306.573
347.743
391.958
437.016
480.325
519.447
552.616
579.041
598.648
612.002
620.05
624.138
624.926
624.421
623.859
622.336
619.527
615.8
611.09
605.694
599.741
593.599
587.338
581.008
574.702
568.386
562.189
555.777
35.899
39.0539
42.7737
47.117
52.14
57.8974
64.446
71.8503
80.1841
89.5278
99.9678
111.612
124.619
139.198
155.557
173.859
194.408
217.798
244.875
276.379
312.593
353.098
396.637
441.194
484.335
523.715
557.585
585.008
605.762
620.326
629.564
634.459
635.984
635.642
635.031
633.798
631.42
627.996
623.636
618.56
612.798
606.728
600.549
594.264
587.956
581.659
575.37
569.119
562.862
556.719
550.366
51.4674
56.9017
63.0599
69.9954
77.7722
86.463
96.146
106.905
118.85
132.147
147.002
163.606
182.117
202.84
226.358
253.475
284.865
320.765
360.768
403.703
447.698
490.481
529.831
564.033
592.071
613.663
629.22
639.343
645.009
647.289
647.19
646.414
645.431
643.367
640.134
636.172
631.359
625.878
619.942
613.858
607.622
601.317
595.016
588.726
582.452
576.203
569.967
563.765
557.553
551.445
545.135
84.6416
93.7241
103.785
114.905
127.204
140.852
156.055
172.981
191.787
212.79
236.579
263.912
295.384
331.158
370.809
413.215
456.61
498.88
537.935
572.112
600.421
622.554
638.776
649.553
655.929
658.801
658.949
658.191
657.309
655.441
652.43
648.718
644.173
638.963
633.188
627.179
621.029
614.768
608.487
602.202
595.918
589.652
583.404
577.173
570.962
564.763
558.593
552.411
546.329
540.055
124.078
136.785
150.853
166.48
183.805
202.995
224.393
248.602
276.324
308.057
343.872
383.3
425.235
467.996
509.611
548.126
581.968
610.227
632.555
649.086
660.361
667.301
670.556
671
670.311
669.35
667.678
664.931
661.362
657.079
652.116
646.504
640.577
634.51
628.298
622.033
615.761
609.484
603.217
596.964
590.721
584.492
578.277
572.076
565.891
559.716
553.57
547.414
541.353
535.112
178.44
196.241
215.907
237.824
262.606
290.883
323.036
359.031
398.333
439.831
481.907
522.722
560.468
593.692
621.58
643.766
660.34
671.881
679.127
682.616
683.403
682.761
681.633
680.127
677.57
674.061
670.03
665.266
659.862
654.057
648.089
641.937
635.692
629.43
623.159
616.888
610.63
604.382
598.146
591.92
585.705
579.5
573.307
567.125
560.96
554.806
548.681
542.548
536.508
530.299
253.28
278.803
307.798
340.507
376.784
416.013
457.063
498.377
538.239
574.989
607.32
634.53
656.269
672.616
684.161
691.487
695.145
696.106
695.493
694.298
692.857
690.402
686.913
683.059
678.491
673.272
667.588
661.696
655.629
649.434
643.207
636.954
630.687
624.424
618.169
611.923
605.686
599.459
593.241
587.033
580.834
574.645
568.469
562.305
556.157
550.022
543.917
537.806
531.788
525.61
360.672
397.284
436.444
476.986
517.419
556.142
591.665
622.849
649.091
670.101
685.943
697.246
704.46
708.147
709.131
708.538
707.326
705.813
703.442
700.069
696.232
691.828
686.818
681.218
675.395
669.403
663.257
657.055
650.827
644.579
638.328
632.079
625.831
619.588
613.351
607.12
600.896
594.681
588.474
582.277
576.09
569.915
563.753
557.605
551.475
545.359
539.273
533.185
527.187
521.04
499.631
539.012
576.387
610.44
640.218
665.219
685.219
700.346
711.166
718.084
721.618
722.526
721.921
720.67
719.032
716.71
713.419
709.565
705.281
700.408
694.911
689.172
683.294
677.196
671.017
664.809
658.574
652.33
646.088
639.845
633.605
627.368
621.133
614.9
608.672
602.45
596.233
590.026
583.827
577.639
571.463
565.3
559.152
553.02
546.907
540.81
534.744
528.678
522.701
516.584
631.208
659.33
682.842
701.582
715.775
725.895
732.337
735.567
736.317
735.641
734.317
732.548
730.22
726.956
723.082
718.868
714.103
708.707
703.045
697.243
691.203
685.062
678.899
672.69
666.457
660.219
653.978
647.737
641.499
635.263
629.028
622.795
616.564
610.336
604.112
597.894
591.684
585.482
579.291
573.113
566.947
560.797
554.663
548.546
542.45
536.372
530.326
524.282
518.325
512.239
732.156
741.4
747.199
749.986
750.494
749.681
748.268
746.371
743.966
740.702
736.793
732.607
727.924
722.63
717.024
711.284
705.305
699.205
693.079
686.898
680.683
674.464
668.236
662.001
655.763
649.524
643.284
637.045
630.807
624.571
618.338
612.107
605.88
599.659
593.445
587.24
581.045
574.862
568.693
562.538
556.4
550.28
544.179
538.1
532.04
526.014
519.992
514.057
508
764.847
765.04
764.055
762.526
760.491
757.947
754.658
750.708
746.514
741.884
736.675
731.108
725.425
719.515
713.454
707.362
701.209
695.014
688.814
682.601
676.375
670.147
663.913
657.675
651.434
645.191
638.946
632.702
626.46
620.22
613.984
607.752
601.526
595.308
589.098
582.898
576.71
570.535
564.375
558.232
552.107
546.001
539.915
533.853
527.812
521.806
515.806
509.891
503.863
777.079
774.888
772.175
768.822
764.824
760.599
755.988
750.841
745.306
739.671
733.829
727.804
721.744
715.628
709.458
703.277
697.08
690.866
684.647
678.422
672.188
665.95
659.708
653.461
647.212
640.96
634.708
628.458
622.21
615.966
609.727
603.494
597.269
591.053
584.847
578.653
572.473
566.307
560.157
554.025
547.913
541.821
535.751
529.706
523.683
517.696
511.718
505.824
499.825
779.138
774.865
770.244
765.132
759.626
754.027
748.246
742.255
736.227
730.152
724.009
717.849
711.673
705.474
699.268
693.053
686.826
680.592
674.353
668.107
661.856
655.601
649.343
643.083
636.822
630.562
624.305
618.051
611.804
605.563
599.33
593.106
586.893
580.692
574.504
568.331
562.174
556.034
549.914
543.814
537.737
531.683
525.655
519.651
513.683
507.726
501.853
495.883
779.549
774.073
768.502
762.767
756.812
750.815
744.78
738.666
732.527
726.376
720.197
714.005
707.804
701.587
695.362
689.128
682.885
676.634
670.378
664.116
657.85
651.581
645.31
639.04
632.77
626.502
620.239
613.981
607.731
601.488
595.256
589.034
582.824
576.628
570.446
564.281
558.133
552.004
545.896
539.809
533.746
527.707
521.697
515.711
509.763
503.827
497.975
492.033
771.477
765.511
759.514
753.43
747.315
741.191
735.033
728.858
722.673
716.47
710.255
704.03
697.793
691.546
685.291
679.028
672.758
666.484
660.206
653.925
647.642
641.36
635.079
628.801
622.527
616.259
609.997
603.744
597.501
591.269
585.05
578.844
572.653
566.478
560.32
554.182
548.064
541.967
535.894
529.845
523.822
517.828
511.86
505.932
500.018
494.186
488.273
768.302
762.213
756.116
749.983
743.826
737.66
731.473
725.27
719.057
712.829
706.588
700.338
694.077
687.807
681.53
675.247
668.959
662.667
656.373
650.077
643.783
637.49
631.199
624.914
618.634
612.361
606.096
599.842
593.599
587.368
581.151
574.949
568.764
562.596
556.446
550.317
544.21
538.125
532.065
526.031
520.024
514.046
508.097
502.188
496.296
490.484
484.599
758.909
752.763
746.596
740.407
734.207
727.991
721.759
715.516
709.26
702.993
696.717
690.432
684.139
677.841
671.538
665.231
658.923
652.614
646.305
639.999
633.696
627.398
621.105
614.82
608.543
602.277
596.021
589.778
583.549
577.336
571.138
564.958
558.797
552.656
546.537
540.44
534.368
528.321
522.301
516.309
510.349
504.418
498.528
492.657
486.866
481.008
755.665
749.481
743.279
737.058
730.824
724.576
718.314
712.041
705.757
699.463
693.161
686.853
680.538
674.219
667.898
661.574
655.25
648.927
642.607
636.29
629.978
623.672
617.374
611.084
604.804
598.536
592.28
586.038
579.811
573.601
567.408
561.234
555.08
548.948
542.838
536.752
530.692
524.658
518.652
512.676
506.733
500.82
494.949
489.099
483.33
477.5
752.482
746.26
740.023
733.768
727.501
721.22
714.928
708.626
702.314
695.995
689.669
683.338
677.002
670.664
664.325
657.986
651.648
645.312
638.98
632.654
626.334
620.021
613.717
607.423
601.141
594.871
588.615
582.375
576.151
569.944
563.756
557.588
551.442
545.318
539.218
533.143
527.094
521.074
515.083
509.122
503.196
497.301
491.45
485.622
479.874
474.073
749.353
743.093
736.82
730.532
724.231
717.92
711.598
705.268
698.93
692.586
686.238
679.885
673.53
667.175
660.819
654.465
648.113
641.766
635.424
629.089
622.761
616.442
610.134
603.837
597.552
591.282
585.026
578.787
572.566
566.363
560.181
554.019
547.88
541.765
535.674
529.61
523.574
517.567
511.59
505.645
499.736
493.861
488.03
482.225
476.499
470.727
746.271
739.975
733.667
727.346
721.014
714.673
708.323
701.966
695.604
689.237
682.867
676.494
670.121
663.749
657.378
651.01
644.646
638.288
631.936
625.593
619.258
612.934
606.622
600.322
594.036
587.765
581.51
575.273
569.055
562.856
556.679
550.524
544.393
538.286
532.206
526.153
520.129
514.135
508.174
502.246
496.355
490.499
484.69
478.907
473.202
467.455
743.234
736.904
730.562
724.21
717.848
711.478
705.102
698.721
692.335
685.946
679.555
673.164
666.774
660.386
654.001
647.62
641.245
634.876
628.516
622.165
615.824
609.495
603.179
596.877
590.589
584.319
578.065
571.83
565.615
559.421
553.249
547.101
540.978
534.88
528.81
522.77
516.759
510.78
504.835
498.925
493.051
487.213
481.421
475.657
469.973
464.252
740.241
733.878
727.504
721.122
714.732
708.336
701.935
695.53
689.122
682.712
676.303
669.894
663.487
657.084
650.686
644.293
637.907
631.53
625.161
618.803
612.457
606.124
599.804
593.5
587.212
580.941
574.689
568.457
562.245
556.056
549.891
543.75
537.636
531.548
525.49
519.462
513.465
507.499
501.567
495.671
489.813
483.992
478.217
472.475
466.813
461.121
730.898
724.494
718.084
711.667
705.245
698.82
692.393
685.964
679.535
673.108
666.682
660.261
653.844
647.433
641.028
634.633
628.246
621.87
615.506
609.155
602.818
596.495
590.189
583.901
577.631
571.381
565.152
558.946
552.762
546.604
540.472
534.367
528.29
522.241
516.223
510.236
504.283
498.364
492.482
486.64
480.838
475.085
469.365
463.725
458.061
727.963
721.531
715.094
708.652
702.206
695.758
689.31
682.861
676.414
669.969
663.528
657.092
650.662
644.239
637.825
631.419
625.025
618.642
612.272
605.916
599.576
593.251
586.945
580.657
574.389
568.142
561.918
555.717
549.541
543.389
537.262
531.164
525.095
519.055
513.045
507.07
501.13
495.227
489.362
483.538
477.755
472.022
466.324
460.707
455.071
725.074
718.615
712.152
705.685
699.217
692.748
686.279
679.812
673.347
666.887
660.431
653.981
647.539
641.105
634.68
628.266
621.865
615.475
609.101
602.742
596.399
590.074
583.768
577.482
571.217
564.973
558.751
552.553
546.381
540.234
534.113
528.021
521.96
515.931
509.934
503.972
498.046
492.158
486.309
480.503
474.739
469.027
463.351
457.757
452.148
715.745
709.258
702.768
696.278
689.789
683.301
676.816
670.335
663.859
657.389
650.926
644.473
638.028
631.595
625.174
618.766
612.372
605.994
599.632
593.289
586.963
580.657
574.37
568.105