/*--------------------------------*- C++ -*----------------------------------*\
| =========                 |                                                 |
| \\      /  F ield         | OpenFOAM: The Open Source CFD Toolbox           |
|  \\    /   O peration     | Version:  v1706                                 |
|   \\  /    A nd           | Web:      www.OpenFOAM.com                      |
|    \\/     M anipulation  |                                                 |
\*---------------------------------------------------------------------------*/
FoamFile
{
    version     2.0;
    format      ascii;
    class       volScalarField;
    location    "1.9e-05";
    object      p;
}
// * * * * * * * * * * * * * * * * * * * * * * * * * * * * * * * * * * * * * //

dimensions      [1 -1 -2 0 0 0 0];


internalField   nonuniform List<scalar> 
30038
(
21.9139
21.9139
21.9139
21.9139
21.9139
21.9139
21.9139
21.9139
21.9139
21.9139
21.9139
21.9139
21.9139
21.9139
21.9139
21.9139
21.9139
21.9139
21.9139
21.9139
21.9139
21.9139
21.9139
21.9139
21.9139
21.9139
21.9139
21.9139
21.9139
21.9139
21.9139
21.9139
21.9139
21.9139
21.9139
21.9139
21.9139
21.9139
21.9139
21.9139
21.9139
21.9139
21.9139
21.9139
21.9139
21.9139
21.9139
21.9139
21.9139
21.9139
21.9139
21.9139
21.9139
21.9139
21.9139
21.9139
21.9139
21.9139
21.9139
21.9139
21.9139
21.9139
21.9139
21.9139
21.9139
21.9139
21.9139
21.9139
21.9139
21.9139
21.9139
21.9139
21.9139
21.9139
21.9139
21.9139
21.9139
21.9139
21.9139
21.9139
21.9139
21.9139
21.9139
21.9139
21.9139
21.9139
21.9139
21.9139
21.9139
21.9139
21.9139
21.9139
21.9139
21.9139
21.9139
21.9139
21.9139
21.9139
21.9139
21.9139
21.9139
21.9139
21.9139
21.9139
21.9139
21.9139
21.9139
21.9139
21.9139
21.9139
21.9139
21.9139
21.9139
21.9139
21.9139
21.9139
21.9139
21.9139
21.9139
21.9139
21.9139
21.9139
21.9139
21.9139
21.9139
21.9139
21.9139
21.9139
21.9139
21.9139
21.9139
21.9139
21.9139
21.9139
21.9139
21.9139
21.9139
21.9139
21.9139
21.9139
21.9139
21.9139
21.9139
21.9139
21.9139
21.9139
21.9139
21.9139
21.9139
21.9139
21.9139
21.9139
21.9139
21.9139
21.9139
21.9139
21.9139
21.9139
21.9139
21.9139
21.9139
21.9139
21.9139
21.9139
21.9139
21.9139
21.9139
21.9139
21.9139
21.9139
21.9139
21.9139
21.9139
21.9139
21.9139
21.9139
21.9139
21.9139
21.9139
21.9139
21.9139
21.9139
21.9139
21.9139
21.9139
21.9139
21.9139
21.9139
21.9139
21.9139
21.9139
21.9139
21.9139
21.9139
21.9139
21.9139
21.9139
21.9139
21.9139
21.9139
21.9139
21.9139
21.9139
21.9139
21.9139
21.9139
21.9139
21.9139
21.9139
21.9139
21.9139
21.9139
21.9139
21.9139
21.9139
21.9139
21.9139
21.9139
21.9139
21.9139
21.9139
21.9139
21.9139
21.9139
21.9139
21.9139
21.9139
21.9139
21.9139
21.9139
21.9139
21.9139
21.9139
21.9139
21.9139
21.9139
21.9139
21.9139
21.9139
21.9139
21.9139
21.9139
21.9139
21.9139
21.9139
21.9139
21.9139
21.9139
21.9139
21.9139
21.9139
21.9139
21.9139
21.9139
21.9139
21.9139
21.9139
21.9139
21.9139
21.9139
21.9139
21.9139
21.9139
21.9139
21.9139
21.9139
21.9139
21.9139
21.9139
21.9139
21.9139
21.9139
21.9139
21.9139
21.9139
21.9139
21.9139
21.9139
21.9139
21.9139
21.9139
21.9139
21.9139
21.9139
21.9139
21.9139
21.9139
21.9139
21.9139
21.9139
21.9139
21.9139
21.9139
21.9139
21.9139
21.9139
21.9139
21.9139
21.9139
21.9139
21.9139
21.9139
21.9139
21.9139
21.9139
21.9139
21.9139
21.9139
21.9139
21.9139
21.9139
21.9139
21.9139
21.9139
21.9139
21.9139
21.9139
21.9139
21.9139
21.9139
21.9139
21.9139
21.9139
21.9139
21.9139
21.9139
21.9139
21.9139
21.9139
21.9139
21.9139
21.9139
21.9139
21.9139
21.9139
21.9139
21.9139
21.9139
21.9139
21.9139
21.9139
21.9139
21.9139
21.9139
21.9139
21.9139
21.9139
21.9139
21.9139
21.9139
21.9139
21.9139
21.9139
21.9139
21.9139
21.9139
21.9139
21.9139
21.9139
21.9139
21.9139
21.9139
21.9139
21.9139
21.9139
21.9139
21.9139
21.9139
21.9139
21.9139
21.9139
21.9139
21.9139
21.9139
21.9139
21.9139
21.9139
21.9139
21.9139
21.9139
21.9139
21.9139
21.9139
21.9139
21.9139
21.9139
21.9139
21.9139
21.9139
21.9139
21.9139
21.9139
21.9139
21.9139
21.9139
21.9139
21.9139
21.9139
21.9139
21.9139
21.9139
21.9139
21.9139
21.9139
21.9139
21.9139
21.9139
21.9139
21.9139
21.9139
21.9139
21.9139
21.9139
21.9139
21.9139
21.9139
21.9139
21.9139
21.9139
21.9139
21.9139
21.9139
21.9139
21.9139
21.9139
21.9139
21.9139
21.9139
21.9139
21.9139
21.9139
21.9139
21.9139
21.9139
21.9139
21.9139
21.9139
21.9139
21.9139
21.9139
21.9139
21.9139
21.9139
21.9139
21.9139
21.9139
21.9139
21.9139
21.9139
21.9139
21.9139
21.9139
21.9139
21.9139
21.9139
21.9139
21.9139
21.9139
21.9139
21.9139
21.9139
21.9139
21.9139
21.9139
21.9139
21.9139
21.9139
21.9139
21.9139
21.9139
21.9139
21.9139
21.9139
21.9139
21.9139
21.9139
21.9139
21.9139
21.9139
21.9139
21.9139
21.9139
21.9139
21.9139
21.9139
21.9139
21.9139
21.9139
21.9139
21.9139
21.9139
21.9139
21.9139
21.9139
21.9139
21.9139
21.9139
21.9139
21.9139
21.9139
21.9139
21.9139
21.9139
21.9139
21.9139
21.9139
21.9139
21.9139
21.9139
21.9139
21.9139
21.9139
21.9139
21.9139
21.9139
21.9139
21.9139
21.9139
21.9139
21.9139
21.9139
21.9139
21.9139
21.9139
21.9139
21.9139
21.9139
21.9139
21.9139
21.9139
21.9139
21.9139
21.9139
21.9139
21.9139
21.9139
21.9139
21.9139
21.9139
21.9139
21.9139
21.9139
21.9139
21.9139
21.9139
21.9139
21.9139
21.9139
21.9139
21.9139
21.9139
21.9139
21.9139
21.9139
21.9139
21.9139
21.9139
21.9139
21.9139
21.9139
21.9139
21.9139
21.9139
21.9139
21.9139
21.9139
21.9139
21.9139
21.9139
21.9139
21.9139
21.9139
21.9139
21.9139
21.9139
21.9139
21.9139
21.9139
21.9139
21.9139
21.9139
21.9139
21.9139
21.9139
21.9139
21.9139
21.9139
21.9139
21.9139
21.9139
21.9139
21.9139
21.9139
21.9139
21.9139
21.9139
21.9139
21.9139
21.9139
21.9139
21.9139
21.9139
21.9139
21.9139
21.9139
21.9139
21.9139
21.9139
21.9139
21.9139
21.9139
21.9139
21.9139
21.9139
21.9139
21.9139
21.9139
21.9139
21.9139
21.9139
21.9139
21.9139
21.9139
21.9139
21.9139
21.9139
21.9139
21.9139
21.9139
21.9139
21.9139
21.9139
21.9139
21.9139
21.9139
21.9139
21.9139
21.9139
21.9139
21.9139
21.9139
21.9139
21.9139
21.9139
21.9139
21.9139
21.9139
21.9139
21.9139
21.9139
21.9139
21.9139
21.9139
21.9139
21.9139
21.9139
21.9139
21.9139
21.9139
21.9139
21.9139
21.9139
21.9139
21.9139
21.9139
21.9139
21.9139
21.9139
21.9139
21.9139
21.9139
21.9139
21.9139
21.9139
21.9139
21.9139
21.9139
21.9139
21.9139
21.9139
21.9139
21.9139
21.9139
21.9139
21.9139
21.9139
21.9139
21.9139
21.9139
21.9139
21.9139
21.9139
21.9139
21.9139
21.9139
21.9139
21.9139
21.9139
21.9139
21.9139
21.9139
21.9139
21.9139
21.9139
21.9139
21.9139
21.9139
21.9139
21.9139
21.9139
21.9139
21.9139
21.9139
21.9139
21.9139
21.9139
21.9139
21.9139
21.9139
21.9139
21.9139
21.9139
21.9139
21.9139
21.9139
21.9139
21.9139
21.9139
21.9139
21.9139
21.9139
21.9139
21.9139
21.9139
21.9139
21.9139
21.9139
21.9139
21.9139
21.9139
21.9139
21.9139
21.9139
21.9139
21.9139
21.9139
21.9139
21.9139
21.9139
21.9139
21.9139
21.9139
21.9139
21.9139
21.9139
21.9139
21.9139
21.9139
21.9139
21.9139
21.9139
21.9139
21.9139
21.9139
21.9139
21.9139
21.9139
21.9139
21.9139
21.9139
21.9139
21.9139
21.9139
21.9139
21.9139
21.9139
21.9139
21.9139
21.9139
21.9139
21.9139
21.9139
21.9139
21.9139
21.9139
21.9139
21.9139
21.9139
21.9139
21.9139
21.9139
21.9139
21.9139
21.9139
21.9139
21.9139
21.9139
21.9139
21.9139
21.9139
21.9139
21.9139
21.9139
21.9139
21.9139
21.9139
21.9139
21.9139
21.9139
21.9139
21.9139
21.9139
21.9139
21.9139
21.9139
21.9139
21.9139
21.9139
21.9139
21.9139
21.9139
21.9139
21.9139
21.9139
21.9139
21.9139
21.9139
21.9139
21.9139
21.9139
21.9139
21.9139
21.9139
21.9139
21.9139
21.9139
21.9139
21.9139
21.9139
21.9139
21.9139
21.9139
21.9139
21.9139
21.9139
21.9139
21.9139
21.9139
21.9139
21.9139
21.9139
21.9139
21.9139
21.9139
21.9139
21.9139
21.9139
21.9139
21.9139
21.9139
21.9139
21.9139
21.9139
21.9139
21.9139
21.9139
21.9139
21.9139
21.9139
21.9139
21.9139
21.9139
21.9139
21.9139
21.9139
21.9139
21.9139
21.9139
21.9139
21.9139
21.9139
21.9139
21.9139
21.9139
21.9139
21.9139
21.9139
21.9139
21.9139
21.9139
21.9139
21.9139
21.9139
21.9139
21.9139
21.9139
21.9139
21.9139
21.9139
21.9139
21.9139
21.9139
21.9139
21.9139
21.9139
21.9139
21.9139
21.9139
21.9139
21.9139
21.9139
21.9139
21.9139
21.9139
21.9139
21.9139
21.9139
21.9139
21.9139
21.9139
21.9139
21.9139
21.9139
21.9139
21.9139
21.9139
21.9139
21.9139
21.9139
21.9139
21.9139
21.9139
21.9139
21.9139
21.9139
21.9139
21.9139
21.9139
21.9139
21.9139
21.9139
21.9139
21.9139
21.9139
21.9139
21.9139
21.9139
21.9139
21.9139
21.9139
21.9139
21.9139
21.9139
21.9139
21.9139
21.9139
21.9139
21.9139
21.9139
21.9139
21.9139
21.9139
21.9139
21.9139
21.9139
21.9139
21.9139
21.9139
21.9139
21.9139
21.9139
21.9139
21.9139
21.9139
21.9139
21.9139
21.9139
21.9139
21.9139
21.9139
21.9139
21.9139
21.9139
21.9139
21.9139
21.9139
21.9139
21.9139
21.9139
21.9139
21.9139
21.9139
21.9139
21.9139
21.9139
21.9139
21.9139
21.9139
21.9139
21.9139
21.9139
21.9139
21.9139
21.9139
21.9139
21.9139
21.9139
21.9139
21.9139
21.9139
21.9139
21.9139
21.9139
21.9139
21.9139
21.9139
21.9139
21.9139
21.9139
21.9139
21.9139
21.9139
21.9139
21.9139
21.9139
21.9139
21.9139
21.9139
21.9139
21.9139
21.9139
21.9139
21.9139
21.9139
21.9139
21.9139
21.9139
21.9139
21.9139
21.9139
21.9139
21.9139
21.9139
21.9139
21.9139
21.9139
21.9139
21.9139
21.9139
21.9139
21.9139
21.9139
21.9139
21.9139
21.9139
21.9139
21.9139
21.9139
21.9139
21.9139
21.9139
21.9139
21.9139
21.9139
21.9139
21.9139
21.9139
21.9139
21.9139
21.9139
21.9139
21.9139
21.9139
21.9139
21.9139
21.9139
21.9139
21.9139
21.9139
21.9139
21.9139
21.9139
21.9139
21.9139
21.9139
21.9139
21.9139
21.9139
21.9139
21.9139
21.9139
21.9139
21.9139
21.9139
21.9139
21.9139
21.9139
21.9139
21.9139
21.9139
21.9139
21.9139
21.9139
21.9139
21.9139
21.9139
21.9139
21.9139
21.9139
21.9139
21.9139
21.9139
21.9139
21.9139
21.9139
21.9139
21.9139
21.9139
21.9139
21.9139
21.9139
21.9139
21.9139
21.9139
21.9139
21.9139
21.9139
21.9139
21.9139
21.9139
21.9139
21.9139
21.9139
21.9139
21.9139
21.9139
21.9139
21.9139
21.9139
21.9139
21.9139
21.9139
21.9139
21.9139
21.9139
21.9139
21.9139
21.9139
21.9139
21.9139
21.9139
21.9139
21.9139
21.9139
21.9139
21.9139
21.9139
21.9139
21.9139
21.9139
21.9139
21.9139
21.9139
21.9139
21.9139
21.9139
21.9139
21.9139
21.9139
21.9139
21.9139
21.9139
21.9139
21.9139
21.9139
21.9139
21.9139
21.9139
21.9139
21.9139
21.9139
21.9139
21.9139
21.9139
21.9139
21.9139
21.9139
21.9139
21.9139
21.9139
21.9139
21.9139
21.9139
21.9139
21.9139
21.9139
21.9139
21.9139
21.9139
21.9139
21.9139
21.9139
21.9139
21.9139
21.9139
21.9139
21.9139
21.9139
21.9139
21.9139
21.9139
21.9139
21.9139
21.9139
21.9139
21.9139
21.9139
21.9139
21.9139
21.9139
21.9139
21.9139
21.9139
21.9139
21.9139
21.9139
21.9139
21.9139
21.9139
21.9139
21.9139
21.9139
21.9139
21.9139
21.9139
21.9139
21.9139
21.9139
21.9139
21.9139
21.9139
21.9139
21.9139
21.9139
21.9139
21.9139
21.9139
21.9139
21.9139
21.9139
21.9139
21.9139
21.9139
21.9139
21.9139
21.9139
21.9139
21.9139
21.9139
21.9139
21.9139
21.9139
21.9139
21.9139
21.9139
21.9139
21.9139
21.9139
21.9139
21.9139
21.9139
21.9139
21.9139
21.9139
21.9139
21.9139
21.9139
21.9139
21.9139
21.9139
21.9139
21.9139
21.9139
21.9139
21.9139
21.9139
21.9139
21.9139
21.9139
21.9139
21.9139
21.9139
21.9139
21.9139
21.9139
21.9139
21.9139
21.9139
21.9139
21.9139
21.9139
21.9139
21.9139
21.9139
21.9139
21.9139
21.9139
21.9139
21.9139
21.9139
21.9139
21.9139
21.9139
21.9139
21.9139
21.9139
21.9139
21.9139
21.9139
21.9139
21.9139
21.9139
21.9139
21.9139
21.9139
21.9139
21.9139
21.9139
21.9139
21.9139
21.9139
21.9139
21.9139
21.9139
21.9139
21.9139
21.9139
21.9139
21.9139
21.9139
21.9139
21.9139
21.9139
21.9139
21.9139
21.9139
21.9139
21.9139
21.9139
21.9139
21.9139
21.9139
21.9139
21.9139
21.9139
21.9139
21.9139
21.9139
21.9139
21.9139
21.9139
21.9139
21.9139
21.9139
21.9139
21.9139
21.9139
21.9139
21.9139
21.9139
21.9139
21.9139
21.9139
21.9139
21.9139
21.9139
21.9139
21.9139
21.9139
21.9139
21.9139
21.9139
21.9139
21.9139
21.9139
21.9139
21.9139
21.9139
21.9139
21.9139
21.9139
21.9139
21.9139
21.9139
21.9139
21.9139
21.9139
21.9139
21.9139
21.9139
21.9139
21.9139
21.9139
21.9139
21.9139
21.9139
21.9139
21.9139
21.9139
21.9139
21.9139
21.9139
21.9139
21.9139
21.9139
21.9139
21.9139
21.9139
21.9139
21.9139
21.9139
21.9139
21.9139
21.9139
21.9139
21.9139
21.9139
21.9139
21.9139
21.9139
21.9139
21.9139
21.9139
21.9139
21.9139
21.9139
21.9139
21.9139
21.9139
21.9139
21.9139
21.914
21.9139
21.9139
21.9139
21.9139
21.9139
21.9139
21.9139
21.9139
21.9139
21.9139
21.9139
21.9139
21.9139
21.9139
21.9139
21.9139
21.9139
21.9139
21.9139
21.9139
21.9139
21.9139
21.9139
21.9139
21.9139
21.9139
21.9139
21.9139
21.9139
21.9139
21.9139
21.9139
21.9139
21.9139
21.9139
21.9139
21.9139
21.9139
21.9139
21.9139
21.9139
21.9139
21.9139
21.9139
21.9139
21.9139
21.914
21.914
21.9141
21.9143
21.9139
21.9139
21.9139
21.9139
21.9139
21.9139
21.9139
21.9139
21.9139
21.9139
21.9139
21.9139
21.9139
21.9139
21.9139
21.9139
21.9139
21.9139
21.9139
21.9139
21.9139
21.9139
21.9139
21.9139
21.9139
21.9139
21.9139
21.9139
21.9139
21.9139
21.9139
21.9139
21.9139
21.9139
21.9139
21.9139
21.9139
21.9139
21.9139
21.9139
21.9139
21.9139
21.9139
21.914
21.914
21.9141
21.9143
21.9146
21.9151
21.916
21.9139
21.9139
21.9139
21.9139
21.9139
21.9139
21.9139
21.9139
21.9139
21.9139
21.9139
21.9139
21.9139
21.9139
21.9139
21.9139
21.9139
21.9139
21.9139
21.9139
21.9139
21.9139
21.9139
21.9139
21.9139
21.9139
21.9139
21.9139
21.9139
21.9139
21.9139
21.9139
21.9139
21.9139
21.9139
21.9139
21.9139
21.9139
21.9139
21.914
21.914
21.9141
21.9142
21.9143
21.9146
21.9151
21.916
21.9174
21.92
21.9248
21.9139
21.9139
21.9139
21.9139
21.9139
21.9139
21.9139
21.9139
21.9139
21.9139
21.9139
21.9139
21.9139
21.9139
21.9139
21.9139
21.9139
21.9139
21.9139
21.9139
21.9139
21.9139
21.9139
21.9139
21.9139
21.9139
21.9139
21.9139
21.9139
21.9139
21.9139
21.9139
21.9139
21.9139
21.9139
21.9139
21.914
21.914
21.9141
21.9142
21.9144
21.9147
21.9152
21.9161
21.9176
21.9201
21.9244
21.9317
21.9445
21.9681
21.9139
21.9139
21.9139
21.9139
21.9139
21.9139
21.9139
21.9139
21.9139
21.9139
21.9139
21.9139
21.9139
21.9139
21.9139
21.9139
21.9139
21.9139
21.9139
21.9139
21.9139
21.9139
21.9139
21.9139
21.9139
21.9139
21.9139
21.9139
21.9139
21.9139
21.9139
21.9139
21.9139
21.914
21.914
21.9141
21.9142
21.9144
21.9148
21.9153
21.9163
21.9178
21.9204
21.9248
21.9322
21.9447
21.9659
22.0019
22.0641
22.1768
21.9139
21.9139
21.9139
21.9139
21.9139
21.9139
21.9139
21.9139
21.9139
21.9139
21.9139
21.9139
21.9139
21.9139
21.9139
21.9139
21.9139
21.9139
21.9139
21.9139
21.9139
21.9139
21.9139
21.9139
21.9139
21.9139
21.9139
21.9139
21.9139
21.914
21.914
21.914
21.9141
21.9143
21.9145
21.9149
21.9155
21.9165
21.9182
21.921
21.9256
21.9332
21.946
21.9674
22.0033
22.0636
22.1652
22.3368
22.6288
23.1427
21.9139
21.9139
21.9139
21.9139
21.9139
21.9139
21.9139
21.9139
21.9139
21.9139
21.9139
21.9139
21.9139
21.9139
21.9139
21.9139
21.9139
21.9139
21.9139
21.9139
21.9139
21.9139
21.9139
21.9139
21.9139
21.9139
21.914
21.914
21.9141
21.9142
21.9143
21.9146
21.915
21.9157
21.9169
21.9187
21.9217
21.9267
21.9348
21.9483
21.9705
22.0073
22.0684
22.17
22.3391
22.6202
23.0865
23.8562
25.1198
27.2052
21.9139
21.9139
21.9139
21.9139
21.9139
21.9139
21.9139
21.9139
21.9139
21.9139
21.9139
21.9139
21.9139
21.9139
21.9139
21.9139
21.9139
21.9139
21.9139
21.9139
21.9139
21.9139
21.914
21.914
21.914
21.9141
21.9142
21.9144
21.9148
21.9153
21.9161
21.9174
21.9194
21.9228
21.9283
21.9372
21.9517
21.9753
22.014
22.0775
22.1818
22.3533
22.635
23.0962
23.8469
25.0553
26.9672
29.9201
34.3501
40.8233
21.9139
21.9139
21.9139
21.9139
21.9139
21.9139
21.9139
21.9139
21.9139
21.9139
21.9139
21.9139
21.9139
21.9139
21.9139
21.9139
21.9139
21.9139
21.9139
21.914
21.914
21.9141
21.9142
21.9143
21.9146
21.915
21.9156
21.9165
21.918
21.9204
21.9243
21.9305
21.9404
21.9564
21.9822
22.024
22.0916
22.2014
22.3798
22.6692
23.1374
23.8901
25.0872
26.9585
29.8135
34.0337
40.0443
48.2707
59.1119
73.029
21.9139
21.9139
21.9139
21.9139
21.9139
21.9139
21.9139
21.9139
21.9139
21.9139
21.9139
21.9139
21.9139
21.9139
21.9139
21.9139
21.914
21.914
21.9141
21.9141
21.9143
21.9145
21.9148
21.9152
21.916
21.9171
21.919
21.9218
21.9263
21.9335
21.9449
21.963
21.9918
22.0379
22.1118
22.2303
22.4204
22.7251
23.2118
23.9846
25.1983
27.0723
29.8985
34.0323
39.8645
47.7784
58.1107
71.1372
87.1019
106.213
129.072
21.9139
21.9139
21.9139
21.9139
21.9139
21.9139
21.9139
21.9139
21.9139
21.9139
21.9139
21.9139
21.914
21.914
21.914
21.9141
21.9142
21.9144
21.9146
21.915
21.9156
21.9166
21.918
21.9202
21.9237
21.9291
21.9376
21.951
21.9719
22.005
22.0572
22.1399
22.2708
22.4783
22.8068
23.325
24.1369
25.3951
27.3125
30.1672
34.2931
40.0535
47.8019
57.846
70.4326
85.7593
104.004
125.363
150.134
178.653
212.256
21.9139
21.9139
21.9139
21.9139
21.9139
21.9139
21.9139
21.9139
21.9139
21.914
21.914
21.914
21.9141
21.9142
21.9143
21.9146
21.9149
21.9154
21.9162
21.9174
21.9192
21.922
21.9264
21.933
21.9434
21.9594
21.9842
22.023
22.0836
22.1782
22.3264
22.5584
22.9209
23.4853
24.3576
25.6904
27.6925
30.631
34.8209
40.5989
48.2882
58.1678
70.4597
85.3402
102.969
123.516
147.205
174.374
205.493
241.198
281.822
330.728
21.9139
21.9139
21.9139
21.9139
21.9139
21.914
21.914
21.914
21.9141
21.9142
21.9143
21.9145
21.9148
21.9153
21.916
21.917
21.9186
21.921
21.9246
21.9301
21.9385
21.9513
21.971
22.0012
22.0478
22.1197
22.2307
22.4024
22.6677
23.077
23.7054
24.663
26.1041
28.2356
31.3155
35.6412
41.5236
49.2562
59.0899
71.2231
85.8141
103.007
122.959
145.867
172.007
201.801
235.735
274.381
318.581
370.184
430.876
507.427
21.9139
21.914
21.914
21.914
21.9141
21.9142
21.9143
21.9145
21.9148
21.9153
21.9159
21.9169
21.9183
21.9204
21.9236
21.9283
21.9355
21.9463
21.9626
21.9874
22.0249
22.0822
22.1694
22.3027
22.5061
22.8165
23.2888
24.0037
25.0765
26.6653
28.9759
32.2583
36.7922
42.8628
50.7331
60.6244
72.7103
87.1292
104.008
123.491
145.752
171.035
199.701
232.243
269.18
311.19
359.51
416.167
483.529
563.8
655.812
762.536
21.9141
21.9142
21.9144
21.9146
21.9149
21.9153
21.9159
21.9168
21.9182
21.9201
21.9231
21.9274
21.9338
21.9433
21.9575
21.9788
22.0106
22.0584
22.1304
22.2388
22.4022
22.6486
23.0197
23.5762
24.406
25.631
27.4141
29.9605
33.5115
38.3284
44.6696
52.7671
62.8125
74.9557
89.3168
106.01
125.168
146.956
171.597
199.407
230.843
266.397
306.639
352.483
405.569
468.13
542.304
629.056
726.855
831.602
934.976
1034.17
21.9149
21.9154
21.916
21.9169
21.9183
21.9202
21.923
21.9271
21.9331
21.9419
21.9549
21.974
22.0023
22.0442
22.1064
22.1988
22.3364
22.5414
22.8463
23.2989
23.9678
24.9491
26.3724
28.4056
31.2525
35.1441
40.3213
47.0142
55.4234
65.7115
78.0055
92.4093
109.026
127.977
149.421
173.561
200.679
231.184
265.562
304.33
348.208
398.508
457.19
526.406
607.598
700.41
801.789
906.032
1005.85
1094.67
1167.01
1222.96
21.9186
21.9205
21.9234
21.9275
21.9334
21.9419
21.9543
21.9723
21.9987
22.0371
22.0934
22.1761
22.2975
22.4759
22.7382
23.1231
23.686
24.5045
25.6843
27.3633
29.7131
32.9343
37.2445
42.8615
49.9854
58.7856
69.3969
81.9252
96.4607
113.097
131.948
153.167
176.944
203.537
233.314
266.749
304.329
346.657
394.762
450.323
515.38
591.638
679.478
777.062
879.863
981.525
1075.09
1155.02
1218.06
1263.78
1293.47
1310.19
21.9346
21.9432
21.9556
21.9735
21.9991
22.0361
22.0895
22.1668
22.2789
22.4416
22.6777
23.02
23.5148
24.227
25.2446
26.6832
28.6883
31.4331
35.111
39.9223
46.0586
53.6889
62.952
73.9573
86.7929
101.538
118.278
137.125
158.225
181.76
207.974
237.198
269.884
306.502
347.584
393.956
447.036
508.698
580.728
663.985
757.514
857.963
959.801
1056.54
1142.06
1212.48
1265.86
1302.86
1325.3
1337.01
1340.5
1341.25
22.0408
22.0938
22.1696
22.2779
22.4331
22.6554
22.9736
23.4281
24.0748
24.9892
26.2705
28.0439
30.4599
33.6893
37.9131
43.3099
50.0422
58.2481
68.0379
79.4992
92.7056
107.728
124.649
143.577
164.654
188.06
214.024
242.849
274.963
310.823
350.916
395.93
447.056
505.984
574.477
653.664
743.23
840.771
941.674
1040.03
1129.72
1206.05
1266.4
1310.4
1339.24
1355.55
1362.53
1363.75
1364.59
1363.49
1358.97
22.4488
22.6677
22.9768
23.4127
24.0254
24.8818
26.069
27.6971
29.8983
32.8238
36.636
41.498
47.5621
54.9608
63.8023
74.1722
86.1406
99.7707
115.129
132.295
151.378
172.519
195.894
221.721
250.287
281.989
317.276
356.606
400.571
450.183
506.948
572.545
648.234
734.14
828.586
927.835
1026.57
1118.96
1199.91
1266.3
1316.63
1351.61
1372.97
1384.19
1387.12
1387.57
1387.69
1384.95
1378.75
1369.37
1357.12
24.071
24.9065
26.051
27.603
29.6806
32.4186
35.9622
40.4589
46.0481
52.8534
60.9775
70.5026
81.4945
94.0105
108.108
123.851
141.322
160.629
181.913
205.349
231.149
259.584
291.026
325.914
364.681
407.859
456.317
511.396
574.669
647.44
730.103
821.522
918.685
1016.92
1110.81
1195.19
1266.34
1322.26
1363.02
1389.7
1404.63
1410.76
1411.61
1411.99
1410.33
1405.81
1398.06
1387.35
1374.65
1360.38
1344.76
32.4259
35.8207
40.0943
45.3724
51.7674
59.374
68.2683
78.5115
90.1555
103.25
117.851
134.023
151.849
171.441
192.942
216.525
242.395
270.814
302.135
336.782
375.171
417.79
465.402
519.21
580.674
651.074
730.956
819.573
914.487
1011.66
1106.08
1192.69
1267.51
1328.23
1373.97
1405.54
1424.6
1434.33
1436.47
1436.42
1435.94
1432.73
1426.37
1417.1
1405.53
1392
1377.23
1361.91
1346.45
1330.24
51.6126
58.8738
67.3229
77.0149
87.9964
100.311
114.007
129.139
145.776
164.005
183.941
205.728
229.538
255.573
284.087
315.419
349.979
388.165
430.431
477.466
530.36
590.461
658.992
736.572
822.704
915.393
1011.12
1105.33
1193.22
1270.74
1335.15
1385.13
1421.22
1444.5
1457.12
1461.73
1461.96
1461.73
1459.44
1454.42
1446.53
1436
1423.65
1409.48
1394.51
1379.08
1363.4
1347.59
1332.02
1315.9
87.4027
99.1303
112.126
126.439
142.128
159.264
177.941
198.276
220.417
244.534
270.825
299.54
331.008
365.626
403.771
445.875
492.574
544.87
604.006
671.131
746.869
830.87
921.468
1015.57
1109.06
1197.44
1276.64
1343.77
1397.36
1437.26
1464.16
1479.9
1487.37
1488.36
1487.73
1486.43
1482.52
1475.62
1466.35
1454.96
1441.66
1427.09
1412
1396.47
1380.75
1364.99
1349.27
1333.54
1318.08
1302.13
140.714
156.981
174.65
193.817
214.606
237.166
261.667
288.303
317.324
349.052
383.869
422.134
464.259
510.845
562.83
621.36
687.495
761.82
844.056
932.764
1025.2
1117.6
1205.81
1285.87
1354.91
1411.17
1454.03
1484.23
1503.17
1512.82
1515.25
1514.76
1513.86
1510.67
1504.82
1496.56
1486.03
1473.73
1459.74
1444.97
1429.7
1414.09
1398.38
1382.64
1366.91
1351.23
1335.63
1320.03
1304.7
1288.9
211.818
233.119
256.167
281.13
308.203
337.636
369.747
404.901
443.441
485.761
532.447
584.385
642.636
708.156
781.461
862.287
949.333
1040.11
1131.18
1218.71
1298.96
1369.01
1427.07
1472.33
1505.24
1526.74
1538.48
1542.97
1542.78
1541.47
1539.06
1534.22
1526.67
1517.12
1505.7
1492.44
1478.01
1463.05
1447.62
1431.98
1416.28
1400.54
1384.83
1369.16
1353.55
1337.98
1322.5
1307.02
1291.79
1276.11
303.132
330.734
360.685
393.305
428.936
467.904
510.595
557.589
609.736
668.01
733.257
805.896
885.636
971.241
1060.42
1149.99
1236.44
1316.25
1386.56
1445.67
1492.61
1527.39
1551.04
1564.98
1570.95
1571.4
1570.08
1568.19
1563.89
1556.93
1548.17
1537.46
1525.03
1511.11
1496.5
1481.34
1465.81
1450.16
1434.45
1418.72
1403.03
1387.37
1371.76
1356.19
1340.68
1325.21
1309.82
1294.44
1279.29
1263.72
419.991
456.242
495.79
539.027
586.537
639.139
697.72
763.002
835.286
914.219
998.581
1086.21
1174.17
1259.19
1338.03
1407.96
1467.38
1515.21
1551.24
1576.58
1592.22
1599.4
1600.87
1599.68
1597.5
1593.87
1587.75
1579.41
1569.42
1557.8
1544.4
1530.04
1515.15
1499.81
1484.25
1468.6
1452.9
1437.19
1421.5
1405.85
1390.24
1374.66
1359.14
1343.66
1328.23
1312.84
1297.54
1282.24
1267.16
1251.7
619.606
672.91
732.063
797.652
869.845
948.197
1031.47
1117.58
1203.79
1287.08
1364.47
1433.44
1492.46
1540.47
1577.2
1603.61
1620.39
1628.77
1631.08
1630.02
1627.67
1624.43
1618.87
1610.77
1601.42
1590.4
1577.65
1563.7
1549.19
1534.07
1518.61
1503.01
1487.33
1471.63
1455.93
1440.26
1424.61
1409
1393.42
1377.88
1362.38
1346.92
1331.51
1316.16
1300.84
1285.61
1270.39
1255.39
1240.03
837.52
909.834
987.767
1070.03
1154.6
1238.93
1320.19
1395.69
1463.16
1521.11
1568.66
1605.49
1632.34
1649.83
1659.15
1662
1661.16
1658.85
1655.54
1650.43
1642.81
1633.71
1623.22
1611.15
1597.56
1583.27
1568.41
1553.12
1537.65
1522.05
1506.37
1490.67
1474.97
1459.3
1443.65
1428.04
1412.45
1396.89
1381.38
1365.9
1350.46
1335.07
1319.72
1304.43
1289.19
1274.02
1258.88
1243.95
1228.69
1114.4
1197.36
1279.6
1358.53
1431.72
1497.18
1553.51
1599.94
1636.28
1662.96
1680.74
1690.57
1693.8
1693.15
1690.85
1687.26
1682.51
1675.36
1666.34
1656.28
1644.79
1631.57
1617.55
1603.01
1587.89
1572.51
1556.97
1541.34
1525.68
1510
1494.32
1478.65
1462.99
1447.37
1431.77
1416.2
1400.66
1385.15
1369.69
1354.26
1338.88
1323.54
1308.25
1293.03
1277.85
1262.76
1247.68
1232.83
1217.66
1472.51
1535.45
1589.61
1634.39
1669.68
1695.68
1713.25
1723.16
1726.6
1726
1723.64
1719.78
1715.14
1708.35
1699.38
1689.62
1678.54
1665.78
1652.02
1637.78
1622.87
1607.6
1592.17
1576.61
1560.96
1545.3
1529.62
1513.94
1498.28
1482.63
1467
1451.38
1435.79
1420.23
1404.7
1389.2
1373.74
1358.32
1342.94
1327.61
1312.33
1297.1
1281.93
1266.82
1251.8
1236.79
1222.01
1206.93
1672.03
1705.66
1730.52
1747.44
1757.07
1760.42
1759.75
1757.25
1753.37
1748.45
1741.89
1732.92
1723.3
1712.58
1700.31
1686.75
1672.71
1658.03
1642.91
1627.6
1612.12
1596.53
1580.89
1565.23
1549.55
1533.88
1518.21
1502.55
1486.92
1471.29
1455.69
1440.1
1424.54
1409.01
1393.52
1378.06
1362.63
1347.26
1331.92
1316.64
1301.41
1286.24
1271.13
1256.09
1241.13
1226.2
1211.47
1196.49
1792.3
1795.27
1794.42
1791.73
1787.71
1782.5
1775.97
1767.28
1757.54
1746.97
1735.13
1721.72
1707.85
1693.47
1678.48
1663.27
1647.88
1632.35
1616.76
1601.13
1585.47
1569.8
1554.13
1538.45
1522.79
1507.13
1491.49
1475.87
1460.26
1444.68
1429.12
1413.59
1398.09
1382.62
1367.2
1351.82
1336.48
1321.19
1305.96
1290.78
1275.67
1260.62
1245.63
1230.74
1215.88
1201.22
1186.32
1827.05
1822.81
1817.3
1810.62
1802.1
1792.27
1781.75
1770.16
1757.02
1743.27
1729.16
1714.3
1699.18
1683.9
1668.45
1652.91
1637.31
1621.67
1606.02
1590.36
1574.68
1559.01
1543.33
1527.66
1512
1496.36
1480.73
1465.11
1449.52
1433.96
1418.42
1402.91
1387.44
1372.01
1356.62
1341.27
1325.98
1310.74
1295.55
1280.43
1265.37
1250.38
1235.45
1220.62
1205.83
1191.23
1176.42
1837.43
1827.5
1816.96
1805.52
1792.64
1778.99
1765.03
1750.37
1735.33
1720.2
1704.82
1689.32
1673.78
1658.17
1642.54
1626.89
1611.22
1595.55
1579.87
1564.18
1548.5
1532.83
1517.16
1501.5
1485.86
1470.23
1454.63
1439.05
1423.5
1407.99
1392.5
1377.06
1361.66
1346.3
1331
1315.74
1300.55
1285.41
1270.34
1255.33
1240.39
1225.53
1210.76
1196.03
1181.5
1166.77
1841.27
1828.59
1815.02
1801.17
1786.7
1771.77
1756.72
1741.45
1726.01
1710.53
1694.97
1679.36
1663.73
1648.08
1632.41
1616.73
1601.04
1585.34
1569.65
1553.96
1538.27
1522.58
1506.91
1491.25
1475.61
1459.99
1444.4
1428.84
1413.31
1397.81
1382.35
1366.94
1351.57
1336.25
1320.98
1305.76
1290.61
1275.52
1260.5
1245.54
1230.66
1215.86
1201.15
1186.48
1172.02
1157.37
1837.61
1823.31
1808.47
1793.51
1778.34
1762.98
1747.56
1732.06
1716.48
1700.89
1685.25
1669.59
1653.92
1638.23
1622.53
1606.82
1591.11
1575.4
1559.68
1543.98
1528.27
1512.58
1496.91
1481.25
1465.61
1450
1434.42
1418.87
1403.36
1387.88
1372.45
1357.06
1341.72
1326.43
1311.2
1296.03
1280.92
1265.88
1250.9
1236
1221.17
1206.42
1191.77
1177.17
1162.77
1148.2
1830.57
1815.51
1800.22
1784.86
1769.42
1753.89
1738.34
1722.74
1707.1
1691.44
1675.76
1660.06
1644.35
1628.62
1612.89
1597.16
1581.42
1565.68
1549.95
1534.23
1518.52
1502.82
1487.14
1471.48
1455.85
1440.24
1424.67
1409.14
1393.64
1378.19
1362.78
1347.42
1332.11
1316.86
1301.67
1286.53
1271.46
1256.46
1241.54
1226.68
1211.91
1197.22
1182.63
1168.09
1153.75
1139.26
1822.43
1807.06
1791.59
1776.07
1760.52
1744.91
1729.28
1713.62
1697.93
1682.22
1666.49
1650.75
1635
1619.24
1603.47
1587.71
1571.95
1556.19
1540.44
1524.7
1508.98
1493.28
1477.59
1461.94
1446.31
1430.72
1415.16
1399.64
1384.16
1368.73
1353.34
1338.01
1322.73
1307.51
1292.36
1277.26
1262.23
1247.28
1232.4
1217.6
1202.88
1188.24
1173.71
1159.24
1144.96
1130.55
1814.11
1798.6
1783.03
1767.42
1751.79
1736.11
1720.42
1704.7
1688.96
1673.2
1657.43
1641.64
1625.85
1610.06
1594.26
1578.47
1562.68
1546.91
1531.14
1515.39
1499.66
1483.95
1468.27
1452.61
1436.99
1421.41
1405.86
1390.36
1374.9
1359.49
1344.13
1328.82
1313.57
1298.39
1283.26
1268.21
1253.22
1238.31
1223.48
1208.73
1194.07
1179.49
1165.02
1150.61
1136.4
1122.06
1805.87
1790.27
1774.62
1758.94
1743.24
1727.51
1711.75
1695.98
1680.18
1664.38
1648.56
1632.73
1616.91
1601.08
1585.25
1569.43
1553.62
1537.83
1522.05
1506.29
1490.55
1474.84
1459.15
1443.5
1427.89
1412.31
1396.78
1381.29
1365.85
1350.46
1335.12
1319.85
1304.63
1289.48
1274.39
1259.37
1244.43
1229.57
1214.78
1200.08
1185.47
1170.95
1156.54
1142.19
1128.03
1113.77
1782.11
1766.39
1750.64
1734.87
1719.08
1703.26
1687.43
1671.59
1655.74
1639.87
1624.01
1608.15
1592.29
1576.43
1560.59
1544.76
1528.95
1513.15
1497.38
1481.64
1465.92
1450.24
1434.6
1418.99
1403.42
1387.9
1372.43
1357
1341.64
1326.33
1311.08
1295.89
1280.77
1265.73
1250.75
1235.85
1221.04
1206.3
1191.65
1177.08
1162.61
1148.25
1133.95
1119.85
1105.66
1774.11
1758.32
1742.51
1726.67
1710.82
1694.95
1679.06
1663.17
1647.27
1631.37
1615.47
1599.57
1583.68
1567.8
1551.94
1536.09
1520.26
1504.45
1488.68
1472.93
1457.21
1441.53
1425.89
1410.29
1394.73
1379.22
1363.77
1348.37
1333.02
1317.74
1302.52
1287.37
1272.29
1257.28
1242.34
1227.48
1212.7
1198
1183.39
1168.87
1154.45
1140.14
1125.91
1111.87
1097.75
1766.27
1750.41
1734.53
1718.63
1702.72
1686.79
1670.86
1654.92
1638.98
1623.04
1607.1
1591.17
1575.25
1559.35
1543.46
1527.6
1511.76
1495.94
1480.16
1464.4
1448.68
1433.01
1417.37
1401.78
1386.24
1370.75
1355.31
1339.93
1324.61
1309.36
1294.17
1279.04
1263.99
1249.01
1234.11
1219.28
1204.54
1189.88
1175.32
1160.86
1146.49
1132.23
1118.06
1104.08
1090.04
1742.64
1726.7
1710.74
1694.77
1678.8
1662.82
1646.83
1630.85
1614.87
1598.91
1582.95
1567
1551.08
1535.17
1519.29
1503.44
1487.61
1471.82
1456.06
1440.35