/*--------------------------------*- C++ -*----------------------------------*\
| =========                 |                                                 |
| \\      /  F ield         | OpenFOAM: The Open Source CFD Toolbox           |
|  \\    /   O peration     | Version:  v1706                                 |
|   \\  /    A nd           | Web:      www.OpenFOAM.com                      |
|    \\/     M anipulation  |                                                 |
\*---------------------------------------------------------------------------*/
FoamFile
{
    version     2.0;
    format      ascii;
    class       volScalarField;
    location    "1.9e-05";
    object      Tov;
}
// * * * * * * * * * * * * * * * * * * * * * * * * * * * * * * * * * * * * * //

dimensions      [0 0 0 1 0 0 0];


internalField   nonuniform List<scalar> 
30038
(
144.4
144.4
144.4
144.4
144.4
144.4
144.4
144.4
144.4
144.4
144.4
144.4
144.4
144.4
144.4
144.4
144.4
144.4
144.4
144.4
144.4
144.4
144.4
144.4
144.4
144.4
144.4
144.4
144.4
144.4
144.4
144.4
144.4
144.4
144.4
144.4
144.4
144.4
144.4
144.4
144.4
144.4
144.4
144.4
144.4
144.4
144.4
144.4
144.4
144.4
144.4
144.4
144.4
144.4
144.4
144.4
144.4
144.4
144.4
144.4
144.4
144.4
144.4
144.4
144.4
144.4
144.4
144.4
144.4
144.4
144.4
144.4
144.4
144.4
144.4
144.4
144.4
144.4
144.4
144.4
144.4
144.4
144.4
144.4
144.4
144.4
144.4
144.4
144.4
144.4
144.4
144.4
144.4
144.4
144.4
144.4
144.4
144.4
144.4
144.4
144.4
144.4
144.4
144.4
144.4
144.4
144.4
144.4
144.4
144.4
144.4
144.4
144.4
144.4
144.4
144.4
144.4
144.4
144.4
144.4
144.4
144.4
144.4
144.4
144.4
144.4
144.4
144.4
144.4
144.4
144.4
144.4
144.4
144.4
144.4
144.4
144.4
144.4
144.4
144.4
144.4
144.4
144.4
144.4
144.4
144.4
144.4
144.4
144.4
144.4
144.4
144.4
144.4
144.4
144.4
144.4
144.4
144.4
144.4
144.4
144.4
144.4
144.4
144.4
144.4
144.4
144.4
144.4
144.4
144.4
144.4
144.4
144.4
144.4
144.4
144.4
144.4
144.4
144.4
144.4
144.4
144.4
144.4
144.4
144.4
144.4
144.4
144.4
144.4
144.4
144.4
144.4
144.4
144.4
144.4
144.4
144.4
144.4
144.4
144.4
144.4
144.4
144.4
144.4
144.4
144.4
144.4
144.4
144.4
144.4
144.4
144.4
144.4
144.4
144.4
144.4
144.4
144.4
144.4
144.4
144.4
144.4
144.4
144.4
144.4
144.4
144.4
144.4
144.4
144.4
144.4
144.4
144.4
144.4
144.4
144.4
144.4
144.4
144.4
144.4
144.4
144.4
144.4
144.4
144.4
144.4
144.4
144.4
144.4
144.4
144.4
144.4
144.4
144.4
144.4
144.4
144.4
144.4
144.4
144.4
144.4
144.4
144.4
144.4
144.4
144.4
144.4
144.4
144.4
144.4
144.4
144.4
144.4
144.4
144.4
144.4
144.4
144.4
144.4
144.4
144.4
144.4
144.4
144.4
144.4
144.4
144.4
144.4
144.4
144.4
144.4
144.4
144.4
144.4
144.4
144.4
144.4
144.4
144.4
144.4
144.4
144.4
144.4
144.4
144.4
144.4
144.4
144.4
144.4
144.4
144.4
144.4
144.4
144.4
144.4
144.4
144.4
144.4
144.4
144.4
144.4
144.4
144.4
144.4
144.4
144.4
144.4
144.4
144.4
144.4
144.4
144.4
144.4
144.4
144.4
144.4
144.4
144.4
144.4
144.4
144.4
144.4
144.4
144.4
144.4
144.4
144.4
144.4
144.4
144.4
144.4
144.4
144.4
144.4
144.4
144.4
144.4
144.4
144.4
144.4
144.4
144.4
144.4
144.4
144.4
144.4
144.4
144.4
144.4
144.4
144.4
144.4
144.4
144.4
144.4
144.4
144.4
144.4
144.4
144.4
144.4
144.4
144.4
144.4
144.4
144.4
144.4
144.4
144.4
144.4
144.4
144.4
144.4
144.4
144.4
144.4
144.4
144.4
144.4
144.4
144.4
144.4
144.4
144.4
144.4
144.4
144.4
144.4
144.4
144.4
144.4
144.4
144.4
144.4
144.4
144.4
144.4
144.4
144.4
144.4
144.4
144.4
144.4
144.4
144.4
144.4
144.4
144.4
144.4
144.4
144.4
144.4
144.4
144.4
144.4
144.4
144.4
144.4
144.4
144.4
144.4
144.4
144.4
144.4
144.4
144.4
144.4
144.4
144.4
144.4
144.4
144.4
144.4
144.4
144.4
144.4
144.4
144.4
144.4
144.4
144.4
144.4
144.4
144.4
144.4
144.4
144.4
144.4
144.4
144.4
144.4
144.4
144.4
144.4
144.4
144.4
144.4
144.4
144.4
144.4
144.4
144.4
144.4
144.4
144.4
144.4
144.4
144.4
144.4
144.4
144.4
144.4
144.4
144.4
144.4
144.4
144.4
144.4
144.4
144.4
144.4
144.4
144.4
144.4
144.4
144.4
144.4
144.4
144.4
144.4
144.4
144.4
144.4
144.4
144.4
144.4
144.4
144.4
144.4
144.4
144.4
144.4
144.4
144.4
144.4
144.4
144.4
144.4
144.4
144.4
144.4
144.4
144.4
144.4
144.4
144.4
144.4
144.4
144.4
144.4
144.4
144.4
144.4
144.4
144.4
144.4
144.4
144.4
144.4
144.4
144.4
144.4
144.4
144.4
144.4
144.4
144.4
144.4
144.4
144.4
144.4
144.4
144.4
144.4
144.4
144.4
144.4
144.4
144.4
144.4
144.4
144.4
144.4
144.4
144.4
144.4
144.4
144.4
144.4
144.4
144.4
144.4
144.4
144.4
144.4
144.4
144.4
144.4
144.4
144.4
144.4
144.4
144.4
144.4
144.4
144.4
144.4
144.4
144.4
144.4
144.4
144.4
144.4
144.4
144.4
144.4
144.4
144.4
144.4
144.4
144.4
144.4
144.4
144.4
144.4
144.4
144.4
144.4
144.4
144.4
144.4
144.4
144.4
144.4
144.4
144.4
144.4
144.4
144.4
144.4
144.4
144.4
144.4
144.4
144.4
144.4
144.4
144.4
144.4
144.4
144.4
144.4
144.4
144.4
144.4
144.4
144.4
144.4
144.4
144.4
144.4
144.4
144.4
144.4
144.4
144.4
144.4
144.4
144.4
144.4
144.4
144.4
144.4
144.4
144.4
144.4
144.4
144.4
144.4
144.4
144.4
144.4
144.4
144.4
144.4
144.4
144.4
144.4
144.4
144.4
144.4
144.4
144.4
144.4
144.4
144.4
144.4
144.4
144.4
144.4
144.4
144.4
144.4
144.4
144.4
144.4
144.4
144.4
144.4
144.4
144.4
144.4
144.4
144.4
144.4
144.4
144.4
144.4
144.4
144.4
144.4
144.4
144.4
144.4
144.4
144.4
144.4
144.4
144.4
144.4
144.4
144.4
144.4
144.4
144.4
144.4
144.4
144.4
144.4
144.4
144.4
144.4
144.4
144.4
144.4
144.4
144.4
144.4
144.4
144.4
144.4
144.4
144.4
144.4
144.4
144.4
144.4
144.4
144.4
144.4
144.4
144.4
144.4
144.4
144.4
144.4
144.4
144.4
144.4
144.4
144.4
144.4
144.4
144.4
144.4
144.4
144.4
144.4
144.4
144.4
144.4
144.4
144.4
144.4
144.4
144.4
144.4
144.4
144.4
144.4
144.4
144.4
144.4
144.4
144.4
144.4
144.4
144.4
144.4
144.4
144.4
144.4
144.4
144.4
144.4
144.4
144.4
144.4
144.4
144.4
144.4
144.4
144.4
144.4
144.4
144.4
144.4
144.4
144.4
144.4
144.4
144.4
144.4
144.4
144.4
144.4
144.4
144.4
144.4
144.4
144.4
144.4
144.4
144.4
144.4
144.4
144.4
144.4
144.4
144.4
144.4
144.4
144.4
144.4
144.4
144.4
144.4
144.4
144.4
144.4
144.4
144.4
144.4
144.4
144.4
144.4
144.4
144.4
144.4
144.4
144.4
144.4
144.4
144.4
144.4
144.4
144.4
144.4
144.4
144.4
144.4
144.4
144.4
144.4
144.4
144.4
144.4
144.4
144.4
144.4
144.4
144.4
144.4
144.4
144.4
144.4
144.4
144.4
144.4
144.4
144.4
144.4
144.4
144.4
144.4
144.4
144.4
144.4
144.4
144.4
144.4
144.4
144.4
144.4
144.4
144.4
144.4
144.4
144.4
144.4
144.4
144.4
144.4
144.4
144.4
144.4
144.4
144.4
144.4
144.4
144.4
144.4
144.4
144.4
144.4
144.4
144.4
144.4
144.4
144.4
144.4
144.4
144.4
144.4
144.4
144.4
144.4
144.4
144.4
144.4
144.4
144.4
144.4
144.4
144.4
144.4
144.4
144.4
144.4
144.4
144.4
144.4
144.4
144.4
144.4
144.4
144.4
144.4
144.4
144.4
144.4
144.4
144.4
144.4
144.4
144.4
144.4
144.4
144.4
144.4
144.4
144.4
144.4
144.4
144.4
144.4
144.4
144.4
144.4
144.4
144.4
144.4
144.4
144.4
144.4
144.4
144.4
144.4
144.4
144.4
144.4
144.4
144.4
144.4
144.4
144.4
144.4
144.4
144.4
144.4
144.4
144.4
144.4
144.4
144.4
144.4
144.4
144.4
144.4
144.4
144.4
144.4
144.4
144.4
144.4
144.4
144.4
144.4
144.4
144.4
144.4
144.4
144.4
144.4
144.4
144.4
144.4
144.4
144.4
144.4
144.4
144.4
144.4
144.4
144.4
144.4
144.4
144.4
144.4
144.4
144.4
144.4
144.4
144.4
144.4
144.4
144.4
144.4
144.4
144.4
144.4
144.4
144.4
144.4
144.4
144.4
144.4
144.4
144.4
144.4
144.4
144.4
144.4
144.4
144.4
144.4
144.4
144.4
144.4
144.4
144.4
144.4
144.4
144.4
144.4
144.4
144.4
144.4
144.4
144.4
144.4
144.4
144.4
144.4
144.4
144.4
144.4
144.4
144.4
144.4
144.4
144.4
144.4
144.4
144.4
144.4
144.4
144.4
144.4
144.4
144.4
144.4
144.4
144.4
144.4
144.4
144.4
144.4
144.4
144.4
144.4
144.4
144.4
144.4
144.4
144.4
144.4
144.4
144.4
144.4
144.4
144.4
144.4
144.4
144.4
144.4
144.4
144.4
144.4
144.4
144.4
144.4
144.4
144.4
144.4
144.4
144.4
144.4
144.4
144.4
144.4
144.4
144.4
144.4
144.4
144.4
144.4
144.4
144.4
144.4
144.4
144.4
144.4
144.4
144.4
144.4
144.4
144.4
144.4
144.4
144.4
144.4
144.4
144.4
144.4
144.4
144.4
144.4
144.4
144.4
144.4
144.4
144.4
144.4
144.4
144.4
144.4
144.4
144.4
144.4
144.4
144.4
144.4
144.4
144.4
144.4
144.4
144.4
144.4
144.4
144.4
144.4
144.4
144.4
144.4
144.4
144.4
144.4
144.4
144.4
144.4
144.4
144.4
144.4
144.4
144.4
144.4
144.4
144.4
144.4
144.4
144.4
144.4
144.4
144.4
144.4
144.4
144.4
144.4
144.4
144.4
144.4
144.4
144.4
144.4
144.4
144.4
144.4
144.4
144.4
144.4
144.4
144.4
144.4
144.4
144.4
144.4
144.4
144.4
144.4
144.4
144.4
144.4
144.4
144.4
144.4
144.4
144.4
144.4
144.4
144.4
144.4
144.4
144.4
144.4
144.4
144.4
144.4
144.4
144.4
144.4
144.4
144.4
144.4
144.4
144.4
144.4
144.4
144.4
144.4
144.4
144.4
144.4
144.4
144.4
144.4
144.4
144.4
144.4
144.4
144.4
144.4
144.4
144.4
144.4
144.4
144.4
144.4
144.4
144.4
144.4
144.4
144.4
144.4
144.4
144.4
144.4
144.4
144.4
144.4
144.4
144.4
144.4
144.4
144.4
144.4
144.4
144.4
144.4
144.4
144.4
144.4
144.4
144.4
144.4
144.4
144.4
144.4
144.4
144.4
144.4
144.4
144.4
144.4
144.4
144.4
144.4
144.4
144.4
144.4
144.4
144.4
144.4
144.4
144.4
144.4
144.4
144.4
144.4
144.4
144.4
144.4
144.4
144.4
144.4
144.4
144.4
144.4
144.4
144.4
144.4
144.4
144.4
144.4
144.4
144.4
144.4
144.4
144.4
144.4
144.4
144.4
144.4
144.4
144.4
144.4
144.4
144.4
144.4
144.4
144.4
144.4
144.4
144.4
144.4
144.4
144.4
144.4
144.4
144.4
144.4
144.4
144.4
144.4
144.4
144.4
144.4
144.4
144.4
144.4
144.4
144.4
144.4
144.4
144.4
144.4
144.4
144.4
144.4
144.4
144.4
144.4
144.4
144.4
144.4
144.4
144.4
144.4
144.4
144.4
144.4
144.4
144.4
144.4
144.4
144.4
144.4
144.4
144.4
144.4
144.4
144.4
144.4
144.4
144.4
144.4
144.4
144.4
144.4
144.4
144.4
144.4
144.4
144.4
144.4
144.4
144.4
144.4
144.4
144.4
144.4
144.4
144.4
144.4
144.4
144.4
144.4
144.4
144.4
144.4
144.4
144.4
144.4
144.4
144.4
144.4
144.4
144.4
144.4
144.4
144.4
144.4
144.4
144.4
144.4
144.4
144.4
144.4
144.4
144.4
144.4
144.4
144.4
144.4
144.4
144.4
144.4
144.4
144.4
144.4
144.4
144.4
144.4
144.4
144.4
144.4
144.4
144.4
144.4
144.4
144.4
144.4
144.4
144.4
144.4
144.4
144.4
144.4
144.4
144.401
144.401
144.403
144.4
144.4
144.4
144.4
144.4
144.4
144.4
144.4
144.4
144.4
144.4
144.4
144.4
144.4
144.4
144.4
144.4
144.4
144.4
144.4
144.4
144.4
144.4
144.4
144.4
144.4
144.4
144.4
144.4
144.4
144.4
144.4
144.4
144.4
144.4
144.4
144.4
144.4
144.4
144.4
144.4
144.4
144.4
144.401
144.401
144.401
144.403
144.404
144.407
144.413
144.4
144.4
144.4
144.4
144.4
144.4
144.4
144.4
144.4
144.4
144.4
144.4
144.4
144.4
144.4
144.4
144.4
144.4
144.4
144.4
144.4
144.4
144.4
144.4
144.4
144.4
144.4
144.4
144.4
144.4
144.4
144.4
144.4
144.4
144.4
144.4
144.4
144.4
144.4
144.4
144.401
144.401
144.402
144.403
144.405
144.408
144.413
144.422
144.438
144.468
144.4
144.4
144.4
144.4
144.4
144.4
144.4
144.4
144.4
144.4
144.4
144.4
144.4
144.4
144.4
144.4
144.4
144.4
144.4
144.4
144.4
144.4
144.4
144.4
144.4
144.4
144.4
144.4
144.4
144.4
144.4
144.4
144.4
144.4
144.4
144.4
144.4
144.401
144.401
144.402
144.403
144.405
144.408
144.414
144.423
144.439
144.466
144.512
144.593
144.74
144.4
144.4
144.4
144.4
144.4
144.4
144.4
144.4
144.4
144.4
144.4
144.4
144.4
144.4
144.4
144.4
144.4
144.4
144.4
144.4
144.4
144.4
144.4
144.4
144.4
144.4
144.4
144.4
144.4
144.4
144.4
144.4
144.4
144.4
144.401
144.401
144.402
144.403
144.405
144.409
144.415
144.425
144.441
144.469
144.515
144.594
144.727
144.954
145.346
146.055
144.4
144.4
144.4
144.4
144.4
144.4
144.4
144.4
144.4
144.4
144.4
144.4
144.4
144.4
144.4
144.4
144.4
144.4
144.4
144.4
144.4
144.4
144.4
144.4
144.4
144.4
144.4
144.4
144.4
144.4
144.401
144.401
144.401
144.402
144.404
144.406
144.41
144.416
144.427
144.444
144.473
144.522
144.602
144.737
144.963
145.344
145.984
147.066
148.906
152.137
144.4
144.4
144.4
144.4
144.4
144.4
144.4
144.4
144.4
144.4
144.4
144.4
144.4
144.4
144.4
144.4
144.4
144.4
144.4
144.4
144.4
144.4
144.4
144.4
144.4
144.4
144.4
144.401
144.401
144.402
144.403
144.404
144.407
144.412
144.419
144.43
144.449
144.481
144.532
144.617
144.757
144.989
145.374
146.015
147.082
148.854
151.792
156.631
164.549
177.51
144.4
144.4
144.4
144.4
144.4
144.4
144.4
144.4
144.4
144.4
144.4
144.4
144.4
144.4
144.4
144.4
144.4
144.4
144.4
144.4
144.4
144.4
144.4
144.401
144.401
144.401
144.402
144.403
144.405
144.409
144.414
144.422
144.435
144.456
144.491
144.547
144.638
144.787
145.032
145.433
146.091
147.174
148.951
151.859
156.581
164.158
176.077
194.32
221.314
259.812
144.4
144.4
144.4
144.4
144.4
144.4
144.4
144.4
144.4
144.4
144.4
144.4
144.4
144.4
144.4
144.4
144.4
144.4
144.4
144.4
144.401
144.401
144.402
144.403
144.404
144.407
144.41
144.416
144.426
144.441
144.466
144.505
144.567
144.668
144.831
145.095
145.522
146.216
147.343
149.17
152.123
156.862
164.372
176.047
193.705
219.46
255.43
303.317
364.144
437.997
144.4
144.4
144.4
144.4
144.4
144.4
144.4
144.4
144.4
144.4
144.4
144.4
144.4
144.4
144.4
144.4
144.4
144.401
144.401
144.401
144.402
144.404
144.405
144.408
144.413
144.42
144.432
144.45
144.479
144.524
144.596
144.71
144.892
145.184
145.651
146.4
147.602
149.527
152.599
157.466
165.084
176.783
194.276
219.535
254.509
300.731
358.97
429.08
510.115
600.676
698.95
144.4
144.4
144.4
144.4
144.4
144.4
144.4
144.4
144.4
144.4
144.4
144.4
144.4
144.401
144.401
144.401
144.402
144.403
144.405
144.407
144.411
144.417
144.426
144.44
144.462
144.496
144.55
144.634
144.767
144.976
145.306
145.829
146.658
147.971
150.047
153.319
158.434
166.334
178.305
195.976
221.193
255.758
301.081
357.861
425.947
504.41
591.759
686.217
785.943
889.269
994.42
144.4
144.4
144.4
144.4
144.4
144.4
144.4
144.4
144.4
144.4
144.401
144.401
144.401
144.402
144.403
144.404
144.406
144.41
144.415
144.422
144.434
144.452
144.479
144.521
144.586
144.688
144.845
145.091
145.474
146.074
147.012
148.48
150.773
154.337
159.834
168.202
180.699
198.882
224.479
259.141
304.132
360.06
426.763
503.378
588.536
680.571
777.713
878.202
980.353
1082.48
1182.96
1280.52
144.4
144.4
144.4
144.4
144.4
144.4
144.401
144.401
144.401
144.402
144.403
144.404
144.406
144.409
144.413
144.42
144.43
144.445
144.468
144.503
144.556
144.637
144.762
144.953
145.248
145.704
146.407
147.495
149.175
151.765
155.735
161.768
170.813
184.109
203.147
229.538
264.775
309.958
365.577
431.429
506.693
590.1
680.129
775.155
873.537
973.691
1074.01
1172.85
1268.67
1360.06
1445.41
1523.39
144.4
144.4
144.401
144.401
144.401
144.402
144.403
144.404
144.406
144.409
144.413
144.419
144.428
144.441
144.461
144.491
144.537
144.605
144.709
144.866
145.104
145.467
146.02
146.865
148.155
150.121
153.11
157.626
164.384
174.348
188.744
208.998
236.597
272.863
318.719
374.514
439.979
514.308
596.318
684.609
777.694
874.074
972.291
1070.92
1168.44
1263.38
1354.34
1439.87
1518.27
1587.81
1646.96
1695.76
144.401
144.402
144.403
144.404
144.406
144.409
144.413
144.419
144.427
144.44
144.458
144.485
144.526
144.587
144.677
144.812
145.014
145.317
145.774
146.461
147.499
149.062
151.413
154.935
160.176
167.887
179.056
194.891
216.746
245.97
283.7
330.667
387.068
452.554
526.322
607.26
694.079
785.425
879.938
976.278
1073.15
1169.19
1263.02
1353.31
1438.77
1517.96
1589.22
1650.99
1702.3
1743.14
1774.23
1797.57
144.407
144.409
144.413
144.419
144.428
144.44
144.458
144.484
144.522
144.578
144.66
144.782
144.961
145.227
145.622
146.209
147.083
148.384
150.319
153.188
157.42
163.613
172.562
185.274
202.93
226.796
258.062
297.666
346.134
403.507
469.355
542.872
623.005
708.572
798.34
891.074
985.551
1080.59
1174.98
1267.45
1356.77
1441.74
1521.12
1593.44
1657.19
1711.23
1755.1
1789.22
1814.73
1833.17
1846.08
1855.19
144.43
144.442
144.46
144.486
144.524
144.578
144.657
144.771
144.939
145.183
145.541
146.066
146.838
147.971
149.637
152.079
155.646
160.823
168.26
178.797
193.45
213.353
239.658
273.373
315.222
365.525
424.168
490.644
564.147
643.685
728.175
816.498
907.536
1000.18
1093.36
1185.99
1276.92
1364.98
1449.09
1528.13
1600.84
1665.81
1721.83
1768.22
1805.05
1833.12
1853.69
1868.27
1878.29
1884.99
1889.37
1892.19
144.531
144.586
144.665
144.779
144.942
145.177
145.517
146.009
146.722
147.756
149.257
151.43
154.57
159.08
165.508
174.561
187.112
204.163
226.775
255.95
292.494
336.904
389.3
449.427
516.716
590.371
669.462
752.997
839.97
929.371
1020.21
1111.49
1202.26
1291.46
1378.04
1460.97
1539.25
1611.78
1677.29
1734.6
1782.88
1821.93
1852.24
1874.87
1891.12
1902.42
1909.98
1914.86
1917.85
1919.33
1919.96
1920.47
145.207
145.545
146.027
146.717
147.705
149.119
151.141
154.028
158.128
163.912
171.991
183.121
198.186
218.144
243.941
276.396
316.093
363.303
417.961
479.698
547.901
621.795
700.518
783.171
868.848
956.645
1045.67
1135.02
1223.83
1311.17
1396.06
1477.54
1554.7
1626.57
1692.05
1750
1799.53
1840.25
1872.43
1896.86
1914.69
1927.2
1935.7
1941.14
1944.47
1946.22
1946.76
1946.8
1946.57
1945.74
1944.25
147.807
149.2
151.167
153.937
157.826
163.249
170.745
180.982
194.741
212.886
236.283
265.721
301.807
344.892
395.039
452.027
515.4
584.527
658.671
737.039
818.823
903.214
989.403
1076.59
1163.96
1250.73
1336.06
1419.06
1498.86
1574.6
1645.43
1710.37
1768.37
1818.55
1860.42
1894
1919.91
1939.11
1952.78
1962.14
1968.19
1971.85
1973.88
1974.46
1974.22
1973.82
1972.99
1971.37
1969.22
1966.74
1964.08
158.125
163.421
170.653
180.423
193.43
210.449
232.268
259.615
293.079
333.04
379.63
432.731
492.002
556.937
626.913
701.242
779.207
860.085
943.157
1027.7
1113
1198.33
1282.96
1366.16
1447.1
1525
1599.05
1668.49
1732.47
1790.02
1840.3
1882.75
1917.27
1944.3
1964.62
1979.27
1989.4
1996.04
2000.05
2002.26
2002.96
2002.6
2001.93
2000.96
1999.33
1997.11
1994.51
1991.56
1988.47
1985.36
1982.33
210.562
231.499
257.554
289.272
327.02
370.956
421.02
476.955
538.349
604.678
675.347
749.73
827.184
907.07
988.748
1071.58
1154.92
1238.11
1320.51
1401.44
1480.16
1555.95
1628.07
1695.83
1758.47
1815.12
1865
1907.53
1942.53
1970.27
1991.4
2006.83
2017.63
2024.76
2029.08
2031.43
2032.28
2031.86
2030.89
2029.66
2028.03
2025.73
2023
2019.92
2016.58
2013.17
2009.75
2006.35
2002.96
1999.64
326.412
368.518
416.346
469.692
528.211
591.458
658.924
730.062
804.308
881.094
959.857
1040.03
1121.05
1202.33
1283.29
1363.33
1441.86
1518.2
1591.69
1661.65
1727.46
1788.44
1843.81
1892.84
1934.99
1970
1998.04
2019.66
2035.63
2046.91
2054.41
2059
2061.5
2062.37
2061.92
2060.77
2059.23
2057.42
2055.07
2052.19
2048.99
2045.46
2041.79
2038.07
2034.37
2030.66
2026.96
2023.28
2019.63
2016.01
526.157
586.889
651.631
719.91
791.234
865.104
941.024
1018.5
1097.02
1176.09
1255.2
1333.8
1411.36
1487.35
1561.15
1632.15
1699.75
1763.36
1822.38
1876.13
1923.93
1965.24
1999.83
2027.79
2049.55
2065.79
2077.35
2085.12
2089.89
2092.44
2093.28
2092.83
2091.53
2089.65
2087.56
2085.14
2082.11
2078.72
2075.06
2071.14
2067.15
2063.15
2059.17
2055.17
2051.19
2047.22
2043.25
2039.29
2035.34
2031.42
787.774
858.959
932.179
1007
1082.98
1159.69
1236.66
1313.44
1389.54
1464.49
1537.79
1608.89
1677.23
1742.25
1803.45
1860.25
1912.07
1958.27
1998.39
2032.16
2059.66
2081.2
2097.43
2109.07
2116.92
2121.75
2124.31
2125.1
2124.57
2123.08
2120.93
2118.53
2115.92
2112.76
2109.17
2105.35
2101.22
2096.96
2092.67
2088.4
2084.11
2079.84
2075.59
2071.33
2067.08
2062.83
2058.58
2054.33
2050.08
2045.85
1078.99
1153.26
1227.95
1302.65
1376.95
1450.4
1522.59
1593.04
1661.28
1726.77
1789.04
1847.6
1901.96
1951.56
1995.86
2034.42
2067.03
2093.7
2114.71
2130.64
2142.14
2149.87
2154.66
2157.15
2157.78
2157.12
2155.52
2153.11
2150.33
2147.41
2144.16
2140.36
2136.3
2132.01
2127.49
2122.92
2118.35
2113.78
2109.21
2104.66
2100.13
2095.6
2091.07
2086.55
2082.02
2077.49
2072.95
2068.39
2063.85
2059.31
1373.92
1445.55
1516.19
1585.45
1652.91
1718.11
1780.6
1839.92
1895.65
1947.33
1994.48
2036.6
2073.3
2104.41
2129.93
2150.12
2165.48
2176.6
2184.05
2188.66
2190.98
2191.36
2190.56
2188.76
2186.05
2182.95
2179.74
2176.25
2172.24
2167.94
2163.48
2158.72
2153.87
2149.02
2144.16
2139.3
2134.45
2129.63
2124.81
2120.01
2115.21
2110.42
2105.62
2100.81
2096
2091.18
2086.35
2081.49
2076.65
2071.8
1652.86
1717.15
1779.16
1838.46
1894.67
1947.38
1996.19
2040.65
2080.34
2114.92
2144.25
2168.33
2187.42
2201.96
2212.45
2219.46
2223.75
2225.8
2225.86
2224.86
2222.81
2219.81
2216.42
2212.84
2209.04
2204.88
2200.33
2195.6
2190.64
2185.51
2180.37
2175.22
2170.07
2164.94
2159.83
2154.73
2149.64
2144.56
2139.49
2134.42
2129.36
2124.29
2119.21
2114.12
2109.02
2103.91
2098.78
2093.63
2088.49
2083.33
1953
2002.52
2048.27
2089.85
2126.88
2159.11
2186.41
2208.81
2226.55
2240.04
2249.72
2256.13
2259.93
2261.55
2261.29
2260.01
2257.66
2254.38
2250.65
2246.7
2242.57
2238.22
2233.39
2228.38
2223.23
2217.85
2212.41
2206.98
2201.54
2196.1
2190.69
2185.3
2179.93
2174.58
2169.23
2163.9
2158.56
2153.23
2147.89
2142.55
2137.2
2131.84
2126.47
2121.09
2115.68
2110.26
2104.82
2099.37
2093.91
2141.8
2176
2205.67
2230.73
2251.22
2267.42
2279.66
2288.33
2294.01
2297.2
2298.28
2297.67
2295.98
2293.28
2289.69
2285.61
2281.33
2276.85
2272.19
2267.14
2261.85
2256.45
2250.84
2245.1
2239.38
2233.66
2227.94
2222.24
2216.56
2210.9
2205.25
2199.63
2194.02
2188.41
2182.82
2177.22
2171.62
2166.02
2160.42
2154.8
2149.17
2143.53
2137.88
2132.2
2126.51
2120.79
2115.06
2109.31
2103.54
2276.98
2295.41
2309.88
2320.7
2328.22
2333.03
2335.51
2335.92
2334.92
2332.78
2329.67
2325.74
2321.31
2316.67
2311.83
2306.84
2301.57
2295.99
2290.29
2284.45
2278.44
2272.42
2266.43
2260.41
2254.41
2248.45
2242.51
2236.58
2230.68
2224.79
2218.91
2213.04
2207.18
2201.32
2195.47
2189.61
2183.75
2177.88
2172
2166.11
2160.2
2154.28
2148.34
2142.38
2136.4
2130.39
2124.36
2118.32
2112.25
2369.32
2373.11
2374.74
2374.45
2372.99
2370.35
2366.78
2362.5
2357.71
2352.68
2347.48
2342.16
2336.62
2330.76
2324.77
2318.68
2312.41
2306.09
2299.81
2293.52
2287.22
2280.97
2274.74
2268.53
2262.34
2256.18
2250.03
2243.89
2237.77
2231.65
2225.53
2219.42
2213.31
2207.19
2201.07
2194.94
2188.8
2182.65
2176.49
2170.3
2164.1
2157.88
2151.63
2145.36
2139.07
2132.74
2126.41
2120.04
2413.91
2411.79
2408.61
2404.56
2399.91
2394.76
2389.33
2383.78
2378.11
2372.24
2366.12
2359.83
2353.48
2346.96
2340.35
2333.78
2327.21
2320.63
2314.09
2307.58
2301.08
2294.61
2288.17
2281.75
2275.34
2268.95
2262.56
2256.19
2249.83
2243.46
2237.1
2230.73
2224.36
2217.99
2211.61
2205.21
2198.8
2192.38
2185.94
2179.48
2172.99
2166.49
2159.96
2153.4
2146.82
2140.21
2133.59
2126.92
2437.94
2432.39
2426.57
2420.67
2414.66
2408.44
2402.05
2395.48
2388.82
2382.05
2375.16
2368.3
2361.47
2354.61
2347.78
2340.99
2334.22
2327.47
2320.75
2314.05
2307.37
2300.71
2294.07
2287.43
2280.81
2274.19
2267.58
2260.97
2254.36
2247.75
2241.13
2234.5
2227.87
2221.22
2214.56
2207.88
2201.19
2194.47
2187.73
2180.97
2174.19
2167.38
2160.54
2153.67
2146.78
2139.86
2132.91
2458.11
2451.74
2445.19
2438.5
2431.65
2424.7
2417.66
2410.52
2403.36
2396.25
2389.12
2382
2374.94
2367.9
2360.87
2353.89
2346.92
2339.97
2333.05
2326.14
2319.24
2312.36
2305.49
2298.63
2291.77
2284.92
2278.06
2271.21
2264.35
2257.49
2250.61
2243.73
2236.83
2229.92
2223
2216.05
2209.09
2202.1
2195.09
2188.05
2180.99
2173.9
2166.78
2159.63
2152.45
2145.26
2138.02
2468.31
2461.06
2453.75
2446.35
2438.92
2431.53
2424.15
2416.75
2409.41
2402.1
2394.8
2387.54
2380.31
2373.1
2365.91
2358.74
2351.59
2344.45
2337.33
2330.22
2323.11
2316.01
2308.92
2301.83
2294.73
2287.64
2280.54
2273.43
2266.32
2259.19
2252.05
2244.89
2237.72
2230.53
2223.32
2216.08
2208.83
2201.54
2194.23
2186.9
2179.53
2172.13
2164.71
2157.25
2149.78
2142.26
2482.64
2474.94
2467.28
2459.63
2451.98
2444.36
2436.79
2429.23
2421.7
2414.21
2406.73
2399.28
2391.85
2384.45
2377.06
2369.69
2362.32
2354.98
2347.63
2340.3
2332.97
2325.64
2318.31
2310.99
2303.65
2296.32
2288.97
2281.62
2274.25
2266.87
2259.47
2252.06
2244.62
2237.17
2229.69
2222.19
2214.67
2207.11
2199.53
2191.93
2184.29
2176.62
2168.92
2161.19
2153.45
2145.65
2495.55
2487.63
2479.76
2471.93
2464.11
2456.32
2448.57
2440.84
2433.13
2425.45
2417.79
2410.15
2402.53
2394.92
2387.33
2379.75
2372.18
2364.61
2357.05
2349.49
2341.94
2334.38
2326.82
2319.25
2311.68
2304.1
2296.51
2288.91
2281.29
2273.65
2266
2258.33
2250.64
2242.93
2235.19
2227.42
2219.63
2211.81
2203.97
2196.09
2188.18
2180.25
2172.28
2164.29
2156.27
2148.21
2507.47
2499.4
2491.36
2483.36
2475.38
2467.42
2459.5
2451.59
2443.7
2435.84
2427.99
2420.15
2412.33
2404.52
2396.72
2388.93
2381.14
2373.36
2365.58
2357.8
2350.01
2342.22
2334.43
2326.63
2318.82
2310.99
2303.16
2295.31
2287.44
2279.56
2271.65
2263.73
2255.78
2247.81
2239.81
2231.78
2223.73
2215.65
2207.54
2199.4
2191.23
2183.03
2174.81
2166.55
2158.27
2149.95
2518.54
2510.32
2502.12
2493.95
2485.81
2477.68
2469.57
2461.49
2453.42
2445.36
2437.32
2429.28
2421.26
2413.25
2405.24
2397.24
2389.23
2381.23
2373.23
2365.22
2357.21
2349.19
2341.16
2333.12
2325.07
2317.01
2308.93
2300.84
2292.72
2284.59
2276.43
2268.26
2260.05
2251.83
2243.57
2235.29
2226.98
2218.64
2210.27
2201.88
2193.45
2184.99
2176.51
2167.99
2159.46
2150.88
2528.78
2520.4
2512.04
2503.7
2495.38
2487.08
2478.79
2470.52
2462.26
2454.02
2445.78
2437.55
2429.32
2421.1
2412.88
2404.66
2396.45
2388.22
2380
2371.77
2363.53
2355.28
2347.02
2338.74
2330.46
2322.15
2313.83
2305.5
2297.14
2288.76
2280.35
2271.93
2263.47
2255
2246.49
2237.95
2229.39
2220.8
2212.18
2203.53
2194.85
2186.13
2177.4
2168.63
2159.86
2151.05
2538.18
2529.63
2521.11
2512.6
2504.1
2495.62
2487.16
2478.7
2470.25
2461.81
2453.37
2444.94
2436.51
2428.08
2419.65
2411.22
2402.79
2394.35
2385.9
2377.44
2368.98
2360.5
2352.01
2343.5
2334.98
2326.44
2317.88
2309.3
2300.7
2292.07
2283.42
2274.75
2266.05
2257.33
2248.57
2239.79
2230.98
2222.14
2213.26
2204.36
2195.44
2186.49
2177.53
2168.53
2159.53
2150.48
2538.02
2529.33
2520.64
2511.97
2503.31
2494.66
2486.01
2477.37
2468.73
2460.1
2451.47
2442.83
2434.2
2425.56
2416.91
2408.26
2399.6
2390.93
2382.25
2373.56
2364.86
2356.13
2347.4
2338.64
2329.86
2321.07
2312.25
2303.41
2294.55
2285.66
2276.74
2267.8
2258.83
2249.83
2240.8
2231.75
2222.67
2213.57
2204.44
2195.28
2186.11
2176.91
2167.69
2158.45
2149.18
2545.57
2536.7
2527.84
2518.99
2510.14
2501.3
2492.47
2483.63
2474.8
2465.97
2457.13
2448.29
2439.45
2430.6
2421.74
2412.87
2404
2395.11
2386.21
2377.29
2368.36
2359.41
2350.44
2341.46
2332.45
2323.42
2314.37
2305.29
2296.19
2287.06
2277.91
2268.73
2259.52
2250.29
2241.04
2231.76
2222.45
2213.12
2203.77
2194.39
2184.98
2175.56
2166.11
2156.65
2147.15
2552.26
2543.22
2534.18
2525.15
2516.12
2507.09
2498.07
2489.04
2480.01
2470.98
2461.94
2452.89
2443.84
2434.78
2425.72
2416.63
2407.54
2398.44
2389.31
2380.18
2371.02
2361.85
2352.65
2343.44
2334.2
2324.94
2315.66
2306.35
2297.01
2287.66
2278.28
2268.88
2259.45
2250
2240.52
2231.02
2221.49
2211.93
2202.35
2192.74
2183.12
2173.47
2163.81
2154.14
2144.43
2548.89
2539.68
2530.46
2521.25
2512.03
2502.81
2493.59
2484.37
2475.13
2465.89
2456.65
2447.39
2438.12
2428.84
2419.55
2410.24
2400.92
2391.58
2382.22
2372.85
2363.45
2354.03
2344.59
2335.13
2325.64
2316.14
2306.61
2297.06
2287.49
2277.89
2268.28
2258.63
2248.95
2239.25
2229.52
2219.77
2209.99
2200.2
2190.38
2180.54
2170.69
2160.82
2150.94
2141.04
2553.72
2544.32
2534.92
2525.52
2516.12
2506.71
2497.29
2487.87
2478.44
2469
2459.55
2450.09
2440.62
2431.13
2421.62
2412.1
2402.57
2393.01
2383.44
2373.84
2364.22
2354.59
2344.94
2335.27
2325.57
2315.86
2306.12
2296.36
2286.57
2276.75
2266.91
2257.04
2247.15
2237.23
2227.29
2217.33
2207.34
2197.34
2187.31
2177.27
2167.22
2157.15
2147.09
2136.99
2557.69
2548.12
2538.54
2528.95
2519.36
2509.76
2500.15
2490.54
2480.91
2471.27
2461.62
2451.95
2442.27
2432.58
2422.87
2413.14
2403.39
2393.62
2383.84
2374.05
2364.22
2354.39
2344.53
2334.65
2324.75
2314.81
2304.86
2294.88
2284.88
2274.85
2264.8
2254.72
2244.62
2234.5
2224.35
2214.18
2204
2193.79
2183.57
2173.34
2163.1
2152.84
2142.59
2132.32
2560.83
2551.07
2541.31
2531.54
2521.76
2511.97
2502.17
2492.36
2482.54
2472.7
2462.85
2452.98
2443.1
2433.2
2423.3
2413.37
2403.42
2393.46
2383.48
2373.48
2363.46
2353.42
2343.35
2333.26
2323.15
2313.01
2302.85
2292.66
2282.45
2272.22
2261.97
2251.69
2241.39
2231.06
2220.72
2210.36
2199.98
2189.58
2179.18
2168.76
2158.34
2147.91
2137.49
2127.05
2553.19
2543.24
2533.29
2523.33
2513.35
2503.36
2493.35
2483.34
2473.31
2463.27
2453.21
2443.14
2433.05
2422.95
2412.83
2402.69
2392.53
2382.35
2372.14
2361.92
2351.67
2341.4
2331.11
2320.8
2310.46
2300.1
2289.71
2279.31
2268.88
2258.43
2247.96
2237.46
2226.95
2216.42
2205.87
2195.31
2184.74
2174.15
2163.56
2152.97
2142.38
2131.79
2121.19
2554.47
2544.34
2534.2
2524.05
2513.9
2503.73
2493.54
2483.34
2473.13
2462.91
2452.67
2442.41
2432.13
2421.83
2411.51
2401.18
2390.82
2380.44
2370.04
2359.62
2349.18
2338.71
2328.22
2317.72
2307.18
2296.63
2286.06
2275.46
2264.85
2254.21
2243.55
2232.88
2222.18
2211.47
2200.75
2190.01
2179.27
2168.52
2157.76
2147.01
2136.26
2125.53
2114.78
2554.92
2544.63
2534.32
2523.99
2513.66
2503.32
2492.96
2482.58
2472.18
2461.77
2451.34
2440.89
2430.42
2419.93
2409.42
2398.89
2388.35
2377.78
2367.19
2356.58
2345.95
2335.29
2324.62
2313.93
2303.21
2292.47
2281.72
2270.94
2260.14
2249.33
2238.5
2227.65
2216.78
2205.9
2195.01
2184.11
2173.21
2162.3
2151.39
2140.49
2129.59
2118.72
2107.84
2544.13
2533.65
2523.16
2512.65
2502.12
2491.58
2481.02
2470.44
2459.84
2449.22
2438.59
2427.94
2417.27
2406.58
2395.86
2385.13
2374.38
2363.61
2352.82
2342.01
2331.17
2320.32
2309.45
2298.55
2287.64
2276.71
2265.76
2254.79
2243.81
2232.81
2221.79
2210.77
2199.73
2188.68
2177.63
2166.57
2155.51
2144.46
2133.42
2122.39
2111.39
2100.38
2542.84
2532.19
2521.52
2510.83
2500.13
2489.41
2478.67
2467.92
2457.14
2446.35
2435.54
2424.71
2413.86
2402.99
2392.11
2381.2
2370.27
2359.32
2348.36
2337.37
2326.37
2315.34
2304.3
2293.24
2282.16
2271.06
2259.95
2248.82
2237.67
2226.51
2215.34
2204.16
2192.97
2181.78
2170.58
2159.38
2148.19
2137
2125.83
2114.68
2103.55
2092.43
2540.75
2529.93
2519.1
2508.24
2497.37
2486.48
2475.57
2464.64
2453.7
2442.74
2431.75
2420.75
2409.73
2398.69
2387.64
2376.56
2365.46
2354.35
2343.22
2332.06
2320.89
2309.71
2298.5
2287.28
2276.04
2264.79
2253.52
2242.23
2230.94
2219.63
2208.31
2196.99
2185.66
2174.32
2162.99
2151.66
2140.34
2129.04
2117.75
2106.48
2095.25
2084.02
2537.89
2526.91
2515.91
2504.89
2493.85
2482.8
2471.72
2460.63
2449.52
2438.39
2427.25
2416.08
2404.9
2393.7
2382.47
2371.24
2359.98
2348.7
2337.41
2326.1
2314.78
2303.43
2292.07
2280.7
2269.31
2257.91
2246.49
2235.07
2223.63
2212.18
2200.73
2189.27
2177.81
2166.35
2154.89
2143.44
2132