/*--------------------------------*- C++ -*----------------------------------*\
| =========                 |                                                 |
| \\      /  F ield         | OpenFOAM: The Open Source CFD Toolbox           |
|  \\    /   O peration     | Version:  v1706                                 |
|   \\  /    A nd           | Web:      www.OpenFOAM.com                      |
|    \\/     M anipulation  |                                                 |
\*---------------------------------------------------------------------------*/
FoamFile
{
    version     2.0;
    format      ascii;
    class       volScalarField;
    location    "3.7e-05";
    object      Mach;
}
// * * * * * * * * * * * * * * * * * * * * * * * * * * * * * * * * * * * * * //

dimensions      [0 0 0 0 0 0 0];


internalField   nonuniform List<scalar> 
30104
(
7.18506
7.18506
7.18506
7.18506
7.18506
7.18506
7.18506
7.18506
7.18506
7.18506
7.18506
7.18506
7.18506
7.18506
7.18506
7.18506
7.18506
7.18506
7.18506
7.18506
7.18506
7.18506
7.18506
7.18506
7.18506
7.18506
7.18506
7.18506
7.18506
7.18506
7.18506
7.18506
7.18506
7.18506
7.18506
7.18506
7.18506
7.18506
7.18506
7.18506
7.18506
7.18506
7.18506
7.18506
7.18506
7.18506
7.18506
7.18506
7.18506
7.18506
7.18506
7.18506
7.18506
7.18506
7.18506
7.18506
7.18506
7.18506
7.18506
7.18506
7.18506
7.18506
7.18506
7.18506
7.18506
7.18506
7.18506
7.18506
7.18506
7.18506
7.18506
7.18506
7.18506
7.18506
7.18506
7.18506
7.18506
7.18506
7.18506
7.18506
7.18506
7.18506
7.18506
7.18506
7.18506
7.18506
7.18506
7.18506
7.18506
7.18506
7.18506
7.18506
7.18506
7.18506
7.18506
7.18506
7.18506
7.18506
7.18506
7.18506
7.18506
7.18506
7.18506
7.18506
7.18506
7.18506
7.18506
7.18506
7.18506
7.18506
7.18506
7.18506
7.18506
7.18506
7.18506
7.18506
7.18506
7.18506
7.18506
7.18506
7.18506
7.18506
7.18506
7.18506
7.18506
7.18506
7.18506
7.18506
7.18506
7.18506
7.18506
7.18506
7.18506
7.18506
7.18506
7.18506
7.18506
7.18506
7.18506
7.18506
7.18506
7.18506
7.18506
7.18506
7.18506
7.18506
7.18506
7.18506
7.18506
7.18506
7.18506
7.18506
7.18506
7.18506
7.18506
7.18506
7.18506
7.18506
7.18506
7.18506
7.18506
7.18506
7.18506
7.18506
7.18506
7.18506
7.18506
7.18506
7.18506
7.18506
7.18506
7.18506
7.18506
7.18506
7.18506
7.18506
7.18506
7.18506
7.18506
7.18506
7.18506
7.18506
7.18506
7.18506
7.18506
7.18506
7.18506
7.18506
7.18506
7.18506
7.18506
7.18506
7.18506
7.18506
7.18506
7.18506
7.18506
7.18506
7.18506
7.18506
7.18506
7.18506
7.18506
7.18506
7.18506
7.18506
7.18506
7.18506
7.18506
7.18506
7.18506
7.18506
7.18506
7.18506
7.18506
7.18506
7.18506
7.18506
7.18506
7.18506
7.18506
7.18506
7.18506
7.18506
7.18506
7.18506
7.18506
7.18506
7.18506
7.18506
7.18506
7.18506
7.18506
7.18506
7.18506
7.18506
7.18506
7.18506
7.18506
7.18506
7.18506
7.18506
7.18506
7.18506
7.18506
7.18506
7.18506
7.18506
7.18506
7.18506
7.18506
7.18506
7.18506
7.18506
7.18506
7.18506
7.18506
7.18506
7.18506
7.18506
7.18506
7.18506
7.18506
7.18506
7.18506
7.18506
7.18506
7.18506
7.18506
7.18506
7.18506
7.18506
7.18506
7.18506
7.18506
7.18506
7.18506
7.18506
7.18506
7.18506
7.18506
7.18506
7.18506
7.18506
7.18506
7.18506
7.18506
7.18506
7.18506
7.18506
7.18506
7.18506
7.18506
7.18506
7.18506
7.18506
7.18506
7.18506
7.18506
7.18506
7.18506
7.18506
7.18506
7.18506
7.18506
7.18506
7.18506
7.18506
7.18506
7.18506
7.18506
7.18506
7.18506
7.18506
7.18506
7.18506
7.18506
7.18506
7.18506
7.18506
7.18506
7.18506
7.18506
7.18506
7.18506
7.18506
7.18506
7.18506
7.18506
7.18506
7.18506
7.18506
7.18506
7.18506
7.18506
7.18506
7.18506
7.18506
7.18506
7.18506
7.18506
7.18506
7.18506
7.18506
7.18506
7.18506
7.18506
7.18506
7.18506
7.18506
7.18506
7.18506
7.18506
7.18506
7.18506
7.18506
7.18506
7.18506
7.18506
7.18506
7.18506
7.18506
7.18506
7.18506
7.18506
7.18506
7.18506
7.18506
7.18506
7.18506
7.18506
7.18506
7.18506
7.18506
7.18506
7.18506
7.18506
7.18506
7.18506
7.18506
7.18506
7.18506
7.18506
7.18506
7.18506
7.18506
7.18506
7.18506
7.18506
7.18506
7.18506
7.18506
7.18506
7.18506
7.18506
7.18506
7.18506
7.18506
7.18506
7.18506
7.18506
7.18506
7.18506
7.18506
7.18506
7.18506
7.18506
7.18506
7.18506
7.18506
7.18506
7.18506
7.18506
7.18506
7.18506
7.18506
7.18506
7.18506
7.18506
7.18506
7.18506
7.18506
7.18506
7.18506
7.18506
7.18506
7.18506
7.18506
7.18506
7.18506
7.18506
7.18506
7.18506
7.18506
7.18506
7.18506
7.18506
7.18506
7.18506
7.18506
7.18506
7.18506
7.18506
7.18506
7.18506
7.18506
7.18506
7.18506
7.18506
7.18506
7.18506
7.18506
7.18506
7.18506
7.18506
7.18506
7.18506
7.18506
7.18506
7.18506
7.18506
7.18506
7.18506
7.18506
7.18506
7.18506
7.18506
7.18506
7.18506
7.18506
7.18506
7.18506
7.18506
7.18506
7.18506
7.18506
7.18506
7.18506
7.18506
7.18506
7.18506
7.18506
7.18506
7.18506
7.18506
7.18506
7.18506
7.18506
7.18506
7.18506
7.18506
7.18506
7.18506
7.18506
7.18506
7.18506
7.18506
7.18506
7.18506
7.18506
7.18506
7.18506
7.18506
7.18506
7.18506
7.18506
7.18506
7.18506
7.18506
7.18506
7.18506
7.18506
7.18506
7.18506
7.18506
7.18506
7.18506
7.18506
7.18506
7.18506
7.18506
7.18506
7.18506
7.18506
7.18506
7.18506
7.18506
7.18506
7.18506
7.18506
7.18506
7.18506
7.18506
7.18506
7.18506
7.18506
7.18506
7.18506
7.18506
7.18506
7.18506
7.18506
7.18506
7.18506
7.18506
7.18506
7.18506
7.18506
7.18506
7.18506
7.18506
7.18506
7.18506
7.18506
7.18506
7.18506
7.18506
7.18506
7.18506
7.18506
7.18506
7.18506
7.18506
7.18506
7.18506
7.18506
7.18506
7.18506
7.18506
7.18506
7.18506
7.18506
7.18506
7.18506
7.18506
7.18506
7.18506
7.18506
7.18506
7.18506
7.18506
7.18506
7.18506
7.18506
7.18506
7.18506
7.18506
7.18506
7.18506
7.18506
7.18506
7.18506
7.18506
7.18506
7.18506
7.18506
7.18506
7.18506
7.18506
7.18506
7.18506
7.18506
7.18506
7.18506
7.18506
7.18506
7.18506
7.18506
7.18506
7.18506
7.18506
7.18506
7.18506
7.18506
7.18506
7.18506
7.18506
7.18506
7.18506
7.18506
7.18506
7.18506
7.18506
7.18506
7.18506
7.18506
7.18506
7.18506
7.18506
7.18506
7.18506
7.18506
7.18506
7.18506
7.18506
7.18506
7.18506
7.18506
7.18506
7.18506
7.18506
7.18506
7.18506
7.18506
7.18506
7.18506
7.18506
7.18506
7.18506
7.18506
7.18506
7.18506
7.18506
7.18506
7.18506
7.18506
7.18506
7.18506
7.18506
7.18506
7.18506
7.18506
7.18506
7.18506
7.18506
7.18506
7.18506
7.18506
7.18506
7.18506
7.18506
7.18506
7.18506
7.18506
7.18506
7.18506
7.18506
7.18506
7.18506
7.18506
7.18506
7.18506
7.18506
7.18506
7.18506
7.18506
7.18506
7.18506
7.18506
7.18506
7.18506
7.18506
7.18506
7.18506
7.18506
7.18506
7.18506
7.18506
7.18506
7.18506
7.18506
7.18506
7.18506
7.18506
7.18506
7.18506
7.18506
7.18506
7.18506
7.18506
7.18506
7.18506
7.18506
7.18506
7.18506
7.18506
7.18506
7.18506
7.18506
7.18506
7.18506
7.18506
7.18506
7.18506
7.18506
7.18506
7.18506
7.18506
7.18506
7.18506
7.18506
7.18506
7.18506
7.18506
7.18506
7.18506
7.18506
7.18506
7.18506
7.18506
7.18506
7.18506
7.18506
7.18506
7.18506
7.18506
7.18506
7.18506
7.18506
7.18506
7.18506
7.18506
7.18506
7.18506
7.18506
7.18506
7.18506
7.18506
7.18506
7.18506
7.18506
7.18506
7.18506
7.18506
7.18506
7.18506
7.18506
7.18506
7.18506
7.18506
7.18506
7.18506
7.18506
7.18506
7.18506
7.18506
7.18506
7.18506
7.18506
7.18506
7.18506
7.18506
7.18506
7.18506
7.18506
7.18506
7.18506
7.18506
7.18506
7.18506
7.18506
7.18506
7.18506
7.18506
7.18506
7.18506
7.18506
7.18506
7.18506
7.18506
7.18506
7.18506
7.18506
7.18506
7.18506
7.18506
7.18506
7.18506
7.18506
7.18506
7.18506
7.18506
7.18506
7.18506
7.18506
7.18506
7.18506
7.18506
7.18506
7.18506
7.18506
7.18506
7.18506
7.18506
7.18506
7.18506
7.18506
7.18506
7.18506
7.18506
7.18506
7.18506
7.18506
7.18506
7.18506
7.18506
7.18506
7.18506
7.18506
7.18506
7.18506
7.18506
7.18506
7.18506
7.18506
7.18506
7.18506
7.18506
7.18506
7.18506
7.18506
7.18506
7.18506
7.18506
7.18506
7.18506
7.18506
7.18506
7.18506
7.18506
7.18506
7.18506
7.18506
7.18506
7.18506
7.18506
7.18506
7.18506
7.18506
7.18506
7.18506
7.18506
7.18506
7.18506
7.18506
7.18506
7.18506
7.18506
7.18506
7.18506
7.18506
7.18506
7.18506
7.18506
7.18506
7.18506
7.18506
7.18506
7.18506
7.18506
7.18506
7.18506
7.18506
7.18506
7.18506
7.18506
7.18506
7.18506
7.18506
7.18506
7.18506
7.18506
7.18506
7.18506
7.18506
7.18506
7.18506
7.18506
7.18506
7.18506
7.18506
7.18506
7.18506
7.18506
7.18506
7.18506
7.18506
7.18506
7.18506
7.18506
7.18506
7.18506
7.18506
7.18506
7.18506
7.18506
7.18506
7.18506
7.18506
7.18506
7.18506
7.18506
7.18506
7.18506
7.18506
7.18506
7.18506
7.18506
7.18506
7.18506
7.18506
7.18506
7.18506
7.18506
7.18506
7.18506
7.18506
7.18506
7.18506
7.18506
7.18506
7.18506
7.18506
7.18506
7.18506
7.18506
7.18506
7.18506
7.18506
7.18506
7.18506
7.18506
7.18506
7.18506
7.18506
7.18506
7.18506
7.18506
7.18506
7.18506
7.18506
7.18506
7.18506
7.18506
7.18506
7.18506
7.18506
7.18506
7.18506
7.18506
7.18506
7.18506
7.18506
7.18506
7.18506
7.18506
7.18506
7.18506
7.18506
7.18506
7.18506
7.18506
7.18506
7.18506
7.18506
7.18506
7.18506
7.18506
7.18506
7.18506
7.18506
7.18506
7.18506
7.18506
7.18506
7.18506
7.18506
7.18506
7.18506
7.18506
7.18506
7.18506
7.18506
7.18506
7.18506
7.18506
7.18506
7.18506
7.18506
7.18506
7.18506
7.18506
7.18506
7.18506
7.18506
7.18506
7.18506
7.18506
7.18506
7.18506
7.18506
7.18506
7.18506
7.18506
7.18506
7.18506
7.18506
7.18506
7.18506
7.18506
7.18506
7.18506
7.18506
7.18506
7.18506
7.18506
7.18506
7.18506
7.18506
7.18506
7.18506
7.18506
7.18506
7.18506
7.18506
7.18506
7.18506
7.18506
7.18506
7.18506
7.18506
7.18506
7.18506
7.18506
7.18506
7.18506
7.18506
7.18506
7.18506
7.18506
7.18506
7.18506
7.18506
7.18506
7.18506
7.18506
7.18506
7.18506
7.18506
7.18506
7.18506
7.18506
7.18506
7.18506
7.18506
7.18506
7.18506
7.18506
7.18506
7.18506
7.18506
7.18506
7.18506
7.18506
7.18506
7.18506
7.18506
7.18506
7.18506
7.18506
7.18506
7.18506
7.18506
7.18506
7.18506
7.18506
7.18506
7.18506
7.18506
7.18506
7.18506
7.18506
7.18506
7.18506
7.18506
7.18506
7.18506
7.18506
7.18506
7.18506
7.18506
7.18506
7.18506
7.18506
7.18506
7.18506
7.18506
7.18506
7.18506
7.18506
7.18506
7.18506
7.18506
7.18506
7.18506
7.18506
7.18506
7.18506
7.18506
7.18506
7.18506
7.18506
7.18506
7.18506
7.18506
7.18506
7.18506
7.18506
7.18506
7.18506
7.18506
7.18506
7.18506
7.18506
7.18506
7.18506
7.18506
7.18506
7.18506
7.18506
7.18506
7.18506
7.18506
7.18506
7.18506
7.18506
7.18506
7.18506
7.18506
7.18506
7.18506
7.18506
7.18506
7.18506
7.18506
7.18506
7.18506
7.18506
7.18506
7.18506
7.18506
7.18506
7.18506
7.18506
7.18506
7.18506
7.18506
7.18506
7.18506
7.18506
7.18506
7.18506
7.18506
7.18506
7.18506
7.18506
7.18506
7.18506
7.18506
7.18506
7.18506
7.18506
7.18506
7.18506
7.18506
7.18506
7.18506
7.18506
7.18506
7.18506
7.18506
7.18506
7.18506
7.18506
7.18506
7.18506
7.18506
7.18506
7.18506
7.18506
7.18506
7.18506
7.18506
7.18506
7.18506
7.18506
7.18506
7.18506
7.18506
7.18506
7.18506
7.18506
7.18506
7.18506
7.18506
7.18506
7.18506
7.18506
7.18506
7.18506
7.18506
7.18506
7.18506
7.18506
7.18506
7.18506
7.18506
7.18506
7.18506
7.18506
7.18506
7.18506
7.18506
7.18506
7.18506
7.18506
7.18506
7.18506
7.18506
7.18506
7.18506
7.18506
7.18506
7.18506
7.18506
7.18506
7.18506
7.18506
7.18506
7.18506
7.18506
7.18506
7.18506
7.18506
7.18506
7.18506
7.18506
7.18506
7.18506
7.18506
7.18506
7.18506
7.18506
7.18506
7.18506
7.18506
7.18506
7.18506
7.18506
7.18506
7.18506
7.18506
7.18506
7.18506
7.18506
7.18506
7.18506
7.18506
7.18506
7.18506
7.18506
7.18506
7.18506
7.18506
7.18506
7.18506
7.18506
7.18506
7.18506
7.18506
7.18506
7.18506
7.18506
7.18506
7.18506
7.18506
7.18506
7.18506
7.18506
7.18506
7.18506
7.18506
7.18506
7.18506
7.18506
7.18506
7.18506
7.18506
7.18506
7.18506
7.18506
7.18506
7.18506
7.18506
7.18506
7.18506
7.18506
7.18506
7.18506
7.18506
7.18506
7.18506
7.18506
7.18506
7.18506
7.18506
7.18506
7.18506
7.18506
7.18506
7.18506
7.18506
7.18506
7.18506
7.18506
7.18506
7.18506
7.18506
7.18506
7.18506
7.18506
7.18506
7.18506
7.18506
7.18506
7.18506
7.18506
7.18506
7.18506
7.18506
7.18506
7.18506
7.18506
7.18506
7.18506
7.18506
7.18506
7.18506
7.18506
7.18506
7.18506
7.18506
7.18506
7.18506
7.18506
7.18506
7.18506
7.18506
7.18506
7.18506
7.18506
7.18506
7.18506
7.18506
7.18506
7.18506
7.18506
7.18506
7.18506
7.18506
7.18506
7.18506
7.18506
7.18506
7.18506
7.18506
7.18506
7.18506
7.18506
7.18506
7.18506
7.18506
7.18506
7.18506
7.18506
7.18506
7.18506
7.18506
7.18506
7.18506
7.18506
7.18506
7.18506
7.18506
7.18506
7.18506
7.18506
7.18506
7.18506
7.18506
7.18506
7.18506
7.18506
7.18506
7.18506
7.18506
7.18506
7.18506
7.18506
7.18506
7.18506
7.18506
7.18506
7.18506
7.18506
7.18506
7.18506
7.18506
7.18506
7.18506
7.18506
7.18506
7.18506
7.18506
7.18506
7.18506
7.18506
7.18506
7.18506
7.18506
7.18506
7.18506
7.18506
7.18506
7.18506
7.18506
7.18506
7.18506
7.18506
7.18506
7.18506
7.18506
7.18506
7.18506
7.18506
7.18506
7.18506
7.18506
7.18506
7.18506
7.18506
7.18506
7.18506
7.18506
7.18506
7.18506
7.18506
7.18506
7.18506
7.18506
7.18506
7.18506
7.18506
7.18506
7.18506
7.18506
7.18506
7.18506
7.18506
7.18506
7.18506
7.18506
7.18506
7.18506
7.18506
7.18506
7.18506
7.18506
7.18506
7.18506
7.18506
7.18506
7.18506
7.18506
7.18506
7.18506
7.18506
7.18506
7.18506
7.18506
7.18506
7.18506
7.18506
7.18506
7.18506
7.18506
7.18506
7.18506
7.18506
7.18506
7.18506
7.18506
7.18506
7.18506
7.18506
7.18506
7.18506
7.18506
7.18506
7.18506
7.18506
7.18506
7.18505
7.18505
7.18505
7.18505
7.18505
7.18505
7.18505
7.18505
7.18505
7.18505
7.18505
7.18504
7.18504
7.18504
7.18504
7.18504
7.18504
7.18504
7.18504
7.18504
7.18504
7.18504
7.18504
7.18504
7.18504
7.18504
7.18504
7.18504
7.18504
7.18504
7.18504
7.18504
7.18504
7.18504
7.18505
7.18505
7.18505
7.18505
7.18505
7.18505
7.18505
7.18505
7.18505
7.18505
7.18505
7.18505
7.18505
7.18505
7.18505
7.18505
7.18506
7.18506
7.18506
7.18506
7.18506
7.18506
7.18506
7.18506
7.18506
7.18506
7.18506
7.18506
7.18506
7.18506
7.18506
7.18506
7.18506
7.18506
7.18506
7.18506
7.18506
7.18506
7.18506
7.18506
7.18506
7.18506
7.18506
7.18506
7.18506
7.18506
7.18506
7.18506
7.18506
7.18506
7.18506
7.18506
7.18506
7.18506
7.18506
7.18506
7.18506
7.18506
7.18506
7.18506
7.18506
7.18506
7.18506
7.18506
7.18506
7.18506
7.18506
7.18506
7.18506
7.18506
7.18506
7.18506
7.18506
7.18506
7.18506
7.18506
7.18506
7.18506
7.18506
7.18506
7.18506
7.18506
7.18506
7.18506
7.18506
7.18506
7.18506
7.18506
7.18506
7.18506
7.18506
7.18506
7.18506
7.18506
7.18506
7.18506
7.18506
7.18506
7.18506
7.18506
7.18506
7.18506
7.18506
7.18506
7.18506
7.18506
7.18506
7.18506
7.18506
7.18506
7.18506
7.18506
7.18506
7.18506
7.18506
7.18506
7.18506
7.18506
7.18506
7.18506
7.18506
7.18506
7.18506
7.18506
7.18506
7.18506
7.18506
7.18506
7.18506
7.18506
7.18506
7.18506
7.18506
7.18506
7.18506
7.18506
7.18506
7.18506
7.18506
7.18506
7.18506
7.18506
7.18506
7.18506
7.18506
7.18506
7.18506
7.18506
7.18506
7.18506
7.18506
7.18506
7.18506
7.18506
7.18506
7.18506
7.18506
7.18506
7.18505
7.18505
7.18505
7.18505
7.18505
7.18505
7.18504
7.18504
7.18504
7.18503
7.18503
7.18502
7.18502
7.18501
7.18501
7.185
7.18499
7.18499
7.18498
7.18498
7.18497
7.18497
7.18496
7.18495
7.18495
7.18494
7.18493
7.18492
7.18492
7.18491
7.18491
7.1849
7.1849
7.1849
7.1849
7.1849
7.1849
7.1849
7.1849
7.18491
7.18491
7.18491
7.18491
7.18492
7.18492
7.18492
7.18493
7.18493
7.18493
7.18494
7.18494
7.18494
7.18495
7.18495
7.18495
7.18496
7.18496
7.18497
7.18497
7.18498
7.18498
7.18498
7.18499
7.18499
7.185
7.185
7.18501
7.18501
7.18502
7.18502
7.18503
7.18503
7.18503
7.18503
7.18504
7.18504
7.18504
7.18504
7.18505
7.18505
7.18505
7.18505
7.18505
7.18506
7.18506
7.18506
7.18506
7.18506
7.18506
7.18506
7.18506
7.18506
7.18506
7.18506
7.18506
7.18506
7.18506
7.18506
7.18506
7.18506
7.18506
7.18506
7.18506
7.18506
7.18506
7.18506
7.18506
7.18506
7.18506
7.18506
7.18506
7.18506
7.18506
7.18506
7.18506
7.18506
7.18506
7.18506
7.18506
7.18506
7.18506
7.18506
7.18506
7.18506
7.18506
7.18506
7.18506
7.18506
7.18506
7.18506
7.18506
7.18506
7.18506
7.18506
7.18506
7.18506
7.18506
7.18506
7.18506
7.18506
7.18506
7.18506
7.18506
7.18506
7.18506
7.18506
7.18506
7.18506
7.18506
7.18506
7.18506
7.18506
7.18506
7.18506
7.18506
7.18506
7.18506
7.18506
7.18506
7.18506
7.18506
7.18506
7.18506
7.18506
7.18506
7.18506
7.18506
7.18506
7.18506
7.18506
7.18506
7.18506
7.18506
7.18506
7.18506
7.18506
7.18506
7.18506
7.18506
7.18506
7.18506
7.18506
7.18506
7.18506
7.18506
7.18506
7.18506
7.18506
7.18506
7.18506
7.18506
7.18506
7.18505
7.18505
7.18505
7.18505
7.18505
7.18505
7.18504
7.18504
7.18504
7.18503
7.18503
7.18503
7.18502
7.18501
7.18501
7.185
7.18499
7.18498
7.18497
7.18495
7.18494
7.18492
7.18491
7.18488
7.18486
7.18483
7.18479
7.18476
7.18472
7.18468
7.18465
7.18461
7.18458
7.18455
7.18451
7.18448
7.18445
7.1844
7.18435
7.1843
7.18424
7.18418
7.18413
7.18409
7.18405
7.18401
7.18399
7.18397
7.18396
7.18396
7.18396
7.18397
7.18398
7.18399
7.184
7.18402
7.18404
7.18406
7.18408
7.1841
7.18412
7.18414
7.18416
7.18418
7.1842
7.18422
7.18425
7.18427
7.18429
7.18432
7.18434
7.18437
7.1844
7.18443
7.18446
7.18449
7.18452
7.18455
7.18459
7.18462
7.18466
7.18469
7.18472
7.18475
7.18478
7.1848
7.18482
7.18484
7.18486
7.18488
7.1849
7.18491
7.18493
7.18494
7.18496
7.18497
7.18498
7.18499
7.185
7.18501
7.18502
7.18503
7.18503
7.18504
7.18504
7.18505
7.18505
7.18505
7.18505
7.18506
7.18506
7.18506
7.18506
7.18506
7.18506
7.18506
7.18506
7.18506
7.18506
7.18506
7.18506
7.18506
7.18506
7.18506
7.18506
7.18506
7.18506
7.18506
7.18506
7.18506
7.18506
7.18506
7.18506
7.18506
7.18506
7.18506
7.18506
7.18506
7.18506
7.18506
7.18506
7.18506
7.18506
7.18506
7.18506
7.18506
7.18506
7.18506
7.18506
7.18506
7.18506
7.18506
7.18506
7.18506
7.18506
7.18506
7.18506
7.18506
7.18506
7.18506
7.18506
7.18506
7.18506
7.18506
7.18506
7.18506
7.18506
7.18506
7.18506
7.18506
7.18506
7.18506
7.18506
7.18506
7.18506
7.18506
7.18506
7.18506
7.18506
7.18506
7.18506
7.18506
7.18506
7.18506
7.18506
7.18506
7.18506
7.18506
7.18506
7.18506
7.18506
7.18506
7.18505
7.18505
7.18505
7.18505
7.18505
7.18505
7.18504
7.18504
7.18504
7.18504
7.18503
7.18503
7.18502
7.18502
7.18501
7.18501
7.185
7.18499
7.18498
7.18496
7.18495
7.18494
7.18492
7.1849
7.18488
7.18486
7.18483
7.18479
7.18475
7.1847
7.18465
7.18459
7.18452
7.18445
7.18438
7.1843
7.1842
7.18408
7.18394
7.18376
7.18356
7.18334
7.18311
7.18287
7.18263
7.18239
7.18216
7.18194
7.18174
7.18154
7.18134
7.18112
7.18085
7.18053
7.18019
7.17984
7.1795
7.17918
7.1789
7.17866
7.17846
7.17831
7.1782
7.17814
7.17812
7.17814
7.17818
7.17824
7.17832
7.1784
7.1785
7.17861
7.17872
7.17884
7.17896
7.17908
7.17921
7.17934
7.17947
7.1796
7.17973
7.17987
7.18002
7.18016
7.18032
7.18048
7.18065
7.18083
7.18102
7.18121
7.18141
7.18162
7.18183
7.18205
7.18227
7.18248
7.18267
7.18286
7.18303
7.18318
7.18332
7.18345
7.18358
7.18369
7.1838
7.18391
7.18401
7.18411
7.18421
7.1843
7.1844
7.18449
7.18457
7.18465
7.18472
7.18477
7.18482
7.18486
7.18489
7.18492
7.18494
7.18496
7.18498
7.185
7.18501
7.18502
7.18503
7.18504
7.18504
7.18505
7.18505
7.18505
7.18506
7.18506
7.18506
7.18506
7.18506
7.18506
7.18506
7.18506
7.18506
7.18506
7.18506
7.18506
7.18506
7.18506
7.18506
7.18506
7.18506
7.18506
7.18506
7.18506
7.18506
7.18506
7.18506
7.18506
7.18506
7.18506
7.18506
7.18506
7.18506
7.18506
7.18506
7.18506
7.18506
7.18506
7.18506
7.18506
7.18506
7.18506
7.18506
7.18506
7.18506
7.18506
7.18506
7.18506
7.18506
7.18506
7.18506
7.18506
7.18506
7.18506
7.18506
7.18506
7.18506
7.18506
7.18506
7.18506
7.18506
7.18506
7.18506
7.18505
7.18505
7.18505
7.18505
7.18505
7.18505
7.18505
7.18504
7.18504
7.18504
7.18503
7.18503
7.18503
7.18502
7.18502
7.18501
7.185
7.185
7.18499
7.18498
7.18496
7.18495
7.18493
7.18492
7.1849
7.18487
7.18485
7.18482
7.18479
7.18476
7.18472
7.18467
7.18461
7.18454
7.18447
7.18439
7.1843
7.1842
7.18409
7.18397
7.18383
7.18366
7.18344
7.18318
7.18287
7.18252
7.18214
7.18173
7.1813
7.18084
7.18034
7.17975
7.17902
7.17812
7.17705
7.17583
7.17449
7.17307
7.1716
7.17012
7.16868
7.16728
7.16596
7.16472
7.16353
7.16233
7.16095
7.15923
7.15714
7.15483
7.15247
7.15021
7.14813
7.14628
7.14472
7.14344
7.14246
7.14177
7.14137
7.14123
7.1413
7.14151
7.14186
7.1423
7.14282
7.14341
7.14404
7.14471
7.1454
7.14612
7.14686
7.14762
7.14839
7.14918
7.14999
7.15082
7.15167
7.15255
7.15348
7.15446
7.15549
7.15658
7.15772
7.15891
7.16015
7.16146
7.16281
7.16421
7.16565
7.16708
7.16845
7.16973
7.17089
7.17195
7.17292
7.1738
7.17461
7.17538
7.17611
7.17681
7.1775
7.17818
7.17885
7.1795
7.18014
7.18076
7.18136
7.18192
7.18242
7.18285
7.18319
7.18347
7.1837
7.18389
7.18406
7.18421
7.18435
7.18447
7.18459
7.18468
7.18476
7.18482
7.18487
7.18491
7.18494
7.18496
7.18498
7.185
7.18501
7.18503
7.18503
7.18504
7.18505
7.18505
7.18505
7.18505
7.18506
7.18506
7.18506
7.18506
7.18506
7.18506
7.18506
7.18506
7.18506
7.18506
7.18506
7.18506
7.18506
7.18506
7.18506
7.18506
7.18506
7.18506
7.18506
7.18506
7.18506
7.18506
7.18506
7.18506
7.18506
7.18506
7.18506
7.18506
7.18506
7.18506
7.18506
7.18506
7.18506
7.18506
7.18506
7.18506
7.18506
7.18506
7.18506
7.18506
7.18506
7.18506
7.18504
7.18503
7.18503
7.18503
7.18502
7.18502
7.18501
7.185
7.185
7.18499
7.18498
7.18497
7.18496
7.18495
7.18493
7.18492
7.1849
7.18487
7.18485
7.18482
7.18479
7.18475
7.18471
7.18467
7.18462
7.18456
7.18449
7.18441
7.18432
7.18422
7.1841
7.18398
7.18384
7.18369
7.18352
7.18332
7.18308
7.18278
7.18243
7.18203
7.18158
7.18108
7.18055
7.17997
7.17935
7.17865
7.1778
7.17675
7.17546
7.1739
7.1721
7.17007
7.16783
7.16543
7.16289
7.16021
7.15729
7.15382
7.1494
7.14379
7.13705
7.12939
7.12108
7.11239
7.10358
7.09485
7.08639
7.07832
7.07073
7.06365
7.05701
7.05033
7.04263
7.03286
7.02111
7.00838
6.99565
6.98354
6.97249
6.96279
6.95457
6.94788
6.94274
6.93915
6.93705
6.93634
6.93669
6.93783
6.93961
6.94186
6.94453
6.94755
6.95082
6.95427
6.95788
6.96163
6.96549
6.96942
6.97345
6.9776
6.9819
6.98632
6.99092
6.99573
7.00081
7.00622
7.01196
7.01805
7.02447
7.03125
7.03837
7.04584
7.05366
7.06183
7.07013
7.07814
7.08556
7.09227
7.0983
7.10378
7.10881
7.11354
7.11807
7.12249
7.12684
7.13116
7.13547
7.13976
7.14405
7.1483
7.15251
7.15665
7.16068
7.16447
7.16783
7.17063
7.17289
7.17469
7.17617
7.17741
7.17851
7.17949
7.18041
7.18125
7.182
7.18263
7.18311
7.18348
7.18377
7.18399
7.18418
7.18435
7.18449
7.18461
7.18472
7.18479
7.18485
7.1849
7.18493
7.18496
7.18498
7.185
7.18501
7.18502
7.18503
7.18504
7.18504
7.18505
7.18505
7.18505
7.18506
7.18506
7.18506
7.18506
7.18506
7.18506
7.18506
7.18506
7.18506
7.18506
7.18506
7.18506
7.18506
7.18506
7.18506
7.18506
7.18506
7.18506
7.18506
7.18506
7.18506
7.18506
7.18506
7.18506
7.18506
7.18506
7.18506
7.18506
7.18506
7.18506
7.18506
7.18506
7.18506
7.18492
7.1849
7.18488
7.18486
7.18484
7.18481
7.18478
7.18474
7.1847
7.18466
7.18461
7.18456
7.1845
7.18443
7.18435
7.18425
7.18414
7.18402
7.18388
7.18372
7.18355
7.18337
7.18316
7.18292
7.18264
7.18231
7.18191
7.18143
7.1809
7.1803
7.17964
7.17892
7.17816
7.17731
7.17635
7.1752
7.1738
7.17212
7.17014
7.16788
7.16535
7.16257
7.15958
7.15636
7.15289
7.14898
7.14417
7.13801
7.13026
7.12096
7.11027
7.09838
7.08553
7.07194
7.0578
7.04318
7.02748
7.00881
6.98481
6.95462
6.91906
6.87966
6.83798
6.79545
6.7533
6.71249
6.6737
6.63734
6.60369
6.5728
6.54442
6.51722
6.48604
6.44352
6.3915
6.33722
6.28548
6.23823
6.19659
6.16126
6.1321
6.10875
6.09103
6.07881
6.07164
6.06936
6.07064
6.07369
6.07912
6.0864
6.09503
6.10481
6.11551
6.12682
6.13863
6.15104
6.16398
6.17721
6.19084
6.20519
6.22037
6.23625
6.25297
6.27077
6.2899
6.31062
6.3331
6.35733
6.38339
6.41146
6.44163
6.47411
6.50871
6.54581
6.58348
6.61938
6.65227
6.68195
6.70885
6.7336
6.75689
6.77937
6.80162
6.82406
6.8469
6.8702
6.89397
6.91816
6.94265
6.96729
6.99193
7.01648
7.0407
7.06343
7.08291
7.09841
7.11047
7.1201
7.1282
7.13538
7.142
7.14824
7.15418
7.1598
7.16484
7.16903
7.17228
7.17471
7.17656
7.17803
7.17927
7.18036
7.18132
7.18215
7.18281
7.18329
7.18364
7.18391
7.18412
7.18429
7.18445
7.18458
7.18469
7.18478
7.18484
7.18488
7.18492
7.18494
7.18496
7.18498
7.185
7.18501
7.18502
7.18503
7.18504
7.18504
7.18504
7.18504
7.18505
7.18505
7.18505
7.18505
7.18505
7.18505
7.18505
7.18505
7.18506
7.18506
7.18506
7.18506
7.18506
7.18506
7.18506
7.18506
7.18506
7.18506
7.18506
7.18506
7.18506
7.18506
7.18506
7.18431
7.18422
7.18413
7.18401
7.18388
7.18373
7.18357
7.18338
7.18317
7.18295
7.1827
7.18242
7.1821
7.18173
7.18129
7.18076
7.18015
7.17946
7.17868
7.17783
7.1769
7.17589
7.17477
7.17348
7.17195
7.1701
7.1679
7.16535
7.16245
7.15922
7.15569
7.15187
7.14776
7.14328
7.13814
7.13182
7.12394
7.11435
7.10315
7.09047
7.07652
7.06146
7.04547
7.02865
7.01082
6.99083
6.96615
6.93454
6.89553
6.84991
6.7989
6.74388
6.68619
6.62707
6.5674
6.50766
6.44692
6.37606
6.28185
6.16667
6.04056
5.91238
5.7882
5.67165
5.56468
5.46812
5.38193
5.30535
5.23759
5.17803
5.12557
5.07771
5.02662
4.95113
4.86017
4.77208
4.69437
4.62724
4.57084
4.5255
4.48948
4.46147
4.44104
4.42781
4.42098
4.42008
4.4228
4.42776
4.43537
4.44416
4.45507
4.46717
4.48024
4.49399
4.50847
4.52391
4.54018
4.55671
4.57372
4.59212
4.6123
4.6339
4.65712
4.68254
4.71047
4.74157
4.77631
4.81476
4.8572
4.90435
4.9569
5.01558
5.08014
5.15291
5.22356
5.28654
5.34247
5.3936
5.44228
5.49033
5.53911
5.58988
5.64385
5.70182
5.7643
5.83168
5.9039
5.98128
6.06435
6.15259
6.24571
6.34412
6.44785
6.55078
6.63998
6.71116
6.76747
6.8141
6.85524
6.89351
6.93025
6.96604
7.00103
7.03472
7.06498
7.08922
7.10711
7.12023
7.13041
7.13894
7.14655
7.15356
7.16002
7.16562
7.17006
7.1733
7.17562
7.17735
7.17873
7.17991
7.18095
7.18187
7.18261
7.18315
7.18353
7.1838
7.18401
7.18418
7.18433
7.18446
7.18458
7.18468
7.18476
7.18481
7.18485
7.18488
7.1849
7.18491
7.18493
7.18494
7.18495
7.18496
7.18497
7.18498
7.18498
7.18499
7.18499
7.18499
7.185
7.185
7.18501
7.18506
7.18506
7.18506
7.18506
7.18506
7.18506
7.18506
7.18506
7.18506
7.18086
7.18035
7.17976
7.17906
7.17827
7.17738
7.17639
7.1753
7.17412
7.17283
7.17139
7.16974
7.16777
7.16544
7.16269
7.15952
7.15594
7.15195
7.14757
7.14282
7.13767
7.13198
7.12536
7.11727
7.10734
7.09548
7.08178
7.06643
7.04961
7.03153
7.01236
6.99215
6.97045
6.94556
6.9149
6.87706
6.83222
6.78137
6.72567
6.66627
6.60425
6.54056
6.4756
6.40952
6.33915
6.2515
6.13892
6.00757
5.86656
5.72295
5.58194
5.44704
5.32002
5.20182
5.09236
4.98903
4.87856
4.72565
4.55153
4.38145
4.22753
4.09346
3.97911
3.88299
3.80314
3.73722
3.68267
3.63738
3.60025
3.57012
3.54525
3.52433
3.50736
3.4937
3.4834
3.476
3.47075
3.46813
3.4691
3.4715
3.47488
3.47977
3.4862
3.49357
3.50136
3.50902
3.51624
3.5229
3.52976
3.53593
3.54092
3.54625
3.55102
3.55561
3.56024
3.56513
3.56952
3.57345
3.57773
3.58264
3.58778
3.59328
3.59951
3.60629
3.61385
3.62216
3.63096
3.64046
3.65099
3.66253
3.67534
3.68914
3.7048
3.72289
3.74295
3.76507
3.78987
3.81779
3.84906
3.88378
3.92274
3.96733
4.01874
4.07777
4.14527
4.22188
4.30943
4.41054
4.52548
4.65666
4.80961
4.99003
5.1883
5.35443
5.48521
5.59474
5.69692
5.80033
5.90885
6.02429
6.14811
6.28055
6.42036
6.55584
6.66741
6.75117
6.81457
6.86623
6.9119
6.95462
6.99557
7.0343
7.06801
7.0937
7.11166
7.12438
7.13421
7.14255
7.15008
7.157
7.16322
7.16833
7.17208
7.17466
7.17647
7.17785
7.17899
7.18001
7.18092
7.18173
7.18241
7.18294
7.18331
7.18355
7.18371
7.18383
7.18393
7.18402
7.18411
7.18419
7.18425
7.18431
7.18437
7.18441
7.18445
7.18448
7.1845
7.18451
7.18452
7.18458
7.18505
7.18505
7.16424
7.16169
7.1587
7.15525
7.15132
7.14692
7.14205
7.13674
7.13096
7.12468
7.1177
7.10955
7.0997
7.08779
7.07376
7.05771
7.03978
7.02018
6.99905
6.97657
6.95269
6.92667
6.8964
6.85949
6.81501
6.76346
6.70597
6.64379
6.5781
6.51003
6.44042
6.36958
6.29723
6.21689
6.11641
5.99579
5.86268
5.7244
5.58606
5.45119
5.32205
5.19961
5.08429
4.97496
4.86759
4.7366
4.57114
4.39559
4.22742
4.07378
3.93752
3.81917
3.71731
3.63017
3.55686
3.49591
3.44494
3.40319
3.36797
3.33781
3.31269
3.29291
3.27836
3.2687
3.26319
3.26142
3.26295
3.26605
3.271
3.27713
3.2831
3.28883
3.29491
3.30075
3.30621
3.31243
3.31906
3.32561
3.33232
3.33994
3.34778
3.3558
3.36407
3.37257
3.38128
3.38996
3.39815
3.40591
3.4135
3.42028
3.42631
3.43199
3.43713
3.44193
3.44572
3.44999
3.45424
3.45792
3.4614
3.46485
3.46834
3.4721
3.47604
3.48024
3.48508
3.49005
3.495
3.50034
3.50612
3.51211
3.51832
3.52502
3.53243
3.5399
3.54703
3.555
3.56369
3.57297
3.58233
3.59175
3.60148
3.61137
3.62153
3.63226
3.64368
3.65566
3.66929
3.68629
3.70502
3.7269
3.75307
3.7845
3.82179
3.86584
3.91709
3.9777
4.05138
4.14119
4.24917
4.3779
4.53314
4.72104
4.94992
5.20406
5.4121
5.57081
5.70379
5.83065
5.96213
6.10279
6.25359
6.41238
6.56405
6.68377
6.76898
6.83153
6.88254
6.92834
6.9716
7.01282
7.0506
7.0814
7.10306
7.11743
7.12767
7.13589
7.14313
7.14978
7.1559
7.1614
7.16614
7.16995
7.17264
7.17436
7.17548
7.17631
7.17701
7.17763
7.17821
7.17873
7.17919
7.1796
7.17995
7.18025
7.1805
7.18071
7.18086
7.18091
7.18095
7.18137
7.08717
7.07495
7.06052
7.04389
7.02517
7.00452
6.98209
6.95804
6.93248
6.90522
6.87523
6.84024
6.79823
6.74869
6.69226
6.63002
6.5631
6.49263
6.4197
6.34498
6.26872
6.18979
6.09956
5.98952
5.86266
5.72662
5.58777
5.4505
5.31776
5.19123
5.07173
4.95918
4.85158
4.74098
4.59913
4.43949
4.28041
4.13162
3.9966
3.87634
3.77067
3.6783
3.59771
3.52834
3.46912
3.41929
3.37736
3.34062
3.3077
3.27872
3.25438
3.2349
3.21967
3.20836
3.20104
3.19717
3.19606
3.19623
3.19604
3.19519
3.19358
3.19207
3.19159
3.19268
3.19498
3.19869
3.20365
3.21015
3.21867
3.22801
3.23731
3.24582
3.25479
3.26251
3.26909
3.27727
3.28599
3.29298
3.29988
3.30819
3.31676
3.32395
3.33011
3.33801
3.34574
3.35313
3.3608
3.36834
3.37568
3.38292
3.3897
3.39586
3.40185
3.40759
3.41286
3.4177
3.42227
3.42718
3.43156
3.43507
3.43913
3.4432
3.44644
3.45098
3.45556
3.45988
3.46545
3.47067
3.47531
3.47991
3.48668
3.49294
3.49869
3.50387
3.51171
3.519
3.52669
3.53509
3.54168
3.54828
3.55827
3.56633
3.57451
3.58346
3.59217
3.60067
3.60938
3.61785
3.62625
3.63676
3.64465
3.65331
3.66435
3.67486
3.68713
3.70158
3.71682
3.73042
3.7425
3.75527
3.77333
3.7979
3.83136
3.87439
3.92805
3.99456
4.07778
4.18204
4.3124
4.47473
4.67651
4.92653
5.20796
5.43111
5.59504
5.73187
5.86418
6.00282
6.15123
6.30861
6.46987
6.61409
6.71833
6.78869
6.84079
6.88488
6.92557
6.9642
7.00049
7.03366
7.06272
7.08614
7.10233
7.11228