/*--------------------------------*- C++ -*----------------------------------*\
| =========                 |                                                 |
| \\      /  F ield         | OpenFOAM: The Open Source CFD Toolbox           |
|  \\    /   O peration     | Version:  v1706                                 |
|   \\  /    A nd           | Web:      www.OpenFOAM.com                      |
|    \\/     M anipulation  |                                                 |
\*---------------------------------------------------------------------------*/
FoamFile
{
    version     2.0;
    format      ascii;
    class       volScalarField;
    location    "3.7e-05";
    object      Tov;
}
// * * * * * * * * * * * * * * * * * * * * * * * * * * * * * * * * * * * * * //

dimensions      [0 0 0 1 0 0 0];


internalField   nonuniform List<scalar> 
30104
(
144.4
144.4
144.4
144.4
144.4
144.4
144.4
144.4
144.4
144.4
144.4
144.4
144.4
144.4
144.4
144.4
144.4
144.4
144.4
144.4
144.4
144.4
144.4
144.4
144.4
144.4
144.4
144.4
144.4
144.4
144.4
144.4
144.4
144.4
144.4
144.4
144.4
144.4
144.4
144.4
144.4
144.4
144.4
144.4
144.4
144.4
144.4
144.4
144.4
144.4
144.4
144.4
144.4
144.4
144.4
144.4
144.4
144.4
144.4
144.4
144.4
144.4
144.4
144.4
144.4
144.4
144.4
144.4
144.4
144.4
144.4
144.4
144.4
144.4
144.4
144.4
144.4
144.4
144.4
144.4
144.4
144.4
144.4
144.4
144.4
144.4
144.4
144.4
144.4
144.4
144.4
144.4
144.4
144.4
144.4
144.4
144.4
144.4
144.4
144.4
144.4
144.4
144.4
144.4
144.4
144.4
144.4
144.4
144.4
144.4
144.4
144.4
144.4
144.4
144.4
144.4
144.4
144.4
144.4
144.4
144.4
144.4
144.4
144.4
144.4
144.4
144.4
144.4
144.4
144.4
144.4
144.4
144.4
144.4
144.4
144.4
144.4
144.4
144.4
144.4
144.4
144.4
144.4
144.4
144.4
144.4
144.4
144.4
144.4
144.4
144.4
144.4
144.4
144.4
144.4
144.4
144.4
144.4
144.4
144.4
144.4
144.4
144.4
144.4
144.4
144.4
144.4
144.4
144.4
144.4
144.4
144.4
144.4
144.4
144.4
144.4
144.4
144.4
144.4
144.4
144.4
144.4
144.4
144.4
144.4
144.4
144.4
144.4
144.4
144.4
144.4
144.4
144.4
144.4
144.4
144.4
144.4
144.4
144.4
144.4
144.4
144.4
144.4
144.4
144.4
144.4
144.4
144.4
144.4
144.4
144.4
144.4
144.4
144.4
144.4
144.4
144.4
144.4
144.4
144.4
144.4
144.4
144.4
144.4
144.4
144.4
144.4
144.4
144.4
144.4
144.4
144.4
144.4
144.4
144.4
144.4
144.4
144.4
144.4
144.4
144.4
144.4
144.4
144.4
144.4
144.4
144.4
144.4
144.4
144.4
144.4
144.4
144.4
144.4
144.4
144.4
144.4
144.4
144.4
144.4
144.4
144.4
144.4
144.4
144.4
144.4
144.4
144.4
144.4
144.4
144.4
144.4
144.4
144.4
144.4
144.4
144.4
144.4
144.4
144.4
144.4
144.4
144.4
144.4
144.4
144.4
144.4
144.4
144.4
144.4
144.4
144.4
144.4
144.4
144.4
144.4
144.4
144.4
144.4
144.4
144.4
144.4
144.4
144.4
144.4
144.4
144.4
144.4
144.4
144.4
144.4
144.4
144.4
144.4
144.4
144.4
144.4
144.4
144.4
144.4
144.4
144.4
144.4
144.4
144.4
144.4
144.4
144.4
144.4
144.4
144.4
144.4
144.4
144.4
144.4
144.4
144.4
144.4
144.4
144.4
144.4
144.4
144.4
144.4
144.4
144.4
144.4
144.4
144.4
144.4
144.4
144.4
144.4
144.4
144.4
144.4
144.4
144.4
144.4
144.4
144.4
144.4
144.4
144.4
144.4
144.4
144.4
144.4
144.4
144.4
144.4
144.4
144.4
144.4
144.4
144.4
144.4
144.4
144.4
144.4
144.4
144.4
144.4
144.4
144.4
144.4
144.4
144.4
144.4
144.4
144.4
144.4
144.4
144.4
144.4
144.4
144.4
144.4
144.4
144.4
144.4
144.4
144.4
144.4
144.4
144.4
144.4
144.4
144.4
144.4
144.4
144.4
144.4
144.4
144.4
144.4
144.4
144.4
144.4
144.4
144.4
144.4
144.4
144.4
144.4
144.4
144.4
144.4
144.4
144.4
144.4
144.4
144.4
144.4
144.4
144.4
144.4
144.4
144.4
144.4
144.4
144.4
144.4
144.4
144.4
144.4
144.4
144.4
144.4
144.4
144.4
144.4
144.4
144.4
144.4
144.4
144.4
144.4
144.4
144.4
144.4
144.4
144.4
144.4
144.4
144.4
144.4
144.4
144.4
144.4
144.4
144.4
144.4
144.4
144.4
144.4
144.4
144.4
144.4
144.4
144.4
144.4
144.4
144.4
144.4
144.4
144.4
144.4
144.4
144.4
144.4
144.4
144.4
144.4
144.4
144.4
144.4
144.4
144.4
144.4
144.4
144.4
144.4
144.4
144.4
144.4
144.4
144.4
144.4
144.4
144.4
144.4
144.4
144.4
144.4
144.4
144.4
144.4
144.4
144.4
144.4
144.4
144.4
144.4
144.4
144.4
144.4
144.4
144.4
144.4
144.4
144.4
144.4
144.4
144.4
144.4
144.4
144.4
144.4
144.4
144.4
144.4
144.4
144.4
144.4
144.4
144.4
144.4
144.4
144.4
144.4
144.4
144.4
144.4
144.4
144.4
144.4
144.4
144.4
144.4
144.4
144.4
144.4
144.4
144.4
144.4
144.4
144.4
144.4
144.4
144.4
144.4
144.4
144.4
144.4
144.4
144.4
144.4
144.4
144.4
144.4
144.4
144.4
144.4
144.4
144.4
144.4
144.4
144.4
144.4
144.4
144.4
144.4
144.4
144.4
144.4
144.4
144.4
144.4
144.4
144.4
144.4
144.4
144.4
144.4
144.4
144.4
144.4
144.4
144.4
144.4
144.4
144.4
144.4
144.4
144.4
144.4
144.4
144.4
144.4
144.4
144.4
144.4
144.4
144.4
144.4
144.4
144.4
144.4
144.4
144.4
144.4
144.4
144.4
144.4
144.4
144.4
144.4
144.4
144.4
144.4
144.4
144.4
144.4
144.4
144.4
144.4
144.4
144.4
144.4
144.4
144.4
144.4
144.4
144.4
144.4
144.4
144.4
144.4
144.4
144.4
144.4
144.4
144.4
144.4
144.4
144.4
144.4
144.4
144.4
144.4
144.4
144.4
144.4
144.4
144.4
144.4
144.4
144.4
144.4
144.4
144.4
144.4
144.4
144.4
144.4
144.4
144.4
144.4
144.4
144.4
144.4
144.4
144.4
144.4
144.4
144.4
144.4
144.4
144.4
144.4
144.4
144.4
144.4
144.4
144.4
144.4
144.4
144.4
144.4
144.4
144.4
144.4
144.4
144.4
144.4
144.4
144.4
144.4
144.4
144.4
144.4
144.4
144.4
144.4
144.4
144.4
144.4
144.4
144.4
144.4
144.4
144.4
144.4
144.4
144.4
144.4
144.4
144.4
144.4
144.4
144.4
144.4
144.4
144.4
144.4
144.4
144.4
144.4
144.4
144.4
144.4
144.4
144.4
144.4
144.4
144.4
144.4
144.4
144.4
144.4
144.4
144.4
144.4
144.4
144.4
144.4
144.4
144.4
144.4
144.4
144.4
144.4
144.4
144.4
144.4
144.4
144.4
144.4
144.4
144.4
144.4
144.4
144.4
144.4
144.4
144.4
144.4
144.4
144.4
144.4
144.4
144.4
144.4
144.4
144.4
144.4
144.4
144.4
144.4
144.4
144.4
144.4
144.4
144.4
144.4
144.4
144.4
144.4
144.4
144.4
144.4
144.4
144.4
144.4
144.4
144.4
144.4
144.4
144.4
144.4
144.4
144.4
144.4
144.4
144.4
144.4
144.4
144.4
144.4
144.4
144.4
144.4
144.4
144.4
144.4
144.4
144.4
144.4
144.4
144.4
144.4
144.4
144.4
144.4
144.4
144.4
144.4
144.4
144.4
144.4
144.4
144.4
144.4
144.4
144.4
144.4
144.4
144.4
144.4
144.4
144.4
144.4
144.4
144.4
144.4
144.4
144.4
144.4
144.4
144.4
144.4
144.4
144.4
144.4
144.4
144.4
144.4
144.4
144.4
144.4
144.4
144.4
144.4
144.4
144.4
144.4
144.4
144.4
144.4
144.4
144.4
144.4
144.4
144.4
144.4
144.4
144.4
144.4
144.4
144.4
144.4
144.4
144.4
144.4
144.4
144.4
144.4
144.4
144.4
144.4
144.4
144.4
144.4
144.4
144.4
144.4
144.4
144.4
144.4
144.4
144.4
144.4
144.4
144.4
144.4
144.4
144.4
144.4
144.4
144.4
144.4
144.4
144.4
144.4
144.4
144.4
144.4
144.4
144.4
144.4
144.4
144.4
144.4
144.4
144.4
144.4
144.4
144.4
144.4
144.4
144.4
144.4
144.4
144.4
144.4
144.4
144.4
144.4
144.4
144.4
144.4
144.4
144.4
144.4
144.4
144.4
144.4
144.4
144.4
144.4
144.4
144.4
144.4
144.4
144.4
144.4
144.4
144.4
144.4
144.4
144.4
144.4
144.4
144.4
144.4
144.4
144.4
144.4
144.4
144.4
144.4
144.4
144.4
144.4
144.4
144.4
144.4
144.4
144.4
144.4
144.4
144.4
144.4
144.4
144.4
144.4
144.4
144.4
144.4
144.4
144.4
144.4
144.4
144.4
144.4
144.4
144.4
144.4
144.4
144.4
144.4
144.4
144.4
144.4
144.4
144.4
144.4
144.4
144.4
144.4
144.4
144.4
144.4
144.4
144.4
144.4
144.4
144.4
144.4
144.4
144.4
144.4
144.4
144.4
144.4
144.4
144.4
144.4
144.4
144.4
144.4
144.4
144.4
144.4
144.4
144.4
144.4
144.4
144.4
144.4
144.4
144.4
144.4
144.4
144.4
144.4
144.4
144.4
144.4
144.4
144.4
144.4
144.4
144.4
144.4
144.4
144.4
144.4
144.4
144.4
144.4
144.4
144.4
144.4
144.4
144.4
144.4
144.4
144.4
144.4
144.4
144.4
144.4
144.4
144.4
144.4
144.4
144.4
144.4
144.4
144.4
144.4
144.4
144.4
144.4
144.4
144.4
144.4
144.4
144.4
144.4
144.4
144.4
144.4
144.4
144.4
144.4
144.4
144.4
144.4
144.4
144.4
144.4
144.4
144.4
144.4
144.4
144.4
144.4
144.4
144.4
144.4
144.4
144.4
144.4
144.4
144.4
144.4
144.4
144.4
144.4
144.4
144.4
144.4
144.4
144.4
144.4
144.4
144.4
144.4
144.4
144.4
144.4
144.4
144.4
144.4
144.4
144.4
144.4
144.4
144.4
144.4
144.4
144.4
144.4
144.4
144.4
144.4
144.4
144.4
144.4
144.4
144.4
144.4
144.4
144.4
144.4
144.4
144.4
144.4
144.4
144.4
144.4
144.4
144.4
144.4
144.4
144.4
144.4
144.4
144.4
144.4
144.4
144.4
144.4
144.4
144.4
144.4
144.4
144.4
144.4
144.4
144.4
144.4
144.4
144.4
144.4
144.4
144.4
144.4
144.4
144.4
144.4
144.4
144.4
144.4
144.4
144.4
144.4
144.4
144.4
144.4
144.4
144.4
144.4
144.4
144.4
144.4
144.4
144.4
144.4
144.4
144.4
144.4
144.4
144.4
144.4
144.4
144.4
144.4
144.4
144.4
144.4
144.4
144.4
144.4
144.4
144.4
144.4
144.4
144.4
144.4
144.4
144.4
144.4
144.4
144.4
144.4
144.4
144.4
144.4
144.4
144.4
144.4
144.4
144.4
144.4
144.4
144.4
144.4
144.4
144.4
144.4
144.4
144.4
144.4
144.4
144.4
144.4
144.4
144.4
144.4
144.4
144.4
144.4
144.4
144.4
144.4
144.4
144.4
144.4
144.4
144.4
144.4
144.4
144.4
144.4
144.4
144.4
144.4
144.4
144.4
144.4
144.4
144.4
144.4
144.4
144.4
144.4
144.4
144.4
144.4
144.4
144.4
144.4
144.4
144.4
144.4
144.4
144.4
144.4
144.4
144.4
144.4
144.4
144.4
144.4
144.4
144.4
144.4
144.4
144.4
144.4
144.4
144.4
144.4
144.4
144.4
144.4
144.4
144.4
144.4
144.4
144.4
144.4
144.4
144.4
144.4
144.4
144.4
144.4
144.4
144.4
144.4
144.4
144.4
144.4
144.4
144.4
144.4
144.4
144.4
144.4
144.4
144.4
144.4
144.4
144.4
144.4
144.4
144.4
144.4
144.4
144.4
144.4
144.4
144.4
144.4
144.4
144.4
144.4
144.4
144.4
144.4
144.4
144.4
144.4
144.4
144.4
144.4
144.4
144.4
144.4
144.4
144.4
144.4
144.4
144.4
144.4
144.4
144.4
144.4
144.4
144.4
144.4
144.4
144.4
144.4
144.4
144.4
144.4
144.4
144.4
144.4
144.4
144.4
144.4
144.4
144.4
144.4
144.4
144.4
144.4
144.4
144.4
144.4
144.4
144.4
144.4
144.4
144.4
144.4
144.4
144.4
144.4
144.4
144.4
144.4
144.4
144.4
144.4
144.4
144.4
144.4
144.4
144.4
144.4
144.4
144.4
144.4
144.4
144.4
144.4
144.4
144.4
144.4
144.4
144.4
144.4
144.4
144.4
144.4
144.4
144.4
144.4
144.4
144.4
144.4
144.4
144.4
144.4
144.4
144.4
144.4
144.4
144.4
144.4
144.4
144.4
144.4
144.4
144.4
144.4
144.4
144.4
144.4
144.4
144.4
144.4
144.4
144.4
144.4
144.4
144.4
144.4
144.4
144.4
144.4
144.4
144.4
144.4
144.4
144.4
144.4
144.4
144.4
144.4
144.4
144.4
144.4
144.4
144.4
144.4
144.4
144.4
144.4
144.4
144.4
144.4
144.4
144.4
144.4
144.4
144.4
144.4
144.4
144.4
144.4
144.4
144.4
144.4
144.4
144.4
144.4
144.4
144.4
144.4
144.4
144.4
144.4
144.4
144.4
144.4
144.4
144.4
144.4
144.4
144.401
144.401
144.401
144.401
144.401
144.401
144.401
144.401
144.401
144.401
144.401
144.401
144.401
144.401
144.401
144.401
144.401
144.401
144.401
144.401
144.401
144.401
144.401
144.401
144.401
144.401
144.401
144.401
144.401
144.401
144.401
144.401
144.401
144.401
144.401
144.401
144.401
144.4
144.4
144.4
144.4
144.4
144.4
144.4
144.4
144.4
144.4
144.4
144.4
144.4
144.4
144.4
144.4
144.4
144.4
144.4
144.4
144.4
144.4
144.4
144.4
144.4
144.4
144.4
144.4
144.4
144.4
144.4
144.4
144.4
144.4
144.4
144.4
144.4
144.4
144.4
144.4
144.4
144.4
144.4
144.4
144.4
144.4
144.4
144.4
144.4
144.4
144.4
144.4
144.4
144.4
144.4
144.4
144.4
144.4
144.4
144.4
144.4
144.4
144.4
144.4
144.4
144.4
144.4
144.4
144.4
144.4
144.4
144.4
144.4
144.4
144.4
144.4
144.4
144.4
144.4
144.4
144.4
144.4
144.4
144.4
144.4
144.4
144.4
144.4
144.4
144.4
144.4
144.4
144.4
144.4
144.4
144.4
144.4
144.4
144.4
144.4
144.4
144.4
144.4
144.4
144.4
144.4
144.4
144.4
144.4
144.4
144.4
144.4
144.4
144.4
144.4
144.4
144.4
144.4
144.4
144.4
144.4
144.4
144.4
144.4
144.4
144.4
144.4
144.4
144.4
144.4
144.4
144.4
144.4
144.4
144.4
144.4
144.4
144.4
144.4
144.4
144.4
144.4
144.4
144.4
144.4
144.4
144.4
144.4
144.4
144.4
144.4
144.4
144.401
144.401
144.401
144.401
144.401
144.401
144.401
144.401
144.401
144.402
144.402
144.402
144.402
144.402
144.403
144.403
144.403
144.403
144.403
144.404
144.404
144.404
144.404
144.405
144.405
144.405
144.405
144.406
144.406
144.406
144.406
144.406
144.406
144.406
144.406
144.406
144.406
144.406
144.405
144.405
144.405
144.405
144.405
144.405
144.405
144.405
144.405
144.404
144.404
144.404
144.404
144.404
144.404
144.404
144.403
144.403
144.403
144.403
144.403
144.403
144.402
144.402
144.402
144.402
144.402
144.402
144.402
144.401
144.401
144.401
144.401
144.401
144.401
144.401
144.401
144.401
144.401
144.4
144.4
144.4
144.4
144.4
144.4
144.4
144.4
144.4
144.4
144.4
144.4
144.4
144.4
144.4
144.4
144.4
144.4
144.4
144.4
144.4
144.4
144.4
144.4
144.4
144.4
144.4
144.4
144.4
144.4
144.4
144.4
144.4
144.4
144.4
144.4
144.4
144.4
144.4
144.4
144.4
144.4
144.4
144.4
144.4
144.4
144.4
144.4
144.4
144.4
144.4
144.4
144.4
144.4
144.4
144.4
144.4
144.4
144.4
144.4
144.4
144.4
144.4
144.4
144.4
144.4
144.4
144.4
144.4
144.4
144.4
144.4
144.4
144.4
144.4
144.4
144.4
144.4
144.4
144.4
144.4
144.4
144.4
144.4
144.4
144.4
144.4
144.4
144.4
144.4
144.4
144.4
144.4
144.4
144.4
144.4
144.4
144.4
144.4
144.4
144.4
144.4
144.4
144.4
144.4
144.4
144.4
144.4
144.4
144.4
144.4
144.4
144.4
144.4
144.4
144.401
144.401
144.401
144.401
144.401
144.401
144.401
144.401
144.401
144.402
144.402
144.402
144.402
144.403
144.403
144.403
144.404
144.404
144.405
144.405
144.406
144.407
144.408
144.409
144.411
144.412
144.413
144.415
144.416
144.417
144.418
144.419
144.421
144.422
144.423
144.425
144.427
144.429
144.431
144.432
144.434
144.436
144.437
144.438
144.438
144.439
144.439
144.439
144.438
144.438
144.438
144.437
144.436
144.436
144.435
144.435
144.434
144.433
144.432
144.432
144.431
144.43
144.429
144.429
144.428
144.427
144.426
144.425
144.424
144.423
144.422
144.421
144.42
144.419
144.418
144.417
144.415
144.414
144.413
144.412
144.411
144.41
144.409
144.409
144.408
144.407
144.407
144.406
144.405
144.405
144.404
144.404
144.403
144.403
144.403
144.402
144.402
144.402
144.401
144.401
144.401
144.401
144.401
144.401
144.4
144.4
144.4
144.4
144.4
144.4
144.4
144.4
144.4
144.4
144.4
144.4
144.4
144.4
144.4
144.4
144.4
144.4
144.4
144.4
144.4
144.4
144.4
144.4
144.4
144.4
144.4
144.4
144.4
144.4
144.4
144.4
144.4
144.4
144.4
144.4
144.4
144.4
144.4
144.4
144.4
144.4
144.4
144.4
144.4
144.4
144.4
144.4
144.4
144.4
144.4
144.4
144.4
144.4
144.4
144.4
144.4
144.4
144.4
144.4
144.4
144.4
144.4
144.4
144.4
144.4
144.4
144.4
144.4
144.4
144.4
144.4
144.4
144.4
144.4
144.4
144.4
144.4
144.4
144.4
144.4
144.4
144.4
144.4
144.4
144.4
144.4
144.4
144.4
144.401
144.401
144.401
144.401
144.401
144.401
144.401
144.401
144.401
144.402
144.402
144.402
144.402
144.403
144.403
144.403
144.404
144.405
144.405
144.406
144.406
144.407
144.408
144.409
144.411
144.413
144.415
144.417
144.419
144.422
144.424
144.427
144.43
144.435
144.439
144.445
144.452
144.46
144.468
144.477
144.485
144.493
144.502
144.509
144.516
144.523
144.53
144.538
144.548
144.559
144.571
144.584
144.597
144.609
144.62
144.629
144.637
144.642
144.646
144.649
144.65
144.649
144.648
144.646
144.643
144.64
144.637
144.633
144.629
144.625
144.62
144.616
144.611
144.606
144.602
144.597
144.592
144.587
144.582
144.577
144.571
144.565
144.559
144.552
144.546
144.539
144.532
144.524
144.516
144.508
144.5
144.493
144.485
144.478
144.472
144.467
144.461
144.457
144.452
144.448
144.444
144.44
144.437
144.433
144.43
144.427
144.423
144.42
144.417
144.415
144.412
144.41
144.409
144.407
144.406
144.405
144.404
144.404
144.403
144.402
144.402
144.402
144.401
144.401
144.401
144.401
144.401
144.4
144.4
144.4
144.4
144.4
144.4
144.4
144.4
144.4
144.4
144.4
144.4
144.4
144.4
144.4
144.4
144.4
144.4
144.4
144.4
144.4
144.4
144.4
144.4
144.4
144.4
144.4
144.4
144.4
144.4
144.4
144.4
144.4
144.4
144.4
144.4
144.4
144.4
144.4
144.4
144.4
144.4
144.4
144.4
144.4
144.4
144.4
144.4
144.4
144.4
144.4
144.4
144.4
144.4
144.4
144.4
144.4
144.4
144.4
144.4
144.4
144.4
144.4
144.4
144.401
144.401
144.401
144.401
144.401
144.401
144.401
144.401
144.401
144.402
144.402
144.402
144.402
144.402
144.403
144.403
144.404
144.404
144.405
144.405
144.406
144.407
144.408
144.408
144.409
144.411
144.412
144.414
144.416
144.418
144.421
144.424
144.427
144.431
144.434
144.439
144.444
144.45
144.457
144.466
144.477
144.489
144.502
144.516
144.532
144.548
144.566
144.586
144.612
144.643
144.682
144.726
144.775
144.827
144.88
144.934
144.986
145.036
145.084
145.129
145.171
145.214
145.263
145.322
145.393
145.473
145.555
145.636
145.711
145.778
145.835
145.882
145.918
145.944
145.959
145.965
145.963
145.956
145.944
145.928
145.909
145.888
145.865
145.841
145.815
145.789
145.762
145.735
145.707
145.679
145.649
145.62
145.589
145.557
145.524
145.489
145.452
145.413
145.372
145.329
145.285
145.238
145.19
145.14
145.089
145.038
144.99
144.945
144.904
144.867
144.833
144.803
144.774
144.747
144.721
144.696
144.672
144.648
144.625
144.602
144.579
144.557
144.535
144.515
144.496
144.481
144.468
144.457
144.448
144.441
144.435
144.43
144.425
144.421
144.417
144.413
144.411
144.409
144.407
144.406
144.405
144.404
144.403
144.402
144.402
144.401
144.401
144.401
144.401
144.401
144.4
144.4
144.4
144.4
144.4
144.4
144.4
144.4
144.4
144.4
144.4
144.4
144.4
144.4
144.4
144.4
144.4
144.4
144.4
144.4
144.4
144.4
144.4
144.4
144.4
144.4
144.4
144.4
144.4
144.4
144.4
144.4
144.4
144.4
144.4
144.4
144.4
144.4
144.4
144.4
144.4
144.4
144.4
144.4
144.401
144.401
144.401
144.401
144.402
144.402
144.402
144.402
144.402
144.403
144.403
144.403
144.404
144.404
144.405
144.405
144.406
144.407
144.408
144.409
144.41
144.411
144.412
144.414
144.416
144.418
144.42
144.423
144.426
144.43
144.434
144.439
144.443
144.449
144.455
144.462
144.47
144.481
144.493
144.507
144.522
144.54
144.559
144.579
144.601
144.626
144.655
144.692
144.738
144.794
144.86
144.933
145.015
145.101
145.193
145.29
145.394
145.518
145.673
145.869
146.106
146.379
146.679
146.995
147.318
147.639
147.952
148.253
148.537
148.803
149.053
149.303
149.59
149.953
150.399
150.897
151.407
151.899
152.351
152.751
153.092
153.371
153.587
153.741
153.835
153.872
153.865
153.825
153.758
153.671
153.566
153.447
153.317
153.18
153.038
152.89
152.737
152.581
152.422
152.258
152.089
151.914
151.734
151.545
151.347
151.136
150.912
150.676
150.426
150.164
149.887
149.598
149.295
148.979
148.658
148.347
148.056
147.794
147.56
147.35
147.159
146.983
146.815
146.653
146.493
146.336
146.18
146.024
145.87
145.717
145.566
145.417
145.273
145.137
145.016
144.916
144.835
144.772
144.72
144.676
144.637
144.602
144.57
144.54
144.513
144.49
144.471
144.457
144.446
144.438
144.431
144.425
144.42
144.416
144.412
144.41
144.408
144.406
144.405
144.404
144.403
144.402
144.402
144.401
144.401
144.401
144.401
144.401
144.4
144.4
144.4
144.4
144.4
144.4
144.4
144.4
144.4
144.4
144.4
144.4
144.4
144.4
144.4
144.4
144.4
144.4
144.4
144.4
144.4
144.4
144.4
144.4
144.4
144.4
144.4
144.4
144.4
144.4
144.4
144.4
144.4
144.4
144.4
144.405
144.406
144.406
144.407
144.408
144.409
144.41
144.411
144.413
144.414
144.416
144.418
144.42
144.422
144.425
144.429
144.432
144.437
144.442
144.448
144.454
144.46
144.468
144.476
144.486
144.498
144.512
144.528
144.547
144.568
144.591
144.616
144.644
144.674
144.707
144.748
144.798
144.858
144.929
145.012
145.104
145.205
145.314
145.43
145.555
145.697
145.868
146.085
146.358
146.689
147.074
147.507
147.979
148.481
149.008
149.556
150.146
150.847
151.756
152.924
154.335
155.933
157.651
159.43
161.215
162.966
164.651
166.25
167.751
169.146
170.438
171.693
173.116
174.998
177.329
179.87
182.397
184.782
186.942
188.819
190.401
191.692
192.692
193.4
193.833
193.992
193.966
193.793
193.508
193.128
192.663
192.133
191.553
190.94
190.302
189.636
188.946
188.242
187.521
186.768
185.977
185.154
184.294
183.387
182.423
181.388
180.275
179.086
177.821
176.473
175.04
173.52
171.919
170.231
168.546
166.971
165.554
164.293
163.161
162.127
161.159
160.23
159.318
158.407
157.487
156.555
155.612
154.658
153.696
152.731
151.772
150.82
149.884
149.001
148.235
147.62
147.144
146.769
146.461
146.194
145.952
145.725
145.511
145.309
145.127
144.976
144.859
144.773
144.707
144.655
144.611
144.572
144.538
144.507
144.483
144.464
144.451
144.441
144.434
144.427
144.422
144.417
144.413
144.41
144.408
144.406
144.405
144.404
144.404
144.403
144.402
144.402
144.401
144.401
144.401
144.401
144.401
144.401
144.401
144.401
144.401
144.4
144.4
144.4
144.4
144.4
144.4
144.4
144.4
144.4
144.4
144.4
144.4
144.4
144.4
144.4
144.4
144.4
144.4
144.4
144.4
144.427
144.43
144.433
144.437
144.442
144.447
144.453
144.46
144.467
144.475
144.484
144.494
144.506
144.519
144.534
144.553
144.574
144.598
144.626
144.656
144.689
144.725
144.764
144.81
144.864
144.93
145.009
145.102
145.208
145.326
145.455
145.594
145.744
145.906
146.093
146.319
146.599
146.941
147.344
147.805
148.319
148.878
149.475
150.109
150.785
151.544
152.485
153.708
155.254
157.109
159.229
161.56
164.049
166.648
169.32
172.043
174.889
178.238
182.693
188.368
194.986
202.154
209.526
216.845
223.925
230.637
236.904
242.704
248.034
252.883
257.274
261.357
265.766
272.353
280.637
289.137
297.051
304.191
310.435
315.654
319.948
323.404
326.046
327.89
329.001
329.376
329.288
328.884
328.177
327.224
326.021
324.675
323.194
321.623
319.986
318.26
316.442
314.585
312.682
310.655
308.46
306.131
303.667
301.014
298.148
295.016
291.577
287.832
283.768
279.343
274.521
269.258
263.616
257.464
251.64
246.534
242.072
238.083
234.393
230.866
227.391
223.878
220.25
216.459
212.483
208.321
203.989
199.488
194.817
190.022
185.14
180.172
175.138
170.327
166.296
163.184
160.795
158.866
157.196
155.669
154.221
152.821
151.461
150.155
148.974
148.014
147.3
146.781
146.389
146.07
145.792
145.537
145.304
145.102
144.941
144.824
144.741
144.68
144.631
144.589
144.551
144.518
144.491
144.47
144.455
144.445
144.437
144.431
144.426
144.421
144.417
144.414
144.411
144.409
144.407
144.407
144.406
144.405
144.405
144.404
144.404
144.404
144.403
144.403
144.403
144.403
144.403
144.402
144.402
144.402
144.402
144.4
144.4
144.4
144.4
144.4
144.4
144.4
144.4
144.4
144.55
144.568
144.589
144.613
144.641
144.673
144.708
144.746
144.789
144.835
144.886
144.945
145.015
145.098
145.197
145.312
145.444
145.59
145.751
145.925
146.113
146.321
146.562
146.854
147.21
147.637
148.136
148.702
149.327
150.007
150.734
151.507
152.342
153.302
154.496
155.999
157.826
159.951
162.333
164.925
167.685
170.578
173.584
176.715
180.144
184.433
190.048
196.97
204.922
213.586
222.669
231.927
241.188
250.325
259.258
268.093
277.998
292.443
310.181
329.016
347.487
364.794
380.562
394.653
407.047
417.822
427.197
435.428
442.578
448.631
453.746
458.153
461.781
464.578
466.589
468.072
469.271
470.092
470.19
470.057
469.822
469.399
468.746
467.901
466.902
465.845
464.792
463.749
462.729
461.774
460.774
459.777
458.841
457.886
456.954
456.093
455.292
454.488
453.615
452.686
451.735
450.718
449.645
448.513
447.248
445.86
444.4
442.866
441.177
439.326
437.328
435.166
432.705
429.887
426.786
423.361
419.524
415.21
410.385
405.072
399.205
392.659
385.371
377.236
368.124
358.137
347.148
334.856
321.507
307.184
291.577
274.495
257.085
243.295
232.948
224.769
217.64
210.889
204.205
197.468
190.617
183.668
176.717
170.302
165.243
161.596
158.933
156.823
154.992
153.301
151.697
150.189
148.865
147.842
147.123
146.623
146.248
145.939
145.665
145.415
145.19
145.005
144.868
144.775
144.71
144.662
144.621
144.585
144.552
144.523
144.498
144.478
144.463
144.454
144.448
144.443
144.44
144.436
144.434
144.431
144.428
144.426
144.424
144.423
144.422
144.42
144.42
144.419
144.419
144.417
144.4
144.401
145.143
145.234
145.342
145.467
145.611
145.773
145.952
146.148
146.361
146.591
146.848
147.147
147.505
147.937
148.448
149.039
149.707
150.445
151.249
152.114
153.041
154.058
155.248
156.717
158.529
160.686
163.157
165.898
168.86
172.002
175.289
178.706
182.304
186.384
191.528
197.924
205.419
213.74
222.627
231.856
241.251
250.693
260.108
269.497
279.177
291.601
308.336
327.586
347.614
367.365
386.162
403.572
419.453
433.823
446.531
457.591
467.302
475.64
482.855
489.092
494.382
498.714
502.089
504.53
506.197
507.079
507.102
506.882
506.393
505.706
505.012
504.429
503.906
503.389
502.846
502.169
501.372
500.48
499.471
498.307
497.126
495.944
494.734
493.514
492.29
491.076
489.929
488.808
487.697
486.653
485.647
484.674
483.738
482.903
482.049
481.134
480.257
479.454
478.67
477.888
477.097
476.297
475.518
474.701
473.895
473.109
472.284
471.388
470.487
469.599
468.666
467.612
466.512
465.483
464.425
463.284
462.087
460.771
459.358
457.87
456.278
454.639
452.974
451.199
449.353
447.32
444.876
442.21
439.171
435.386
431.029
426.06
420.198
413.323
405.344
396.023
385.101
372.386
357.94
341.71
323.305
302.718
279.99
257.13
239.767
227.368
217.79
209.412
201.374
193.339
185.254
177.262
170.045
164.61
160.895
158.265
156.182
154.35
152.644
151.034
149.559
148.338
147.466
146.889
146.491
146.182
145.916
145.675
145.453
145.254
145.082
144.944
144.846
144.784
144.744
144.714
144.69
144.668
144.647
144.629
144.612
144.598
144.585
144.575
144.565
144.558
144.552
144.55
144.548
144.533
147.98
148.428
148.958
149.573
150.273
151.055
151.913
152.843
153.844
154.922
156.116
157.522
159.237
161.308
163.735
166.488
169.527
172.809
176.295
179.956
183.788
187.89
192.666
198.585
205.713
213.851
222.73
232.103
241.763
251.55
261.35
271.113
280.9
291.493
305.838
323.145
341.769
360.545
378.792
396.084
412.137
426.906
440.415
452.525
463.34
472.894
481.146
488.388
494.928
500.805
505.853
509.989
513.307
515.844
517.574
518.647
519.181
519.243
519.282
519.461
519.777
520.121
520.363
520.366
520.266
519.956
519.369
518.512
517.425
516.229
514.993
513.634
512.402
511.328
510.151
508.884
507.804
506.81
505.689
504.412
503.245
502.138
500.939
499.703
498.51
497.315
496.152
495.041
493.911
492.783
491.716
490.692
489.694
488.766
487.865
486.959
486.049
485.185
484.403
483.624
482.841
482.113
481.321
480.496
479.727
478.919
478.132
477.364
476.607
475.692
474.782
473.899
473.057
472.027
471
470.011
469.002
468.056
467.13
465.944
464.841
463.825
462.715
461.525
460.339
459.126
457.967
456.76
455.424
454.246
453.046
451.68
450.356
448.985
447.382
445.461
443.197
440.878
438.505
435.794
432.685
428.807
423.472
416.646
408.215
397.875
385.291
370.187
352.335
331.773
308.645
283.086
257.367
238.574
225.758
216.015
207.426
199.103
190.782
182.504
174.537
167.782
163.098
160.051
157.872
156.078
154.454
152.929
151.505
150.208
149.066
148.129
147.467
147.06
146.804
146.614
146.453
146.307
146.172
146.049
145.94
145.844
145.762
145.691
145.631
145.581
145.547
145.537
145.53
145.43
160.654
162.684
165.071
167.801
170.842
174.158
177.713
181.474
185.421
189.569
194.065
199.363
205.785
213.307
221.738
230.848
240.431
250.303
260.321
270.387
280.478
290.73
302.608
317.912
335.432
353.761
371.958
389.47
405.96
421.221
435.211
447.906
459.258
469.327
477.947
485.421
491.981
497.771
502.918
507.413
511.237
514.45
517.018
518.935
520.32
521.236
521.887
522.537
523.224
523.93
524.745
525.58
526.3
526.834
527.157
527.177
527.048
526.701
526.208
525.705
525.295
524.889
524.497
524.084
523.633
523.116
522.496
521.731
520.81
519.874
518.816
517.599
516.43
515.334
514.059
512.679
511.533
510.526
509.399
508.145
507.035
506.022
504.914
503.741
502.62
501.494
500.36
499.281
498.183
497.04
495.939
494.895
493.87
492.871
491.926
490.989
490.047
489.134
488.314
487.495
486.683
485.941
485.119
484.274
483.481
482.63
481.812
481.036
480.283
479.348
478.411
477.53
476.713
475.676
474.63
473.622
472.589
471.65
470.731
469.522
468.364
467.294
466.087
464.751
463.496
462.361
461.198
459.941
458.785
457.756
456.806
455.878
454.96
454.081
453.213
452.311
451.525
450.596
449.535
448.348
447.135
445.951
445.154
444.466
443.55
442.322
441.037
439.617
437.829
435.308
431.464
425.997
418.911
409.841
398.434
384.551
368.151
349.019
327.243
303.04
276.814
252.051
235.487
224.573
216.076
208.367
200.857
193.435
186.217
179.397
173.17
167.839
164.024
161.752
160.315
159.22
158.264
157.382
156.564
155.818
155.151
154.566
154.065
153.638
153.272
152.97
152.785
152.755
152.757
152.196
223.068
231.701
240.877
250.431
260.22
270.132
280.095
290.126
300.466
313.015
328.33
345.235
362.63
379.813
396.367
411.995
426.523
439.93
452.156
463.17
472.929
481.319
488.611
495.009
500.588
505.419
509.578
513.131
516.133
518.579
520.455
521.79
522.739
523.471
524.089
524.715
525.361
525.977
526.634
527.305
527.881
528.37
528.735
528.836
528.822
528.82
528.831
528.894
529.048
529.204
529.4
529.584
529.616
529.559
529.386
529.075
528.646
528.161
527.676
527.192
526.693
526.173
525.634
525.077
524.473
523.772
523.014
522.257
521.343
520.232
519.175
518.143
516.894
515.483
514.338
513.335
512.207
510.947
509.865
508.913
507.855
506.728
505.689
504.658
503.588
502.552
501.521
500.405
499.282
498.246
497.234
496.208
495.211
494.249
493.292
492.356
491.483
490.629
489.799
489.028
488.197
487.366
486.561
485.673
484.813
484.006
483.233
482.282
481.33
480.439
479.624
478.601
477.535
476.507
475.46
474.519
473.606
472.46
471.308
470.251
469.006
467.6
466.336
465.192
463.94
462.576
461.364
460.257
459.258
458.331
457.438
456.608
455.847
455.081
454.292
453.401
452.424
451.522
450.587
449.789
449.195
448.791
448.45
448.379
448.219
447.781
447.204
446.851
446.698
446.596
446.402
446.188
445.988
445.666
444.885
443.345
440.73
436.414
430.405
423.073
414.047
402.979
389.791
374.7
357.822
339.27
319.452
298.889
278.269
258.667
243.343
234.772
229.304
224.9
220.898
217.123
213.561
210.267
207.293
204.668
202.423
200.515
198.877
197.549
196.924
196.966
197.249
195.313
357.718
373.806
389.534
404.607
418.832
432.096
444.388
455.658
465.902
474.969
482.882
489.811
495.914
501.317
506.009
510.018
513.496
516.487
518.95
520.918
522.439
523.631
524.629
525.506
526.328
527.096
527.738
528.289
528.794
529.243
529.632
529.909
529.954
529.922
529.893
529.905
529.945
530.035
530.221
530.438
530.641
530.873
531.066
531.127
531.123
531.098
531.038
530.999
531.009
531.034
531.079
531.119
531.107
531.048
530.908
530.667
530.323
529.907
529.454
528.967
528.443
527.882
527.302
526.714
526.087
525.393
524.711
524.034
523.226
522.217
521.32
520.422
519.29
517.965
516.875
515.903
514.797
513.554
512.509
511.608
510.58
509.526
508.588
507.682
506.711
505.712
504.759
503.729
502.625
501.578
500.602
499.602
498.576
497.571
496.58
495.614
494.691
493.787
492.903
492.059
491.211
490.381
489.569
488.644
487.727
486.867
486.054
485.079
484.11
483.193
482.378
481.384
480.292
479.238
478.18
477.195
476.278
475.236
474.112
473.082
471.834
470.451
469.179