/*--------------------------------*- C++ -*----------------------------------*\
| =========                 |                                                 |
| \\      /  F ield         | OpenFOAM: The Open Source CFD Toolbox           |
|  \\    /   O peration     | Version:  v1706                                 |
|   \\  /    A nd           | Web:      www.OpenFOAM.com                      |
|    \\/     M anipulation  |                                                 |
\*---------------------------------------------------------------------------*/
FoamFile
{
    version     2.0;
    format      ascii;
    class       volVectorField;
    location    "1.6e-05";
    object      U;
}
// * * * * * * * * * * * * * * * * * * * * * * * * * * * * * * * * * * * * * //

dimensions      [0 1 -1 0 0 0 0];


internalField   nonuniform List<vector> 
29987
(
(2764.5 -2.08821e-08 4.07987e-11)
(2764.5 -6.56044e-09 1.19968e-11)
(2764.5 -3.1619e-09 5.81062e-12)
(2764.5 -1.9567e-09 3.46672e-12)
(2764.5 -1.33638e-09 2.32582e-12)
(2764.5 -9.65694e-10 1.6841e-12)
(2764.5 -7.28195e-10 1.27808e-12)
(2764.5 -5.71866e-10 1.01415e-12)
(2764.5 -4.62278e-10 8.09591e-13)
(2764.5 -3.80971e-10 6.90936e-13)
(2764.5 -3.2185e-10 5.18577e-13)
(2764.5 -2.73135e-10 4.53113e-13)
(2764.5 -2.36656e-10 4.23105e-13)
(2764.5 -2.06102e-10 3.5091e-13)
(2764.5 -1.80377e-10 3.09766e-13)
(2764.5 -1.67783e-10 2.61135e-13)
(2764.5 -1.46946e-10 2.18614e-13)
(2764.5 -1.31885e-10 1.92979e-13)
(2764.5 -1.19329e-10 1.8414e-13)
(2764.5 -1.10856e-10 1.72821e-13)
(2764.5 -9.97334e-11 1.64397e-13)
(2764.5 -9.73045e-11 1.38042e-13)
(2764.5 -8.83305e-11 1.32246e-13)
(2764.5 -8.12883e-11 1.12663e-13)
(2764.5 -7.55253e-11 1.14686e-13)
(2764.5 -7.39517e-11 1.13206e-13)
(2764.5 -6.56557e-11 9.17936e-14)
(2764.5 -6.73579e-11 8.34912e-14)
(2764.5 -6.1249e-11 8.86806e-14)
(2764.5 -5.46661e-11 7.9405e-14)
(2764.5 -5.58111e-11 8.56309e-14)
(2764.5 -5.29311e-11 7.341e-14)
(2764.5 -4.8287e-11 6.78845e-14)
(2764.5 -4.93515e-11 6.25234e-14)
(2764.5 -4.53909e-11 6.28609e-14)
(2764.5 -4.77804e-11 5.7668e-14)
(2764.5 -4.37493e-11 5.52742e-14)
(2764.5 -4.02938e-11 4.29208e-14)
(2764.5 -4.11132e-11 4.12143e-14)
(2764.5 -4.03946e-11 4.80816e-14)
(2764.5 -3.83183e-11 3.72753e-14)
(2764.5 -3.55027e-11 3.95996e-14)
(2764.5 -3.78196e-11 4.48063e-14)
(2764.5 -3.47824e-11 3.80145e-14)
(2764.5 -3.48148e-11 3.72678e-14)
(2764.5 -3.22437e-11 3.21351e-14)
(2764.5 -3.25108e-11 4.25765e-14)
(2764.5 -3.42513e-11 3.18169e-14)
(2764.5 -3.10606e-11 2.90963e-14)
(2764.5 -3.25007e-11 3.35366e-14)
(2764.5 -3.11407e-11 3.24108e-14)
(2764.5 -3.07185e-11 2.94264e-14)
(2764.5 -2.8897e-11 2.85777e-14)
(2764.5 -2.93181e-11 2.7196e-14)
(2764.5 -2.99476e-11 2.72853e-14)
(2764.5 -2.56696e-11 2.18765e-14)
(2764.5 -2.80955e-11 2.1375e-14)
(2764.5 -2.82321e-11 2.01105e-14)
(2764.5 -3.1793e-11 2.21651e-14)
(2764.5 -3.12647e-11 2.56976e-14)
(2764.5 -2.7229e-11 2.59939e-14)
(2764.5 -2.40037e-11 1.3903e-14)
(2764.5 -2.51839e-11 1.85046e-14)
(2764.5 -2.43387e-11 2.15313e-14)
(2764.5 -2.52075e-11 1.70643e-14)
(2764.5 -2.65561e-11 1.48296e-14)
(2764.5 -2.56543e-11 1.50448e-14)
(2764.5 -2.42274e-11 1.99641e-14)
(2764.5 -2.56437e-11 1.87047e-14)
(2764.5 -2.69478e-11 1.61901e-14)
(2764.5 -2.66827e-11 1.34721e-14)
(2764.5 -2.39456e-11 1.5913e-14)
(2764.5 -2.51176e-11 1.54263e-14)
(2764.5 -2.34537e-11 1.49397e-14)
(2764.5 -2.24209e-11 1.7607e-14)
(2764.5 -2.4439e-11 1.55471e-14)
(2764.5 -2.46341e-11 1.46363e-14)
(2764.5 -2.60919e-11 1.731e-14)
(2764.5 -2.56091e-11 9.50756e-15)
(2764.5 -2.34544e-11 7.06365e-15)
(2764.5 -2.44626e-11 1.17785e-14)
(2764.5 -2.53119e-11 1.15983e-14)
(2764.5 -2.54273e-11 8.33681e-15)
(2764.5 -2.43102e-11 1.07472e-14)
(2764.5 -2.42939e-11 1.15049e-14)
(2764.5 -2.36434e-11 1.00382e-14)
(2764.5 -2.50056e-11 9.86377e-15)
(2764.5 -2.59245e-11 9.75219e-15)
(2764.5 -2.35708e-11 1.25025e-14)
(2764.5 -2.47269e-11 8.77424e-15)
(2764.5 -2.53369e-11 6.2306e-15)
(2764.5 -2.41261e-11 6.10999e-15)
(2764.5 -2.21192e-11 1.07488e-14)
(2764.5 -2.3326e-11 1.3086e-14)
(2764.5 -2.38934e-11 1.30603e-14)
(2764.5 -2.41723e-11 1.29248e-14)
(2764.5 -2.29776e-11 7.55059e-15)
(2764.5 -2.21388e-11 1.11934e-14)
(2764.5 -2.19497e-11 1.28029e-14)
(2764.5 -2.20707e-11 8.94518e-15)
(2764.5 -2.40617e-11 7.44075e-15)
(2764.5 -2.51165e-11 1.33812e-14)
(2764.5 -2.46234e-11 1.29882e-14)
(2764.5 -2.42061e-11 9.67467e-15)
(2764.5 -2.37925e-11 1.00435e-14)
(2764.5 -2.50018e-11 8.61678e-15)
(2764.5 -2.59105e-11 7.26083e-15)
(2764.5 -2.66643e-11 6.54628e-15)
(2764.5 -2.64981e-11 8.63847e-15)
(2764.5 -2.5207e-11 6.54243e-15)
(2764.5 -2.56052e-11 6.71133e-15)
(2764.5 -2.47036e-11 7.04429e-15)
(2764.5 -2.401e-11 8.62834e-15)
(2764.5 -2.36346e-11 7.32525e-15)
(2764.5 -2.45254e-11 9.05709e-15)
(2764.5 -2.41113e-11 7.11607e-15)
(2764.5 -2.52273e-11 8.9915e-15)
(2764.5 -2.37432e-11 1.20175e-14)
(2764.5 -2.27923e-11 1.16235e-14)
(2764.5 -2.64139e-11 6.51827e-15)
(2764.5 -2.83185e-11 5.5953e-15)
(2764.5 -2.99154e-11 9.2694e-15)
(2764.5 -2.95279e-11 7.07279e-15)
(2764.5 -3.02324e-11 8.71839e-15)
(2764.5 -3.01086e-11 9.28763e-15)
(2764.5 -2.95497e-11 8.63392e-15)
(2764.5 -2.95206e-11 1.10711e-14)
(2764.5 -3.09814e-11 6.91457e-15)
(2764.5 -3.13238e-11 7.94755e-15)
(2764.5 -3.17058e-11 4.98612e-15)
(2764.5 -2.98146e-11 1.16683e-14)
(2764.5 -2.88491e-11 1.41382e-14)
(2764.5 -3.11031e-11 6.0537e-15)
(2764.5 -3.1354e-11 4.31987e-15)
(2764.5 -3.16313e-11 7.07573e-15)
(2764.5 -2.48251e-11 4.52418e-15)
(2764.5 -2.03845e-11 8.24779e-15)
(2764.5 -2.03889e-11 7.86841e-15)
(2764.5 -2.41505e-11 6.00314e-15)
(2764.5 -2.45108e-11 8.8151e-15)
(2764.5 -2.97869e-11 1.84784e-15)
(2764.5 -3.27322e-11 5.30191e-16)
(2764.5 -3.52199e-11 1.23166e-14)
(2764.5 -3.69503e-11 2.09613e-15)
(2764.5 -3.44058e-11 6.95205e-15)
(2764.5 -3.11215e-11 9.16335e-15)
(2764.5 -2.98672e-11 9.30894e-15)
(2764.5 -2.98726e-11 9.09496e-15)
(2764.5 -3.6127e-11 6.11954e-15)
(2764.5 -3.76581e-11 6.38193e-15)
(2764.5 -3.74746e-11 4.7467e-15)
(2764.5 -3.66331e-11 2.95723e-15)
(2764.5 -3.86723e-11 4.38362e-15)
(2764.5 -4.00446e-11 1.10311e-14)
(2764.5 -3.93685e-11 5.41447e-15)
(2764.5 -4.15735e-11 8.69448e-15)
(2764.5 -6.6964e-08 1.17788e-10)
(2764.5 -2.47822e-08 4.14917e-11)
(2764.5 -1.13517e-08 1.8799e-11)
(2764.5 -6.60971e-09 1.11173e-11)
(2764.5 -4.38828e-09 7.3875e-12)
(2764.5 -3.14425e-09 5.30614e-12)
(2764.5 -2.37702e-09 3.97882e-12)
(2764.5 -1.85515e-09 3.08888e-12)
(2764.5 -1.49278e-09 2.50066e-12)
(2764.5 -1.23139e-09 2.03327e-12)
(2764.5 -1.03566e-09 1.6046e-12)
(2764.5 -8.78037e-10 1.41705e-12)
(2764.5 -7.51039e-10 1.19955e-12)
(2764.5 -6.60626e-10 1.04852e-12)
(2764.5 -5.85278e-10 8.88758e-13)
(2764.5 -5.27542e-10 8.25636e-13)
(2764.5 -4.7141e-10 7.02965e-13)
(2764.5 -4.24994e-10 6.31108e-13)
(2764.5 -3.86781e-10 5.87654e-13)
(2764.5 -3.59095e-10 5.2336e-13)
(2764.5 -3.23681e-10 4.83636e-13)
(2764.5 -3.01051e-10 4.14816e-13)
(2764.5 -2.81693e-10 3.95762e-13)
(2764.5 -2.59011e-10 3.50792e-13)
(2764.5 -2.38855e-10 3.40654e-13)
(2764.5 -2.32234e-10 3.32423e-13)
(2764.5 -2.11845e-10 2.96062e-13)
(2764.5 -2.06722e-10 2.68027e-13)
(2764.5 -1.92358e-10 2.67907e-13)
(2764.5 -1.81239e-10 2.50409e-13)
(2764.5 -1.76487e-10 2.18713e-13)
(2764.5 -1.67655e-10 2.18407e-13)
(2764.5 -1.56793e-10 1.81044e-13)
(2764.5 -1.53363e-10 1.65969e-13)
(2764.5 -1.44968e-10 1.7238e-13)
(2764.5 -1.43534e-10 1.73807e-13)
(2764.5 -1.35802e-10 1.56863e-13)
(2764.5 -1.23805e-10 1.48844e-13)
(2764.5 -1.26362e-10 1.40312e-13)
(2764.5 -1.30817e-10 1.2861e-13)
(2764.5 -1.20418e-10 1.11337e-13)
(2764.5 -1.11849e-10 1.1762e-13)
(2764.5 -1.12428e-10 1.24497e-13)
(2764.5 -1.12525e-10 1.09084e-13)
(2764.5 -1.07615e-10 8.93887e-14)
(2764.5 -9.99066e-11 1.06672e-13)
(2764.5 -1.03226e-10 1.07346e-13)
(2764.5 -1.02249e-10 8.88688e-14)
(2764.5 -9.739e-11 9.08242e-14)
(2764.5 -9.41289e-11 9.40046e-14)
(2764.5 -9.71402e-11 9.38363e-14)
(2764.5 -9.63823e-11 8.04633e-14)
(2764.5 -8.87782e-11 8.10441e-14)
(2764.5 -8.84243e-11 6.15365e-14)
(2764.5 -9.052e-11 6.70215e-14)
(2764.5 -8.01755e-11 6.6507e-14)
(2764.5 -8.28319e-11 6.60404e-14)
(2764.5 -7.92238e-11 6.36566e-14)
(2764.5 -8.16203e-11 7.17546e-14)
(2764.5 -8.92181e-11 7.10086e-14)
(2764.5 -9.00576e-11 6.19603e-14)
(2764.5 -8.03019e-11 4.3831e-14)
(2764.5 -8.38165e-11 6.17546e-14)
(2764.5 -7.80419e-11 5.85361e-14)
(2764.5 -7.52989e-11 5.24973e-14)
(2764.5 -7.67919e-11 5.35917e-14)
(2764.5 -7.63438e-11 4.54861e-14)
(2764.5 -7.53166e-11 5.2742e-14)
(2764.5 -7.49247e-11 5.27795e-14)
(2764.5 -7.284e-11 4.71109e-14)
(2764.5 -7.88893e-11 4.82321e-14)
(2764.5 -7.61371e-11 5.04717e-14)
(2764.5 -7.92863e-11 4.42432e-14)
(2764.5 -7.55859e-11 4.27851e-14)
(2764.5 -6.86877e-11 4.56944e-14)
(2764.5 -7.20395e-11 4.92426e-14)
(2764.5 -6.71854e-11 4.34941e-14)
(2764.5 -6.7262e-11 4.50504e-14)
(2764.5 -7.57786e-11 2.89426e-14)
(2764.5 -7.34726e-11 2.88299e-14)
(2764.5 -6.95158e-11 3.44555e-14)
(2764.5 -7.11279e-11 3.35344e-14)
(2764.5 -7.54741e-11 3.03337e-14)
(2764.5 -7.15838e-11 3.64386e-14)
(2764.5 -7.35215e-11 4.3006e-14)
(2764.5 -6.99765e-11 4.07198e-14)
(2764.5 -6.8193e-11 3.42609e-14)
(2764.5 -7.29354e-11 3.78401e-14)
(2764.5 -7.08377e-11 3.48456e-14)
(2764.5 -6.89087e-11 2.69285e-14)
(2764.5 -7.25135e-11 3.11398e-14)
(2764.5 -7.70904e-11 2.67835e-14)
(2764.5 -7.37333e-11 3.49311e-14)
(2764.5 -7.07828e-11 3.52956e-14)
(2764.5 -7.0518e-11 4.14556e-14)
(2764.5 -7.53416e-11 3.1829e-14)
(2764.5 -7.4562e-11 2.41396e-14)
(2764.5 -7.43668e-11 2.84957e-14)
(2764.5 -7.08365e-11 2.74126e-14)
(2764.5 -6.61319e-11 2.67812e-14)
(2764.5 -6.52916e-11 2.71897e-14)
(2764.5 -6.83467e-11 2.79806e-14)
(2764.5 -7.08386e-11 2.9718e-14)
(2764.5 -7.30599e-11 1.95904e-14)
(2764.5 -6.71627e-11 2.14149e-14)
(2764.5 -6.79543e-11 2.09983e-14)
(2764.5 -6.86333e-11 2.21223e-14)
(2764.5 -7.32383e-11 2.10069e-14)
(2764.5 -7.58683e-11 1.89682e-14)
(2764.5 -7.46689e-11 1.99727e-14)
(2764.5 -7.53761e-11 2.34234e-14)
(2764.5 -7.69831e-11 2.30789e-14)
(2764.5 -7.73588e-11 2.28166e-14)
(2764.5 -7.71235e-11 2.35286e-14)
(2764.5 -7.69902e-11 2.67718e-14)
(2764.5 -7.67128e-11 2.65433e-14)
(2764.5 -7.86764e-11 2.81601e-14)
(2764.5 -8.10963e-11 2.71487e-14)
(2764.5 -7.69883e-11 2.28132e-14)
(2764.5 -7.35954e-11 1.70115e-14)
(2764.5 -7.43134e-11 1.89157e-14)
(2764.5 -7.77907e-11 2.0332e-14)
(2764.5 -7.86268e-11 2.10347e-14)
(2764.5 -8.12084e-11 2.24631e-14)
(2764.5 -8.40045e-11 2.39674e-14)
(2764.5 -8.57547e-11 2.29345e-14)
(2764.5 -8.52775e-11 2.30042e-14)
(2764.5 -8.69644e-11 2.09162e-14)
(2764.5 -8.91577e-11 2.08227e-14)
(2764.5 -9.15038e-11 2.34038e-14)
(2764.5 -9.17871e-11 2.61167e-14)
(2764.5 -8.98782e-11 2.33017e-14)
(2764.5 -9.16913e-11 1.84102e-14)
(2764.5 -9.20677e-11 1.81414e-14)
(2764.5 -9.49829e-11 1.88744e-14)
(2764.5 -9.63682e-11 1.67408e-14)
(2764.5 -9.70713e-11 2.04472e-14)
(2764.5 -8.36558e-11 1.76809e-14)
(2764.5 -8.18499e-11 2.14085e-14)
(2764.5 -8.01841e-11 2.35091e-14)
(2764.5 -7.7478e-11 1.90979e-14)
(2764.5 -7.8381e-11 2.09953e-14)
(2764.5 -8.41838e-11 1.88163e-14)
(2764.5 -9.02779e-11 2.26727e-14)
(2764.5 -9.98458e-11 1.69747e-14)
(2764.5 -1.01752e-10 2.10598e-14)
(2764.5 -1.02422e-10 2.28309e-14)
(2764.5 -9.69139e-11 2.18425e-14)
(2764.5 -9.19642e-11 2.58507e-14)
(2764.5 -9.75079e-11 2.1167e-14)
(2764.5 -1.04138e-10 1.99053e-14)
(2764.5 -1.0452e-10 1.16606e-14)
(2764.5 -1.04603e-10 1.39139e-14)
(2764.5 -1.04254e-10 2.01475e-14)
(2764.5 -1.06584e-10 1.59144e-14)
(2764.5 -1.11251e-10 2.02549e-14)
(2764.5 -1.06288e-07 1.82013e-10)
(2764.5 -4.53308e-08 7.33944e-11)
(2764.5 -2.12476e-08 3.34612e-11)
(2764.5 -1.20369e-08 1.92196e-11)
(2764.5 -7.84008e-09 1.25027e-11)
(2764.5 -5.56718e-09 8.85667e-12)
(2764.5 -4.18388e-09 6.68724e-12)
(2764.5 -3.26529e-09 5.13714e-12)
(2764.5 -2.62352e-09 4.16021e-12)
(2764.5 -2.15735e-09 3.35441e-12)
(2764.5 -1.80495e-09 2.78751e-12)
(2764.5 -1.53758e-09 2.40405e-12)
(2764.5 -1.31901e-09 2.02814e-12)
(2764.5 -1.15265e-09 1.75249e-12)
(2764.5 -1.02387e-09 1.55462e-12)
(2764.5 -9.15914e-10 1.37147e-12)
(2764.5 -8.18572e-10 1.17356e-12)
(2764.5 -7.39812e-10 1.07782e-12)
(2764.5 -6.75025e-10 9.57554e-13)
(2764.5 -6.19845e-10 9.01137e-13)
(2764.5 -5.70461e-10 8.08194e-13)
(2764.5 -5.30061e-10 6.95285e-13)
(2764.5 -4.87744e-10 6.76653e-13)
(2764.5 -4.50739e-10 6.06064e-13)
(2764.5 -4.1918e-10 5.94289e-13)
(2764.5 -3.97987e-10 5.5025e-13)
(2764.5 -3.72853e-10 5.23758e-13)
(2764.5 -3.50889e-10 4.65528e-13)
(2764.5 -3.28706e-10 4.30889e-13)
(2764.5 -3.16438e-10 4.10975e-13)
(2764.5 -3.01078e-10 3.6488e-13)
(2764.5 -2.87741e-10 3.68586e-13)
(2764.5 -2.71306e-10 3.14036e-13)
(2764.5 -2.69467e-10 3.1251e-13)
(2764.5 -2.55138e-10 3.13004e-13)
(2764.5 -2.4856e-10 2.75248e-13)
(2764.5 -2.34346e-10 2.5956e-13)
(2764.5 -2.18702e-10 2.60274e-13)
(2764.5 -2.09777e-10 2.51258e-13)
(2764.5 -2.18945e-10 2.21305e-13)
(2764.5 -2.11529e-10 2.09374e-13)
(2764.5 -1.98872e-10 2.06423e-13)
(2764.5 -1.95531e-10 2.08589e-13)
(2764.5 -1.92203e-10 1.93443e-13)
(2764.5 -1.8206e-10 1.66564e-13)
(2764.5 -1.72214e-10 1.74114e-13)
(2764.5 -1.72789e-10 1.74196e-13)
(2764.5 -1.7874e-10 1.70574e-13)
(2764.5 -1.68863e-10 1.60936e-13)
(2764.5 -1.62951e-10 1.72259e-13)
(2764.5 -1.62453e-10 1.55923e-13)
(2764.5 -1.59885e-10 1.424e-13)
(2764.5 -1.52969e-10 1.33114e-13)
(2764.5 -1.52897e-10 1.25027e-13)
(2764.5 -1.52289e-10 1.19734e-13)
(2764.5 -1.38797e-10 1.22192e-13)
(2764.5 -1.38761e-10 1.13432e-13)
(2764.5 -1.35497e-10 1.06284e-13)
(2764.5 -1.371e-10 1.19438e-13)
(2764.5 -1.42645e-10 1.15236e-13)
(2764.5 -1.47686e-10 1.06304e-13)
(2764.5 -1.42085e-10 1.07948e-13)
(2764.5 -1.40472e-10 1.02673e-13)
(2764.5 -1.35444e-10 8.29673e-14)
(2764.5 -1.28135e-10 9.19861e-14)
(2764.5 -1.2703e-10 8.87819e-14)
(2764.5 -1.29112e-10 7.79638e-14)
(2764.5 -1.2769e-10 9.05584e-14)
(2764.5 -1.25587e-10 8.44686e-14)
(2764.5 -1.23842e-10 7.90802e-14)
(2764.5 -1.24882e-10 7.7831e-14)
(2764.5 -1.24164e-10 7.82773e-14)
(2764.5 -1.28042e-10 7.19921e-14)
(2764.5 -1.30417e-10 7.28846e-14)
(2764.5 -1.21714e-10 7.82744e-14)
(2764.5 -1.2047e-10 7.86746e-14)
(2764.5 -1.19122e-10 6.6608e-14)
(2764.5 -1.16074e-10 6.98558e-14)
(2764.5 -1.18912e-10 6.84313e-14)
(2764.5 -1.20182e-10 6.36293e-14)
(2764.5 -1.14613e-10 6.18786e-14)
(2764.5 -1.17075e-10 5.73906e-14)
(2764.5 -1.22715e-10 5.40005e-14)
(2764.5 -1.21552e-10 5.38286e-14)
(2764.5 -1.22016e-10 5.48325e-14)
(2764.5 -1.2213e-10 5.44361e-14)
(2764.5 -1.19042e-10 5.82525e-14)
(2764.5 -1.19408e-10 6.48815e-14)
(2764.5 -1.17523e-10 5.90942e-14)
(2764.5 -1.15978e-10 5.78144e-14)
(2764.5 -1.17774e-10 5.18387e-14)
(2764.5 -1.19986e-10 5.08702e-14)
(2764.5 -1.2112e-10 5.79116e-14)
(2764.5 -1.16946e-10 6.37653e-14)
(2764.5 -1.17706e-10 6.31401e-14)
(2764.5 -1.21103e-10 4.40841e-14)
(2764.5 -1.20719e-10 4.0091e-14)
(2764.5 -1.23784e-10 4.34902e-14)
(2764.5 -1.27055e-10 4.76859e-14)
(2764.5 -1.21388e-10 4.85423e-14)
(2764.5 -1.16411e-10 4.31054e-14)
(2764.5 -1.13731e-10 4.66686e-14)
(2764.5 -1.16017e-10 4.63342e-14)
(2764.5 -1.21621e-10 4.08127e-14)
(2764.5 -1.17881e-10 4.86874e-14)
(2764.5 -1.15111e-10 4.38553e-14)
(2764.5 -1.15427e-10 3.99325e-14)
(2764.5 -1.16466e-10 3.64826e-14)
(2764.5 -1.19829e-10 3.84971e-14)
(2764.5 -1.21041e-10 4.27671e-14)
(2764.5 -1.22284e-10 3.60877e-14)
(2764.5 -1.23634e-10 3.65105e-14)
(2764.5 -1.22575e-10 3.65378e-14)
(2764.5 -1.24499e-10 3.82802e-14)
(2764.5 -1.26917e-10 3.82129e-14)
(2764.5 -1.27401e-10 4.48761e-14)
(2764.5 -1.26956e-10 4.56833e-14)
(2764.5 -1.28973e-10 4.63931e-14)
(2764.5 -1.32016e-10 3.89742e-14)
(2764.5 -1.28761e-10 3.71345e-14)
(2764.5 -1.26018e-10 3.76291e-14)
(2764.5 -1.27097e-10 3.72819e-14)
(2764.5 -1.27759e-10 3.50572e-14)
(2764.5 -1.29076e-10 3.19103e-14)
(2764.5 -1.31775e-10 3.43584e-14)
(2764.5 -1.33396e-10 3.57492e-14)
(2764.5 -1.34453e-10 3.43491e-14)
(2764.5 -1.36689e-10 3.48632e-14)
(2764.5 -1.39074e-10 4.0081e-14)
(2764.5 -1.42808e-10 3.93807e-14)
(2764.5 -1.44989e-10 3.54383e-14)
(2764.5 -1.45761e-10 3.80586e-14)
(2764.5 -1.5e-10 3.83025e-14)
(2764.5 -1.52549e-10 3.35203e-14)
(2764.5 -1.55221e-10 3.53867e-14)
(2764.5 -1.57482e-10 2.96106e-14)
(2764.5 -1.60685e-10 2.6006e-14)
(2764.5 -1.68097e-10 3.33802e-14)
(2764.5 -1.54834e-10 3.77269e-14)
(2764.5 -1.50768e-10 3.3937e-14)
(2764.5 -1.43188e-10 2.96072e-14)
(2764.5 -1.40708e-10 2.87266e-14)
(2764.5 -1.41669e-10 3.00012e-14)
(2764.5 -1.43149e-10 3.04e-14)
(2764.5 -1.47846e-10 3.57062e-14)
(2764.5 -1.57999e-10 2.91803e-14)
(2764.5 -1.6222e-10 3.04059e-14)
(2764.5 -1.65542e-10 2.86116e-14)
(2764.5 -1.6447e-10 3.57507e-14)
(2764.5 -1.6365e-10 3.23633e-14)
(2764.5 -1.63064e-10 3.20037e-14)
(2764.5 -1.66339e-10 3.09372e-14)
(2764.5 -1.70372e-10 3.57194e-14)
(2764.5 -1.72241e-10 2.27805e-14)
(2764.5 -1.71288e-10 3.13293e-14)
(2764.5 -1.67306e-10 3.24374e-14)
(2764.5 -1.37742e-07 2.33356e-10)
(2764.5 -6.63964e-08 1.05205e-10)
(2764.5 -3.25526e-08 4.94672e-11)
(2764.5 -1.83143e-08 2.76609e-11)
(2764.5 -1.175e-08 1.77866e-11)
(2764.5 -8.25749e-09 1.25223e-11)
(2764.5 -6.17164e-09 9.40853e-12)
(2764.5 -4.80825e-09 7.29169e-12)
(2764.5 -3.8528e-09 5.83935e-12)
(2764.5 -3.16049e-09 4.7773e-12)
(2764.5 -2.64059e-09 3.89515e-12)
(2764.5 -2.24736e-09 3.37188e-12)
(2764.5 -1.93272e-09 2.88148e-12)
(2764.5 -1.68051e-09 2.5014e-12)
(2764.5 -1.48981e-09 2.26002e-12)
(2764.5 -1.33424e-09 1.92575e-12)
(2764.5 -1.19693e-09 1.68075e-12)
(2764.5 -1.078e-09 1.49936e-12)
(2764.5 -9.80624e-10 1.32371e-12)
(2764.5 -9.00417e-10 1.26647e-12)
(2764.5 -8.32934e-10 1.11718e-12)
(2764.5 -7.69493e-10 1.03319e-12)
(2764.5 -7.08498e-10 9.51631e-13)
(2764.5 -6.56811e-10 8.77682e-13)
(2764.5 -6.13285e-10 8.14809e-13)
(2764.5 -5.7496e-10 7.55603e-13)
(2764.5 -5.38023e-10 7.03745e-13)
(2764.5 -5.09491e-10 6.43588e-13)
(2764.5 -4.76566e-10 6.23363e-13)
(2764.5 -4.54883e-10 5.67602e-13)
(2764.5 -4.34948e-10 5.38528e-13)
(2764.5 -4.12042e-10 5.10982e-13)
(2764.5 -3.96949e-10 4.90954e-13)
(2764.5 -3.87281e-10 4.61932e-13)
(2764.5 -3.68713e-10 4.35922e-13)
(2764.5 -3.52276e-10 3.97972e-13)
(2764.5 -3.39102e-10 3.81578e-13)
(2764.5 -3.21082e-10 3.45846e-13)
(2764.5 -3.09086e-10 3.51664e-13)
(2764.5 -3.06238e-10 3.15113e-13)
(2764.5 -2.97642e-10 3.03821e-13)
(2764.5 -2.85636e-10 2.84815e-13)
(2764.5 -2.84454e-10 2.83487e-13)
(2764.5 -2.76897e-10 2.65204e-13)
(2764.5 -2.62991e-10 2.63644e-13)
(2764.5 -2.50961e-10 2.40544e-13)
(2764.5 -2.42475e-10 2.48633e-13)
(2764.5 -2.47758e-10 2.36953e-13)
(2764.5 -2.45926e-10 2.36982e-13)
(2764.5 -2.4208e-10 2.33511e-13)
(2764.5 -2.33506e-10 2.09748e-13)
(2764.5 -2.24335e-10 2.0318e-13)
(2764.5 -2.20458e-10 1.90141e-13)
(2764.5 -2.17176e-10 1.87306e-13)
(2764.5 -2.14882e-10 1.68237e-13)
(2764.5 -2.04789e-10 1.75381e-13)
(2764.5 -1.99313e-10 1.67666e-13)
(2764.5 -1.95915e-10 1.61368e-13)
(2764.5 -1.9419e-10 1.71177e-13)
(2764.5 -2.00237e-10 1.66277e-13)
(2764.5 -2.00801e-10 1.5303e-13)
(2764.5 -1.99009e-10 1.41307e-13)
(2764.5 -1.99338e-10 1.3502e-13)
(2764.5 -2.00377e-10 1.29267e-13)
(2764.5 -1.90763e-10 1.45707e-13)
(2764.5 -1.83326e-10 1.3319e-13)
(2764.5 -1.85596e-10 1.23493e-13)
(2764.5 -1.83226e-10 1.30417e-13)
(2764.5 -1.78341e-10 1.09995e-13)
(2764.5 -1.78155e-10 1.05896e-13)
(2764.5 -1.78267e-10 1.06388e-13)
(2764.5 -1.74473e-10 1.14475e-13)
(2764.5 -1.76848e-10 1.10745e-13)
(2764.5 -1.82957e-10 1.139e-13)
(2764.5 -1.77268e-10 1.07136e-13)
(2764.5 -1.7448e-10 1.01649e-13)
(2764.5 -1.71086e-10 1.05199e-13)
(2764.5 -1.66299e-10 1.07234e-13)
(2764.5 -1.64672e-10 1.00073e-13)
(2764.5 -1.68094e-10 9.12961e-14)
(2764.5 -1.59623e-10 8.1352e-14)
(2764.5 -1.60738e-10 9.19437e-14)
(2764.5 -1.63604e-10 8.68231e-14)
(2764.5 -1.67357e-10 8.67801e-14)
(2764.5 -1.69457e-10 8.30574e-14)
(2764.5 -1.67848e-10 8.81969e-14)
(2764.5 -1.68913e-10 8.55176e-14)
(2764.5 -1.70897e-10 8.06223e-14)
(2764.5 -1.68452e-10 7.5908e-14)
(2764.5 -1.66512e-10 7.9557e-14)
(2764.5 -1.65275e-10 7.8203e-14)
(2764.5 -1.68107e-10 7.97599e-14)
(2764.5 -1.69326e-10 8.15434e-14)
(2764.5 -1.64225e-10 8.85676e-14)
(2764.5 -1.6399e-10 7.4942e-14)
(2764.5 -1.65549e-10 7.29375e-14)
(2764.5 -1.66425e-10 7.59949e-14)
(2764.5 -1.68946e-10 6.71507e-14)
(2764.5 -1.73756e-10 6.63442e-14)
(2764.5 -1.77657e-10 6.43687e-14)
(2764.5 -1.72483e-10 6.00101e-14)
(2764.5 -1.65619e-10 6.25412e-14)
(2764.5 -1.6494e-10 6.37946e-14)
(2764.5 -1.65486e-10 6.60728e-14)
(2764.5 -1.6838e-10 6.58731e-14)
(2764.5 -1.65155e-10 6.44876e-14)
(2764.5 -1.65027e-10 6.16056e-14)
(2764.5 -1.68706e-10 5.99597e-14)
(2764.5 -1.69164e-10 5.67558e-14)
(2764.5 -1.69621e-10 5.04881e-14)
(2764.5 -1.70269e-10 5.16295e-14)
(2764.5 -1.74619e-10 5.20318e-14)
(2764.5 -1.7304e-10 5.62971e-14)
(2764.5 -1.70626e-10 5.70154e-14)
(2764.5 -1.729e-10 6.13933e-14)
(2764.5 -1.75762e-10 6.0913e-14)
(2764.5 -1.78187e-10 6.01478e-14)
(2764.5 -1.79659e-10 5.66891e-14)
(2764.5 -1.80124e-10 5.19217e-14)
(2764.5 -1.82094e-10 5.38117e-14)
(2764.5 -1.81296e-10 5.37451e-14)
(2764.5 -1.79035e-10 5.15459e-14)
(2764.5 -1.79926e-10 4.74338e-14)
(2764.5 -1.80205e-10 5.02393e-14)
(2764.5 -1.82624e-10 5.46299e-14)
(2764.5 -1.82307e-10 5.26559e-14)
(2764.5 -1.8338e-10 5.59056e-14)
(2764.5 -1.84981e-10 5.72285e-14)
(2764.5 -1.87083e-10 5.15719e-14)
(2764.5 -1.89121e-10 4.99583e-14)
(2764.5 -1.92445e-10 4.94543e-14)
(2764.5 -1.94897e-10 5.08622e-14)
(2764.5 -1.98925e-10 4.76467e-14)
(2764.5 -2.04209e-10 4.75412e-14)
(2764.5 -2.08746e-10 4.93575e-14)
(2764.5 -2.11334e-10 4.98542e-14)
(2764.5 -2.1182e-10 5.50995e-14)
(2764.5 -2.20497e-10 5.07062e-14)
(2764.5 -2.24554e-10 4.69872e-14)
(2764.5 -2.24746e-10 4.4824e-14)
(2764.5 -2.12434e-10 4.57593e-14)
(2764.5 -2.0377e-10 4.52894e-14)
(2764.5 -2.00953e-10 4.50281e-14)
(2764.5 -1.99973e-10 4.59199e-14)
(2764.5 -2.02628e-10 4.78894e-14)
(2764.5 -2.09996e-10 4.59631e-14)
(2764.5 -2.12936e-10 4.43045e-14)
(2764.5 -2.15687e-10 4.59219e-14)
(2764.5 -2.23049e-10 4.50749e-14)
(2764.5 -2.28195e-10 4.15602e-14)
(2764.5 -2.28375e-10 4.50916e-14)
(2764.5 -2.2941e-10 4.69916e-14)
(2764.5 -2.33738e-10 5.22619e-14)
(2764.5 -2.38582e-10 3.93345e-14)
(2764.5 -2.39933e-10 4.36552e-14)
(2764.5 -2.38959e-10 4.0995e-14)
(2764.5 -1.62713e-07 2.73982e-10)
(2764.5 -8.68487e-08 1.35925e-10)
(2764.5 -4.4869e-08 6.63673e-11)
(2764.5 -2.54154e-08 3.6785e-11)
(2764.5 -1.61535e-08 2.35032e-11)
(2764.5 -1.12381e-08 1.64604e-11)
(2764.5 -8.34025e-09 1.21867e-11)
(2764.5 -6.47685e-09 9.48187e-12)
(2764.5 -5.18257e-09 7.61121e-12)
(2764.5 -4.24886e-09 6.2576e-12)
(2764.5 -3.55022e-09 5.14376e-12)
(2764.5 -3.01165e-09 4.3568e-12)
(2764.5 -2.58976e-09 3.70137e-12)
(2764.5 -2.25113e-09 3.22746e-12)
(2764.5 -1.98602e-09 2.86135e-12)
(2764.5 -1.77737e-09 2.5048e-12)
(2764.5 -1.59666e-09 2.18619e-12)
(2764.5 -1.44574e-09 1.98257e-12)
(2764.5 -1.31129e-09 1.80287e-12)
(2764.5 -1.20212e-09 1.62466e-12)
(2764.5 -1.10766e-09 1.4871e-12)
(2764.5 -1.0214e-09 1.36268e-12)
(2764.5 -9.40012e-10 1.22201e-12)
(2764.5 -8.79594e-10 1.1477e-12)
(2764.5 -8.17483e-10 1.03885e-12)
(2764.5 -7.59164e-10 9.99306e-13)
(2764.5 -7.17374e-10 9.14822e-13)
(2764.5 -6.79487e-10 8.71996e-13)
(2764.5 -6.359e-10 8.25541e-13)
(2764.5 -6.02042e-10 7.61364e-13)
(2764.5 -5.73784e-10 6.95849e-13)
(2764.5 -5.47887e-10 6.70611e-13)
(2764.5 -5.25613e-10 6.15607e-13)
(2764.5 -5.05524e-10 5.70786e-13)
(2764.5 -4.90508e-10 5.48525e-13)
(2764.5 -4.69195e-10 5.34311e-13)
(2764.5 -4.45055e-10 4.93001e-13)
(2764.5 -4.25441e-10 4.67271e-13)
(2764.5 -4.09571e-10 4.35749e-13)
(2764.5 -3.98309e-10 4.08441e-13)
(2764.5 -3.90938e-10 4.11847e-13)
(2764.5 -3.82387e-10 3.95264e-13)
(2764.5 -3.75632e-10 3.76322e-13)
(2764.5 -3.61413e-10 3.61758e-13)
(2764.5 -3.46455e-10 3.45906e-13)
(2764.5 -3.33259e-10 3.33065e-13)
(2764.5 -3.23507e-10 3.11661e-13)
(2764.5 -3.20363e-10 3.04843e-13)
(2764.5 -3.21721e-10 2.93634e-13)
(2764.5 -3.13899e-10 2.68262e-13)
(2764.5 -3.0866e-10 2.74615e-13)
(2764.5 -2.987e-10 2.6252e-13)
(2764.5 -2.9036e-10 2.54112e-13)
(2764.5 -2.81392e-10 2.44007e-13)
(2764.5 -2.75108e-10 2.41989e-13)
(2764.5 -2.72825e-10 2.36753e-13)
(2764.5 -2.61951e-10 2.15509e-13)
(2764.5 -2.58535e-10 2.06779e-13)
(2764.5 -2.56205e-10 2.15147e-13)
(2764.5 -2.61515e-10 1.95893e-13)
(2764.5 -2.58188e-10 1.87834e-13)
(2764.5 -2.55914e-10 1.79584e-13)
(2764.5 -2.54048e-10 1.79709e-13)
(2764.5 -2.56815e-10 1.90435e-13)
(2764.5 -2.49154e-10 1.7342e-13)
(2764.5 -2.42505e-10 1.76184e-13)
(2764.5 -2.41616e-10 1.69596e-13)
(2764.5 -2.43149e-10 1.53982e-13)
(2764.5 -2.35297e-10 1.586e-13)
(2764.5 -2.31371e-10 1.58357e-13)
(2764.5 -2.27613e-10 1.47958e-13)
(2764.5 -2.27655e-10 1.50535e-13)
(2764.5 -2.25324e-10 1.45169e-13)
(2764.5 -2.29879e-10 1.42338e-13)
(2764.5 -2.30028e-10 1.41302e-13)
(2764.5 -2.30534e-10 1.36916e-13)
(2764.5 -2.30306e-10 1.38016e-13)
(2764.5 -2.25663e-10 1.29984e-13)
(2764.5 -2.19205e-10 1.20173e-13)
(2764.5 -2.20138e-10 1.21033e-13)
(2764.5 -2.13463e-10 1.27824e-13)
(2764.5 -2.09324e-10 1.20558e-13)
(2764.5 -2.09327e-10 1.13623e-13)
(2764.5 -2.11343e-10 1.14117e-13)
(2764.5 -2.13789e-10 1.12725e-13)
(2764.5 -2.13853e-10 1.08856e-13)
(2764.5 -2.12856e-10 1.02395e-13)
(2764.5 -2.15846e-10 1.08294e-13)
(2764.5 -2.18696e-10 1.14078e-13)
(2764.5 -2.15678e-10 1.12792e-13)
(2764.5 -2.15357e-10 1.04698e-13)
(2764.5 -2.2234e-10 1.01919e-13)
(2764.5 -2.23198e-10 1.01088e-13)
(2764.5 -2.17052e-10 9.72896e-14)
(2764.5 -2.13658e-10 9.60743e-14)
(2764.5 -2.13873e-10 9.96665e-14)
(2764.5 -2.13354e-10 9.09778e-14)
(2764.5 -2.1428e-10 8.84032e-14)
(2764.5 -2.15432e-10 9.01457e-14)
(2764.5 -2.23591e-10 8.53195e-14)
(2764.5 -2.22246e-10 8.00406e-14)
(2764.5 -2.17515e-10 8.12198e-14)
(2764.5 -2.14768e-10 8.51433e-14)
(2764.5 -2.12811e-10 7.95848e-14)
(2764.5 -2.11198e-10 7.97576e-14)
(2764.5 -2.11725e-10 8.35022e-14)
(2764.5 -2.10632e-10 8.09102e-14)
(2764.5 -2.15794e-10 7.96222e-14)
(2764.5 -2.18821e-10 7.55648e-14)
(2764.5 -2.18583e-10 7.66083e-14)
(2764.5 -2.18121e-10 7.81911e-14)
(2764.5 -2.19999e-10 7.56426e-14)
(2764.5 -2.21085e-10 7.74344e-14)
(2764.5 -2.20052e-10 6.51301e-14)
(2764.5 -2.213e-10 6.5513e-14)
(2764.5 -2.244e-10 6.86217e-14)
(2764.5 -2.2591e-10 7.3096e-14)
(2764.5 -2.28048e-10 7.04722e-14)
(2764.5 -2.295e-10 7.42816e-14)
(2764.5 -2.27827e-10 7.41661e-14)
(2764.5 -2.31751e-10 6.82377e-14)
(2764.5 -2.32146e-10 6.53507e-14)
(2764.5 -2.30278e-10 6.90713e-14)
(2764.5 -2.29951e-10 7.15871e-14)
(2764.5 -2.33287e-10 6.65891e-14)
(2764.5 -2.35202e-10 6.8834e-14)
(2764.5 -2.36941e-10 7.16888e-14)
(2764.5 -2.36092e-10 6.27511e-14)
(2764.5 -2.39245e-10 6.11746e-14)
(2764.5 -2.41496e-10 6.01918e-14)
(2764.5 -2.42649e-10 6.0797e-14)
(2764.5 -2.43934e-10 6.50331e-14)
(2764.5 -2.4664e-10 6.39481e-14)
(2764.5 -2.52254e-10 6.7106e-14)
(2764.5 -2.57545e-10 6.7261e-14)
(2764.5 -2.62112e-10 6.61346e-14)
(2764.5 -2.6367e-10 6.45597e-14)
(2764.5 -2.65394e-10 6.03228e-14)
(2764.5 -2.75036e-10 6.11373e-14)
(2764.5 -2.80847e-10 5.5971e-14)
(2764.5 -2.83759e-10 5.85438e-14)
(2764.5 -2.74913e-10 5.88027e-14)
(2764.5 -2.70704e-10 6.05565e-14)
(2764.5 -2.6153e-10 6.05933e-14)
(2764.5 -2.63907e-10 6.27177e-14)
(2764.5 -2.67236e-10 6.00262e-14)
(2764.5 -2.68837e-10 5.64043e-14)
(2764.5 -2.70375e-10 5.3118e-14)
(2764.5 -2.76612e-10 5.48606e-14)
(2764.5 -2.83202e-10 5.57059e-14)
(2764.5 -2.90812e-10 5.37259e-14)
(2764.5 -2.93726e-10 6.31049e-14)
(2764.5 -2.95355e-10 5.61566e-14)
(2764.5 -3.00716e-10 5.41981e-14)
(2764.5 -3.03852e-10 6.24436e-14)
(2764.5 -3.08846e-10 6.16556e-14)
(2764.5 -1.82797e-07 3.07176e-10)
(2764.5 -1.06075e-07 1.64642e-10)
(2764.5 -5.7799e-08 8.35259e-11)
(2764.5 -3.32606e-08 4.65589e-11)
(2764.5 -2.10636e-08 2.94931e-11)
(2764.5 -1.45356e-08 2.04621e-11)
(2764.5 -1.07103e-08 1.52565e-11)
(2764.5 -8.28656e-09 1.17229e-11)
(2764.5 -6.62374e-09 9.34099e-12)
(2764.5 -5.42042e-09 7.65271e-12)
(2764.5 -4.52077e-09 6.36135e-12)
(2764.5 -3.82767e-09 5.36141e-12)
(2764.5 -3.28673e-09 4.59503e-12)
(2764.5 -2.86152e-09 4.01953e-12)
(2764.5 -2.51909e-09 3.47806e-12)
(2764.5 -2.25243e-09 3.06131e-12)
(2764.5 -2.02258e-09 2.73369e-12)
(2764.5 -1.83145e-09 2.42748e-12)
(2764.5 -1.66143e-09 2.20995e-12)
(2764.5 -1.5187e-09 1.97337e-12)
(2764.5 -1.39753e-09 1.82149e-12)
(2764.5 -1.29739e-09 1.65854e-12)
(2764.5 -1.1915e-09 1.51282e-12)
(2764.5 -1.10953e-09 1.3669e-12)
(2764.5 -1.03263e-09 1.29128e-12)
(2764.5 -9.57624e-10 1.22104e-12)
(2764.5 -9.0413e-10 1.12815e-12)
(2764.5 -8.56317e-10 1.06708e-12)
(2764.5 -8.05774e-10 9.71175e-13)
(2764.5 -7.58688e-10 8.86592e-13)
(2764.5 -7.20908e-10 8.51586e-13)
(2764.5 -6.91721e-10 8.02567e-13)
(2764.5 -6.65765e-10 7.4943e-13)
(2764.5 -6.33568e-10 7.17891e-13)
(2764.5 -6.09259e-10 6.7732e-13)
(2764.5 -5.89221e-10 6.16996e-13)
(2764.5 -5.6122e-10 6.24004e-13)
(2764.5 -5.34051e-10 5.79004e-13)
(2764.5 -5.12787e-10 5.52507e-13)
(2764.5 -4.98862e-10 5.3153e-13)
(2764.5 -4.87816e-10 4.94113e-13)
(2764.5 -4.78075e-10 4.69674e-13)
(2764.5 -4.637e-10 4.50712e-13)
(2764.5 -4.49358e-10 4.41008e-13)
(2764.5 -4.35413e-10 4.22605e-13)
(2764.5 -4.20188e-10 4.22037e-13)
(2764.5 -4.05839e-10 3.82895e-13)
(2764.5 -3.97152e-10 3.73581e-13)
(2764.5 -4.00436e-10 3.67683e-13)
(2764.5 -3.95265e-10 3.4244e-13)
(2764.5 -3.84356e-10 3.32657e-13)
(2764.5 -3.74122e-10 3.19817e-13)
(2764.5 -3.64446e-10 3.06585e-13)
(2764.5 -3.51995e-10 3.03742e-13)
(2764.5 -3.43693e-10 2.87264e-13)
(2764.5 -3.38747e-10 2.74788e-13)
(2764.5 -3.25729e-10 2.65932e-13)
(2764.5 -3.23267e-10 2.66488e-13)
(2764.5 -3.15009e-10 2.54106e-13)
(2764.5 -3.21827e-10 2.41326e-13)
(2764.5 -3.18787e-10 2.42084e-13)
(2764.5 -3.15369e-10 2.27602e-13)
(2764.5 -3.14339e-10 2.22874e-13)
(2764.5 -3.13909e-10 2.17003e-13)
(2764.5 -3.07047e-10 2.11172e-13)
(2764.5 -3.04218e-10 2.15515e-13)
(2764.5 -3.00421e-10 2.01128e-13)
(2764.5 -3.05511e-10 1.84909e-13)
(2764.5 -2.96834e-10 1.97876e-13)
(2764.5 -2.90478e-10 1.90075e-13)
(2764.5 -2.84741e-10 1.7997e-13)
(2764.5 -2.82725e-10 1.7933e-13)
(2764.5 -2.79083e-10 1.79222e-13)
(2764.5 -2.76831e-10 1.63737e-13)
(2764.5 -2.79409e-10 1.70964e-13)
(2764.5 -2.80297e-10 1.68777e-13)
(2764.5 -2.81752e-10 1.63524e-13)
(2764.5 -2.81905e-10 1.55321e-13)
(2764.5 -2.74489e-10 1.67542e-13)
(2764.5 -2.75751e-10 1.59031e-13)
(2764.5 -2.70018e-10 1.55968e-13)
(2764.5 -2.60827e-10 1.41846e-13)