/*--------------------------------*- C++ -*----------------------------------*\
| =========                 |                                                 |
| \\      /  F ield         | OpenFOAM: The Open Source CFD Toolbox           |
|  \\    /   O peration     | Version:  v1706                                 |
|   \\  /    A nd           | Web:      www.OpenFOAM.com                      |
|    \\/     M anipulation  |                                                 |
\*---------------------------------------------------------------------------*/
FoamFile
{
    version     2.0;
    format      ascii;
    class       volScalarField;
    location    "1.6e-05";
    object      wallHeatFlux;
}
// * * * * * * * * * * * * * * * * * * * * * * * * * * * * * * * * * * * * * //

dimensions      [1 0 -3 0 0 0 0];


internalField   uniform 0;

boundaryField
{
    cone
    {
        type            calculated;
        value           nonuniform List<scalar> 
147
(
1.12622e+06
1.12592e+06
1.12558e+06
1.12521e+06
1.12479e+06
1.12431e+06
1.12375e+06
1.12314e+06
1.12244e+06
1.12168e+06
1.12085e+06
1.11995e+06
1.11898e+06
1.11794e+06
1.11683e+06
1.11565e+06
1.1144e+06
1.11308e+06
1.11169e+06
1.11024e+06
1.10871e+06
1.10711e+06
1.10545e+06
1.10371e+06
1.10191e+06
1.10003e+06
1.09808e+06
1.09606e+06
1.09398e+06
1.09182e+06
1.08959e+06
1.0873e+06
1.08494e+06
1.08251e+06
1.08001e+06
1.07744e+06
1.07481e+06
1.07211e+06
1.06935e+06
1.06652e+06
1.06363e+06
1.06067e+06
1.05765e+06
1.05457e+06
1.05142e+06
1.04821e+06
1.04494e+06
1.04161e+06
1.03822e+06
1.03476e+06
1.03125e+06
1.02768e+06
1.02406e+06
1.02037e+06
1.01663e+06
1.01283e+06
1.00898e+06
1.00507e+06
1.00111e+06
997101
993035
988917
984748
980528
976259
971940
967573
963159
958698
954191
949638
945041
940401
935718
930992
926225
921417
916570
911684
906760
901798
896800
891767
886697
881595
876459
871291
866091
860861
855601
850312
844994
839648
834277
828881
823459
818013
812546
807056
801543
796011
790460
784891
779305
773701
768082
762449
756802
751142
745468
739784
734091
728388
722675
716955
711229
705497
699760
694020
688279
682538
676796
671054
665313
659573
653835
648100
642369
636642
630921
625205
619497
613796
608104
602421
596747
591085
585434
579795
574169
568561
562974
557421
551892
546375
540861
1.12743e+06
)
;
    }
    inlet
    {
        type            calculated;
        value           uniform 0;
    }
    rWedge
    {
        type            wedge;
    }
    lWedge
    {
        type            wedge;
    }
    outlet
    {
        type            calculated;
        value           nonuniform 0();
    }
    procBoundary3to2
    {
        type            processor;
        value           uniform 0;
    }
}


// ************************************************************************* //
