/*--------------------------------*- C++ -*----------------------------------*\
| =========                 |                                                 |
| \\      /  F ield         | OpenFOAM: The Open Source CFD Toolbox           |
|  \\    /   O peration     | Version:  v1706                                 |
|   \\  /    A nd           | Web:      www.OpenFOAM.com                      |
|    \\/     M anipulation  |                                                 |
\*---------------------------------------------------------------------------*/
FoamFile
{
    version     2.0;
    format      ascii;
    class       volScalarField;
    location    "3.6e-05";
    object      alpha;
}
// * * * * * * * * * * * * * * * * * * * * * * * * * * * * * * * * * * * * * //

dimensions      [1 -1 -1 0 0 0 0];


internalField   nonuniform List<scalar> 
30038
(
1.40478e-05
1.40478e-05
1.40478e-05
1.40478e-05
1.40478e-05
1.40478e-05
1.40478e-05
1.40478e-05
1.40478e-05
1.40478e-05
1.40478e-05
1.40478e-05
1.40478e-05
1.40478e-05
1.40478e-05
1.40478e-05
1.40478e-05
1.40478e-05
1.40478e-05
1.40478e-05
1.40478e-05
1.40478e-05
1.40478e-05
1.40478e-05
1.40478e-05
1.40478e-05
1.40478e-05
1.40478e-05
1.40478e-05
1.40478e-05
1.40478e-05
1.40478e-05
1.40478e-05
1.40478e-05
1.40478e-05
1.40478e-05
1.40478e-05
1.40478e-05
1.40478e-05
1.40478e-05
1.40478e-05
1.40478e-05
1.40478e-05
1.40478e-05
1.40478e-05
1.40478e-05
1.40478e-05
1.40478e-05
1.40478e-05
1.40478e-05
1.40478e-05
1.40478e-05
1.40478e-05
1.40478e-05
1.40478e-05
1.40478e-05
1.40478e-05
1.40478e-05
1.40478e-05
1.40478e-05
1.40478e-05
1.40478e-05
1.40478e-05
1.40478e-05
1.40478e-05
1.40478e-05
1.40478e-05
1.40478e-05
1.40478e-05
1.40478e-05
1.40478e-05
1.40478e-05
1.40478e-05
1.40478e-05
1.40478e-05
1.40478e-05
1.40478e-05
1.40478e-05
1.40478e-05
1.40478e-05
1.40478e-05
1.40478e-05
1.40478e-05
1.40478e-05
1.40478e-05
1.40478e-05
1.40478e-05
1.40478e-05
1.40478e-05
1.40478e-05
1.40478e-05
1.40478e-05
1.40478e-05
1.40478e-05
1.40478e-05
1.40478e-05
1.40478e-05
1.40478e-05
1.40478e-05
1.40478e-05
1.40478e-05
1.40478e-05
1.40478e-05
1.40478e-05
1.40478e-05
1.40478e-05
1.40478e-05
1.40478e-05
1.40478e-05
1.40478e-05
1.40478e-05
1.40478e-05
1.40478e-05
1.40478e-05
1.40478e-05
1.40478e-05
1.40478e-05
1.40478e-05
1.40478e-05
1.40478e-05
1.40478e-05
1.40478e-05
1.40478e-05
1.40478e-05
1.40478e-05
1.40478e-05
1.40478e-05
1.40478e-05
1.40478e-05
1.40478e-05
1.40478e-05
1.40478e-05
1.40478e-05
1.40478e-05
1.40478e-05
1.40478e-05
1.40478e-05
1.40478e-05
1.40478e-05
1.40478e-05
1.40478e-05
1.40478e-05
1.40478e-05
1.40478e-05
1.40478e-05
1.40478e-05
1.40478e-05
1.40478e-05
1.40478e-05
1.40478e-05
1.40478e-05
1.40478e-05
1.40478e-05
1.40478e-05
1.40478e-05
1.40478e-05
1.40478e-05
1.40478e-05
1.40478e-05
1.40478e-05
1.40478e-05
1.40478e-05
1.40478e-05
1.40478e-05
1.40478e-05
1.40478e-05
1.40478e-05
1.40478e-05
1.40478e-05
1.40478e-05
1.40478e-05
1.40478e-05
1.40478e-05
1.40478e-05
1.40478e-05
1.40478e-05
1.40478e-05
1.40478e-05
1.40478e-05
1.40478e-05
1.40478e-05
1.40478e-05
1.40478e-05
1.40478e-05
1.40478e-05
1.40478e-05
1.40478e-05
1.40478e-05
1.40478e-05
1.40478e-05
1.40478e-05
1.40478e-05
1.40478e-05
1.40478e-05
1.40478e-05
1.40478e-05
1.40478e-05
1.40478e-05
1.40478e-05
1.40478e-05
1.40478e-05
1.40478e-05
1.40478e-05
1.40478e-05
1.40478e-05
1.40478e-05
1.40478e-05
1.40478e-05
1.40478e-05
1.40478e-05
1.40478e-05
1.40478e-05
1.40478e-05
1.40478e-05
1.40478e-05
1.40478e-05
1.40478e-05
1.40478e-05
1.40478e-05
1.40478e-05
1.40478e-05
1.40478e-05
1.40478e-05
1.40478e-05
1.40478e-05
1.40478e-05
1.40478e-05
1.40478e-05
1.40478e-05
1.40478e-05
1.40478e-05
1.40478e-05
1.40478e-05
1.40478e-05
1.40478e-05
1.40478e-05
1.40478e-05
1.40478e-05
1.40478e-05
1.40478e-05
1.40478e-05
1.40478e-05
1.40478e-05
1.40478e-05
1.40478e-05
1.40478e-05
1.40478e-05
1.40478e-05
1.40478e-05
1.40478e-05
1.40478e-05
1.40478e-05
1.40478e-05
1.40478e-05
1.40478e-05
1.40478e-05
1.40478e-05
1.40478e-05
1.40478e-05
1.40478e-05
1.40478e-05
1.40478e-05
1.40478e-05
1.40478e-05
1.40478e-05
1.40478e-05
1.40478e-05
1.40478e-05
1.40478e-05
1.40478e-05
1.40478e-05
1.40478e-05
1.40478e-05
1.40478e-05
1.40478e-05
1.40478e-05
1.40478e-05
1.40478e-05
1.40478e-05
1.40478e-05
1.40478e-05
1.40478e-05
1.40478e-05
1.40478e-05
1.40478e-05
1.40478e-05
1.40478e-05
1.40478e-05
1.40478e-05
1.40478e-05
1.40478e-05
1.40478e-05
1.40478e-05
1.40478e-05
1.40478e-05
1.40478e-05
1.40478e-05
1.40478e-05
1.40478e-05
1.40478e-05
1.40478e-05
1.40478e-05
1.40478e-05
1.40478e-05
1.40478e-05
1.40478e-05
1.40478e-05
1.40478e-05
1.40478e-05
1.40478e-05
1.40478e-05
1.40478e-05
1.40478e-05
1.40478e-05
1.40478e-05
1.40478e-05
1.40478e-05
1.40478e-05
1.40478e-05
1.40478e-05
1.40478e-05
1.40478e-05
1.40478e-05
1.40478e-05
1.40478e-05
1.40478e-05
1.40478e-05
1.40478e-05
1.40478e-05
1.40478e-05
1.40478e-05
1.40478e-05
1.40478e-05
1.40478e-05
1.40478e-05
1.40478e-05
1.40478e-05
1.40478e-05
1.40478e-05
1.40478e-05
1.40478e-05
1.40478e-05
1.40478e-05
1.40478e-05
1.40478e-05
1.40478e-05
1.40478e-05
1.40478e-05
1.40478e-05
1.40478e-05
1.40478e-05
1.40478e-05
1.40478e-05
1.40478e-05
1.40478e-05
1.40478e-05
1.40478e-05
1.40478e-05
1.40478e-05
1.40478e-05
1.40478e-05
1.40478e-05
1.40478e-05
1.40478e-05
1.40478e-05
1.40478e-05
1.40478e-05
1.40478e-05
1.40478e-05
1.40478e-05
1.40478e-05
1.40478e-05
1.40478e-05
1.40478e-05
1.40478e-05
1.40478e-05
1.40478e-05
1.40478e-05
1.40478e-05
1.40478e-05
1.40478e-05
1.40479e-05
1.40478e-05
1.40478e-05
1.40478e-05
1.40478e-05
1.40478e-05
1.40478e-05
1.40478e-05
1.40478e-05
1.40478e-05
1.40478e-05
1.40478e-05
1.40478e-05
1.40478e-05
1.40478e-05
1.40478e-05
1.40478e-05
1.40478e-05
1.40478e-05
1.40478e-05
1.40478e-05
1.40478e-05
1.40478e-05
1.40478e-05
1.40478e-05
1.40478e-05
1.40478e-05
1.40478e-05
1.40478e-05
1.40478e-05
1.40478e-05
1.40478e-05
1.40478e-05
1.40478e-05
1.40478e-05
1.40478e-05
1.40479e-05
1.40479e-05
1.4048e-05
1.4048e-05
1.40478e-05
1.40478e-05
1.40478e-05
1.40478e-05
1.40478e-05
1.40478e-05
1.40478e-05
1.40478e-05
1.40478e-05
1.40478e-05
1.40478e-05
1.40478e-05
1.40478e-05
1.40478e-05
1.40478e-05
1.40478e-05
1.40478e-05
1.40478e-05
1.40478e-05
1.40478e-05
1.40478e-05
1.40478e-05
1.40478e-05
1.40478e-05
1.40478e-05
1.40478e-05
1.40478e-05
1.40478e-05
1.40478e-05
1.40478e-05
1.40478e-05
1.40478e-05
1.40478e-05
1.40479e-05
1.40479e-05
1.4048e-05
1.4048e-05
1.40481e-05
1.40483e-05
1.40486e-05
1.40478e-05
1.40478e-05
1.40478e-05
1.40478e-05
1.40478e-05
1.40478e-05
1.40478e-05
1.40478e-05
1.40478e-05
1.40478e-05
1.40478e-05
1.40478e-05
1.40478e-05
1.40478e-05
1.40478e-05
1.40478e-05
1.40478e-05
1.40478e-05
1.40478e-05
1.40478e-05
1.40478e-05
1.40478e-05
1.40478e-05
1.40478e-05
1.40478e-05
1.40478e-05
1.40478e-05
1.40478e-05
1.40478e-05
1.40478e-05
1.40479e-05
1.40479e-05
1.40479e-05
1.4048e-05
1.40481e-05
1.40483e-05
1.40485e-05
1.40488e-05
1.40493e-05
1.405e-05
1.40478e-05
1.40478e-05
1.40478e-05
1.40478e-05
1.40478e-05
1.40478e-05
1.40478e-05
1.40478e-05
1.40478e-05
1.40478e-05
1.40478e-05
1.40478e-05
1.40478e-05
1.40478e-05
1.40478e-05
1.40478e-05
1.40478e-05
1.40478e-05
1.40478e-05
1.40478e-05
1.40478e-05
1.40478e-05
1.40478e-05
1.40478e-05
1.40478e-05
1.40478e-05
1.40478e-05
1.40479e-05
1.40479e-05
1.40479e-05
1.4048e-05
1.40481e-05
1.40483e-05
1.40485e-05
1.40488e-05
1.40492e-05
1.40498e-05
1.40507e-05
1.40521e-05
1.40541e-05
1.40478e-05
1.40478e-05
1.40478e-05
1.40478e-05
1.40478e-05
1.40478e-05
1.40478e-05
1.40478e-05
1.40478e-05
1.40478e-05
1.40478e-05
1.40478e-05
1.40478e-05
1.40478e-05
1.40478e-05
1.40478e-05
1.40478e-05
1.40478e-05
1.40478e-05
1.40478e-05
1.40478e-05
1.40478e-05
1.40478e-05
1.40478e-05
1.40479e-05
1.40479e-05
1.40479e-05
1.4048e-05
1.40481e-05
1.40482e-05
1.40484e-05
1.40487e-05
1.40491e-05
1.40497e-05
1.40505e-05
1.40518e-05
1.40535e-05
1.40561e-05
1.40598e-05
1.40653e-05
1.40478e-05
1.40478e-05
1.40478e-05
1.40478e-05
1.40478e-05
1.40478e-05
1.40478e-05
1.40478e-05
1.40478e-05
1.40478e-05
1.40478e-05
1.40478e-05
1.40478e-05
1.40478e-05
1.40478e-05
1.40478e-05
1.40478e-05
1.40478e-05
1.40478e-05
1.40478e-05
1.40478e-05
1.40479e-05
1.40479e-05
1.4048e-05
1.4048e-05
1.40481e-05
1.40483e-05
1.40484e-05
1.40487e-05
1.40491e-05
1.40497e-05
1.40504e-05
1.40516e-05
1.40532e-05
1.40555e-05
1.40588e-05
1.40637e-05
1.40706e-05
1.40808e-05
1.40957e-05
1.40478e-05
1.40478e-05
1.40478e-05
1.40478e-05
1.40478e-05
1.40478e-05
1.40478e-05
1.40478e-05
1.40478e-05
1.40478e-05
1.40478e-05
1.40478e-05
1.40478e-05
1.40478e-05
1.40478e-05
1.40478e-05
1.40478e-05
1.40479e-05
1.40479e-05
1.40479e-05
1.4048e-05
1.4048e-05
1.40481e-05
1.40483e-05
1.40484e-05
1.40487e-05
1.40491e-05
1.40496e-05
1.40504e-05
1.40515e-05
1.4053e-05
1.40552e-05
1.40583e-05
1.40627e-05
1.4069e-05
1.40781e-05
1.40911e-05
1.41098e-05
1.41368e-05
1.41761e-05
1.40478e-05
1.40478e-05
1.40478e-05
1.40478e-05
1.40478e-05
1.40478e-05
1.40478e-05
1.40478e-05
1.40478e-05
1.40478e-05
1.40478e-05
1.40478e-05
1.40478e-05
1.40478e-05
1.40479e-05
1.40479e-05
1.40479e-05
1.4048e-05
1.4048e-05
1.40481e-05
1.40483e-05
1.40485e-05
1.40487e-05
1.40491e-05
1.40496e-05
1.40504e-05
1.40514e-05
1.40529e-05
1.40549e-05
1.40579e-05
1.4062e-05
1.40679e-05
1.40763e-05
1.40881e-05
1.4105e-05
1.41291e-05
1.41634e-05
1.42124e-05
1.42824e-05
1.43825e-05
1.40478e-05
1.40478e-05
1.40478e-05
1.40478e-05
1.40478e-05
1.40478e-05
1.40478e-05
1.40478e-05
1.40478e-05
1.40478e-05
1.40478e-05
1.40478e-05
1.40479e-05
1.40479e-05
1.40479e-05
1.4048e-05
1.40481e-05
1.40482e-05
1.40483e-05
1.40485e-05
1.40488e-05
1.40491e-05
1.40497e-05
1.40504e-05
1.40514e-05
1.40529e-05
1.40549e-05
1.40577e-05
1.40616e-05
1.40672e-05
1.4075e-05
1.40861e-05
1.41017e-05
1.41238e-05
1.41549e-05
1.4199e-05
1.42612e-05
1.43488e-05
1.44721e-05
1.46446e-05
1.48846e-05
1.40478e-05
1.40478e-05
1.40478e-05
1.40478e-05
1.40478e-05
1.40478e-05
1.40478e-05
1.40478e-05
1.40479e-05
1.40479e-05
1.40479e-05
1.40479e-05
1.4048e-05
1.40481e-05
1.40482e-05
1.40483e-05
1.40485e-05
1.40488e-05
1.40492e-05
1.40497e-05
1.40505e-05
1.40515e-05
1.40529e-05
1.40549e-05
1.40577e-05
1.40615e-05
1.40668e-05
1.40743e-05
1.40848e-05
1.40995e-05
1.41201e-05
1.41489e-05
1.41894e-05
1.42461e-05
1.43253e-05
1.44359e-05
1.45893e-05
1.48009e-05
1.50897e-05
1.54789e-05
1.59933e-05
1.40478e-05
1.40478e-05
1.40478e-05
1.40478e-05
1.40478e-05
1.40478e-05
1.40479e-05
1.40479e-05
1.40479e-05
1.4048e-05
1.4048e-05
1.40481e-05
1.40482e-05
1.40484e-05
1.40486e-05
1.40489e-05
1.40493e-05
1.40498e-05
1.40506e-05
1.40516e-05
1.40531e-05
1.40551e-05
1.40578e-05
1.40616e-05
1.40668e-05
1.40741e-05
1.40842e-05
1.40982e-05
1.41177e-05
1.41449e-05
1.41827e-05
1.42352e-05
1.43083e-05
1.44094e-05
1.45489e-05
1.47401e-05
1.49998e-05
1.53484e-05
1.58085e-05
1.64037e-05
1.71541e-05
1.80693e-05
1.40478e-05
1.40478e-05
1.40478e-05
1.40479e-05
1.40479e-05
1.40479e-05
1.40479e-05
1.4048e-05
1.40481e-05
1.40482e-05
1.40483e-05
1.40484e-05
1.40487e-05
1.4049e-05
1.40494e-05
1.405e-05
1.40508e-05
1.40519e-05
1.40533e-05
1.40553e-05
1.40581e-05
1.40619e-05
1.40671e-05
1.40742e-05
1.40841e-05
1.40977e-05
1.41165e-05
1.41425e-05
1.41784e-05
1.4228e-05
1.42963e-05
1.43904e-05
1.45193e-05
1.4695e-05
1.49326e-05
1.52503e-05
1.5669e-05
1.62101e-05
1.68935e-05
1.77328e-05
1.87313e-05
1.98756e-05
2.11348e-05
1.40479e-05
1.40479e-05
1.40479e-05
1.4048e-05
1.4048e-05
1.40481e-05
1.40482e-05
1.40483e-05
1.40485e-05
1.40488e-05
1.40491e-05
1.40496e-05
1.40502e-05
1.4051e-05
1.40521e-05
1.40537e-05
1.40557e-05
1.40586e-05
1.40624e-05
1.40677e-05
1.40748e-05
1.40846e-05
1.40981e-05
1.41165e-05
1.41417e-05
1.41764e-05
1.42238e-05
1.42888e-05
1.43776e-05
1.44986e-05
1.46625e-05
1.4883e-05
1.51767e-05
1.55627e-05
1.60615e-05
1.66919e-05
1.74688e-05
1.83977e-05
1.94711e-05
2.06647e-05
2.19397e-05
2.324e-05
2.44976e-05
1.40479e-05
1.4048e-05
1.40481e-05
1.40482e-05
1.40483e-05
1.40484e-05
1.40486e-05
1.40489e-05
1.40493e-05
1.40498e-05
1.40504e-05
1.40513e-05
1.40525e-05
1.40541e-05
1.40563e-05
1.40592e-05
1.40632e-05
1.40686e-05
1.40759e-05
1.40858e-05
1.40992e-05
1.41175e-05
1.41424e-05
1.41763e-05
1.42225e-05
1.42852e-05
1.43704e-05
1.44856e-05
1.46407e-05
1.48482e-05
1.51234e-05
1.54838e-05
1.59485e-05
1.65359e-05
1.72611e-05
1.81321e-05
1.91456e-05
2.02839e-05
2.15138e-05
2.27884e-05
2.40442e-05
2.52034e-05
2.61918e-05
2.69819e-05
1.40481e-05
1.40482e-05
1.40483e-05
1.40485e-05
1.40488e-05
1.40491e-05
1.40495e-05
1.405e-05
1.40507e-05
1.40517e-05
1.4053e-05
1.40547e-05
1.4057e-05
1.40601e-05
1.40643e-05
1.40699e-05
1.40774e-05
1.40875e-05
1.41012e-05
1.41197e-05
1.41446e-05
1.41784e-05
1.42239e-05
1.42854e-05
1.43682e-05
1.44796e-05
1.46285e-05
1.48266e-05
1.50877e-05
1.54284e-05
1.58662e-05
1.6419e-05
1.71015e-05
1.79231e-05
1.8884e-05
1.99712e-05
2.11577e-05
2.24044e-05
2.36578e-05
2.48491e-05
2.59034e-05
2.67655e-05
2.74202e-05
2.78831e-05
2.82006e-05
1.40485e-05
1.40487e-05
1.40489e-05
1.40493e-05
1.40497e-05
1.40503e-05
1.40511e-05
1.40522e-05
1.40536e-05
1.40555e-05
1.4058e-05
1.40613e-05
1.40657e-05
1.40716e-05
1.40795e-05
1.409e-05
1.41041e-05
1.41231e-05
1.41484e-05
1.41824e-05
1.42281e-05
1.42892e-05
1.4371e-05
1.44801e-05
1.46252e-05
1.48168e-05
1.5068e-05
1.5394e-05
1.58113e-05
1.63367e-05
1.69847e-05
1.77652e-05
1.86803e-05
1.9721e-05
2.08656e-05
2.20801e-05
2.33199e-05
2.45262e-05
2.56285e-05
2.65637e-05
2.72986e-05
2.78374e-05
2.82084e-05
2.84525e-05
2.86043e-05
2.86978e-05
1.40488e-05
1.40491e-05
1.40495e-05
1.40501e-05
1.40508e-05
1.40517e-05
1.40528e-05
1.40544e-05
1.40565e-05
1.40592e-05
1.40628e-05
1.40676e-05
1.40739e-05
1.40822e-05
1.40933e-05
1.41081e-05
1.41278e-05
1.41539e-05
1.41887e-05
1.42351e-05
1.42968e-05
1.43787e-05
1.44872e-05
1.46304e-05
1.48183e-05
1.50631e-05
1.5379e-05
1.57814e-05
1.6286e-05
1.69069e-05
1.76538e-05
1.85303e-05
1.95302e-05
2.06355e-05
2.18168e-05
2.3036e-05
2.42427e-05
2.53743e-05
2.63656e-05
2.7172e-05
2.77826e-05
2.82167e-05
2.85083e-05
2.86953e-05
2.88093e-05
2.88761e-05
2.89131e-05
2.89303e-05
1.40505e-05
1.40513e-05
1.40523e-05
1.40537e-05
1.40554e-05
1.40577e-05
1.40607e-05
1.40647e-05
1.40699e-05
1.40767e-05
1.40857e-05
1.40976e-05
1.41133e-05
1.4134e-05
1.41613e-05
1.41975e-05
1.42453e-05
1.43084e-05
1.43915e-05
1.45009e-05
1.46442e-05
1.48309e-05
1.50726e-05
1.53824e-05
1.57748e-05
1.62646e-05
1.68651e-05
1.75857e-05
1.84306e-05
1.93953e-05
2.0465e-05
2.16144e-05
2.28091e-05
2.40067e-05
2.51521e-05
2.6183e-05
2.70477e-05
2.77231e-05
2.82174e-05
2.85589e-05
2.8783e-05
2.89233e-05
2.90068e-05
2.90534e-05
2.90774e-05
2.90846e-05
2.90834e-05
2.90793e-05
1.4052e-05
1.40531e-05
1.40547e-05
1.40567e-05
1.40593e-05
1.40627e-05
1.40671e-05
1.40729e-05
1.40804e-05
1.40902e-05
1.41031e-05
1.41199e-05
1.4142e-05
1.41711e-05
1.42091e-05
1.4259e-05
1.43244e-05
1.441e-05
1.45218e-05
1.4667e-05
1.4855e-05
1.50965e-05
1.5404e-05
1.5791e-05
1.62714e-05
1.68576e-05
1.75586e-05
1.83784e-05
1.93139e-05
2.03527e-05
2.14721e-05
2.26415e-05
2.38237e-05
2.49711e-05
2.60265e-05
2.69357e-05
2.76663e-05
2.82158e-05
2.86056e-05
2.88677e-05
2.90358e-05
2.91382e-05
2.91969e-05
2.92278e-05
2.92408e-05
2.92394e-05
2.92358e-05
2.92268e-05
2.92114e-05
2.91916e-05
1.40583e-05
1.40613e-05
1.40652e-05
1.40701e-05
1.40766e-05
1.4085e-05
1.40959e-05
1.411e-05
1.41284e-05
1.41523e-05
1.41835e-05
1.42241e-05
1.42769e-05
1.43456e-05
1.44349e-05
1.45505e-05
1.46997e-05
1.48912e-05
1.51355e-05
1.54442e-05
1.58302e-05
1.63061e-05
1.68836e-05
1.7571e-05
1.8372e-05
1.92841e-05
2.02965e-05
2.13889e-05
2.25335e-05
2.36969e-05
2.48379e-05
2.59053e-05
2.68456e-05
2.76204e-05
2.82181e-05
2.86524e-05
2.89516e-05
2.91476e-05
2.927e-05
2.93418e-05
2.93812e-05
2.93997e-05
2.94014e-05
2.9397e-05
2.93894e-05
2.93753e-05
2.93558e-05
2.93329e-05
2.93073e-05
2.92801e-05
1.4074e-05
1.40814e-05
1.40908e-05
1.4103e-05
1.41187e-05
1.4139e-05
1.41653e-05
1.41992e-05
1.4243e-05
1.42997e-05
1.43729e-05
1.44671e-05
1.45882e-05
1.47433e-05
1.49409e-05
1.51908e-05
1.55042e-05
1.58931e-05
1.63693e-05
1.69432e-05
1.76227e-05
1.84107e-05
1.93047e-05
2.02952e-05
2.13638e-05
2.24848e-05
2.36279e-05
2.47569e-05
2.58264e-05
2.67857e-05
2.75933e-05
2.82306e-05
2.87043e-05
2.90377e-05
2.92609e-05
2.94033e-05
2.94889e-05
2.95369e-05
2.95609e-05
2.95673e-05
2.95629e-05
2.95553e-05
2.95431e-05
2.95242e-05
2.95013e-05
2.9476e-05
2.9448e-05
2.94191e-05
2.93911e-05
2.93638e-05
1.4112e-05
1.41298e-05
1.41525e-05
1.41816e-05
1.4219e-05
1.4267e-05
1.43285e-05
1.44073e-05
1.4508e-05
1.46365e-05
1.47996e-05
1.50056e-05
1.52642e-05
1.55857e-05
1.59814e-05
1.64622e-05
1.70376e-05
1.77142e-05
1.84944e-05
1.93755e-05
2.03485e-05
2.13965e-05
2.24957e-05
2.36178e-05
2.4731e-05
2.57948e-05
2.67626e-05
2.75921e-05
2.82598e-05
2.8766e-05
2.91296e-05
2.93778e-05
2.95393e-05
2.96388e-05
2.96956e-05
2.97256e-05
2.97362e-05
2.97331e-05
2.97251e-05
2.97138e-05
2.96963e-05
2.96738e-05
2.96484e-05
2.96203e-05
2.95903e-05
2.95604e-05
2.95314e-05
2.95027e-05
2.94748e-05
2.94476e-05
1.42022e-05
1.42439e-05
1.4297e-05
1.43646e-05
1.44505e-05
1.45594e-05
1.46972e-05
1.48706e-05
1.50878e-05
1.5358e-05
1.56912e-05
1.60976e-05
1.65872e-05
1.71685e-05
1.78469e-05
1.86241e-05
1.94968e-05
2.04563e-05
2.14868e-05
2.25657e-05
2.36669e-05
2.47616e-05
2.58141e-05
2.67815e-05
2.76228e-05
2.83113e-05
2.88426e-05
2.92311e-05
2.95011e-05
2.968e-05
2.97926e-05
2.98581e-05
2.98934e-05
2.99085e-05
2.99072e-05
2.98993e-05
2.98874e-05
2.98716e-05
2.98493e-05
2.98238e-05
2.97962e-05
2.97658e-05
2.97345e-05
2.97038e-05
2.96736e-05
2.96438e-05
2.96147e-05
2.9586e-05
2.9558e-05
2.95304e-05
1.44099e-05
1.45046e-05
1.46236e-05
1.47729e-05
1.49593e-05
1.51906e-05
1.54756e-05
1.58239e-05
1.62448e-05
1.67473e-05
1.73386e-05
1.80232e-05
1.88016e-05
1.96697e-05
2.06191e-05
2.16347e-05
2.26949e-05
2.37754e-05
2.48498e-05
2.58865e-05
2.68463e-05
2.76901e-05
2.83902e-05
2.89386e-05
2.93458e-05
2.96334e-05
2.98271e-05
2.99511e-05
3.0025e-05
3.00657e-05
3.00847e-05
3.00851e-05
3.00775e-05
3.00654e-05
3.00499e-05
3.00283e-05
3.00027e-05
2.9975e-05
2.99445e-05
2.99123e-05
2.98801e-05
2.98486e-05
2.98173e-05
2.97865e-05
2.97563e-05
2.97264e-05
2.9697e-05
2.9668e-05
2.96395e-05
2.96114e-05
1.4867e-05
1.50691e-05
1.53176e-05
1.56209e-05
1.59879e-05
1.6427e-05
1.69462e-05
1.75515e-05
1.8246e-05
1.90291e-05
1.98961e-05
2.08382e-05
2.18409e-05
2.28836e-05
2.39435e-05
2.49961e-05
2.60133e-05
2.69593e-05
2.77976e-05
2.85005e-05
2.90578e-05
2.94771e-05
2.97775e-05
2.99826e-05
3.01159e-05
3.0197e-05
3.02424e-05
3.02642e-05
3.02674e-05
3.02606e-05
3.02474e-05
3.02313e-05
3.02108e-05
3.0185e-05
3.0157e-05
3.01266e-05
3.00937e-05
3.00603e-05
3.00274e-05
2.99948e-05
2.99625e-05
2.99308e-05
2.98994e-05
2.98684e-05
2.98377e-05
2.98074e-05
2.97775e-05
2.97479e-05
2.97189e-05
2.96903e-05
1.57989e-05
1.61881e-05
1.66492e-05
1.71887e-05
1.78114e-05
1.8519e-05
1.93098e-05
2.01781e-05
2.11151e-05
2.21064e-05
2.31322e-05
2.4171e-05
2.52004e-05
2.61949e-05
2.71219e-05
2.79474e-05
2.86449e-05
2.92032e-05
2.96278e-05
2.99356e-05
3.01484e-05
3.02885e-05
3.0375e-05
3.04241e-05
3.04481e-05
3.04536e-05
3.04474e-05
3.04335e-05
3.04167e-05
3.03966e-05
3.03706e-05
3.03421e-05
3.03118e-05
3.02786e-05
3.02441e-05
3.02099e-05
3.0176e-05
3.01423e-05
3.01091e-05
3.00763e-05
3.00439e-05
3.00117e-05
2.998e-05
2.99484e-05
2.99172e-05
2.98864e-05
2.98559e-05
2.98257e-05
2.97962e-05
2.97671e-05
1.74803e-05
1.81233e-05
1.88465e-05
1.9647e-05
2.05185e-05
2.14515e-05
2.2432e-05
2.34409e-05
2.44579e-05
2.54624e-05
2.64311e-05
2.73343e-05
2.81407e-05
2.88252e-05
2.93769e-05
2.98e-05
3.01095e-05
3.03258e-05
3.04698e-05
3.05599e-05
3.06115e-05
3.06373e-05
3.0644e-05
3.0638e-05
3.0624e-05
3.0606e-05
3.05858e-05
3.05598e-05
3.05307e-05
3.04999e-05
3.04665e-05
3.04312e-05
3.03958e-05
3.03607e-05
3.03258e-05
3.02912e-05
3.02571e-05
3.02232e-05
3.01896e-05
3.01564e-05
3.01234e-05
3.00908e-05
3.00584e-05
3.00263e-05
2.99945e-05
2.99631e-05
2.9932e-05
2.99013e-05
2.98713e-05
2.98416e-05
2.00445e-05
2.09198e-05
2.18493e-05
2.28188e-05
2.38099e-05
2.48036e-05
2.57811e-05
2.67211e-05
2.7596e-05
2.83772e-05
2.90419e-05
2.95798e-05
2.99948e-05
3.03007e-05
3.05162e-05
3.06609e-05
3.07521e-05
3.0805e-05
3.08316e-05
3.08388e-05
3.0833e-05
3.08188e-05
3.07994e-05
3.07779e-05
3.07527e-05
3.07227e-05
3.06912e-05
3.06578e-05
3.06218e-05
3.05852e-05
3.05489e-05
3.05128e-05
3.04768e-05
3.04413e-05
3.04062e-05
3.03713e-05
3.03367e-05
3.03024e-05
3.02682e-05
3.02344e-05
3.02008e-05
3.01675e-05
3.01345e-05
3.01018e-05
3.00695e-05
3.00374e-05
3.00058e-05
2.99746e-05
2.99441e-05
2.99139e-05
2.32674e-05
2.42389e-05
2.52073e-05
2.61553e-05
2.70632e-05
2.79054e-05
2.86559e-05
2.92943e-05
2.98119e-05
3.02128e-05
3.05097e-05
3.07201e-05
3.08623e-05
3.09523e-05
3.10048e-05
3.10312e-05
3.10379e-05
3.10321e-05
3.10175e-05
3.09966e-05
3.09741e-05
3.09486e-05
3.09178e-05
3.08855e-05
3.08518e-05
3.08154e-05
3.07778e-05
3.07404e-05
3.07031e-05
3.06659e-05
3.06291e-05
3.05927e-05
3.05565e-05
3.05205e-05
3.04849e-05
3.04494e-05
3.04142e-05
3.03793e-05
3.03445e-05
3.031e-05
3.02758e-05
3.02419e-05
3.02083e-05
3.0175e-05
3.01421e-05
3.01095e-05
3.00774e-05
3.00457e-05
3.00146e-05
2.9984e-05
2.65831e-05
2.74552e-05
2.82603e-05
2.89747e-05
2.95809e-05
3.00721e-05
3.04532e-05
3.07362e-05
3.09376e-05
3.10742e-05
3.11608e-05
3.12113e-05
3.12363e-05
3.12419e-05
3.12353e-05
3.12195e-05
3.11976e-05
3.1174e-05
3.11479e-05
3.11162e-05
3.10831e-05
3.10487e-05
3.10119e-05
3.09734e-05
3.09349e-05
3.08966e-05
3.08583e-05
3.08202e-05
3.07825e-05
3.07451e-05
3.07079e-05
3.06709e-05
3.06342e-05
3.05977e-05
3.05613e-05
3.05252e-05
3.04894e-05
3.04537e-05
3.04184e-05
3.03832e-05
3.03484e-05
3.03139e-05
3.02797e-05
3.02458e-05
3.02123e-05
3.01792e-05
3.01466e-05
3.01144e-05
3.00828e-05
3.00518e-05
2.93302e-05
2.98988e-05
3.03584e-05
3.07147e-05
3.09796e-05
3.11684e-05
3.12965e-05
3.13774e-05
3.14244e-05
3.1447e-05
3.14506e-05
3.14428e-05
3.14257e-05
3.14026e-05
3.13774e-05
3.13497e-05
3.13183e-05
3.12839e-05
3.12487e-05
3.12113e-05
3.1172e-05
3.11324e-05
3.10931e-05
3.10537e-05
3.10144e-05
3.09755e-05
3.09369e-05
3.08985e-05
3.08603e-05
3.08223e-05
3.07845e-05
3.07469e-05
3.07095e-05
3.06723e-05
3.06354e-05
3.05986e-05
3.05621e-05
3.05258e-05
3.04898e-05
3.0454e-05
3.04186e-05
3.03834e-05
3.03486e-05
3.03142e-05
3.02802e-05
3.02466e-05
3.02134e-05
3.01808e-05
3.01488e-05
3.01173e-05
3.09951e-05
3.12383e-05
3.14114e-05
3.15284e-05
3.1602e-05
3.16439e-05
3.16632e-05
3.16636e-05
3.16543e-05
3.16357e-05
3.16111e-05
3.15842e-05
3.15552e-05
3.15232e-05
3.14876e-05
3.14513e-05
3.14136e-05
3.13735e-05
3.13329e-05
3.12925e-05
3.1252e-05
3.12116e-05
3.11716e-05
3.11318e-05
3.10922e-05
3.10528e-05
3.10136e-05
3.09746e-05
3.09358e-05
3.08972e-05
3.08587e-05
3.08205e-05
3.07824e-05
3.07445e-05
3.07069e-05
3.06694e-05
3.06323e-05
3.05953e-05
3.05587e-05
3.05223e-05
3.04863e-05
3.04506e-05
3.04152e-05
3.03802e-05
3.03457e-05
3.03116e-05
3.02779e-05
3.02448e-05
3.02124e-05
3.01805e-05
3.1769e-05
3.18337e-05
3.18694e-05
3.18838e-05
3.18815e-05
3.18698e-05
3.18492e-05
3.18227e-05
3.17943e-05
3.1764e-05
3.17308e-05
3.16943e-05
3.16569e-05
3.16184e-05
3.15776e-05
3.1536e-05
3.14946e-05
3.14532e-05
3.14117e-05
3.13705e-05
3.13297e-05
3.12889e-05
3.12483e-05
3.1208e-05
3.11678e-05
3.11278e-05
3.1088e-05
3.10483e-05
3.10088e-05
3.09695e-05
3.09304e-05
3.08915e-05
3.08527e-05
3.08142e-05
3.07759e-05
3.07378e-05
3.07e-05
3.06624e-05
3.06252e-05
3.05882e-05
3.05516e-05
3.05153e-05
3.04794e-05
3.04438e-05
3.04088e-05
3.03742e-05
3.03401e-05
3.03065e-05
3.02736e-05
3.02413e-05
3.21002e-05
3.21089e-05
3.21037e-05
3.20888e-05
3.20658e-05
3.20375e-05
3.20077e-05
3.19758e-05
3.19408e-05
3.19037e-05
3.18652e-05
3.18257e-05
3.17842e-05
3.17417e-05
3.16993e-05
3.1657e-05
3.16145e-05
3.15721e-05
3.15302e-05
3.14884e-05
3.14467e-05
3.14053e-05
3.1364e-05
3.13228e-05
3.12818e-05
3.1241e-05
3.12003e-05
3.11598e-05
3.11195e-05
3.10793e-05
3.10393e-05
3.09995e-05
3.09599e-05
3.09205e-05
3.08813e-05
3.08423e-05
3.08036e-05
3.07652e-05
3.0727e-05
3.06891e-05
3.06516e-05
3.06144e-05
3.05775e-05
3.05411e-05
3.0505e-05
3.04695e-05
3.04344e-05
3.03998e-05
3.03658e-05
3.03325e-05
3.02998e-05
3.2311e-05
3.22853e-05
3.22553e-05
3.22238e-05
3.21903e-05
3.21538e-05
3.21158e-05
3.2076e-05
3.20353e-05
3.19932e-05
3.19498e-05
3.19064e-05
3.18632e-05
3.18197e-05
3.17763e-05
3.17333e-05
3.16905e-05
3.16478e-05
3.16052e-05
3.15629e-05
3.15206e-05
3.14785e-05
3.14366e-05
3.13948e-05
3.13531e-05
3.13116e-05
3.12703e-05
3.12291e-05
3.11881e-05
3.11472e-05
3.11066e-05
3.10661e-05
3.10258e-05
3.09857e-05
3.09459e-05
3.09063e-05
3.0867e-05
3.08279e-05
3.07891e-05
3.07506e-05
3.07125e-05
3.06747e-05
3.06373e-05
3.06003e-05
3.05638e-05
3.05277e-05
3.04921e-05
3.04571e-05
3.04227e-05
3.0389e-05
3.03559e-05
3.24757e-05
3.24424e-05
3.24072e-05
3.23692e-05
3.233e-05
3.22894e-05
3.22474e-05
3.22044e-05
3.21602e-05
3.21158e-05
3.20717e-05
3.20273e-05
3.19829e-05
3.1939e-05
3.18951e-05
3.18513e-05
3.18077e-05
3.17644e-05
3.17211e-05
3.16779e-05
3.16349e-05
3.1592e-05
3.15493e-05
3.15067e-05
3.14642e-05
3.14219e-05
3.13797e-05
3.13376e-05
3.12958e-05
3.12541e-05
3.12126e-05
3.11712e-05
3.11301e-05
3.10892e-05
3.10484e-05
3.1008e-05
3.09677e-05
3.09278e-05
3.08881e-05
3.08487e-05
3.08096e-05
3.07709e-05
3.07326e-05
3.06946e-05
3.06571e-05
3.062e-05
3.05835e-05
3.05474e-05
3.0512e-05
3.04771e-05
3.0443e-05
3.04096e-05
3.25868e-05
3.25463e-05
3.25047e-05
3.24616e-05
3.24175e-05
3.23727e-05
3.23273e-05
3.22823e-05
3.22371e-05
3.21917e-05
3.21468e-05
3.21021e-05
3.20572e-05
3.20127e-05
3.19683e-05
3.1924e-05
3.18798e-05
3.18358e-05
3.17919e-05
3.17481e-05
3.17044e-05
3.16608e-05
3.16174e-05
3.15741e-05
3.1531e-05
3.1488e-05
3.14451e-05
3.14024e-05
3.13599e-05
3.13175e-05
3.12753e-05
3.12333e-05
3.11915e-05
3.115e-05
3.11086e-05
3.10675e-05
3.10266e-05
3.09861e-05
3.09458e-05
3.09058e-05
3.08661e-05
3.08268e-05
3.07879e-05
3.07494e-05
3.07114e-05
3.06738e-05
3.06367e-05
3.06002e-05
3.05643e-05
3.0529e-05
3.04946e-05
3.04607e-05
3.26778e-05
3.26327e-05
3.2587e-05
3.25408e-05
3.24948e-05
3.24489e-05
3.24026e-05
3.23567e-05
3.23111e-05
3.22653e-05
3.22198e-05
3.21745e-05
3.21292e-05
3.2084e-05
3.2039e-05
3.19941e-05
3.19493e-05
3.19046e-05
3.186e-05
3.18156e-05
3.17712e-05
3.1727e-05
3.16829e-05
3.1639e-05
3.15952e-05
3.15515e-05
3.1508e-05
3.14646e-05
3.14214e-05
3.13784e-05
3.13355e-05
3.12929e-05
3.12504e-05
3.12082e-05
3.11662e-05
3.11245e-05
3.1083e-05
3.10418e-05
3.10009e-05
3.09603e-05
3.09201e-05
3.08802e-05
3.08407e-05
3.08017e-05
3.07631e-05
3.0725e-05
3.06875e-05
3.06505e-05
3.06142e-05
3.05785e-05
3.05436e-05
3.05094e-05
3.2756e-05
3.27091e-05
3.26623e-05
3.26153e-05
3.25685e-05
3.2522e-05
3.24754e-05
3.2429e-05
3.23827e-05
3.23365e-05
3.22904e-05
3.22445e-05
3.21986e-05
3.21528e-05
3.21072e-05
3.20616e-05
3.20162e-05
3.19708e-05
3.19256e-05
3.18805e-05
3.18355e-05
3.17906e-05
3.17458e-05
3.17012e-05
3.16567e-05
3.16124e-05
3.15682e-05
3.15242e-05
3.14803e-05
3.14366e-05
3.13931e-05
3.13498e-05
3.13068e-05
3.12639e-05
3.12213e-05
3.11789e-05
3.11368e-05
3.1095e-05
3.10534e-05
3.10123e-05
3.09715e-05
3.0931e-05
3.0891e-05
3.08514e-05
3.08123e-05
3.07737e-05
3.07357e-05
3.06982e-05
3.06614e-05
3.06253e-05
3.059e-05
3.05554e-05
3.28296e-05
3.2782e-05
3.27347e-05
3.26873e-05
3.26399e-05
3.25928e-05
3.25458e-05
3.24988e-05
3.24519e-05
3.24052e-05
3.23585e-05
3.23119e-05
3.22654e-05
3.2219e-05
3.21727e-05
3.21265e-05
3.20804e-05
3.20344e-05
3.19885e-05
3.19428e-05
3.18971e-05
3.18516e-05
3.18061e-05
3.17609e-05
3.17157e-05
3.16707e-05
3.16259e-05
3.15812e-05
3.15367e-05
3.14923e-05
3.14482e-05
3.14042e-05
3.13605e-05
3.1317e-05
3.12737e-05
3.12307e-05
3.1188e-05
3.11455e-05
3.11034e-05
3.10616e-05
3.10202e-05
3.09792e-05
3.09386e-05
3.08985e-05
3.08589e-05
3.08198e-05
3.07813e-05
3.07433e-05
3.07061e-05
3.06695e-05
3.06339e-05
3.05989e-05
3.29007e-05
3.28525e-05
3.28046e-05
3.27567e-05
3.27089e-05
3.26612e-05
3.26136e-05
3.2566e-05
3.25186e-05
3.24712e-05
3.24239e-05
3.23767e-05
3.23296e-05
3.22826e-05
3.22356e-05
3.21888e-05
3.2142e-05
3.20954e-05
3.20489e-05
3.20024e-05
3.19561e-05
3.19099e-05
3.18638e-05
3.18179e-05
3.17721e-05
3.17265e-05
3.16809e-05
3.16356e-05
3.15904e-05
3.15454e-05
3.15006e-05
3.1456e-05
3.14116e-05
3.13675e-05
3.13236e-05
3.12799e-05
3.12366e-05
3.11935e-05
3.11508e-05
3.11084e-05
3.10664e-05
3.10248e-05
3.09837e-05
3.0943e-05
3.09028e-05
3.08632e-05
3.08242e-05
3.07858e-05
3.07481e-05
3.07111e-05
3.0675e-05
3.06396e-05
3.29692e-05
3.29206e-05
3.28721e-05
3.28237e-05
3.27753e-05
3.2727e-05
3.26788e-05
3.26307e-05
3.25826e-05
3.25346e-05
3.24867e-05
3.24389e-05
3.23911e-05
3.23435e-05
3.22959e-05
3.22484e-05
3.2201e-05
3.21538e-05
3.21066e-05
3.20595e-05
3.20125e-05
3.19657e-05
3.1919e-05
3.18724e-05
3.18259e-05
3.17796e-05
3.17334e-05
3.16874e-05
3.16416e-05
3.15959e-05
3.15504e-05
3.15052e-05
3.14601e-05
3.14153e-05
3.13708e-05
3.13265e-05
3.12825e-05
3.12388e-05
3.11955e-05
3.11525e-05
3.11099e-05
3.10677e-05
3.1026e-05
3.09847e-05
3.0944e-05
3.09039e-05
3.08643e-05
3.08254e-05
3.07873e-05
3.07498e-05
3.07133e-05
3.06775e-05
3.29861e-05
3.2937e-05
3.2888e-05
3.28391e-05
3.27902e-05
3.27414e-05
3.26927e-05
3.2644e-05
3.25954e-05
3.25469e-05
3.24985e-05
3.24501e-05
3.24018e-05
3.23536e-05
3.23055e-05
3.22575e-05
3.22095e-05
3.21617e-05
3.2114e-05
3.20663e-05
3.20188e-05
3.19714e-05
3.19242e-05
3.18771e-05
3.18301e-05
3.17832e-05
3.17366e-05
3.16901e-05
3.16437e-05
3.15976e-05
3.15517e-05
3.1506e-05
3.14605e-05
3.14153e-05
3.13704e-05
3.13257e-05
3.12814e-05
3.12374e-05
3.11938e-05
3.11506e-05
3.11078e-05
3.10655e-05
3.10237e-05
3.09825e-05
3.09418e-05
3.09017e-05
3.08623e-05
3.08237e-05
3.07858e-05
3.07488e-05
3.07126e-05
3.3049e-05
3.29993e-05
3.29498e-05
3.29002e-05
3.28508e-05
3.28014e-05
3.27521e-05
3.27028e-05
3.26536e-05
3.26045e-05
3.25554e-05
3.25064e-05
3.24575e-05
3.24087e-05
3.23599e-05
3.23113e-05
3.22627e-05
3.22142e-05
3.21658e-05
3.21175e-05
3.20694e-05
3.20213e-05
3.19734e-05
3.19256e-05
3.18779e-05
3.18304e-05
3.17831e-05
3.17359e-05
3.16889e-05
3.16421e-05
3.15955e-05
3.15491e-05
3.1503e-05
3.14571e-05
3.14115e-05