/*--------------------------------*- C++ -*----------------------------------*\
| =========                 |                                                 |
| \\      /  F ield         | OpenFOAM: The Open Source CFD Toolbox           |
|  \\    /   O peration     | Version:  v1706                                 |
|   \\  /    A nd           | Web:      www.OpenFOAM.com                      |
|    \\/     M anipulation  |                                                 |
\*---------------------------------------------------------------------------*/
FoamFile
{
    version     2.0;
    format      ascii;
    class       volScalarField;
    location    "3.6e-05";
    object      kappave;
}
// * * * * * * * * * * * * * * * * * * * * * * * * * * * * * * * * * * * * * //

dimensions      [1 1 -3 -1 0 0 0];


internalField   nonuniform List<scalar> 
30038
(
1.46038e-10
1.46038e-10
1.46038e-10
1.46038e-10
1.46038e-10
1.46038e-10
1.46038e-10
1.46038e-10
1.46038e-10
1.46038e-10
1.46038e-10
1.46038e-10
1.46038e-10
1.46038e-10
1.46038e-10
1.46038e-10
1.46038e-10
1.46038e-10
1.46038e-10
1.46038e-10
1.46038e-10
1.46038e-10
1.46038e-10
1.46038e-10
1.46038e-10
1.46038e-10
1.46038e-10
1.46038e-10
1.46038e-10
1.46038e-10
1.46038e-10
1.46038e-10
1.46038e-10
1.46038e-10
1.46038e-10
1.46038e-10
1.46038e-10
1.46038e-10
1.46038e-10
1.46038e-10
1.46038e-10
1.46038e-10
1.46038e-10
1.46038e-10
1.46038e-10
1.46038e-10
1.46038e-10
1.46038e-10
1.46038e-10
1.46038e-10
1.46038e-10
1.46038e-10
1.46038e-10
1.46038e-10
1.46038e-10
1.46038e-10
1.46038e-10
1.46038e-10
1.46038e-10
1.46038e-10
1.46038e-10
1.46038e-10
1.46038e-10
1.46038e-10
1.46038e-10
1.46038e-10
1.46038e-10
1.46038e-10
1.46038e-10
1.46038e-10
1.46038e-10
1.46038e-10
1.46038e-10
1.46038e-10
1.46038e-10
1.46038e-10
1.46038e-10
1.46038e-10
1.46038e-10
1.46038e-10
1.46038e-10
1.46038e-10
1.46038e-10
1.46038e-10
1.46038e-10
1.46038e-10
1.46038e-10
1.46038e-10
1.46038e-10
1.46038e-10
1.46038e-10
1.46038e-10
1.46038e-10
1.46038e-10
1.46038e-10
1.46038e-10
1.46038e-10
1.46038e-10
1.46038e-10
1.46038e-10
1.46038e-10
1.46038e-10
1.46038e-10
1.46038e-10
1.46038e-10
1.46038e-10
1.46038e-10
1.46038e-10
1.46038e-10
1.46038e-10
1.46038e-10
1.46038e-10
1.46038e-10
1.46038e-10
1.46038e-10
1.46038e-10
1.46038e-10
1.46038e-10
1.46038e-10
1.46038e-10
1.46038e-10
1.46038e-10
1.46038e-10
1.46038e-10
1.46038e-10
1.46038e-10
1.46038e-10
1.46038e-10
1.46038e-10
1.46038e-10
1.46038e-10
1.46038e-10
1.46038e-10
1.46038e-10
1.46038e-10
1.46038e-10
1.46038e-10
1.46038e-10
1.46038e-10
1.46038e-10
1.46038e-10
1.46038e-10
1.46038e-10
1.46038e-10
1.46038e-10
1.46038e-10
1.46038e-10
1.46038e-10
1.46038e-10
1.46038e-10
1.46038e-10
1.46038e-10
1.46038e-10
1.46038e-10
1.46038e-10
1.46038e-10
1.46038e-10
1.46038e-10
1.46038e-10
1.46038e-10
1.46038e-10
1.46038e-10
1.46038e-10
1.46038e-10
1.46038e-10
1.46038e-10
1.46038e-10
1.46038e-10
1.46038e-10
1.46038e-10
1.46038e-10
1.46038e-10
1.46038e-10
1.46038e-10
1.46038e-10
1.46038e-10
1.46038e-10
1.46038e-10
1.46038e-10
1.46038e-10
1.46038e-10
1.46038e-10
1.46038e-10
1.46038e-10
1.46038e-10
1.46038e-10
1.46038e-10
1.46038e-10
1.46038e-10
1.46038e-10
1.46038e-10
1.46038e-10
1.46038e-10
1.46038e-10
1.46038e-10
1.46038e-10
1.46038e-10
1.46038e-10
1.46038e-10
1.46038e-10
1.46038e-10
1.46038e-10
1.46038e-10
1.46038e-10
1.46038e-10
1.46038e-10
1.46038e-10
1.46038e-10
1.46038e-10
1.46038e-10
1.46038e-10
1.46038e-10
1.46038e-10
1.46038e-10
1.46038e-10
1.46038e-10
1.46038e-10
1.46038e-10
1.46038e-10
1.46038e-10
1.46038e-10
1.46038e-10
1.46038e-10
1.46038e-10
1.46038e-10
1.46038e-10
1.46038e-10
1.46038e-10
1.46038e-10
1.46038e-10
1.46038e-10
1.46038e-10
1.46038e-10
1.46038e-10
1.46038e-10
1.46038e-10
1.46038e-10
1.46038e-10
1.46038e-10
1.46038e-10
1.46038e-10
1.46038e-10
1.46038e-10
1.46038e-10
1.46038e-10
1.46038e-10
1.46038e-10
1.46038e-10
1.46038e-10
1.46038e-10
1.46038e-10
1.46038e-10
1.46038e-10
1.46038e-10
1.46038e-10
1.46038e-10
1.46038e-10
1.46038e-10
1.46038e-10
1.46038e-10
1.46038e-10
1.46038e-10
1.46038e-10
1.46038e-10
1.46038e-10
1.46038e-10
1.46038e-10
1.46038e-10
1.46038e-10
1.46038e-10
1.46038e-10
1.46038e-10
1.46038e-10
1.46038e-10
1.46038e-10
1.46038e-10
1.46038e-10
1.46038e-10
1.46038e-10
1.46038e-10
1.46038e-10
1.46038e-10
1.46038e-10
1.46038e-10
1.46038e-10
1.46038e-10
1.46038e-10
1.46038e-10
1.46038e-10
1.46038e-10
1.46038e-10
1.46038e-10
1.46038e-10
1.46038e-10
1.46038e-10
1.46038e-10
1.46038e-10
1.46038e-10
1.46038e-10
1.46038e-10
1.46038e-10
1.46038e-10
1.46038e-10
1.46038e-10
1.46038e-10
1.46038e-10
1.46038e-10
1.46038e-10
1.46038e-10
1.46038e-10
1.46038e-10
1.46038e-10
1.46038e-10
1.46038e-10
1.46038e-10
1.46038e-10
1.46038e-10
1.46038e-10
1.46038e-10
1.46038e-10
1.46038e-10
1.46038e-10
1.46038e-10
1.46038e-10
1.46038e-10
1.46038e-10
1.46038e-10
1.46038e-10
1.46038e-10
1.46038e-10
1.46038e-10
1.46038e-10
1.46038e-10
1.46038e-10
1.46038e-10
1.46038e-10
1.46038e-10
1.46038e-10
1.46038e-10
1.46038e-10
1.46038e-10
1.46038e-10
1.46038e-10
1.46038e-10
1.46038e-10
1.46038e-10
1.46038e-10
1.46038e-10
1.46038e-10
1.46038e-10
1.46038e-10
1.46038e-10
1.46038e-10
1.46038e-10
1.46038e-10
1.46038e-10
1.46038e-10
1.46038e-10
1.46038e-10
1.46038e-10
1.46038e-10
1.46038e-10
1.46038e-10
1.46038e-10
1.46038e-10
1.46038e-10
1.46038e-10
1.46038e-10
1.46038e-10
1.46038e-10
1.46038e-10
1.46038e-10
1.46038e-10
1.46038e-10
1.46038e-10
1.46038e-10
1.46038e-10
1.46038e-10
1.46038e-10
1.46038e-10
1.46038e-10
1.46039e-10
1.46038e-10
1.46038e-10
1.46038e-10
1.46038e-10
1.46038e-10
1.46038e-10
1.46038e-10
1.46038e-10
1.46038e-10
1.46038e-10
1.46038e-10
1.46038e-10
1.46038e-10
1.46038e-10
1.46038e-10
1.46038e-10
1.46038e-10
1.46038e-10
1.46038e-10
1.46038e-10
1.46038e-10
1.46038e-10
1.46038e-10
1.46038e-10
1.46038e-10
1.46038e-10
1.46038e-10
1.46038e-10
1.46038e-10
1.46038e-10
1.46038e-10
1.46038e-10
1.46038e-10
1.46038e-10
1.46038e-10
1.46039e-10
1.46039e-10
1.4604e-10
1.4604e-10
1.46038e-10
1.46038e-10
1.46038e-10
1.46038e-10
1.46038e-10
1.46038e-10
1.46038e-10
1.46038e-10
1.46038e-10
1.46038e-10
1.46038e-10
1.46038e-10
1.46038e-10
1.46038e-10
1.46038e-10
1.46038e-10
1.46038e-10
1.46038e-10
1.46038e-10
1.46038e-10
1.46038e-10
1.46038e-10
1.46038e-10
1.46038e-10
1.46038e-10
1.46038e-10
1.46038e-10
1.46038e-10
1.46038e-10
1.46038e-10
1.46038e-10
1.46038e-10
1.46038e-10
1.46039e-10
1.46039e-10
1.46039e-10
1.4604e-10
1.46041e-10
1.46043e-10
1.46046e-10
1.46038e-10
1.46038e-10
1.46038e-10
1.46038e-10
1.46038e-10
1.46038e-10
1.46038e-10
1.46038e-10
1.46038e-10
1.46038e-10
1.46038e-10
1.46038e-10
1.46038e-10
1.46038e-10
1.46038e-10
1.46038e-10
1.46038e-10
1.46038e-10
1.46038e-10
1.46038e-10
1.46038e-10
1.46038e-10
1.46038e-10
1.46038e-10
1.46038e-10
1.46038e-10
1.46038e-10
1.46038e-10
1.46038e-10
1.46038e-10
1.46038e-10
1.46039e-10
1.46039e-10
1.4604e-10
1.46041e-10
1.46043e-10
1.46045e-10
1.46048e-10
1.46053e-10
1.46061e-10
1.46038e-10
1.46038e-10
1.46038e-10
1.46038e-10
1.46038e-10
1.46038e-10
1.46038e-10
1.46038e-10
1.46038e-10
1.46038e-10
1.46038e-10
1.46038e-10
1.46038e-10
1.46038e-10
1.46038e-10
1.46038e-10
1.46038e-10
1.46038e-10
1.46038e-10
1.46038e-10
1.46038e-10
1.46038e-10
1.46038e-10
1.46038e-10
1.46038e-10
1.46038e-10
1.46038e-10
1.46039e-10
1.46039e-10
1.46039e-10
1.4604e-10
1.46041e-10
1.46043e-10
1.46045e-10
1.46048e-10
1.46052e-10
1.46059e-10
1.46068e-10
1.46082e-10
1.46103e-10
1.46038e-10
1.46038e-10
1.46038e-10
1.46038e-10
1.46038e-10
1.46038e-10
1.46038e-10
1.46038e-10
1.46038e-10
1.46038e-10
1.46038e-10
1.46038e-10
1.46038e-10
1.46038e-10
1.46038e-10
1.46038e-10
1.46038e-10
1.46038e-10
1.46038e-10
1.46038e-10
1.46038e-10
1.46038e-10
1.46038e-10
1.46038e-10
1.46039e-10
1.46039e-10
1.46039e-10
1.4604e-10
1.46041e-10
1.46042e-10
1.46045e-10
1.46047e-10
1.46052e-10
1.46058e-10
1.46066e-10
1.46079e-10
1.46097e-10
1.46124e-10
1.46162e-10
1.4622e-10
1.46038e-10
1.46038e-10
1.46038e-10
1.46038e-10
1.46038e-10
1.46038e-10
1.46038e-10
1.46038e-10
1.46038e-10
1.46038e-10
1.46038e-10
1.46038e-10
1.46038e-10
1.46038e-10
1.46038e-10
1.46038e-10
1.46038e-10
1.46038e-10
1.46038e-10
1.46038e-10
1.46038e-10
1.46039e-10
1.46039e-10
1.46039e-10
1.4604e-10
1.46041e-10
1.46043e-10
1.46044e-10
1.46047e-10
1.46051e-10
1.46057e-10
1.46065e-10
1.46077e-10
1.46094e-10
1.46118e-10
1.46153e-10
1.46203e-10
1.46275e-10
1.46381e-10
1.46536e-10
1.46038e-10
1.46038e-10
1.46038e-10
1.46038e-10
1.46038e-10
1.46038e-10
1.46038e-10
1.46038e-10
1.46038e-10
1.46038e-10
1.46038e-10
1.46038e-10
1.46038e-10
1.46038e-10
1.46038e-10
1.46038e-10
1.46038e-10
1.46038e-10
1.46039e-10
1.46039e-10
1.46039e-10
1.4604e-10
1.46041e-10
1.46043e-10
1.46045e-10
1.46047e-10
1.46051e-10
1.46057e-10
1.46065e-10
1.46076e-10
1.46092e-10
1.46114e-10
1.46147e-10
1.46193e-10
1.46258e-10
1.46352e-10
1.46488e-10
1.46682e-10
1.46964e-10
1.47372e-10
1.46038e-10
1.46038e-10
1.46038e-10
1.46038e-10
1.46038e-10
1.46038e-10
1.46038e-10
1.46038e-10
1.46038e-10
1.46038e-10
1.46038e-10
1.46038e-10
1.46038e-10
1.46038e-10
1.46038e-10
1.46039e-10
1.46039e-10
1.4604e-10
1.4604e-10
1.46041e-10
1.46043e-10
1.46045e-10
1.46048e-10
1.46051e-10
1.46057e-10
1.46065e-10
1.46075e-10
1.46091e-10
1.46112e-10
1.46143e-10
1.46186e-10
1.46247e-10
1.46334e-10
1.46457e-10
1.46633e-10
1.46883e-10
1.4724e-10
1.4775e-10
1.48477e-10
1.49518e-10
1.46038e-10
1.46038e-10
1.46038e-10
1.46038e-10
1.46038e-10
1.46038e-10
1.46038e-10
1.46038e-10
1.46038e-10
1.46038e-10
1.46038e-10
1.46038e-10
1.46038e-10
1.46039e-10
1.46039e-10
1.4604e-10
1.46041e-10
1.46042e-10
1.46043e-10
1.46045e-10
1.46048e-10
1.46052e-10
1.46057e-10
1.46065e-10
1.46076e-10
1.4609e-10
1.46111e-10
1.46141e-10
1.46182e-10
1.4624e-10
1.46321e-10
1.46436e-10
1.46598e-10
1.46828e-10
1.47152e-10
1.4761e-10
1.48256e-10
1.49168e-10
1.5045e-10
1.52243e-10
1.5474e-10
1.46038e-10
1.46038e-10
1.46038e-10
1.46038e-10
1.46038e-10
1.46038e-10
1.46038e-10
1.46038e-10
1.46038e-10
1.46039e-10
1.46039e-10
1.46039e-10
1.4604e-10
1.46041e-10
1.46042e-10
1.46043e-10
1.46046e-10
1.46048e-10
1.46052e-10
1.46058e-10
1.46066e-10
1.46076e-10
1.46091e-10
1.46112e-10
1.4614e-10
1.4618e-10
1.46236e-10
1.46314e-10
1.46423e-10
1.46575e-10
1.46789e-10
1.47089e-10
1.4751e-10
1.48099e-10
1.48924e-10
1.50073e-10
1.51669e-10
1.53869e-10
1.56874e-10
1.60922e-10
1.66275e-10
1.46038e-10
1.46038e-10
1.46038e-10
1.46038e-10
1.46038e-10
1.46038e-10
1.46038e-10
1.46039e-10
1.46039e-10
1.4604e-10
1.4604e-10
1.46041e-10
1.46042e-10
1.46044e-10
1.46046e-10
1.46049e-10
1.46053e-10
1.46059e-10
1.46067e-10
1.46078e-10
1.46093e-10
1.46113e-10
1.46142e-10
1.46181e-10
1.46235e-10
1.46311e-10
1.46416e-10
1.46562e-10
1.46765e-10
1.47047e-10
1.4744e-10
1.47987e-10
1.48746e-10
1.49798e-10
1.51249e-10
1.53238e-10
1.55939e-10
1.59565e-10
1.64353e-10
1.70547e-10
1.78359e-10
1.87891e-10
1.46038e-10
1.46038e-10
1.46038e-10
1.46038e-10
1.46039e-10
1.46039e-10
1.46039e-10
1.4604e-10
1.46041e-10
1.46041e-10
1.46043e-10
1.46045e-10
1.46047e-10
1.4605e-10
1.46055e-10
1.46061e-10
1.46069e-10
1.4608e-10
1.46095e-10
1.46116e-10
1.46145e-10
1.46184e-10
1.46238e-10
1.46313e-10
1.46415e-10
1.46557e-10
1.46752e-10
1.47023e-10
1.47396e-10
1.47911e-10
1.48622e-10
1.496e-10
1.50941e-10
1.52769e-10
1.5524e-10
1.58546e-10
1.62902e-10
1.68534e-10
1.75649e-10
1.8439e-10
1.94795e-10
2.06729e-10
2.19878e-10
1.46038e-10
1.46039e-10
1.46039e-10
1.4604e-10
1.4604e-10
1.46041e-10
1.46042e-10
1.46043e-10
1.46045e-10
1.46048e-10
1.46051e-10
1.46056e-10
1.46063e-10
1.46071e-10
1.46083e-10
1.46099e-10
1.4612e-10
1.4615e-10
1.4619e-10
1.46244e-10
1.46319e-10
1.46421e-10
1.46561e-10
1.46752e-10
1.47014e-10
1.47375e-10
1.47868e-10
1.48544e-10
1.49468e-10
1.50726e-10
1.52431e-10
1.54725e-10
1.57781e-10
1.61798e-10
1.66989e-10
1.73553e-10
1.81645e-10
1.91325e-10
2.02521e-10
2.14983e-10
2.28316e-10
2.41944e-10
2.55174e-10
1.46039e-10
1.4604e-10
1.46041e-10
1.46041e-10
1.46043e-10
1.46044e-10
1.46046e-10
1.46049e-10
1.46053e-10
1.46058e-10
1.46065e-10
1.46074e-10
1.46087e-10
1.46104e-10
1.46126e-10
1.46157e-10
1.46198e-10
1.46254e-10
1.4633e-10
1.46433e-10
1.46573e-10
1.46763e-10
1.47022e-10
1.47375e-10
1.47854e-10
1.48507e-10
1.49392e-10
1.50591e-10
1.52204e-10
1.54364e-10
1.57227e-10
1.60977e-10
1.65815e-10
1.71931e-10
1.79486e-10
1.88565e-10
1.99137e-10
2.11023e-10
2.23884e-10
2.37243e-10
2.50445e-10
2.62693e-10
2.73226e-10
2.8178e-10
1.46041e-10
1.46042e-10
1.46044e-10
1.46045e-10
1.46048e-10
1.46051e-10
1.46055e-10
1.46061e-10
1.46068e-10
1.46079e-10
1.46092e-10
1.4611e-10
1.46134e-10
1.46166e-10
1.46209e-10
1.46267e-10
1.46346e-10
1.46451e-10
1.46593e-10
1.46785e-10
1.47045e-10
1.47396e-10
1.47869e-10
1.48509e-10
1.4937e-10
1.50528e-10
1.52078e-10
1.54139e-10
1.56857e-10
1.60402e-10
1.64961e-10
1.70717e-10
1.77828e-10
1.86394e-10
1.96418e-10
2.07773e-10
2.20184e-10
2.3325e-10
2.46428e-10
2.59008e-10
2.70224e-10
2.79512e-10
2.8673e-10
2.92059e-10
2.96025e-10
1.46045e-10
1.46047e-10
1.4605e-10
1.46053e-10
1.46058e-10
1.46064e-10
1.46073e-10
1.46084e-10
1.46098e-10
1.46118e-10
1.46144e-10
1.46178e-10
1.46224e-10
1.46285e-10
1.46367e-10
1.46477e-10
1.46624e-10
1.4682e-10
1.47084e-10
1.47438e-10
1.47913e-10
1.48549e-10
1.49399e-10
1.50535e-10
1.52044e-10
1.54038e-10
1.56653e-10
1.60046e-10
1.64391e-10
1.69864e-10
1.76617e-10
1.84755e-10
1.94304e-10
2.05176e-10
2.17152e-10
2.29885e-10
2.42921e-10
2.5566e-10
2.67379e-10
2.77431e-10
2.85486e-10
2.91603e-10
2.96097e-10
2.99419e-10
3.01972e-10
3.04191e-10
1.46048e-10
1.46052e-10
1.46056e-10
1.46061e-10
1.46069e-10
1.46078e-10
1.4609e-10
1.46107e-10
1.46128e-10
1.46156e-10
1.46194e-10
1.46243e-10
1.46309e-10
1.46396e-10
1.46511e-10
1.46665e-10
1.46869e-10
1.47141e-10
1.47504e-10
1.47986e-10
1.48627e-10
1.4948e-10
1.50608e-10
1.52098e-10
1.54054e-10
1.56603e-10
1.59891e-10
1.64082e-10
1.69339e-10
1.75811e-10
1.83602e-10
1.92751e-10
2.032e-10
2.14769e-10
2.2716e-10
2.39985e-10
2.52732e-10
2.6476e-10
2.75405e-10
2.84212e-10
2.91086e-10
2.96245e-10
3.00069e-10
3.02982e-10
3.05354e-10
3.07502e-10
3.09675e-10
3.12122e-10
1.46066e-10
1.46074e-10
1.46085e-10
1.46099e-10
1.46117e-10
1.46141e-10
1.46172e-10
1.46213e-10
1.46268e-10
1.46339e-10
1.46432e-10
1.46556e-10
1.46719e-10
1.46934e-10
1.47219e-10
1.47595e-10
1.48092e-10
1.48748e-10
1.49614e-10
1.50752e-10
1.52243e-10
1.54187e-10
1.56702e-10
1.59928e-10
1.64016e-10
1.69121e-10
1.75381e-10
1.829e-10
1.91722e-10
2.01809e-10
2.13012e-10
2.25074e-10
2.3765e-10
2.50308e-10
2.62489e-10
2.73556e-10
2.82984e-10
2.90547e-10
2.96348e-10
3.00707e-10
3.04022e-10
3.06679e-10
3.09005e-10
3.11262e-10
3.13667e-10
3.16357e-10
3.19539e-10
3.23508e-10
1.46081e-10
1.46093e-10
1.46109e-10
1.4613e-10
1.46157e-10
1.46193e-10
1.46238e-10
1.46298e-10
1.46377e-10
1.46479e-10
1.46613e-10
1.46788e-10
1.47018e-10
1.4732e-10
1.47716e-10
1.48235e-10
1.48916e-10
1.49806e-10
1.50969e-10
1.52481e-10
1.54438e-10
1.56953e-10
1.60155e-10
1.64188e-10
1.69196e-10
1.7531e-10
1.82627e-10
1.91192e-10
2.00979e-10
2.11864e-10
2.23622e-10
2.35942e-10
2.4845e-10
2.60663e-10
2.71999e-10
2.81908e-10
2.90066e-10
2.96466e-10
3.01352e-10
3.05087e-10
3.08057e-10
3.10602e-10
3.13002e-10
3.15488e-10
3.18238e-10
3.21377e-10
3.25146e-10
3.29636e-10
3.35018e-10
3.41698e-10
1.46147e-10
1.46178e-10
1.46218e-10
1.4627e-10
1.46337e-10
1.46424e-10
1.46538e-10
1.46685e-10
1.46876e-10
1.47125e-10
1.47449e-10
1.47871e-10
1.48421e-10
1.49136e-10
1.50065e-10
1.51269e-10
1.52822e-10
1.54816e-10
1.57361e-10
1.60577e-10
1.646e-10
1.69563e-10
1.75589e-10
1.82768e-10
1.91141e-10
2.00689e-10
2.11307e-10
2.22792e-10
2.34864e-10
2.4719e-10
2.59353e-10
2.70833e-10
2.81089e-10
2.89734e-10
2.96665e-10
3.02049e-10
3.06205e-10
3.09502e-10
3.12291e-10
3.14862e-10
3.17469e-10
3.20303e-10
3.23491e-10
3.27254e-10
3.31742e-10
3.37056e-10
3.43378e-10
3.50937e-10
3.60019e-10
3.71238e-10
1.46311e-10
1.46387e-10
1.46485e-10
1.46612e-10
1.46775e-10
1.46987e-10
1.4726e-10
1.47613e-10
1.48069e-10
1.48659e-10
1.4942e-10
1.50401e-10
1.51662e-10
1.53277e-10
1.55335e-10
1.57939e-10
1.61205e-10
1.6526e-10
1.70228e-10
1.7622e-10
1.8332e-10
1.91564e-10
2.00931e-10
2.11331e-10
2.22578e-10
2.3442e-10
2.4655e-10
2.58608e-10
2.70134e-10
2.80616e-10
2.89637e-10
2.97021e-10
3.02856e-10
3.07415e-10
3.11045e-10
3.14093e-10
3.16861e-10
3.19609e-10
3.2255e-10
3.25835e-10
3.29635e-10
3.34151e-10
3.39498e-10
3.45815e-10
3.53317e-10
3.62243e-10
3.7284e-10
3.85444e-10
4.00503e-10
4.18928e-10
1.46706e-10
1.4689e-10
1.47127e-10
1.4743e-10
1.47819e-10
1.48318e-10
1.48959e-10
1.49779e-10
1.50828e-10
1.52165e-10
1.53864e-10
1.56011e-10
1.58706e-10
1.62059e-10
1.66187e-10
1.71205e-10
1.77216e-10
1.84292e-10
1.92462e-10
2.01703e-10
2.11932e-10
2.2298e-10
2.34611e-10
2.46544e-10
2.58464e-10
2.69961e-10
2.80568e-10
2.89859e-10
2.97606e-10
3.03835e-10
3.08767e-10
3.1272e-10
3.16034e-10
3.19018e-10
3.21931e-10
3.25009e-10
3.28414e-10
3.323e-10
3.36877e-10
3.42294e-10
3.4867e-10
3.56198e-10
3.65114e-10
3.75657e-10
3.8812e-10
4.02854e-10
4.20248e-10
4.40752e-10
4.64997e-10
4.94326e-10
1.47644e-10
1.48078e-10
1.48631e-10
1.49335e-10
1.50229e-10
1.51364e-10
1.52799e-10
1.54606e-10
1.5687e-10
1.59688e-10
1.63163e-10
1.67405e-10
1.7252e-10
1.78597e-10
1.85699e-10
1.93846e-10
2.03011e-10
2.13113e-10
2.23997e-10
2.35439e-10
2.47182e-10
2.58941e-10
2.70358e-10
2.81006e-10
2.90471e-10
2.98493e-10
3.05049e-10
3.10312e-10
3.14571e-10
3.18151e-10
3.21362e-10
3.24461e-10
3.27696e-10
3.31254e-10
3.35266e-10
3.3995e-10
3.45466e-10
3.51958e-10
3.59574e-10
3.68554e-10
3.79141e-10
3.91594e-10
4.06251e-10
4.23488e-10
4.43712e-10
4.67396e-10
4.95086e-10
5.27425e-10
5.65311e-10
6.10662e-10
1.49807e-10
1.50793e-10
1.52034e-10
1.53589e-10
1.55532e-10
1.57944e-10
1.60918e-10
1.64553e-10
1.6895e-10
1.74203e-10
1.80392e-10
1.87566e-10
1.95737e-10
2.0487e-10
2.14885e-10
2.25637e-10
2.36912e-10
2.48473e-10
2.6006e-10
2.71359e-10
2.81981e-10
2.91535e-10
2.99749e-10
3.06561e-10
3.12107e-10
3.16645e-10
3.20483e-10
3.23925e-10
3.27232e-10
3.30652e-10
3.34387e-10
3.3856e-10
3.43396e-10
3.49061e-10
3.55712e-10
3.63484e-10
3.72601e-10
3.83311e-10
3.9586e-10
4.10561e-10
4.27784e-10
4.47924e-10
4.71426e-10
4.98803e-10
5.30637e-10
5.67584e-10
6.104e-10
6.5998e-10
7.17568e-10
7.85849e-10
1.54572e-10
1.5668e-10
1.59273e-10
1.6244e-10
1.66273e-10
1.70864e-10
1.76298e-10
1.82641e-10
1.89929e-10
1.98164e-10
2.07304e-10
2.17266e-10
2.27912e-10
2.3904e-10
2.50427e-10
2.61836e-10
2.72989e-10
2.83533e-10
2.93104e-10
3.01431e-10
3.08431e-10
3.14207e-10
3.18993e-10
3.23077e-10
3.26752e-10
3.30282e-10
3.3391e-10
3.37845e-10
3.42231e-10
3.47267e-10
3.53121e-10
3.59975e-10
3.67974e-10
3.77303e-10
3.88216e-10
4.00963e-10
4.15828e-10
4.33171e-10
4.5338e-10
4.76881e-10
5.04163e-10
5.35783e-10
5.72362e-10
6.14606e-10
6.63313e-10
7.19383e-10
7.83839e-10
8.57894e-10
9.43243e-10
1.04356e-09
1.64305e-10
1.68375e-10
1.73202e-10
1.78856e-10
1.85391e-10
1.9283e-10
2.01164e-10
2.10341e-10
2.20279e-10
2.30842e-10
2.41837e-10
2.53056e-10
2.64283e-10
2.75268e-10
2.85693e-10
2.95222e-10
3.03594e-10
3.10716e-10
3.16672e-10
3.21672e-10
3.25985e-10
3.29894e-10
3.3366e-10
3.37519e-10
3.41685e-10
3.46319e-10
3.51603e-10
3.57703e-10
3.64818e-10
3.73107e-10
3.82722e-10
3.93924e-10
4.06967e-10
4.22115e-10
4.39709e-10
4.60137e-10
4.83811e-10
5.11198e-10
5.42834e-10
5.79314e-10
6.21309e-10
6.69577e-10
7.24967e-10
7.88435e-10
8.61051e-10
9.4402e-10
1.0387e-09
1.14672e-09
1.27032e-09
1.41444e-09
1.81936e-10
1.88698e-10
1.96319e-10
2.04778e-10
2.14018e-10
2.23953e-10
2.34449e-10
2.4532e-10
2.56375e-10
2.67415e-10
2.78217e-10
2.8849e-10
2.97925e-10
3.06283e-10
3.1347e-10
3.19558e-10
3.24738e-10
3.29265e-10
3.33409e-10
3.37422e-10
3.41539e-10
3.45974e-10
3.50891e-10
3.56468e-10
3.6288e-10
3.70317e-10
3.78959e-10
3.88947e-10
4.00529e-10
4.13964e-10
4.29512e-10
4.47494e-10
4.6829e-10
4.92308e-10
5.19996e-10
5.51868e-10
5.88503e-10
6.3054e-10
6.78703e-10
7.33805e-10
7.96752e-10
8.68559e-10
9.50358e-10
1.04341e-09
1.14914e-09
1.26912e-09
1.40514e-09
1.55929e-09
1.73456e-09
1.93746e-09
2.09057e-10
2.18376e-10
2.28321e-10
2.38758e-10
2.4951e-10
2.604e-10
2.71249e-10
2.81853e-10
2.91946e-10
3.01248e-10
3.09542e-10
3.16743e-10
3.22921e-10
3.28254e-10
3.32981e-10
3.37361e-10
3.41636e-10
3.46038e-10
3.50779e-10
3.56024e-10
3.61952e-10
3.68739e-10
3.76563e-10
3.85623e-10
3.9608e-10
4.08136e-10
4.22069e-10
4.38141e-10
4.56648e-10
4.77967e-10
5.02501e-10
5.30684e-10
5.63012e-10
6.00048e-10
6.4241e-10
6.90791e-10
7.4597e-10
8.08813e-10
8.80288e-10
9.61472e-10
1.05357e-09
1.15791e-09
1.27597e-09
1.40942e-09
1.56007e-09
1.72997e-09
1.92142e-09
2.13712e-09
2.38092e-09
2.66127e-09
2.43799e-10
2.5443e-10
2.65152e-10
2.75802e-10
2.86195e-10
2.96085e-10
3.05221e-10
3.1341e-10
3.20586e-10
3.2682e-10
3.32284e-10
3.37204e-10
3.41826e-10
3.46383e-10
3.51102e-10
3.5619e-10
3.61811e-10
3.68151e-10
3.75381e-10
3.8367e-10
3.93237e-10
4.04247e-10
4.1688e-10
4.31424e-10
4.48146e-10
4.67325e-10
4.89325e-10
5.14551e-10
5.43428e-10
5.76437e-10
6.14125e-10
6.5709e-10
7.06002e-10
7.61612e-10
8.24753e-10
8.96351e-10
9.77438e-10
1.06916e-09
1.17278e-09
1.28971e-09
1.42151e-09
1.56991e-09
1.73681e-09
1.92434e-09
2.13482e-09
2.37086e-09
2.63535e-09
2.93173e-09
3.2649e-09
3.64566e-09
2.81095e-10
2.91265e-10
3.00933e-10
3.09875e-10
3.1793e-10
3.25051e-10
3.31319e-10
3.36901e-10
3.42015e-10
3.46893e-10
3.51758e-10
3.56833e-10
3.62316e-10
3.68371e-10
3.7519e-10
3.82933e-10
3.91779e-10
4.01945e-10
4.13606e-10
4.26932e-10
4.42212e-10
4.59715e-10
4.79719e-10
5.0257e-10
5.28673e-10
5.58448e-10
5.92364e-10
6.30953e-10
6.74803e-10
7.24561e-10
7.80954e-10
8.44787e-10
9.16951e-10
9.98436e-10
1.09034e-09
1.19388e-09
1.31039e-09
1.44136e-09
1.58842e-09
1.7534e-09
1.93827e-09
2.14525e-09
2.37674e-09
2.63543e-09
2.92424e-09
3.24642e-09
3.60559e-09
4.00604e-09
4.45393e-09
4.96285e-09
3.15247e-10
3.23146e-10
3.30196e-10
3.36489e-10
3.42191e-10
3.47509e-10
3.52667e-10
3.57875e-10
3.63351e-10
3.69289e-10
3.75844e-10
3.83218e-10
3.91561e-10
4.0106e-10
4.11927e-10
4.24343e-10
4.38501e-10
4.54648e-10
4.73079e-10
4.94067e-10
5.1795e-10
5.45127e-10
5.76017e-10
6.11078e-10
6.50828e-10
6.95849e-10
7.4677e-10
8.04296e-10
8.69211e-10
9.42376e-10
1.02475e-09
1.11738e-09
1.22144e-09
1.33822e-09
1.46912e-09
1.61573e-09
1.77975e-09
1.96308e-09
2.16781e-09
2.39621e-09
2.6508e-09
2.93434e-09
3.24985e-09
3.60065e-09
3.99036e-09
4.42299e-09
4.903e-09
5.43567e-09
6.0286e-09
6.69871e-09
3.42415e-10
3.48251e-10
3.53799e-10
3.59272e-10
3.64872e-10
3.70808e-10
3.77269e-10
3.84397e-10
3.92416e-10
4.01459e-10
4.11717e-10
4.23401e-10
4.36703e-10
4.51822e-10
4.68991e-10
4.8851e-10
5.10665e-10
5.35772e-10
5.6423e-10
5.96461e-10
6.32916e-10
6.74106e-10
7.20599e-10
7.73013e-10
8.32032e-10
8.98423e-10
9.73026e-10
1.05676e-09
1.15066e-09
1.25584e-09
1.37355e-09
1.50513e-09
1.6521e-09
1.8161e-09
1.99893e-09
2.20257e-09
2.4292e-09
2.68119e-09
2.96115e-09
3.27192e-09
3.61662e-09
3.99865e-09
4.42174e-09
4.88993e-09
5.40767e-09
5.97982e-09
6.61179e-09
7.31e-09
8.08373e-09
8.95374e-09
3.66861e-10
3.72917e-10
3.79384e-10
3.86442e-10
3.94249e-10
4.03009e-10
4.12861e-10
4.23997e-10
4.36636e-10
4.50968e-10
4.67197e-10
4.85554e-10
5.06343e-10
5.29855e-10
5.564e-10
5.86368e-10
6.20189e-10
6.58306e-10
7.01221e-10
7.49497e-10
8.03744e-10
8.64634e-10
9.32914e-10
1.0094e-09
1.095e-09
1.1907e-09
1.29759e-09
1.41687e-09
1.54986e-09
1.69799e-09
1.86286e-09
2.04617e-09
2.24984e-09
2.47593e-09
2.72671e-09
3.00464e-09
3.31242e-09
3.65299e-09
4.02957e-09
4.44566e-09
4.90504e-09
5.41188e-09
5.97067e-09
6.58633e-09
7.26419e-09
8.01008e-09
8.8305e-09
9.73312e-09
1.07292e-08
1.18438e-08
3.89298e-10
3.97052e-10
4.05649e-10
4.15265e-10
4.26053e-10
4.3821e-10
4.51955e-10
4.67477e-10
4.84983e-10
5.04724e-10
5.26981e-10
5.52059e-10
5.80272e-10
6.12e-10
6.47679e-10
6.87749e-10
7.32702e-10
7.83098e-10
8.39541e-10
9.02689e-10
9.73278e-10
1.05211e-09
1.14007e-09
1.23812e-09
1.34732e-09
1.46884e-09
1.60395e-09
1.75404e-09
1.92064e-09
2.1054e-09
2.31016e-09
2.53689e-09
2.78776e-09
3.06513e-09
3.37155e-09
3.70982e-09
4.08299e-09
4.49436e-09
4.94751e-09
5.44634e-09
5.99509e-09
6.59833e-09
7.26106e-09
7.98865e-09
8.78696e-09
9.66233e-09
1.06217e-08
1.16727e-08
1.28244e-08
1.40903e-08
1.55005e-08
4.29512e-10
4.41385e-10
4.54727e-10
4.69748e-10
4.86643e-10
5.05623e-10
5.26955e-10
5.50903e-10
5.77787e-10
6.07925e-10
6.4169e-10
6.79515e-10
7.21847e-10
7.69172e-10
8.22048e-10
8.81077e-10
9.46906e-10
1.02025e-09
1.10192e-09
1.19275e-09
1.29372e-09
1.40584e-09
1.53026e-09
1.66822e-09
1.82106e-09
1.99026e-09
2.17742e-09
2.38431e-09
2.61282e-09
2.86505e-09
3.14323e-09
3.44984e-09
3.78753e-09
4.15919e-09
4.56796e-09
5.01724e-09
5.51072e-09
6.05237e-09
6.64652e-09
7.29785e-09
8.01139e-09
8.7926e-09
9.64739e-09
1.05821e-08
1.16037e-08
1.27195e-08
1.39378e-08
1.52673e-08
1.67189e-08
1.83082e-08
2.00711e-08
4.73992e-10
4.90486e-10
5.08963e-10
5.29643e-10
5.52796e-10
5.78692e-10
6.07644e-10
6.39989e-10
6.76092e-10
7.16389e-10
7.61331e-10
8.11398e-10
8.67143e-10
9.29168e-10
9.98115e-10
1.0747e-09
1.1597e-09
1.25398e-09
1.35845e-09
1.47413e-09
1.60214e-09
1.74367e-09
1.90006e-09
2.07273e-09
2.26324e-09
2.4733e-09
2.70473e-09
2.95954e-09
3.2399e-09
3.54817e-09
3.8869e-09
4.25886e-09
4.66703e-09
5.11465e-09
5.60522e-09
6.14251e-09
6.7306e-09
7.3739e-09
8.07717e-09
8.84552e-09
9.68448e-09
1.06e-08
1.15985e-08
1.26869e-08
1.38725e-08
1.51635e-08
1.65685e-08
1.80968e-08
1.97588e-08
2.15668e-08
2.35394e-08
2.57184e-08
5.5767e-10
5.82909e-10
6.11037e-10
6.42359e-10
6.77226e-10
7.16005e-10
7.59126e-10
8.07051e-10
8.6026e-10
9.19303e-10
9.84783e-10
1.05733e-09
1.13766e-09
1.22655e-09
1.32483e-09
1.43343e-09
1.55334e-09
1.68565e-09
1.83154e-09
1.99231e-09
2.16933e-09
2.36415e-09
2.5784e-09
2.81386e-09
3.07249e-09
3.35636e-09
3.66775e-09
4.00912e-09
4.3831e-09
4.79257e-09
5.24062e-09
5.73058e-09
6.26605e-09
6.8509e-09
7.48931e-09
8.18576e-09
8.94509e-09
9.77249e-09
1.06736e-08
1.16543e-08
1.27212e-08
1.38811e-08
1.51415e-08
1.65104e-08
1.79964e-08
1.96086e-08
2.13571e-08
2.32524e-08
2.53065e-08
2.75337e-08
2.99551e-08
3.26195e-08
6.82799e-10
7.20539e-10
7.62367e-10
8.08711e-10
8.60037e-10
9.1683e-10
9.79635e-10
1.04906e-09
1.12573e-09
1.21037e-09
1.30373e-09
1.40665e-09
1.52003e-09
1.64487e-09
1.78223e-09
1.93327e-09
2.09927e-09
2.28158e-09
2.48168e-09
2.70118e-09
2.94183e-09
3.20548e-09
3.49419e-09
3.81014e-09
4.15569e-09
4.5334e-09
4.94602e-09
5.39651e-09
5.88807e-09
6.42413e-09
7.00838e-09
7.6448e-09
8.33765e-09
9.0915e-09
9.91128e-09
1.08022e-08
1.17701e-08
1.28208e-08
1.39609e-08
1.51974e-08
1.65376e-08
1.79897e-08
1.95621e-08
2.12639e-08
2.3105e-08
2.50959e-08
2.72477e-08
2.95727e-08
3.20843e-08
3.47987e-08
3.77403e-08
4.0965e-08
8.6631e-10
9.21499e-10
9.82363e-10
1.04944e-09
1.12335e-09
1.20473e-09
1.29426e-09
1.39273e-09
1.50096e-09
1.61984e-09
1.75036e-09
1.89356e-09
2.05061e-09
2.22272e-09
2.41126e-09
2.61767e-09
2.84352e-09
3.0905e-09
3.36045e-09
3.65532e-09
3.97726e-09
4.32855e-09
4.71165e-09
5.12923e-09
5.58413e-09
6.07943e-09
6.6184e-09
7.20459e-09
7.84178e-09
8.53405e-09
9.28575e-09
1.01015e-08
1.09864e-08
1.19457e-08
1.29852e-08
1.41109e-08
1.53294e-08
1.66477e-08
1.80732e-08
1.96139e-08
2.12783e-08
2.30755e-08
2.50152e-08
2.71077e-08
2.93641e-08
3.17963e-08
3.44168e-08
3.72393e-08
4.02789e-08
4.35538e-08
4.7092e-08
5.09569e-08
1.13028e-09
1.20926e-09
1.29596e-09
1.39105e-09
1.49531e-09
1.60957e-09
1.73472e-09
1.87172e-09
2.02163e-09
2.18556e-09
2.36476e-09
2.56054e-09
2.77432e-09
3.00763e-09
3.26215e-09
3.53966e-09
3.84207e-09
4.17146e-09
4.53006e-09
4.92024e-09
5.34457e-09
5.80582e-09
6.30693e-09
6.85107e-09
7.44165e-09
8.08228e-09
8.77686e-09
9.52954e-09
1.03448e-08
1.12273e-08
1.21822e-08
1.32149e-08
1.43312e-08
1.55372e-08
1.68395e-08
1.82451e-08
1.97615e-08
2.13966e-08
2.31589e-08
2.50574e-08
2.71018e-08
2.93022e-08
3.16696e-08
3.42156e-08
3.69525e-08
3.98935e-08
4.30528e-08
4.64455e-08
5.00884e-08
5.40019e-08
5.82174e-08
6.28069e-08
1.50274e-09
1.61355e-09
1.73464e-09
1.86687e-09
2.01123e-09
2.16874e-09
2.34054e-09
2.52782e-09
2.73189e-09
2.95416e-09
3.19614e-09
3.45946e-09
3.74585e-09
4.05721e-09
4.39554e-09
4.76302e-09
5.16196e-09
5.59487e-09
6.0644e-09
6.57341e-09
7.12496e-09
7.72231e-09
8.36896e-09
9.06864e-09
9.82533e-09
1.06433e-08
1.1527e-08
1.24814e-08
1.35116e-08
1.4623e-08
1.58216e-08
1.71134e-08
1.85052e-08
2.00039e-08
2.1617e-08
2.33525e-08
2.52188e-08
2.72249e-08
2.93802e-08
3.1695e-08
3.41799e-08
3.68464e-08
3.97066e-08
4.27734e-08
4.60605e-08
4.95826e-08
5.33551e-08
5.73949e-08
6.17204e-08
6.63543e-08
7.13318e-08
7.67336e-08
2.01887e-09
2.17152e-09
2.33763e-09
2.51831e-09
2.71475e-09
2.92826e-09
3.16021e-09
3.4121e-09
3.68552e-09
3.98219e-09
4.30395e-09
4.65277e-09
5.03078e-09
5.44022e-09
5.88353e-09
6.36329e-09
6.88228e-09
7.44345e-09
8.04996e-09
8.70517e-09
9.41268e-09
1.01763e-08
1.10002e-08
1.18886e-08
1.28461e-08
1.38777e-08
1.49887e-08
1.61845e-08
1.7471e-08
1.88545e-08
2.03417e-08
2.19396e-08
2.36556e-08
2.54978e-08
2.74744e-08
2.95944e-08
3.18673e-08
3.4303e-08
3.69122e-08
3.97061e-08
4.26966e-08
4.58963e-08
4.93186e-08
5.29778e-08
5.68888e-08
6.10678e-08
6.55317e-08
7.02989e-08
7.53897e-08
8.08289e-08
8.66558e-08
9.29602e-08
2.9289e-09
3.15305e-09
3.39595e-09
3.65906e-09
3.94398e-09
4.25238e-09
4.58607e-09
4.94699e-09
5.33721e-09
5.75894e-09
6.21454e-09
6.70653e-09
7.23761e-09
7.81063e-09
8.42867e-09
9.09498e-09
9.81303e-09
1.05865e-08
1.14193e-08
1.23157e-08
1.32799e-08
1.43169e-08
1.54315e-08
1.6629e-08
1.7915e-08
1.92956e-08
2.07769e-08
2.23657e-08
2.40691e-08
2.58944e-08
2.78497e-08
2.99432e-08
3.21839e-08
3.45811e-08
3.71447e-08
3.98851e-08
4.28134e-08
4.59413e-08
4.92812e-08
5.28461e-08
5.66499e-08
6.07073e-08
6.50337e-08
6.96456e-08
7.45603e-08
7.97966e-08
8.53741e-08
9.13152e-08
9.76469e-08
1.04413e-07
1.11711e-07
3.94118e-09
4.23906e-09
4.56073e-09
4.90797e-09
5.28267e-09
5.68687e-09
6.12273e-09
6.59256e-09
7.09883e-09
7.64414e-09
8.23131e-09
8.86328e-09
9.54323e-09
1.02745e-08
1.10607e-08
1.19055e-08
1.28131e-08
1.37875e-08
1.48335e-08
1.59557e-08
1.71592e-08
1.84494e-08
1.98319e-08
2.13128e-08
2.28984e-08
2.45953e-08
2.64107e-08
2.8352e-08
3.04271e-08
3.26444e-08
3.50127e-08
3.75411e-08
4.02396e-08
4.31183e-08