/*--------------------------------*- C++ -*----------------------------------*\
| =========                 |                                                 |
| \\      /  F ield         | OpenFOAM: The Open Source CFD Toolbox           |
|  \\    /   O peration     | Version:  v1706                                 |
|   \\  /    A nd           | Web:      www.OpenFOAM.com                      |
|    \\/     M anipulation  |                                                 |
\*---------------------------------------------------------------------------*/
FoamFile
{
    version     2.0;
    format      ascii;
    class       volScalarField;
    location    "3.6e-05";
    object      p;
}
// * * * * * * * * * * * * * * * * * * * * * * * * * * * * * * * * * * * * * //

dimensions      [1 -1 -2 0 0 0 0];


internalField   nonuniform List<scalar> 
30038
(
21.9139
21.9139
21.9139
21.9139
21.9139
21.9139
21.9139
21.9139
21.9139
21.9139
21.9139
21.9139
21.9139
21.9139
21.9139
21.9139
21.9139
21.9139
21.9139
21.9139
21.9139
21.9139
21.9139
21.9139
21.9139
21.9139
21.9139
21.9139
21.9139
21.9139
21.9139
21.9139
21.9139
21.9139
21.9139
21.9139
21.9139
21.9139
21.9139
21.9139
21.9139
21.9139
21.9139
21.9139
21.9139
21.9139
21.9139
21.9139
21.9139
21.9139
21.9139
21.9139
21.9139
21.9139
21.9139
21.9139
21.9139
21.9139
21.9139
21.9139
21.9139
21.9139
21.9139
21.9139
21.9139
21.9139
21.9139
21.9139
21.9139
21.9139
21.9139
21.9139
21.9139
21.9139
21.9139
21.9139
21.9139
21.9139
21.9139
21.9139
21.9139
21.9139
21.9139
21.9139
21.9139
21.9139
21.9139
21.9139
21.9139
21.9139
21.9139
21.9139
21.9139
21.9139
21.9139
21.9139
21.9139
21.9139
21.9139
21.9139
21.9139
21.9139
21.9139
21.9139
21.9139
21.9139
21.9139
21.9139
21.9139
21.9139
21.9139
21.9139
21.9139
21.9139
21.9139
21.9139
21.9139
21.9139
21.9139
21.9139
21.9139
21.9139
21.9139
21.9139
21.9139
21.9139
21.9139
21.9139
21.9139
21.9139
21.9139
21.9139
21.9139
21.9139
21.9139
21.9139
21.9139
21.9139
21.9139
21.9139
21.9139
21.9139
21.9139
21.9139
21.9139
21.9139
21.9139
21.9139
21.9139
21.9139
21.9139
21.9139
21.9139
21.9139
21.9139
21.9139
21.9139
21.9139
21.9139
21.9139
21.9139
21.9139
21.9139
21.9139
21.9139
21.9139
21.9139
21.9139
21.9139
21.9139
21.9139
21.9139
21.9139
21.9139
21.9139
21.9139
21.9139
21.9139
21.9139
21.9139
21.9139
21.9139
21.9139
21.9139
21.9139
21.9139
21.9139
21.9139
21.9139
21.9139
21.9139
21.9139
21.9139
21.9139
21.9139
21.9139
21.9139
21.9139
21.9139
21.9139
21.9139
21.9139
21.9139
21.9139
21.9139
21.9139
21.9139
21.9139
21.9139
21.9139
21.9139
21.9139
21.9139
21.9139
21.9139
21.9139
21.9139
21.9139
21.9139
21.9139
21.9139
21.9139
21.9139
21.9139
21.9139
21.9139
21.9139
21.9139
21.9139
21.9139
21.9139
21.9139
21.9139
21.9139
21.9139
21.9139
21.9139
21.9139
21.9139
21.9139
21.9139
21.9139
21.9139
21.9139
21.9139
21.9139
21.9139
21.9139
21.9139
21.9139
21.9139
21.9139
21.9139
21.9139
21.9139
21.9139
21.9139
21.9139
21.9139
21.9139
21.9139
21.9139
21.9139
21.9139
21.9139
21.9139
21.9139
21.9139
21.9139
21.9139
21.9139
21.9139
21.9139
21.9139
21.9139
21.9139
21.9139
21.9139
21.9139
21.9139
21.9139
21.9139
21.9139
21.9139
21.9139
21.9139
21.9139
21.9139
21.9139
21.9139
21.9139
21.9139
21.9139
21.9139
21.9139
21.9139
21.9139
21.9139
21.9139
21.9139
21.9139
21.9139
21.9139
21.9139
21.9139
21.9139
21.9139
21.9139
21.9139
21.9139
21.9139
21.9139
21.9139
21.9139
21.9139
21.9139
21.9139
21.9139
21.9139
21.9139
21.9139
21.9139
21.9139
21.9139
21.9139
21.9139
21.9139
21.9139
21.9139
21.9139
21.9139
21.9139
21.9139
21.9139
21.9139
21.9139
21.9139
21.9139
21.9139
21.9139
21.9139
21.914
21.914
21.9139
21.9139
21.9139
21.9139
21.9139
21.9139
21.9139
21.9139
21.9139
21.9139
21.9139
21.9139
21.9139
21.9139
21.9139
21.9139
21.9139
21.9139
21.9139
21.9139
21.9139
21.9139
21.9139
21.9139
21.9139
21.9139
21.9139
21.9139
21.9139
21.9139
21.9139
21.9139
21.9139
21.9139
21.9139
21.914
21.914
21.9141
21.9141
21.9139
21.9139
21.9139
21.9139
21.9139
21.9139
21.9139
21.9139
21.9139
21.9139
21.9139
21.9139
21.9139
21.9139
21.9139
21.9139
21.9139
21.9139
21.9139
21.9139
21.9139
21.9139
21.9139
21.9139
21.9139
21.9139
21.9139
21.9139
21.9139
21.9139
21.9139
21.9139
21.914
21.914
21.914
21.9141
21.9142
21.9144
21.9146
21.9139
21.9139
21.9139
21.9139
21.9139
21.9139
21.9139
21.9139
21.9139
21.9139
21.9139
21.9139
21.9139
21.9139
21.9139
21.9139
21.9139
21.9139
21.9139
21.9139
21.9139
21.9139
21.9139
21.9139
21.9139
21.9139
21.9139
21.9139
21.9139
21.9139
21.914
21.914
21.914
21.9141
21.9142
21.9143
21.9146
21.9149
21.9153
21.916
21.9139
21.9139
21.9139
21.9139
21.9139
21.9139
21.9139
21.9139
21.9139
21.9139
21.9139
21.9139
21.9139
21.9139
21.9139
21.9139
21.9139
21.9139
21.9139
21.9139
21.9139
21.9139
21.9139
21.9139
21.9139
21.9139
21.9139
21.914
21.914
21.914
21.9141
21.9142
21.9143
21.9145
21.9148
21.9152
21.9158
21.9167
21.918
21.9199
21.9139
21.9139
21.9139
21.9139
21.9139
21.9139
21.9139
21.9139
21.9139
21.9139
21.9139
21.9139
21.9139
21.9139
21.9139
21.9139
21.9139
21.9139
21.9139
21.9139
21.9139
21.9139
21.9139
21.914
21.914
21.914
21.914
21.9141
21.9142
21.9143
21.9145
21.9148
21.9152
21.9157
21.9165
21.9177
21.9194
21.9218
21.9255
21.931
21.9139
21.9139
21.9139
21.9139
21.9139
21.9139
21.9139
21.9139
21.9139
21.9139
21.9139
21.9139
21.9139
21.9139
21.9139
21.9139
21.9139
21.9139
21.9139
21.9139
21.914
21.914
21.914
21.9141
21.9141
21.9142
21.9143
21.9145
21.9148
21.9151
21.9157
21.9164
21.9175
21.9191
21.9213
21.9246
21.9294
21.9362
21.9463
21.9614
21.9139
21.9139
21.9139
21.9139
21.9139
21.9139
21.9139
21.9139
21.9139
21.9139
21.9139
21.9139
21.9139
21.9139
21.9139
21.9139
21.9139
21.914
21.914
21.914
21.9141
21.9141
21.9142
21.9143
21.9145
21.9148
21.9151
21.9157
21.9164
21.9174
21.9189
21.921
21.9241
21.9285
21.9347
21.9438
21.9568
21.9757
22.0032
22.0441
21.9139
21.9139
21.9139
21.9139
21.9139
21.9139
21.9139
21.9139
21.9139
21.9139
21.9139
21.9139
21.9139
21.9139
21.914
21.914
21.914
21.9141
21.9141
21.9142
21.9144
21.9145
21.9148
21.9152
21.9157
21.9164
21.9174
21.9188
21.9209
21.9238
21.9279
21.9337
21.9421
21.954
21.9712
21.9957
22.031
22.0819
22.1553
22.2641
21.9139
21.9139
21.9139
21.9139
21.9139
21.9139
21.9139
21.9139
21.9139
21.9139
21.914
21.914
21.914
21.914
21.9141
21.9142
21.9143
21.9144
21.9146
21.9148
21.9152
21.9157
21.9164
21.9174
21.9188
21.9208
21.9236
21.9276
21.9331
21.941
21.9522
21.968
21.9906
22.0227
22.0686
22.134
22.2275
22.3617
22.5537
22.8351
21.9139
21.9139
21.9139
21.9139
21.9139
21.9139
21.9139
21.9139
21.914
21.914
21.914
21.914
21.9141
21.9142
21.9143
21.9144
21.9146
21.9149
21.9153
21.9158
21.9165
21.9175
21.9189
21.9209
21.9236
21.9275
21.9328
21.9404
21.951
21.966
21.9871
22.017
22.0592
22.119
22.2037
22.3239
22.4944
22.7365
23.0804
23.5668
24.2681
21.9139
21.9139
21.9139
21.9139
21.914
21.914
21.914
21.914
21.9141
21.9141
21.9142
21.9143
21.9145
21.9147
21.915
21.9154
21.9159
21.9166
21.9177
21.9191
21.9211
21.9238
21.9276
21.9329
21.9403
21.9505
21.9649
21.985
22.0132
22.0528
22.1084
22.1866
22.2966
22.4515
22.6696
22.9764
23.4075
24.0116
24.8571
26.0283
27.6767
21.9139
21.9139
21.914
21.914
21.914
21.914
21.9141
21.9142
21.9142
21.9144
21.9145
21.9148
21.9151
21.9155
21.9161
21.9168
21.9179
21.9194
21.9214
21.9242
21.928
21.9333
21.9406
21.9507
21.9647
21.9842
22.0112
22.049
22.1015
22.1749
22.2774
22.4206
22.6207
22.9001
23.2898
23.8321
24.5841
25.6226
27.0469
28.986
31.5934
35.157
21.914
21.914
21.914
21.9141
21.9141
21.9142
21.9143
21.9144
21.9146
21.9149
21.9152
21.9156
21.9163
21.9171
21.9182
21.9197
21.9218
21.9247
21.9286
21.9339
21.9413
21.9514
21.9653
21.9844
22.0108
22.0474
22.0979
22.1679
22.2649
22.3995
22.5861
22.8448
23.2032
23.6984
24.3808
25.3171
26.5944
28.3223
30.6398
33.7199
37.7909
43.0372
50.1205
21.9141
21.9142
21.9143
21.9144
21.9145
21.9147
21.915
21.9154
21.9158
21.9165
21.9174
21.9186
21.9202
21.9224
21.9254
21.9295
21.935
21.9425
21.9527
21.9667
21.9858
22.012
22.048
22.0973
22.1651
22.2585
22.3869
22.5638
22.8072
23.1419
23.6015
24.2305
25.0882
26.2519
27.8192
29.9107
32.6783
36.3101
41.0214
47.0537
54.838
64.8891
78.7855
21.9143
21.9144
21.9146
21.9149
21.9152
21.9156
21.9161
21.9168
21.9178
21.9191
21.9209
21.9232
21.9264
21.9306
21.9364
21.9442
21.9547
21.969
21.9884
22.0148
22.0507
22.0996
22.1664
22.2575
22.3821
22.5523
22.7849
23.1025
23.5355
24.1243
24.9219
25.9976
27.4393
29.3545
31.8764
35.1715
39.437
44.8862
51.8092
60.7141
72.2811
87.1034
104.732
125.309
21.9148
21.915
21.9154
21.9158
21.9164
21.9173
21.9183
21.9198
21.9217
21.9242
21.9276
21.9322
21.9383
21.9465
21.9575
21.9723
21.9923
22.0192
22.0556
22.1049
22.1716
22.262
22.3847
22.5511
22.7767
23.0826
23.4968
24.0561
24.8089
25.8177
27.1622
28.9399
31.2688
34.2964
38.2029
43.1852
49.4711
57.441
67.7079
80.9119
97.269
116.078
135.888
154.346
170.791
21.9156
21.9162
21.9169
21.9178
21.919
21.9206
21.9227
21.9255
21.9292
21.9342
21.9407
21.9495
21.9611
21.9767
21.9976
22.0255
22.063
22.1133
22.181
22.272
22.3946
22.5597
22.7819
23.081
23.483
24.0222
24.743
25.7026
26.9737
28.6456
30.8249
33.6423
37.2602
41.8647
47.6517
54.9047
64.127
75.9763
90.8941
108.648
128.069
147.361
164.624
178.749
189.135
196.419
21.9166
21.9174
21.9185
21.9198
21.9217
21.924
21.9272
21.9313
21.9367
21.9438
21.9533
21.9658
21.9825
22.0046
22.034
22.0731
22.1253
22.1949
22.2879
22.4122
22.5784
22.8004
23.0971
23.4931
24.0204
24.7204
25.646
26.8641
28.4572
30.5229
33.1779
36.5685
40.8684
46.2587
52.9593
61.3643
72.0809
85.6779
102.24
121.025
140.484
158.776
174.368
186.521
195.191
200.888
204.299
206.037
21.9209
21.923
21.9257
21.9292
21.9338
21.9399
21.9478
21.9582
21.9719
21.9899
22.0136
22.0449
22.0864
22.1413
22.2139
22.3103
22.4381
22.6078
22.8329
23.1314
23.5269
24.0499
24.7392
25.6443
26.8274
28.3649
30.3475
32.8809
36.0964
40.1542
45.2279
51.5002
59.2733
69.0739
81.5139
96.8984
114.838
134.112
152.991
169.8
183.478
193.672
200.712
205.105
207.606
208.71
208.935
208.812
21.9247
21.9278
21.9319
21.9371
21.9439
21.9528
21.9644
21.9795
21.9992
22.0251
22.059
22.1035
22.162
22.2389
22.3401
22.4734
22.6491
22.8805
23.185
23.5855
24.1113
24.7994
25.6963
26.8604
28.3632
30.2894
32.7363
35.8219
39.6934
44.5173
50.4567
57.7455
66.8222
78.2867
92.583
109.596
128.43
147.539
165.236
180.195
191.841
200.149
205.712
208.958
210.744
211.263
211.252
211.066
210.622
209.813
21.9413
21.9491
21.9592
21.9722
21.9891
22.0111
22.0396
22.0768
22.1252
22.1884
22.2708
22.3787
22.5196
22.704
22.945
23.2599
23.671
24.2067
24.9026
25.803
26.9631
28.4503
30.344
32.735
35.7301
39.4645
44.0959
49.7785
56.6993
65.2148
75.8834
89.2224
105.32
123.56
142.627
160.889
176.891
189.794
199.386
205.999
210.196
212.513
213.615
213.741
213.625
213.307
212.673
211.771
210.672
209.32
21.9822
22.0013
22.026
22.058
22.0992
22.1526
22.2218
22.3114
22.4278
22.5788
22.7748
23.0293
23.3592
23.7866
24.3395
25.0522
25.9676
27.1379
28.6274
30.511
32.8738
35.8136
39.4545
43.9449
49.4349
56.0803
64.1695
74.2054
86.7342
101.986
119.571
138.405
156.962
173.749
187.71
198.472
206.125
211.234
214.223
215.822
216.294
216.204
216.01
215.52
214.698
213.698
212.496
211.108
209.672
208.146
22.0812
22.1276
22.1873
22.2639
22.3626
22.4898
22.6536
22.8648
23.1368
23.4869
23.9369
24.5146
25.2537
26.1954
27.3901
28.8992
30.7938
33.154
36.0706
39.6575
44.0547
49.4082
55.8536
63.6273
73.174
85.041
99.5513
116.487
134.97
153.616
170.939
185.767
197.532
206.186
212.122
215.862
217.902
218.83
218.862
218.709
218.347
217.665
216.742
215.625
214.331
212.888
211.426
209.939
208.478
206.951
22.3171
22.4271
22.5678
22.7479
22.9782
23.2725
23.6484
24.1281
24.739
25.5143
26.4943
27.7278
29.2736
31.1999
33.5821
36.505
40.074
44.4217
49.6888
55.9989
63.5483
72.7296
84.076
97.9647
114.304
132.385
150.97
168.622
184.11
196.709
206.257
212.985
217.418
219.973
221.285
221.59
221.438
221.199
220.635
219.767
218.754
217.546
216.162
214.7
213.227
211.731
210.247
208.765
207.321
205.812
22.8663
23.1204
23.4427
23.8512
24.3683
25.0216
25.8441
26.8751
28.1622
29.7624
31.7408
34.169
37.1263
40.7112
45.05
50.2777
56.5095
63.9118
72.8353
83.7906
97.1827
113.006
130.682
149.111
166.925
182.879
196.144
206.443
213.893
218.943
222.048
223.708
224.336
224.25
224.058
223.605
222.841
221.888
220.756
219.454
218.011
216.544
215.054
213.554
212.065
210.581
209.111
207.642
206.209
204.711
24.1043
24.6679
25.3742
26.2559
27.3518
28.7084
30.3811
32.4327
34.9306
37.9495
41.5826
45.9511
51.1841
57.3895
64.7119
73.4707
84.1529
97.1727
112.576
129.88
148.098
165.948
182.195
195.959
206.856
214.929
220.53
224.134
226.136
227.075
227.141
226.952
226.612
225.941
225.027
223.982
222.752
221.357
219.894
218.416
216.911
215.41
213.917
212.429
210.95
209.476
208.015
206.552
205.124
203.632
26.7663
27.9421
29.3852
31.1498
33.296
35.8876
38.9952
42.7081
47.1438
52.4253
58.6528
65.9551
74.6319
85.1491
97.9164
113.004
129.989
147.976
165.767
182.162
196.258
207.602
216.176
222.248
226.268
228.628
229.831
230.094
229.915
229.65
229.06
228.199
227.215
226.052
224.725
223.281
221.814
220.315
218.804
217.301
215.802
214.309
212.823
211.343
209.869
208.401
206.943
205.483
204.058
202.572
32.0936
34.3571
37.0669
40.2902
44.1144
48.6544
54.0266
60.3218
67.6596
76.3303
86.7834
99.4128
114.288
131.019
148.777
166.441
182.858
197.132
208.773
217.714
224.159
228.521
231.207
232.608
233.088
232.966
232.723
232.217
231.43
230.471
229.371
228.109
226.694
225.234
223.751
222.241
220.733
219.227
217.723
216.224
214.731
213.243
211.76
210.282
208.81
207.343
205.887
204.431
203.009
201.529
41.8679
45.8357
50.5174
56.0218
62.4282
69.8542
78.5916
89.0773
101.678
116.441
132.984
150.526
168.011
184.345
198.654
210.447
219.612
226.321
230.946
233.886
235.479
236.132
236.098
235.835
235.428
234.696
233.751
232.72
231.507
230.139
228.692
227.226
225.719
224.204
222.694
221.183
219.676
218.173
216.674
215.178
213.685
212.198
210.715
209.237
207.766
206.301
204.847
203.395
201.976
200.504
58.4535
65.0135
72.5805
81.4578
92.0709
104.747
119.49
135.908
153.248
170.512
186.665
200.88
212.678
221.933
228.789
233.588
236.7
238.451
239.252
239.295
239.045
238.685
237.998
237.079
236.078
234.922
233.612
232.185
230.727
229.232
227.716
226.205
224.691
223.175
221.664
220.155
218.65
217.147
215.646
214.149
212.656
211.167
209.684
208.206
206.737
205.274
203.823
202.375
200.961
199.496
84.9877
95.8235
108.671
123.476
139.819
156.963
173.962
189.846
203.843
215.508
224.72
231.607
236.48
239.69
241.565
242.43
242.565
242.333
242
241.35
240.471
239.483
238.367
237.099
235.697
234.253
232.78
231.268
229.755
228.239
226.719
225.203
223.688
222.173
220.661
219.15
217.642
216.136
214.633
213.133
211.638
210.149
208.666
207.189
205.721
204.261
202.815
201.371
199.963
198.506
128.451
144.751
161.694
178.376
193.898
207.558
218.958
228
234.797
239.646
242.883
244.818
245.724
245.917
245.714
245.336
244.766
243.912
242.928
241.851
240.615
239.245
237.813
236.357
234.854
233.34
231.826
230.305
228.785
227.265
225.745
224.226
222.708
221.19
219.673
218.158
216.646
215.136
213.631
212.129
210.633
209.144
207.661
206.186
204.721
203.264
201.822
200.384
198.982
197.534
183.752
198.816
212.021
223.031
231.778
238.375
243.11
246.297
248.219
249.129
249.356
249.169
248.782
248.238
247.402
246.398
245.358
244.16
242.826
241.412
239.965
238.474
236.961
235.451
233.932
232.408
230.885
229.362
227.838
226.313
224.789
223.264
221.74
220.217
218.695
217.176
215.66
214.147
212.64
211.137
209.641
208.151
206.67
205.198
203.736
202.283
200.846
199.415
198.019
196.58
227.708
236.044
242.34
246.87
249.937
251.789
252.67
252.879
252.701
252.307
251.764
250.946
249.944
248.912
247.741
246.438
245.032
243.599
242.126
240.622
239.113
237.596
236.071
234.548
233.022
231.494
229.966
228.436
226.905
225.374
223.843
222.312
220.781
219.253
217.727
216.203
214.684
213.169
211.66
210.157
208.661
207.172
205.693
204.224
202.766
201.318
199.887
198.462
197.073
195.645
246.67
250.917
253.799
255.526
256.332
256.505
256.323
255.92
255.337
254.548
253.551
252.508
251.36
250.079
248.688
247.267
245.813
244.313
242.808
241.297
239.775
238.251
236.725
235.195
233.663
232.13
230.595
229.058
227.52
225.981
224.442
222.904
221.367
219.831
218.297
216.767
215.241
213.719
212.202
210.692
209.189
207.694
206.207
204.731
203.265
201.811
200.369
198.944
197.526
196.145
194.727
259.416
260.11
260.233
260.028
259.605
258.986
258.207
257.213
256.143
255.01
253.749
252.376
250.97
249.532
248.039
246.537
245.033
243.514
241.992
240.467
238.937
237.404
235.869
234.33
232.79
231.247
229.702
228.156
226.61
225.063
223.517
221.972
220.429
218.888
217.351
215.817
214.288
212.764
211.247
209.736
208.234
206.74
205.256
203.782
202.321
200.872
199.435
198.017
196.607
195.234
193.828
264.061
263.812
263.359
262.709
261.903
260.929
259.838
258.707
257.462
256.097
254.7
253.276
251.796
250.302
248.807
247.292
245.77
244.247
242.719
241.186
239.651
238.111
236.567
235.021
233.472
231.921
230.368
228.815
227.26
225.706
224.152
222.599
221.048
219.5
217.954
216.413
214.877
213.346
211.821
210.303
208.793
207.291
205.8
204.318
202.849
201.391
199.948
198.518
197.107
195.706
194.341
192.946
266.498
265.658
264.684
263.585
262.437
261.209
259.86
258.467
257.057
255.586
254.098
252.61
251.103
249.585
248.067
246.54
245.008
243.473
241.933
240.389
238.841
237.289
235.734
234.177
232.618
231.056
229.494
227.931
226.369
224.807
223.246
221.688
220.131
218.579
217.03
215.486
213.947
212.414
210.889
209.371
207.862
206.362
204.873
203.395
201.929
200.477
199.04
197.617
196.213
194.821
193.466
192.083
267.38
266.218
264.992
263.658
262.264
260.865
259.411
257.929
256.45
254.949
253.435
251.921
250.4
248.87
247.336
245.797
244.253
242.704
241.151
239.594
238.034
236.47
234.904
233.336
231.766
230.195
228.624
227.053
225.483
223.915
222.348
220.784
219.223
217.667
216.115
214.568
213.028
211.494
209.968
208.451
206.943
205.446
203.96
202.486
201.025
199.578
198.147
196.731
195.336
193.953
192.607
191.237
267.489
266.101
264.707
263.269
261.791
260.319
258.829
257.321
255.813
254.296
252.768
251.238
249.701
248.158
246.61
245.057
243.499
241.936
240.37
238.801
237.228
235.653
234.076
232.497
230.918
229.339
227.759
226.181
224.604
223.029
221.457
219.888
218.324
216.764
215.209
213.661
212.119
210.585
209.06
207.544
206.038
204.543
203.06
201.59
200.135
198.694
197.27
195.862
194.475
193.101
191.766
190.408
267.157
265.689
264.222
262.743
261.24
259.737
258.227
256.704
255.177
253.644
252.103
250.557
249.005
247.447
245.884
244.316
242.744
241.169
239.59
238.008
236.424
234.838
233.25
231.662
230.074
228.487
226.9
225.315
223.731
222.151
220.574
219.001
217.433
215.87
214.314
212.764
211.222
209.688
208.163
206.649
205.145
203.653
202.174
200.709
199.259
197.825
196.408
195.008
193.63
192.267
190.942
189.597
266.689
265.195
263.696
262.193
260.676
259.153
257.625
256.087
254.543
252.993
251.436
249.874
248.306
246.734
245.156
243.575
241.989
240.401
238.81
237.216
235.621
234.025
232.428
230.832
229.235
227.64
226.046
224.455
222.866
221.281
219.699
218.123
216.552
214.987
213.428
211.877
210.335
208.802
207.278
205.766
204.265
202.777
201.302
199.842
198.398
196.97
195.561
194.169
192.801
191.448
190.134
188.803
266.194
264.684
263.165
261.642
260.108
258.567
257.021
255.466
253.905
252.339
250.766
249.188
247.606
246.018
244.427
242.832
241.234
239.634
238.031
236.427
234.822
233.216
231.61
230.005
228.401
226.799
225.199
223.602
222.008
220.418
218.833
217.253
215.68
214.113
212.553
211.002
209.46
207.927
206.406
204.896
203.398
201.914
200.444
198.989
197.551
196.131
194.729
193.347
191.988
190.646
189.343
188.026
264.167
262.629
261.087
259.536
257.977
256.412
254.841
253.264
251.681
250.093
248.5
246.903
245.301
243.697
242.09
240.48
238.868
237.254
235.64
234.026
232.411
230.797
229.184
227.573
225.964
224.358
222.756
221.157
219.564
217.975
216.393
214.817
213.249
211.689
210.137
208.596
207.065
205.545
204.038
202.543
201.063
199.599
198.15
196.719
195.306
193.913
192.54
191.191
189.86
188.569
187.266
263.644
262.088
260.526
258.957
257.381
255.799
254.211
252.617
251.019
249.416
247.809
246.198
244.584
242.967
241.348
239.726
238.104
236.48
234.857
233.233
231.61
229.988
228.368
226.751
225.136
223.525
221.917
220.315
218.718
217.126
215.542
213.964
212.395
210.834
209.284
207.743
206.214
204.696
203.192
201.702
200.227
198.767
197.325
195.9
194.495
193.111
191.748
190.41
189.09
187.811
186.522
263.112
261.538
259.958
258.371
256.778
255.18
253.576
251.967
250.354
248.737
247.116
245.493
243.866
242.237
240.607
238.975
237.342
235.709
234.077
232.445
230.814
229.185
227.558
225.935
224.315
222.698
221.087
219.48
217.88
216.286
214.7
213.121
211.551
209.991
208.441
206.902
205.374
203.86
202.359
200.873
199.403
197.949
196.513
195.096
193.699
192.324
190.971
189.643
188.336
187.069
185.795
260.982
259.384
257.78
256.171
254.557
252.938
251.315
249.688
248.057
246.423
244.787
243.149
241.509
239.868
238.226
236.584
234.942
233.301
231.661
230.023
228.387
226.755
225.125
223.5
221.879
220.264
218.654
217.051
215.456
213.868
212.288
210.718
209.158
207.609
206.072
204.547
203.035
201.539
200.057
198.592
197.144
195.715
194.306
192.918
191.552
190.209
188.893
187.597
186.343
185.084
260.419
258.804
257.185
255.56
253.931
252.297
250.66
249.02
247.376
245.73
244.083
242.433
240.783
239.131
237.48
235.829
234.179
232.53
230.882
229.238
227.596
225.957
224.323
222.693
221.068
219.449
217.837
216.232
214.634
213.045
211.465
209.895
208.336
206.788
205.253
203.731
202.223
200.73
199.254
197.794
196.353
194.931
193.53
192.151
190.794
189.462
188.157
186.874
185.633
184.389
259.85
258.22
256.585
254.945
253.302
251.654
250.004
248.351
246.695
245.038
243.379
241.719
240.059
238.398
236.737
235.078
233.42
231.763
230.109
228.458
226.81
225.166
223.527
221.893
220.265
218.643
217.028
215.421
213.822
212.232
210.652
209.082
207.524
205.978
204.446
202.927
201.423
199.934
198.463
197.009
195.575
194.161
192.768
191.397
190.051
188.729
187.436
186.166
184.938
183.709
259.277
257.631
255.982
254.328
252.671
251.011
249.348
247.682
246.015
244.347
242.677
241.007
239.337
237.667
235.998
234.331
232.665
231.002
229.341
227.684
226.031
224.382
222.739
221.101
219.469
217.845
216.228
214.619
213.019
211.429
209.849
208.28
206.724
205.18
203.65
202.134
200.634
199.151
197.685
196.237
194.81
193.403
192.019
190.658
189.322
188.011
186.73
185.473
184.259
183.046
258.7
257.04
255.376
253.709
252.039
250.366
248.691
247.014
245.336
243.657
241.978
240.298
238.619
236.941
235.264
233.588
231.916
230.246
228.579
226.917
225.259
223.605
221.958
220.317
218.682
217.055
215.436
213.826
212.226
210.635
209.056
207.489
205.934
204.392
202.865
201.353
199.857
198.379
196.919
195.478
194.058
192.659
191.284
189.933
188.607
187.308
186.039
184.795
183.594
182.397
258.12
256.446
254.769
253.089
251.406
249.721
248.035
246.347
244.659
242.97
241.28
239.592
237.904
236.218
234.533
232.851
231.172
229.496
227.823
226.156
224.493
222.836
221.185
219.54
217.903
216.274
214.654
213.043
211.442
209.852
208.273
206.707
205.154
203.615
202.091
200.584
199.092
197.619
196.165
194.731
193.319
191.929
190.562
189.221
187.906
186.619
185.362
184.132
182.945
181.764
257.538
255.851
254.16
252.468
250.773
249.077
247.38
245.682
243.983
242.284
240.586
238.889
237.193
235.499
233.807
232.118
230.433
228.751
227.074
225.401
223.734
222.073
220.419
218.772
217.132
215.502
213.88
212.269
210.668
209.078
207.501
205.936
204.386
202.85
201.329
199.826
198.339
196.872
195.424
193.997
192.592
191.211
189.854
188.523
187.219
185.943
184.7
183.483
182.311
181.146
255.254
253.551
251.847
250.141
248.434
246.726
245.018
243.31
241.602
239.895
238.19
236.486
234.785
233.087
231.391
229.7
228.013
226.331
224.654
222.983
221.318
219.661
218.011
216.37
214.738
213.116
211.504
209.903
208.314
206.738
205.176
203.628
202.095
200.578
199.079
197.598
196.136
194.695
193.275
191.879
190.506
189.159
187.838
186.546
185.283
184.052
182.85
181.692
180.543
254.656
252.942
251.227
249.51
247.793
246.075
244.357
242.64
240.923
239.208
237.495
235.784
234.076
232.371
230.67
228.973
227.281
225.594
223.913
222.238
220.571
218.911
217.259
215.616
213.983
212.36
210.748
209.148
207.56
205.986
204.425
202.88
201.351
199.838
198.344
196.868
195.413
193.979
192.567
191.178
189.815
188.478
187.168
185.888
184.637
183.419
182.231
181.087
179.955
254.059
252.334
250.607
248.88
247.153
245.425
243.698
241.972
240.248
238.525
236.804
235.087
233.372
231.661
229.954
228.252
226.555
224.864
223.179
221.501
219.831
218.169
216.515
214.871
213.237
211.614
210.002
208.402
206.816
205.243
203.686
202.143
200.618
199.11
197.621
196.151
194.702
193.275
191.871
190.491
189.137
187.81
186.511
185.242
184.003
182.799
181.624
180.496
179.38
251.726
249.989
248.252
246.515
244.778
243.043
241.309
239.576
237.846
236.118
234.394
232.673
230.956
229.244
227.537
225.836
224.141
222.453
220.772
219.099
217.435
215.78
214.134
212.5
210.876
209.265
207.667
206.082
204.512
202.957
201.418
199.897
198.394
196.91
195.446
194.003
192.583
191.187
189.816
188.471
187.154
185.865
184.608
183.382
182.192
181.032
179.918
178.819
251.119
249.373
247.626
245.88
244.135
242.391
240.648
238.909
237.171
235.437
233.706
231.98
230.258
228.541
226.829
225.124
223.425
221.734
220.05
218.375
216.709
215.052
213.406
211.772
210.149
208.538
206.941
205.359
203.791
202.239
200.704
199.187
197.688
196.209
194.751
193.315
191.902
190.514
189.152
187.817
186.51
185.233
183.988
182.775
181.599
180.454
179.356
178.273
248.758
247.003
245.248
243.494
241.742
239.992
238.245
236.501
234.761
233.024
231.292
229.565
227.843
226.128
224.418
222.716
221.022
219.336
217.659
215.991
214.334
212.688
211.053
209.431
207.822
206.226
204.645
203.08
201.531
200
198.486
196.992
195.519
194.067
192.638
191.233
189.854
188.501
187.175
185.88
184.615
183.382
182.182
181.019
179.889
178.807
177.741
248.146
246.382
244.619
242.857
241.097
239.341
237.587
235.836
234.09
232.347
230.61
228.878
227.152
225.433
223.72
222.015
220.318
218.63
216.952
215.284
213.626
211.979
210.344
208.723
207.114
205.52
203.941
202.378
200.833
199.305
197.796
196.308
194.84
193.395
191.974
190.577
189.206
187.862
186.547
185.262
184.009
182.789
181.602
180.454
179.339
178.271
177.223
245.764
243.993
242.224
240.457
238.693
236.933
235.176
233.424
231.676
229.934
228.198
226.468
224.745
223.03
221.322
219.623
217.934
216.253
214.584
212.925
211.278
209.643
208.022
206.415
204.823
203.247
201.687
200.145
198.622
197.118
195.635
194.173
192.735
191.321
189.932
188.57
187.236
185.931
184.658
183.416
182.209
181.036
179.901
178.801
177.75
176.718
245.15
243.371
241.594
239.821
238.05
236.284
234.522
232.764
231.012
229.266
227.525
225.792
224.066
222.347
220.637
218.936
217.244
215.562
213.891
212.232
210.585
208.951
207.331
205.726
204.136
202.562
201.006
199.468
197.949
196.45
194.973
193.518
192.087
190.68
189.299
187.946
186.622
185.328
184.065
182.836
181.641
180.482
179.362
178.277
177.241
176.227
244.539
242.753
240.969
239.189
237.413
235.641
233.874
232.111
230.354
228.603
226.859
225.122
223.392
221.671
219.958
218.254
216.561
214.878
213.207
211.548
209.901
208.269
206.65
205.047
203.459
201.888
200.336
198.802
197.287
195.794
194.322
192.874
191.449
190.051
188.679
187.335
186.02
184.737
183.486
182.268
181.087
179.941
178.835
177.766
176.746
175.749
243.933
242.14
240.35
238.564
236.782
235.004
233.231
231.464
229.702
227.947
226.199
224.458
222.725
221.001
219.286
217.581
215.887
214.204
212.532
210.873
209.227
207.595
205.979
204.377
202.792
201.225
199.676
198.146
196.636
195.148
193.683
192.241
190.824
189.433
188.069
186.735
185.431
184.158
182.918
181.713
180.545
179.413
178.322
177.268
176.264
175.284
243.332
241.532
239.736
237.943
236.155
234.372
232.593
230.821
229.056
227.297
225.545
223.801
222.066
220.34
218.623
216.917
215.221
213.538
211.866
210.207
208.562
206.932
205.317
203.718
202.135
200.571
199.026
197.5
195.996
194.513
193.054
191.619
190.209
188.827
187.472
186.147
184.853
183.591
182.363
181.171
180.015
178.898
177.821
176.783
175.795
174.831
242.734
240.927
239.125
237.326
235.533
233.745
231.962
230.185
228.416
226.653
224.899
223.152
221.414
219.686
217.968
216.261
214.565
212.88
211.209
209.551
207.907
206.278
204.664
203.068
201.489
199.928
198.387
196.866
195.366
193.889
192.436
191.008
189.606
188.232
186.886
185.571
184.287
183.037
181.821
180.641
179.499
178.395
177.333
176.31
175.338
174.392
242.14
240.327
238.519
236.715
234.917
233.124
231.337
229.556
227.783
226.017
224.26
222.511
220.771
219.041
217.321
215.613
213.916
212.232
210.561
208.903
207.26
205.633
204.022
202.428
200.852
199.295
197.758
196.241
194.747
193.276
191.83
190.409
189.015
187.649
186.312
185.007
183.733
182.494
181.29
180.123
178.994
177.905
176.858
175.85
174.894
173.965
239.733
237.919
236.11
234.307
232.509
230.718
228.934
227.157
225.388
223.628
221.877
220.135
218.404
216.683
214.974
213.276
211.592
209.921
208.265
206.623
204.998
203.389
201.798
200.225
198.672
197.139
195.628
194.139
192.674
191.235
189.821
188.435
187.077
185.75
184.454
183.192
181.964
180.772
179.617
178.502
177.427
176.394
175.403
174.462
173.55
239.144
237.325
235.511
233.703
231.901
230.106
228.319
226.539
224.767
223.004
221.251
219.507
217.774
216.053
214.343
212.645
210.961
209.291
207.636
205.996
204.372
202.766
201.178
199.609
198.059
196.531
195.025
193.542
192.083
190.65
189.244
187.866
186.517
185.199
183.914
182.662
181.445
180.265
179.123
178.022
176.961
175.943
174.967
174.042
173.146
238.56
236.736
234.918
233.106
231.3
229.501
227.71
225.927
224.153
222.388
220.632
218.887
217.153
215.431
213.721
212.023
210.34
208.67
207.016
205.378
203.757
202.153
200.568
199.002
197.457
195.934
194.433
192.955
191.503
190.077
188.678
187.308
185.968
184.66
183.385
182.144
180.938
179.771
178.642
177.553
176.507
175.504
174.543
173.634
172.756
236.154
234.331
232.515
230.705
228.903
227.109
225.323
223.546
221.779
220.022
218.276
216.541
214.818
213.107
211.41
209.727
208.059
206.406
204.77
203.151
201.55
199.968
198.406
196.865
195.347
193.851
192.38
190.934
189.515
188.124
186.762