/*--------------------------------*- C++ -*----------------------------------*\
| =========                 |                                                 |
| \\      /  F ield         | OpenFOAM: The Open Source CFD Toolbox           |
|  \\    /   O peration     | Version:  v1706                                 |
|   \\  /    A nd           | Web:      www.OpenFOAM.com                      |
|    \\/     M anipulation  |                                                 |
\*---------------------------------------------------------------------------*/
FoamFile
{
    version     2.0;
    format      ascii;
    class       volScalarField;
    location    "3.6e-05";
    object      rho;
}
// * * * * * * * * * * * * * * * * * * * * * * * * * * * * * * * * * * * * * //

dimensions      [1 -3 0 0 0 0 0];


internalField   nonuniform List<scalar> 
30038
(
0.000511309
0.000511309
0.000511309
0.000511309
0.000511309
0.000511309
0.000511309
0.000511309
0.000511309
0.000511309
0.000511309
0.000511309
0.000511309
0.000511309
0.000511309
0.000511309
0.000511309
0.000511309
0.000511309
0.000511309
0.000511309
0.000511309
0.000511309
0.000511309
0.000511309
0.000511309
0.000511309
0.000511309
0.000511309
0.000511309
0.000511309
0.000511309
0.000511309
0.000511309
0.000511309
0.000511309
0.000511309
0.000511309
0.000511309
0.000511309
0.000511309
0.000511309
0.000511309
0.000511309
0.000511309
0.000511309
0.000511309
0.000511309
0.000511309
0.000511309
0.000511309
0.000511309
0.000511309
0.000511309
0.000511309
0.000511309
0.000511309
0.000511309
0.000511309
0.000511309
0.000511309
0.000511309
0.000511309
0.000511309
0.000511309
0.000511309
0.000511309
0.000511309
0.000511309
0.000511309
0.000511309
0.000511309
0.000511309
0.000511309
0.000511309
0.000511309
0.000511309
0.000511309
0.000511309
0.000511309
0.000511309
0.000511309
0.000511309
0.000511309
0.000511309
0.000511309
0.000511309
0.000511309
0.000511309
0.000511309
0.000511309
0.000511309
0.000511309
0.000511309
0.000511309
0.000511309
0.000511309
0.000511309
0.000511309
0.000511309
0.000511309
0.000511309
0.000511309
0.000511309
0.000511309
0.000511309
0.000511309
0.000511309
0.000511309
0.000511309
0.000511309
0.000511309
0.000511309
0.000511309
0.000511309
0.000511309
0.000511309
0.000511309
0.000511309
0.000511309
0.000511309
0.000511309
0.000511309
0.000511309
0.000511309
0.000511309
0.000511309
0.000511309
0.000511309
0.000511309
0.000511309
0.000511309
0.000511309
0.000511309
0.000511309
0.000511309
0.000511309
0.000511309
0.000511309
0.000511309
0.000511309
0.000511309
0.000511309
0.000511309
0.000511309
0.000511309
0.000511309
0.000511309
0.000511309
0.000511309
0.000511309
0.000511309
0.000511309
0.000511309
0.000511309
0.000511309
0.000511309
0.000511309
0.000511309
0.000511309
0.000511309
0.000511309
0.000511309
0.000511309
0.000511309
0.000511309
0.000511309
0.000511309
0.000511309
0.000511309
0.000511309
0.000511309
0.000511309
0.000511309
0.000511309
0.000511309
0.000511309
0.000511309
0.000511309
0.000511309
0.000511309
0.000511309
0.000511309
0.000511309
0.000511309
0.000511309
0.000511309
0.000511309
0.000511309
0.000511309
0.000511309
0.000511309
0.000511309
0.000511309
0.000511309
0.000511309
0.000511309
0.000511309
0.000511309
0.000511309
0.000511309
0.000511309
0.000511309
0.000511309
0.000511309
0.000511309
0.000511309
0.000511309
0.000511309
0.000511309
0.000511309
0.000511309
0.000511309
0.000511309
0.000511309
0.000511309
0.000511309
0.000511309
0.000511309
0.000511309
0.000511309
0.000511309
0.000511309
0.000511309
0.000511309
0.000511309
0.000511309
0.000511309
0.000511309
0.000511309
0.000511309
0.000511309
0.000511309
0.000511309
0.000511309
0.000511309
0.000511309
0.000511309
0.000511309
0.000511309
0.000511309
0.000511309
0.000511309
0.000511309
0.000511309
0.000511309
0.000511309
0.000511309
0.000511309
0.000511309
0.000511309
0.000511309
0.000511309
0.000511309
0.000511309
0.000511309
0.000511309
0.000511309
0.000511309
0.000511309
0.000511309
0.000511309
0.000511309
0.000511309
0.000511309
0.000511309
0.000511309
0.000511309
0.000511309
0.000511309
0.000511309
0.000511309
0.000511309
0.000511309
0.000511309
0.000511309
0.000511309
0.000511309
0.000511309
0.000511309
0.000511309
0.000511309
0.000511309
0.000511309
0.000511309
0.000511309
0.000511309
0.000511309
0.000511309
0.000511309
0.000511309
0.000511309
0.000511309
0.000511309
0.000511309
0.000511309
0.000511309
0.000511309
0.000511309
0.000511309
0.000511309
0.000511309
0.000511309
0.000511309
0.000511309
0.000511309
0.000511309
0.000511309
0.000511309
0.000511309
0.000511309
0.000511309
0.000511309
0.000511309
0.000511309
0.000511309
0.000511309
0.000511309
0.000511309
0.000511309
0.000511309
0.000511309
0.000511309
0.000511309
0.000511309
0.000511309
0.000511309
0.000511309
0.000511309
0.000511309
0.000511309
0.000511309
0.000511309
0.000511309
0.000511309
0.000511309
0.000511309
0.000511309
0.000511309
0.000511309
0.00051131
0.00051131
0.00051131
0.000511309
0.000511309
0.000511309
0.000511309
0.000511309
0.000511309
0.000511309
0.000511309
0.000511309
0.000511309
0.000511309
0.000511309
0.000511309
0.000511309
0.000511309
0.000511309
0.000511309
0.000511309
0.000511309
0.000511309
0.000511309
0.000511309
0.000511309
0.000511309
0.000511309
0.000511309
0.000511309
0.000511309
0.000511309
0.000511309
0.000511309
0.000511309
0.000511309
0.00051131
0.00051131
0.00051131
0.00051131
0.00051131
0.000511311
0.000511309
0.000511309
0.000511309
0.000511309
0.000511309
0.000511309
0.000511309
0.000511309
0.000511309
0.000511309
0.000511309
0.000511309
0.000511309
0.000511309
0.000511309
0.000511309
0.000511309
0.000511309
0.000511309
0.000511309
0.000511309
0.000511309
0.000511309
0.000511309
0.000511309
0.000511309
0.000511309
0.000511309
0.000511309
0.000511309
0.00051131
0.00051131
0.00051131
0.00051131
0.00051131
0.00051131
0.000511311
0.000511312
0.000511313
0.000511309
0.000511309
0.000511309
0.000511309
0.000511309
0.000511309
0.000511309
0.000511309
0.000511309
0.000511309
0.000511309
0.000511309
0.000511309
0.000511309
0.000511309
0.000511309
0.000511309
0.000511309
0.000511309
0.000511309
0.000511309
0.000511309
0.000511309
0.000511309
0.000511309
0.000511309
0.000511309
0.000511309
0.00051131
0.00051131
0.00051131
0.00051131
0.00051131
0.00051131
0.000511311
0.000511312
0.000511313
0.000511314
0.000511317
0.00051132
0.000511309
0.000511309
0.000511309
0.000511309
0.000511309
0.000511309
0.000511309
0.000511309
0.000511309
0.000511309
0.000511309
0.000511309
0.000511309
0.000511309
0.000511309
0.000511309
0.000511309
0.000511309
0.000511309
0.000511309
0.000511309
0.000511309
0.000511309
0.000511309
0.000511309
0.00051131
0.00051131
0.00051131
0.00051131
0.00051131
0.00051131
0.000511311
0.000511312
0.000511313
0.000511314
0.000511316
0.000511319
0.000511324
0.00051133
0.000511341
0.000511309
0.000511309
0.000511309
0.000511309
0.000511309
0.000511309
0.000511309
0.000511309
0.000511309
0.000511309
0.000511309
0.000511309
0.000511309
0.000511309
0.000511309
0.000511309
0.000511309
0.000511309
0.000511309
0.000511309
0.000511309
0.000511309
0.00051131
0.00051131
0.00051131
0.00051131
0.00051131
0.00051131
0.000511311
0.000511312
0.000511312
0.000511314
0.000511316
0.000511319
0.000511323
0.000511329
0.000511337
0.00051135
0.000511369
0.000511398
0.000511309
0.000511309
0.000511309
0.000511309
0.000511309
0.000511309
0.000511309
0.000511309
0.000511309
0.000511309
0.000511309
0.000511309
0.000511309
0.000511309
0.000511309
0.000511309
0.000511309
0.000511309
0.000511309
0.00051131
0.00051131
0.00051131
0.00051131
0.00051131
0.00051131
0.000511311
0.000511312
0.000511312
0.000511314
0.000511316
0.000511318
0.000511322
0.000511328
0.000511336
0.000511347
0.000511364
0.000511389
0.000511424
0.000511476
0.000511558
0.000511309
0.000511309
0.000511309
0.000511309
0.000511309
0.000511309
0.000511309
0.000511309
0.000511309
0.000511309
0.000511309
0.000511309
0.000511309
0.000511309
0.000511309
0.000511309
0.00051131
0.00051131
0.00051131
0.00051131
0.00051131
0.00051131
0.000511311
0.000511312
0.000511312
0.000511314
0.000511316
0.000511318
0.000511322
0.000511327
0.000511335
0.000511346
0.000511361
0.000511383
0.000511416
0.000511462
0.00051153
0.000511627
0.000511768
0.00051199
0.000511309
0.000511309
0.000511309
0.000511309
0.000511309
0.000511309
0.000511309
0.000511309
0.000511309
0.000511309
0.000511309
0.000511309
0.00051131
0.00051131
0.00051131
0.00051131
0.00051131
0.00051131
0.000511311
0.000511311
0.000511312
0.000511313
0.000511314
0.000511316
0.000511318
0.000511322
0.000511327
0.000511334
0.000511344
0.000511359
0.00051138
0.00051141
0.000511452
0.000511514
0.000511602
0.000511728
0.00051191
0.000512173
0.00051255
0.000513138
0.000511309
0.000511309
0.000511309
0.000511309
0.000511309
0.000511309
0.000511309
0.000511309
0.000511309
0.00051131
0.00051131
0.00051131
0.00051131
0.00051131
0.00051131
0.000511311
0.000511311
0.000511312
0.000511313
0.000511314
0.000511316
0.000511318
0.000511322
0.000511327
0.000511334
0.000511344
0.000511358
0.000511378
0.000511406
0.000511446
0.000511502
0.000511583
0.000511698
0.000511863
0.000512098
0.000512435
0.000512917
0.000513612
0.000514599
0.000516126
0.000511309
0.000511309
0.000511309
0.000511309
0.000511309
0.000511309
0.000511309
0.00051131
0.00051131
0.00051131
0.00051131
0.00051131
0.00051131
0.000511311
0.000511311
0.000511312
0.000511313
0.000511314
0.000511316
0.000511319
0.000511322
0.000511327
0.000511334
0.000511344
0.000511357
0.000511377
0.000511403
0.000511441
0.000511495
0.00051157
0.000511677
0.000511829
0.000512043
0.000512348
0.000512782
0.000513399
0.000514277
0.000515528
0.000517317
0.000519834
0.00052368
0.000511309
0.000511309
0.000511309
0.00051131
0.00051131
0.00051131
0.00051131
0.00051131
0.00051131
0.00051131
0.000511311
0.000511311
0.000511312
0.000511313
0.000511314
0.000511316
0.000511319
0.000511323
0.000511328
0.000511335
0.000511344
0.000511358
0.000511377
0.000511403
0.000511439
0.000511491
0.000511562
0.000511663
0.000511805
0.000512004
0.000512285
0.000512682
0.000513241
0.000514032
0.000515149
0.000516729
0.000518962
0.000522106
0.000526563
0.000532735
0.000542002
0.00051131
0.00051131
0.00051131
0.00051131
0.00051131
0.00051131
0.00051131
0.000511311
0.000511311
0.000511312
0.000511312
0.000511313
0.000511315
0.000511317
0.00051132
0.000511323
0.000511329
0.000511336
0.000511345
0.000511359
0.000511378
0.000511404
0.00051144
0.000511489
0.000511559
0.000511656
0.00051179
0.000511979
0.000512242
0.00051261
0.000513127
0.000513851
0.000514866
0.000516291
0.000518289
0.000521087
0.000525
0.000530463
0.000538049
0.000548547
0.00056283
0.000583845
0.00051131
0.00051131
0.00051131
0.00051131
0.00051131
0.000511311
0.000511311
0.000511312
0.000511313
0.000511314
0.000511315
0.000511318
0.00051132
0.000511324
0.00051133
0.000511337
0.000511347
0.000511361
0.00051138
0.000511406
0.000511442
0.000511491
0.000511559
0.000511653
0.000511784
0.000511964
0.000512215
0.000512563
0.000513047
0.000513721
0.000514659
0.000515965
0.000517785
0.000520314
0.000523825
0.000528693
0.00053542
0.000544647
0.000557246
0.000574384
0.000597805
0.000628378
0.000673505
0.00051131
0.000511311
0.000511311
0.000511311
0.000511312
0.000511313
0.000511314
0.000511316
0.000511318
0.000511322
0.000511326
0.000511331
0.000511339
0.00051135
0.000511364
0.000511383
0.00051141
0.000511446
0.000511496
0.000511564
0.000511657
0.000511785
0.000511961
0.000512203
0.000512537
0.000512999
0.000513636
0.000514516
0.000515733
0.000517415
0.000519739
0.000522942
0.000527349
0.000533403
0.000541672
0.00055288
0.000568035
0.000588498
0.000615816
0.000651811
0.0007006
0.000766947
0.000867167
0.000511311
0.000511312
0.000511313
0.000511314
0.000511315
0.000511317
0.00051132
0.000511323
0.000511328
0.000511334
0.000511342
0.000511353
0.000511368
0.000511388
0.000511416
0.000511453
0.000511504
0.000511572
0.000511666
0.000511793
0.000511968
0.000512206
0.000512531
0.000512978
0.00051359
0.000514429
0.00051558
0.00051716
0.000519328
0.000522295
0.000526348
0.000531878
0.000539393
0.000549526
0.000563119
0.00058135
0.000605672
0.000637607
0.000679675
0.000736885
0.00081592
0.000922601
0.00105311
0.00121038
0.000511313
0.000511314
0.000511316
0.000511318
0.000511321
0.000511325
0.00051133
0.000511336
0.000511345
0.000511357
0.000511373
0.000511395
0.000511424
0.000511462
0.000511515
0.000511585
0.000511681
0.00051181
0.000511985
0.000512222
0.000512544
0.000512983
0.000513579
0.000514392
0.000515498
0.000517005
0.000519058
0.000521849
0.000525633
0.000530759
0.000537685
0.000546981
0.000559361
0.000575832
0.000597726
0.000626459
0.000663802
0.000713359
0.000781216
0.000873582
0.000992815
0.0011335
0.00128427
0.00142606
0.00155402
0.000511317
0.00051132
0.000511323
0.000511327
0.000511333
0.00051134
0.00051135
0.000511363
0.00051138
0.000511403
0.000511434
0.000511475
0.00051153
0.000511603
0.000511702
0.000511834
0.000512013
0.000512253
0.000512577
0.000513014
0.000513604
0.000514402
0.000515481
0.00051694
0.000518913
0.000521577
0.000525164
0.000529987
0.000536459
0.000545103
0.000556546
0.000571645
0.00059158
0.000617738
0.000651515
0.000695429
0.000754428
0.000834926
0.000941229
0.00107186
0.00121767
0.00136456
0.00149736
0.00160699
0.00168817
0.00174546
0.000511321
0.000511325
0.00051133
0.000511336
0.000511344
0.000511355
0.00051137
0.000511389
0.000511414
0.000511447
0.000511491
0.000511549
0.000511627
0.00051173
0.000511868
0.000512053
0.000512299
0.000512629
0.000513071
0.000513664
0.00051446
0.000515528
0.00051696
0.000518885
0.000521465
0.000524915
0.000529517
0.000535652
0.000543796
0.000554523
0.000568563
0.000586955
0.00061101
0.000642018
0.000681749
0.000733979
0.000804668
0.000899256
0.0010189
0.00115796
0.00130435
0.00144361
0.00156347
0.00165771
0.00172549
0.00177029
0.00179724
0.00181106
0.000511341
0.00051135
0.000511362
0.000511378
0.000511399
0.000511427
0.000511463
0.000511511
0.000511574
0.000511657
0.000511768
0.000511913
0.000512107
0.000512363
0.000512704
0.000513158
0.000513762
0.000514567
0.000515638
0.000517066
0.000518969
0.000521503
0.000524868
0.000529324
0.000535219
0.000542995
0.000553183
0.000566422
0.000583618
0.000605979
0.000634785
0.000671369
0.000718512
0.000781364
0.000865785
0.00097479
0.00110561
0.00124881
0.00139096
0.00151887
0.00162396
0.00170294
0.00175798
0.00179257
0.00181239
0.00182142
0.00182348
0.00182276
0.000511357
0.000511371
0.00051139
0.000511413
0.000511444
0.000511484
0.000511537
0.000511606
0.000511696
0.000511815
0.000511971
0.000512177
0.000512448
0.000512805
0.000513277
0.000513901
0.000514726
0.000515817
0.000517259
0.000519168
0.000521692
0.000525019
0.000529393
0.000535134
0.000542656
0.000552455
0.000565108
0.000581402
0.000602437
0.000629476
0.00066366
0.000707004
0.000763748
0.000839666
0.000938958
0.00106108
0.00119923
0.0013415
0.0014748
0.00158859
0.00167802
0.00174238
0.00178593
0.00181152
0.0018259
0.00183052
0.00183072
0.00182987
0.00182733
0.00182198
0.000511431
0.000511466
0.000511511
0.00051157
0.000511646
0.000511746
0.000511875
0.000512045
0.000512266
0.000512556
0.000512936
0.000513433
0.000514087
0.000514944
0.00051607
0.000517547
0.000519488
0.000522035
0.000525369
0.00052972
0.000535385
0.000542757
0.000552299
0.000564545
0.000580183
0.000600215
0.00062585
0.000658185
0.000698697
0.000750774
0.000819794
0.000910605
0.00102431
0.00115636
0.00129671
0.00143283
0.00155337
0.00165152
0.00172519
0.00177651
0.00180941
0.00182779
0.00183714
0.00183859
0.00183822
0.00183668
0.00183287
0.00182701
0.00181968
0.00181027
0.000511611
0.000511697
0.000511808
0.000511952
0.000512138
0.00051238
0.000512694
0.000513102
0.000513634
0.000514327
0.000515231
0.000516407
0.00051794
0.000519939
0.000522544
0.000525929
0.000530312
0.000535976
0.000543291
0.000552697
0.000564691
0.000579888
0.000599194
0.000623758
0.00065468
0.000693087
0.000741657
0.000805212
0.000888871
0.000994896
0.00112052
0.00125757
0.00139445
0.00151966
0.00162486
0.00170677
0.00176562
0.00180541
0.00182894
0.00184205
0.00184645
0.00184632
0.0018457
0.0018431
0.001838
0.00183156
0.00182359
0.00181409
0.00180407
0.00179319
0.000512048
0.000512255
0.000512523
0.000512867
0.000513312
0.000513888
0.000514633
0.000515597
0.000516843
0.000518455
0.00052054
0.000523238
0.000526718
0.000531189
0.000536921
0.000544268
0.00055365
0.000565534
0.000580476
0.000599305
0.000623104
0.000652971
0.000689837
0.000735813
0.000795144
0.00087296
0.000972276
0.00109168
0.00122466
0.00136077
0.00148873
0.0015994
0.00168813
0.00175409
0.00179991
0.00182916
0.00184555
0.00185366
0.00185461
0.00185426
0.00185267
0.00184878
0.00184306
0.00183591
0.0018274
0.00181758
0.00180749
0.00179714
0.00178692
0.00177604
0.000513086
0.000513577
0.000514208
0.000515018
0.00051606
0.000517396
0.000519111
0.000521314
0.000524143
0.000527764
0.000532378
0.000538248
0.000545714
0.00055518
0.000567086
0.000581943
0.000600512
0.000623826
0.000652954
0.000688731
0.000732838
0.000788996
0.000862185
0.000955867
0.00106962
0.00119826
0.00133254
0.00146166
0.00157619
0.00167034
0.00174246
0.00179396
0.00182838
0.0018486
0.00185973
0.00186295
0.00186268
0.001862
0.00185913
0.00185395
0.00184771
0.00184005
0.00183095
0.0018211
0.00181109
0.00180083
0.00179059
0.0017803
0.00177025
0.00175958
0.000515503
0.000516642
0.000518091
0.000519938
0.000522293
0.000525295
0.000529105
0.000533922
0.00054
0.000547674
0.000557331
0.000569385
0.000584313
0.000602822
0.000625905
0.000654595
0.000689667
0.000732486
0.000786352
0.000856011
0.000945147
0.001054
0.0011784
0.00131024
0.00143932
0.00155621
0.00165445
0.00173157
0.00178809
0.00182696
0.00185128
0.00186508
0.00187096
0.00187126
0.00187096
0.00186899
0.00186475
0.00185909
0.00185216
0.00184392
0.00183445
0.00182471
0.00181472
0.00180458
0.00179446
0.00178433
0.00177424
0.00176411
0.00175421
0.00174369
0.00052097
0.000523517
0.000526739
0.000530794
0.000535875
0.000542238
0.000550209
0.000560165
0.000572492
0.000587639
0.000606277
0.00062937
0.000657906
0.000692612
0.000734629
0.000786944
0.000854054
0.000939699
0.00104451
0.00116505
0.00129414
0.00142229
0.00154027
0.00164132
0.00172222
0.00178294
0.00182569
0.00185371
0.00187
0.00187834
0.00187998
0.00187977
0.00187867
0.00187528
0.00187004
0.00186389
0.00185639
0.00184753
0.00183804
0.00182837
0.00181842
0.00180843
0.00179844
0.00178843
0.00177844
0.00176845
0.0017585
0.00174848
0.00173868
0.00172828
0.000532896
0.000538311
0.000545037
0.000553403
0.000563767
0.000576491
0.000592002
0.000610954
0.000634289
0.000662947
0.000697597
0.000739231
0.000790634
0.000856076
0.000939229
0.00104089
0.00115809
0.00128438
0.00141098
0.00152901
0.00163162
0.00171514
0.0017791
0.00182507
0.0018561
0.001875
0.00188538
0.0018887
0.00188865
0.00188814
0.00188549
0.00188078
0.0018752
0.00186836
0.00186025
0.00185113
0.00184176
0.00183208
0.00182223
0.00181238
0.00180251
0.00179262
0.00178275
0.00177287
0.00176298
0.00175309
0.00174323
0.0017333
0.00172358
0.00171329
0.00055736
0.000568249
0.000581498
0.000597518
0.000616968
0.000640777
0.000669825
0.000704707
0.000746337
0.000797402
0.000861983
0.00094358
0.00104296
0.00115741
0.00128102
0.00140567
0.00152289
0.00162594
0.00171095
0.00177713
0.00182555
0.00185896
0.00188024
0.00189214
0.00189721
0.00189772
0.00189744
0.00189549
0.0018915
0.00188624
0.00188001
0.0018726
0.00186392
0.0018548
0.00184546
0.00183583
0.00182615
0.00181644
0.00180669
0.00179693
0.00178716
0.00177738
0.00176759
0.00175779
0.00174798
0.00173816
0.00172838
0.00171853
0.0017089
0.00169872
0.000604334
0.000624477
0.000648995
0.000678696
0.000714081
0.000756065
0.000807335
0.000871815
0.000952731
0.00105065
0.00116294
0.00128408
0.00140649
0.00152219
0.0016247
0.00171017
0.0017775
0.00182754
0.0018627
0.00188582
0.00189914
0.00190559
0.00190694
0.00190661
0.00190543
0.00190202
0.00189698
0.00189139
0.00188453
0.00187642
0.00186761
0.00185861
0.00184924
0.00183972
0.00183017
0.00182058
0.00181097
0.00180133
0.00179168
0.001782
0.0017723
0.00176259
0.00175286
0.00174312
0.00173339
0.00172364
0.00171394
0.00170417
0.00169463
0.00168456
0.000689768
0.000725917
0.000768616
0.000820638
0.00088575
0.0009668
0.00106401
0.00117469
0.00129356
0.00141352
0.0015271
0.00162818
0.00171308
0.0017806
0.0018314
0.00186765
0.00189198
0.00190646
0.00191408
0.00191617
0.00191604
0.00191529
0.00191235
0.00190765
0.0019024
0.0018961
0.00188864
0.0018802
0.00187145
0.00186238
0.00185307
0.00184373
0.00183432
0.00182486
0.00181536
0.00180584
0.0017963
0.00178673
0.00177713
0.0017675
0.00175786
0.0017482
0.00173853
0.00172885
0.00171919
0.00170952
0.00169989
0.00169021
0.00168075
0.0016708
0.000837631
0.000904104
0.000986035
0.00108319
0.00119269
0.00130945
0.00142676
0.00153767
0.00163652
0.00171989
0.00178667
0.00183739
0.00187401
0.001899
0.00191439
0.00192256
0.00192546
0.00192558
0.00192511
0.00192258
0.00191834
0.00191332
0.00190746
0.0019005
0.00189245
0.001884
0.00187529
0.00186623
0.00185707
0.00184786
0.00183857
0.00182924
0.00181988
0.00181048
0.00180104
0.00179157
0.00178207
0.00177253
0.00176298
0.00175339
0.0017438
0.00173419
0.00172458
0.00171497
0.00170537
0.00169578
0.00168623
0.00167665
0.00166728
0.00165745
0.00110841
0.00121706
0.00133175
0.00144615
0.00155384
0.00164969
0.00173067
0.00179585
0.00184565
0.00188193
0.00190706
0.00192289
0.00193142
0.00193486
0.00193537
0.0019347
0.00193282
0.00192894
0.00192407
0.00191865
0.00191209
0.00190448
0.00189631
0.00188794
0.00187915
0.00187019
0.00186119
0.00185209
0.00184294
0.00183375
0.00182451
0.00181523
0.0018059
0.00179653
0.00178713
0.00177768
0.00176821
0.00175871
0.00174919
0.00173966
0.00173011
0.00172056
0.00171101
0.00170146
0.00169194
0.00168242
0.00167297
0.00166348
0.0016542
0.00164449
0.00147155
0.00157544
0.00166757
0.00174537
0.0018081
0.00185623
0.00189154
0.0019163
0.00193203
0.00194064
0.00194445
0.00194523
0.00194462
0.00194304
0.00193945
0.00193459
0.00192955
0.00192344
0.00191629
0.00190845
0.00190033
0.00189183
0.00188309
0.00187432
0.00186544
0.00185647
0.00184745
0.00183838
0.00182926
0.0018201
0.00181088
0.00180162
0.00179231
0.00178296
0.00177357
0.00176416
0.00175472
0.00174525
0.00173577
0.00172628
0.00171679
0.00170729
0.00169781
0.00168834
0.00167889
0.00166945
0.00166008
0.00165069
0.00164151
0.00163192
0.00176375
0.00182329
0.00186908
0.00190286
0.00192668
0.00194192
0.00195042
0.00195423
0.00195521
0.00195467
0.00195323
0.00194992
0.00194523
0.00194038
0.00193462
0.00192789
0.00192029
0.00191246
0.00190429
0.00189581
0.00188725
0.00187858
0.0018698
0.00186098
0.00185209
0.00184315
0.00183415
0.00182509
0.00181598
0.00180682
0.00179761
0.00178836
0.00177906
0.00176973
0.00176037
0.00175098
0.00174157
0.00173215
0.00172271
0.00171327
0.00170383
0.0016944
0.00168498
0.00167558
0.00166621
0.00165686
0.00164758
0.00163829
0.00162921
0.00161974
0.00188402
0.00191575
0.00193818
0.00195258
0.00196065
0.00196431
0.00196539
0.00196494
0.00196336
0.00196037
0.00195589
0.00195111
0.00194567
0.00193925
0.00193196
0.00192439
0.00191655
0.0019083
0.00189996
0.00189152
0.00188296
0.00187433
0.00186564
0.00185687
0.00184805
0.00183916
0.00183022
0.00182121
0.00181216
0.00180305
0.00179389
0.00178468
0.00177544
0.00176616
0.00175685
0.00174751
0.00173815
0.00172878
0.00171939
0.00171
0.00170061
0.00169123
0.00168187
0.00167252
0.00166319
0.0016539
0.00164464
0.00163546
0.00162626
0.00161728
0.00160794
0.00196392
0.00197129
0.00197469
0.00197575
0.00197531
0.00197363
0.00197083
0.00196653
0.00196172
0.00195652
0.00195041
0.00194342
0.00193614
0.00192861
0.00192061
0.00191247
0.00190427
0.00189592
0.0018875
0.00187901
0.00187044
0.00186179
0.00185309
0.00184432
0.00183548
0.00182658
0.00181762
0.00180861
0.00179955
0.00179043
0.00178128
0.00177208
0.00176285
0.00175358
0.00174429
0.00173499
0.00172566
0.00171633
0.00170699
0.00169765
0.00168831
0.00167899
0.00166969
0.00166041
0.00165117
0.00164196
0.00163279
0.0016237
0.00161461
0.00160573
0.00159651
0.00198539
0.00198627
0.00198577
0.00198401
0.00198117
0.00197715
0.00197235
0.0019673
0.00196147
0.00195472
0.00194767
0.00194041
0.00193269
0.0019248
0.00191685
0.00190873
0.00190049
0.0018922
0.00188383
0.00187538
0.00186687
0.00185827
0.00184961
0.00184088
0.00183209
0.00182323
0.00181431
0.00180534
0.00179632
0.00178725
0.00177814
0.00176898
0.0017598
0.00175058
0.00174134
0.00173208
0.0017228
0.00171351
0.00170422
0.00169492
0.00168564
0.00167636
0.00166711
0.00165787
0.00164867
0.0016395
0.00163038
0.00162131
0.00161231
0.00160332
0.00159456
0.00158547
0.00199448
0.00199154
0.00198767
0.00198297
0.00197796
0.00197239
0.00196593
0.00195908
0.00195208
0.00194461
0.00193693
0.00192922
0.00192134
0.00191332
0.00190524
0.00189708
0.00188882
0.00188049
0.00187208
0.0018636
0.00185505
0.00184643
0.00183773
0.00182898
0.00182016
0.00181128
0.00180235
0.00179336
0.00178434
0.00177526
0.00176615
0.00175701
0.00174784
0.00173864
0.00172942
0.00172019
0.00171094
0.00170169
0.00169245
0.0016832
0.00167397
0.00166476
0.00165557
0.00164641
0.00163728
0.0016282
0.00161917
0.00161018
0.00160129
0.0015924
0.00158375
0.00157479
0.00199356
0.0019886
0.0019832
0.00197699
0.00197031
0.00196355
0.00195637
0.00194892
0.00194145
0.00193378
0.00192597
0.00191811
0.00191016
0.0019021
0.00189397
0.00188576
0.00187746
0.00186909
0.00186064
0.00185212
0.00184353
0.00183487
0.00182615
0.00181736
0.00180852
0.00179962
0.00179068
0.00178169
0.00177265
0.00176359
0.00175448
0.00174535
0.00173619
0.00172702
0.00171783
0.00170863
0.00169942
0.00169021
0.00168101
0.00167182
0.00166265
0.0016535
0.00164438
0.00163529
0.00162624
0.00161724
0.0016083
0.00159941
0.00159062
0.00158185
0.0015733
0.00156447
0.00198794
0.00198146
0.00197489
0.00196798
0.00196074
0.00195348
0.00194607
0.00193848
0.00193083
0.00192309
0.00191523
0.0019073
0.00189928
0.00189118
0.00188299
0.00187473
0.00186638
0.00185796
0.00184947
0.00184091
0.00183228
0.00182359
0.00181484
0.00180603
0.00179717
0.00178826
0.0017793
0.00177031
0.00176128
0.00175221
0.00174312
0.001734
0.00172487
0.00171572
0.00170656
0.00169739
0.00168822
0.00167906
0.00166991
0.00166078
0.00165166
0.00164258
0.00163353
0.00162451
0.00161555
0.00160664
0.00159779
0.001589
0.00158031
0.00157165
0.00156321
0.00155452
0.00197945
0.00197244
0.00196539
0.00195821
0.00195083
0.00194339
0.00193587
0.00192822
0.00192049
0.00191268
0.00190476
0.00189677
0.00188869
0.00188053
0.00187228
0.00186396
0.00185557
0.0018471
0.00183857
0.00182996
0.0018213
0.00181258
0.0018038
0.00179498
0.0017861
0.00177718
0.00176822
0.00175923
0.0017502
0.00174114
0.00173206
0.00172297
0.00171385
0.00170473
0.0016956
0.00168647
0.00167735
0.00166824
0.00165914
0.00165006
0.00164101
0.00163199
0.00162301
0.00161408
0.0016052
0.00159638
0.00158762
0.00157894
0.00157035
0.00156181
0.00155349
0.00154493
0.00197022
0.00196307
0.00195583
0.00194852
0.00194107
0.00193354
0.00192593
0.00191822
0.00191041
0.00190252
0.00189455
0.00188648
0.00187834
0.00187012
0.00186182
0.00185345
0.001845
0.00183649
0.00182792
0.00181929
0.00181059
0.00180185
0.00179305
0.00178421
0.00177532
0.00176639
0.00175743
0.00174844
0.00173942
0.00173038
0.00172131
0.00171224
0.00170315
0.00169406
0.00168497
0.00167588
0.0016668
0.00165774
0.00164869
0.00163968
0.00163069
0.00162174
0.00161284
0.00160399
0.00159519
0.00158646
0.00157781
0.00156922
0.00156075
0.00155232
0.00154412
0.0015357
0.00196104
0.00195381
0.00194647
0.00193906
0.00193155
0.00192393
0.00191624
0.00190845
0.00190057
0.00189261
0.00188456
0.00187643
0.00186823
0.00185995
0.0018516
0.00184318
0.00183469
0.00182614
0.00181754
0.00180887
0.00180015
0.00179138
0.00178257
0.00177372
0.00176482
0.00175589
0.00174693
0.00173795
0.00172894
0.00171991
0.00171087
0.00170182
0.00169276
0.0016837
0.00167465
0.0016656
0.00165657
0.00164756
0.00163858
0.00162962
0.0016207
0.00161183
0.001603
0.00159423
0.00158553
0.00157689
0.00156834
0.00155986
0.00155149
0.00154318
0.0015351
0.00152683
0.00194477
0.00193734
0.00192984
0.00192224
0.00191454
0.00190676
0.0018989
0.00189095
0.00188291
0.0018748
0.00186662
0.00185836
0.00185002
0.00184162
0.00183316
0.00182463
0.00181605
0.00180741
0.00179872
0.00178998
0.0017812
0.00177237
0.00176351
0.00175461
0.00174568
0.00173673
0.00172775
0.00171875
0.00170975
0.00170073
0.0016917
0.00168268
0.00167365
0.00166464
0.00165564
0.00164666
0.00163771
0.00162878
0.00161989
0.00161104
0.00160224
0.0015935
0.00158481
0.0015762
0.00156766
0.00155921
0.00155084
0.00154258
0.0015344
0.00152644
0.00151831
0.00193592
0.00192841
0.00192082
0.00191313
0.00190536
0.0018975
0.00188956
0.00188154
0.00187344
0.00186527
0.00185703
0.00184871
0.00184033
0.00183189
0.00182339
0.00181483
0.00180621
0.00179755
0.00178883
0.00178008
0.00177128
0.00176244
0.00175358
0.00174468
0.00173575
0.00172681
0.00171784
0.00170887
0.00169988
0.00169088
0.00168189
0.0016729
0.00166392
0.00165495
0.001646
0.00163707
0.00162817
0.00161931
0.00161049
0.00160171
0.00159299
0.00158433
0.00157573
0.00156721
0.00155877
0.00155042
0.00154216
0.00153402
0.00152596
0.00151813
0.00151014
0.00192727
0.00191967
0.00191199
0.00190423
0.00189637
0.00188844
0.00188043
0.00187235
0.00186419
0.00185596
0.00184767
0.00183931
0.00183088
0.0018224
0.00181386
0.00180527
0.00179663
0.00178794
0.00177921
0.00177044
0.00176164
0.00175279
0.00174393
0.00173503
0.00172611
0.00171718
0.00170823
0.00169927
0.00169031
0.00168134
0.00167238
0.00166343
0.00165449
0.00164556
0.00163666
0.00162779
0.00161896
0.00161016
0.0016014
0.0015927
0.00158406
0.00157548
0.00156698
0.00155855
0.00155021
0.00154197
0.00153382
0.00152581
0.00151787
0.00151017
0.00150233
0.00191113
0.00190336
0.00189552
0.0018876
0.0018796
0.00187152
0.00186338
0.00185516
0.00184689
0.00183854
0.00183014
0.00182168
0.00181316
0.00180459
0.00179597
0.00178731
0.0017786
0.00176986
0.00176108
0.00175226
0.00174342
0.00173455
0.00172566
0.00171676
0.00170784
0.00169891
0.00168997
0.00168104
0.0016721
0.00166318
0.00165426
0.00164537
0.00163649
0.00162765
0.00161883
0.00161006
0.00160133
0.00159265
0.00158402
0.00157546
0.00156697
0.00155856