/*--------------------------------*- C++ -*----------------------------------*\
| =========                 |                                                 |
| \\      /  F ield         | OpenFOAM: The Open Source CFD Toolbox           |
|  \\    /   O peration     | Version:  v1706                                 |
|   \\  /    A nd           | Web:      www.OpenFOAM.com                      |
|    \\/     M anipulation  |                                                 |
\*---------------------------------------------------------------------------*/
FoamFile
{
    version     2.0;
    format      ascii;
    class       volVectorField;
    location    "3.6e-05";
    object      U;
}
// * * * * * * * * * * * * * * * * * * * * * * * * * * * * * * * * * * * * * //

dimensions      [0 1 -1 0 0 0 0];


internalField   nonuniform List<vector> 
30038
(
(978.58 -1.13623e-10 5.42277e-15)
(978.58 -1.14783e-10 3.99524e-15)
(978.58 -1.1639e-10 7.75142e-15)
(978.58 -1.18545e-10 3.23549e-15)
(978.58 -1.20609e-10 4.91135e-15)
(978.58 -1.22728e-10 5.50413e-15)
(978.58 -1.24985e-10 9.15551e-15)
(978.58 -1.28071e-10 8.74969e-15)
(978.58 -1.30196e-10 4.7866e-15)
(978.58 -1.32792e-10 6.47068e-15)
(978.58 -1.3499e-10 1.04463e-14)
(978.58 -1.37747e-10 6.59404e-15)
(978.58 -1.40125e-10 5.15194e-15)
(978.58 -1.42476e-10 3.44682e-15)
(978.58 -1.44624e-10 6.78149e-15)
(978.58 -1.47146e-10 8.95296e-15)
(978.58 -1.49635e-10 5.90679e-15)
(978.58 -1.51696e-10 2.92872e-15)
(978.58 -1.5359e-10 4.97156e-15)
(978.58 -1.53687e-10 7.86713e-15)
(978.58 -1.52588e-10 8.36418e-15)
(978.58 -1.46374e-10 4.7147e-15)
(978.58 -1.36336e-10 3.46784e-15)
(978.58 -1.25839e-10 7.48589e-15)
(978.58 -1.08947e-10 5.34226e-15)
(978.58 -7.89165e-11 3.37107e-15)
(978.58 -3.13064e-11 4.72914e-15)
(978.58 4.8502e-11 7.90537e-15)
(978.58 1.90924e-10 9.23561e-15)
(978.58 4.29913e-10 8.14566e-15)
(978.58 8.00823e-10 8.08103e-15)
(978.58 1.32656e-09 9.82575e-15)
(978.58 2.07747e-09 8.25759e-15)
(978.58 3.18901e-09 8.4253e-15)
(978.58 4.8763e-09 1.03317e-14)
(978.58 7.46881e-09 6.22383e-15)
(978.58 1.17898e-08 3.87272e-15)
(978.58 1.85212e-08 8.31889e-15)
(978.58 -3.28477e-10 1.76857e-14)
(978.58 -3.34529e-10 2.03495e-14)
(978.58 -3.39905e-10 1.91582e-14)
(978.58 -3.45232e-10 1.85081e-14)
(978.58 -3.4945e-10 2.18853e-14)
(978.58 -3.55738e-10 2.0259e-14)
(978.58 -3.60828e-10 2.2421e-14)
(978.58 -3.66794e-10 2.09847e-14)
(978.58 -3.72394e-10 1.64756e-14)
(978.58 -3.79319e-10 2.09517e-14)
(978.58 -3.85275e-10 1.93696e-14)
(978.58 -3.91838e-10 1.55496e-14)
(978.58 -3.9856e-10 1.80222e-14)
(978.58 -4.04484e-10 1.89592e-14)
(978.58 -4.09304e-10 2.09681e-14)
(978.58 -4.13136e-10 2.03459e-14)
(978.58 -4.17527e-10 1.99227e-14)
(978.58 -4.17407e-10 1.8851e-14)
(978.58 -4.1076e-10 1.7951e-14)
(978.58 -4.01994e-10 1.95839e-14)
(978.58 -3.91858e-10 1.94659e-14)
(978.58 -3.66853e-10 2.04583e-14)
(978.58 -3.33292e-10 2.01236e-14)
(978.58 -2.76919e-10 1.84319e-14)
(978.58 -1.74094e-10 1.73348e-14)
(978.58 3.08052e-12 1.87935e-14)
(978.58 3.21135e-10 1.99279e-14)
(978.58 8.4989e-10 2.0088e-14)
(978.58 1.68612e-09 2.33241e-14)
(978.58 2.90959e-09 2.12901e-14)
(978.58 4.64051e-09 2.0179e-14)
(978.58 7.17772e-09 2.7146e-14)
(978.58 1.09992e-08 2.57412e-14)
(978.58 1.68027e-08 2.40827e-14)
(978.58 2.56702e-08 2.40562e-14)
(978.58 3.91601e-08 2.06183e-14)
(978.58 6.1042e-08 2.13354e-14)
(978.58 9.59308e-08 2.38445e-14)
(978.58 -5.34968e-10 3.20266e-14)
(978.58 -5.41452e-10 3.41503e-14)
(978.58 -5.49526e-10 3.09183e-14)
(978.58 -5.583e-10 2.89057e-14)
(978.58 -5.65951e-10 3.1437e-14)
(978.58 -5.73944e-10 3.26946e-14)
(978.58 -5.8198e-10 3.2046e-14)
(978.58 -5.9054e-10 2.64254e-14)
(978.58 -5.99052e-10 2.78725e-14)
(978.58 -6.06626e-10 2.82498e-14)
(978.58 -6.15824e-10 2.73753e-14)
(978.58 -6.24616e-10 2.95155e-14)
(978.58 -6.32503e-10 3.14662e-14)
(978.58 -6.3804e-10 3.15141e-14)
(978.58 -6.3707e-10 3.07977e-14)
(978.58 -6.32422e-10 3.39002e-14)
(978.58 -6.27234e-10 3.23798e-14)
(978.58 -6.18132e-10 3.17271e-14)
(978.58 -5.91926e-10 3.08696e-14)
(978.58 -5.52187e-10 3.00044e-14)
(978.58 -4.87018e-10 2.98446e-14)
(978.58 -3.70444e-10 3.10257e-14)
(978.58 -1.61502e-10 2.94346e-14)
(978.58 2.03015e-10 3.21463e-14)
(978.58 7.96668e-10 3.58978e-14)
(978.58 1.71615e-09 3.52125e-14)
(978.58 3.01011e-09 3.2656e-14)
(978.58 4.80559e-09 3.1963e-14)
(978.58 7.37839e-09 3.53469e-14)
(978.58 1.12121e-08 3.53442e-14)
(978.58 1.69916e-08 3.55051e-14)
(978.58 2.57206e-08 3.70218e-14)
(978.58 3.89243e-08 3.56324e-14)
(978.58 5.88847e-08 3.60869e-14)
(978.58 8.92833e-08 3.73571e-14)
(978.58 1.35109e-07 3.62649e-14)
(978.58 2.09704e-07 3.38091e-14)
(978.58 3.25193e-07 3.66616e-14)
(978.58 -7.31304e-10 4.54705e-14)
(978.58 -7.3982e-10 4.49356e-14)
(978.58 -7.49127e-10 4.28613e-14)
(978.58 -7.59482e-10 4.29001e-14)
(978.58 -7.69559e-10 4.57111e-14)
(978.58 -7.79309e-10 4.22974e-14)
(978.58 -7.89289e-10 4.1257e-14)
(978.58 -7.9982e-10 4.1504e-14)
(978.58 -8.09246e-10 4.3784e-14)
(978.58 -8.15592e-10 4.17173e-14)
(978.58 -8.19033e-10 4.40513e-14)
(978.58 -8.1874e-10 4.40033e-14)
(978.58 -8.19798e-10 4.44683e-14)
(978.58 -8.15392e-10 3.88922e-14)
(978.58 -8.0568e-10 4.11327e-14)
(978.58 -7.69938e-10 4.16177e-14)
(978.58 -7.25498e-10 4.16818e-14)
(978.58 -6.47678e-10 4.53051e-14)
(978.58 -5.05756e-10 4.55458e-14)
(978.58 -2.52532e-10 4.39367e-14)
(978.58 1.67195e-10 4.42809e-14)
(978.58 8.3152e-10 4.42718e-14)
(978.58 1.81981e-09 4.85031e-14)
(978.58 3.16369e-09 4.95009e-14)
(978.58 5.02026e-09 4.7722e-14)
(978.58 7.70801e-09 4.77975e-14)
(978.58 1.17415e-08 4.63784e-14)
(978.58 1.77752e-08 4.53754e-14)
(978.58 2.67626e-08 4.76817e-14)
(978.58 4.01792e-08 4.81868e-14)
(978.58 6.02688e-08 4.7093e-14)
(978.58 9.04019e-08 4.85576e-14)
(978.58 1.35696e-07 4.81095e-14)
(978.58 2.03814e-07 4.79428e-14)
(978.58 3.07169e-07 5.03992e-14)
(978.58 4.62387e-07 5.13731e-14)
(978.58 7.13773e-07 5.0438e-14)
(978.58 1.10074e-06 5.08751e-14)
(978.58 -9.13817e-10 5.45256e-14)
(978.58 -9.25653e-10 5.66739e-14)
(978.58 -9.36875e-10 5.65436e-14)
(978.58 -9.48317e-10 5.55051e-14)
(978.58 -9.5907e-10 5.37081e-14)
(978.58 -9.67621e-10 5.48097e-14)
(978.58 -9.74215e-10 5.63054e-14)
(978.58 -9.7561e-10 5.70808e-14)
(978.58 -9.79538e-10 5.79425e-14)
(978.58 -9.78819e-10 5.72106e-14)
(978.58 -9.74549e-10 5.66088e-14)
(978.58 -9.53001e-10 5.50427e-14)
(978.58 -9.23482e-10 5.36333e-14)
(978.58 -8.71056e-10 5.40818e-14)
(978.58 -7.71891e-10 5.69551e-14)
(978.58 -5.8934e-10 5.90424e-14)
(978.58 -2.82918e-10 6.20817e-14)
(978.58 2.06588e-10 5.98206e-14)
(978.58 9.63068e-10 5.86624e-14)
(978.58 2.02372e-09 6.08574e-14)
(978.58 3.45533e-09 5.71031e-14)
(978.58 5.43427e-09 5.71495e-14)
(978.58 8.32245e-09 6.24913e-14)
(978.58 1.26375e-08 6.11844e-14)
(978.58 1.90383e-08 6.14065e-14)
(978.58 2.84819e-08 6.23126e-14)
(978.58 4.24438e-08 6.09944e-14)
(978.58 6.31395e-08 5.49971e-14)
(978.58 9.38875e-08 5.51623e-14)
(978.58 1.39668e-07 5.68466e-14)
(978.58 2.07949e-07 6.18448e-14)
(978.58 3.09939e-07 6.49384e-14)
(978.58 4.62665e-07 6.15039e-14)
(978.58 6.91575e-07 6.05905e-14)
(978.58 1.03759e-06 6.15228e-14)
(978.58 1.55533e-06 6.30419e-14)
(978.58 2.38884e-06 6.41689e-14)
(978.58 3.66443e-06 6.44763e-14)
(978.58 -1.08626e-09 7.0509e-14)
(978.58 -1.0968e-09 6.97883e-14)
(978.58 -1.10544e-09 6.53307e-14)
(978.58 -1.10846e-09 6.17818e-14)
(978.58 -1.11438e-09 6.50892e-14)
(978.58 -1.11697e-09 6.56397e-14)
(978.58 -1.11382e-09 6.52098e-14)
(978.58 -1.10791e-09 7.36321e-14)
(978.58 -1.07719e-09 7.19701e-14)
(978.58 -1.0359e-09 6.90545e-14)
(978.58 -9.63996e-10 6.86368e-14)
(978.58 -8.3393e-10 6.78644e-14)
(978.58 -6.06428e-10 6.82888e-14)
(978.58 -2.35302e-10 7.0304e-14)
(978.58 3.43617e-10 7.02205e-14)
(978.58 1.19078e-09 7.23235e-14)
(978.58 2.32897e-09 7.47599e-14)
(978.58 3.87428e-09 7.15603e-14)
(978.58 6.05474e-09 7.0409e-14)
(978.58 9.24791e-09 7.31221e-14)
(978.58 1.39428e-08 7.28185e-14)
(978.58 2.08276e-08 7.40952e-14)
(978.58 3.09149e-08 7.26477e-14)
(978.58 4.57212e-08 7.0822e-14)
(978.58 6.74697e-08 7.13177e-14)
(978.58 9.9468e-08 7.65982e-14)
(978.58 1.46674e-07 7.68893e-14)
(978.58 2.16463e-07 7.05474e-14)
(978.58 3.19807e-07 7.30937e-14)
(978.58 4.73073e-07 7.3113e-14)
(978.58 7.0079e-07 7.15728e-14)
(978.58 1.03974e-06 7.29129e-14)
(978.58 1.54561e-06 7.44436e-14)
(978.58 2.30124e-06 7.78779e-14)
(978.58 3.43903e-06 7.61898e-14)
(978.58 5.13545e-06 7.31039e-14)
(978.58 7.85052e-06 7.4241e-14)
(978.58 1.19825e-05 7.54329e-14)
(978.58 -1.22795e-09 7.91412e-14)
(978.58 -1.23226e-09 7.87861e-14)
(978.58 -1.23296e-09 8.17578e-14)
(978.58 -1.23007e-09 8.27852e-14)
(978.58 -1.20701e-09 7.97361e-14)
(978.58 -1.17367e-09 7.84722e-14)
(978.58 -1.11812e-09 8.11002e-14)
(978.58 -1.02113e-09 8.31185e-14)
(978.58 -8.44185e-10 7.92517e-14)
(978.58 -5.52223e-10 8.38938e-14)
(978.58 -9.60086e-11 8.32278e-14)
(978.58 5.91093e-10 8.19318e-14)
(978.58 1.527e-09 8.13284e-14)
(978.58 2.77373e-09 8.07546e-14)
(978.58 4.48511e-09 8.12901e-14)
(978.58 6.94343e-09 8.46491e-14)
(978.58 1.0531e-08 8.55384e-14)
(978.58 1.57377e-08 8.63578e-14)
(978.58 2.32747e-08 8.44644e-14)
(978.58 3.42192e-08 8.64333e-14)
(978.58 5.01598e-08 8.49781e-14)
(978.58 7.33992e-08 8.39608e-14)
(978.58 1.07312e-07 8.34711e-14)
(978.58 1.56886e-07 8.50457e-14)
(978.58 2.29508e-07 8.38895e-14)
(978.58 3.36102e-07 8.7347e-14)
(978.58 4.92845e-07 8.65137e-14)
(978.58 7.23721e-07 8.06113e-14)
(978.58 1.06437e-06 8.22552e-14)
(978.58 1.5679e-06 8.51764e-14)
(978.58 2.31362e-06 8.56848e-14)
(978.58 3.42006e-06 8.62079e-14)
(978.58 5.06575e-06 8.9109e-14)
(978.58 7.51537e-06 9.12406e-14)
(978.58 1.11897e-05 9.11598e-14)
(978.58 1.66488e-05 8.80312e-14)
(978.58 2.5335e-05 8.8449e-14)
(978.58 3.84818e-05 8.9163e-14)
(978.58 -1.31818e-09 9.2697e-14)
(978.58 -1.28957e-09 9.39099e-14)
(978.58 -1.2456e-09 9.56315e-14)
(978.58 -1.16988e-09 9.73151e-14)
(978.58 -1.02755e-09 9.52927e-14)
(978.58 -7.89727e-10 9.32047e-14)
(978.58 -4.15994e-10 9.57544e-14)
(978.58 1.52026e-10 9.75873e-14)
(978.58 9.45027e-10 9.86265e-14)
(978.58 1.98989e-09 9.59433e-14)
(978.58 3.39262e-09 9.43987e-14)
(978.58 5.35237e-09 9.41105e-14)
(978.58 8.17996e-09 9.36264e-14)
(978.58 1.22566e-08 9.5074e-14)
(978.58 1.81086e-08 9.57269e-14)
(978.58 2.65106e-08 9.87317e-14)
(978.58 3.86088e-08 9.96286e-14)
(978.58 5.60616e-08 9.6986e-14)
(978.58 8.12803e-08 9.68463e-14)
(978.58 1.17796e-07 9.70393e-14)
(978.58 1.70752e-07 9.54222e-14)
(978.58 2.4766e-07 9.69394e-14)
(978.58 3.59548e-07 9.42482e-14)
(978.58 5.22653e-07 9.47237e-14)
(978.58 7.60874e-07 9.53352e-14)
(978.58 1.10941e-06 9.97648e-14)
(978.58 1.62019e-06 9.71675e-14)
(978.58 2.37005e-06 9.71306e-14)
(978.58 3.47288e-06 1.00257e-13)
(978.58 5.09778e-06 1.01477e-13)
(978.58 7.49633e-06 1.01732e-13)
(978.58 1.1043e-05 1.01134e-13)
(978.58 1.62999e-05 1.01219e-13)
(978.58 2.40976e-05 1.00116e-13)
(978.58 3.57497e-05 1.02672e-13)
(978.58 5.30021e-05 1.03827e-13)
(978.58 8.02956e-05 9.94522e-14)
(978.58 0.000121383 9.65888e-14)
(978.58 -1.29083e-09 1.07758e-13)
(978.58 -1.17167e-09 1.0863e-13)
(978.58 -9.71276e-10 1.11239e-13)
(978.58 -6.55176e-10 1.112e-13)
(978.58 -1.75136e-10 1.10847e-13)
(978.58 5.09892e-10 1.11703e-13)
(978.58 1.41336e-09 1.13046e-13)
(978.58 2.60467e-09 1.09866e-13)
(978.58 4.23398e-09 1.09497e-13)
(978.58 6.54532e-09 1.06841e-13)
(978.58 9.84698e-09 1.05419e-13)
(978.58 1.45446e-08 1.08102e-13)
(978.58 2.12174e-08 1.03974e-13)
(978.58 3.07284e-08 1.09473e-13)
(978.58 4.43136e-08 1.09431e-13)
(978.58 6.37457e-08 1.10168e-13)
(978.58 9.15875e-08 1.08676e-13)
(978.58 1.31557e-07 1.06852e-13)
(978.58 1.89034e-07 1.0726e-13)
(978.58 2.71825e-07 1.08797e-13)
(978.58 3.91287e-07 1.08327e-13)
(978.58 5.63965e-07 1.08441e-13)
(978.58 8.14008e-07 1.06385e-13)
(978.58 1.17673e-06 1.06384e-13)
(978.58 1.70383e-06 1.0893e-13)
(978.58 2.47114e-06 1.11044e-13)
(978.58 3.59005e-06 1.11377e-13)
(978.58 5.22452e-06 1.09228e-13)
(978.58 7.61638e-06 1.09828e-13)
(978.58 1.11228e-05 1.11082e-13)
(978.58 1.62723e-05 1.12679e-13)
(978.58 2.38483e-05 1.12561e-13)
(978.58 3.50135e-05 1.13002e-13)
(978.58 5.15064e-05 1.12704e-13)
(978.58 7.58876e-05 1.16171e-13)
(978.58 0.000112183 1.14832e-13)
(978.58 0.000165736 1.1148e-13)
(978.58 0.000249972 1.10488e-13)
(978.58 0.000376111 1.10396e-13)
(978.58 -4.10965e-10 1.21906e-13)
(978.58 1.96988e-10 1.21479e-13)
(978.58 9.99882e-10 1.23377e-13)
(978.58 2.04561e-09 1.26318e-13)
(978.58 3.44739e-09 1.24134e-13)
(978.58 5.40103e-09 1.24387e-13)
(978.58 8.16754e-09 1.22824e-13)
(978.58 1.20676e-08 1.18924e-13)
(978.58 1.75526e-08 1.18316e-13)
(978.58 2.52873e-08 1.18489e-13)
(978.58 3.62247e-08 1.20711e-13)
(978.58 5.1718e-08 1.17109e-13)
(978.58 7.36961e-08 1.17772e-13)
(978.58 1.04934e-07 1.22561e-13)
(978.58 1.49407e-07 1.21936e-13)
(978.58 2.12824e-07 1.21143e-13)
(978.58 3.03411e-07 1.19379e-13)
(978.58 4.33037e-07 1.22426e-13)
(978.58 6.18858e-07 1.21424e-13)
(978.58 8.85695e-07 1.21022e-13)
(978.58 1.26953e-06 1.19395e-13)
(978.58 1.82264e-06 1.19561e-13)
(978.58 2.62108e-06 1.19741e-13)
(978.58 3.77571e-06 1.22167e-13)
(978.58 5.44833e-06 1.23693e-13)
(978.58 7.87554e-06 1.23585e-13)
(978.58 1.14039e-05 1.22764e-13)
(978.58 1.65418e-05 1.19514e-13)
(978.58 2.40366e-05 1.21274e-13)
(978.58 3.49883e-05 1.2542e-13)
(978.58 5.10189e-05 1.2546e-13)
(978.58 7.45256e-05 1.25296e-13)
(978.58 0.000109052 1.25132e-13)
(978.58 0.000159878 1.25337e-13)
(978.58 0.000234754 1.26138e-13)
(978.58 0.000345801 1.24127e-13)
(978.579 0.000509072 1.22637e-13)
(978.579 0.000764456 1.25931e-13)
(978.579 0.0011449 1.26382e-13)
(978.58 2.89805e-09 1.39113e-13)
(978.58 4.60371e-09 1.37074e-13)
(978.58 7.00061e-09 1.35552e-13)
(978.58 1.03528e-08 1.35916e-13)
(978.58 1.50175e-08 1.33545e-13)
(978.58 2.15224e-08 1.35239e-13)
(978.58 3.06276e-08 1.36667e-13)
(978.58 4.34003e-08 1.342e-13)
(978.58 6.13447e-08 1.31135e-13)
(978.58 8.65966e-08 1.32962e-13)
(978.58 1.22192e-07 1.32441e-13)
(978.58 1.72449e-07 1.32138e-13)
(978.58 2.43525e-07 1.30489e-13)
(978.58 3.44218e-07 1.31091e-13)
(978.58 4.87125e-07 1.37094e-13)
(978.58 6.903e-07 1.37777e-13)
(978.58 9.79659e-07 1.37519e-13)
(978.58 1.39249e-06 1.33304e-13)
(978.58 1.9825e-06 1.30661e-13)
(978.58 2.82722e-06 1.31594e-13)
(978.58 4.0387e-06 1.33179e-13)
(978.58 5.77925e-06 1.32878e-13)
(978.58 8.28419e-06 1.31442e-13)
(978.58 1.18954e-05 1.3247e-13)
(978.58 1.71102e-05 1.34814e-13)
(978.58 2.46537e-05 1.35786e-13)
(978.58 3.55845e-05 1.30777e-13)
(978.58 5.14507e-05 1.3247e-13)
(978.58 7.45204e-05 1.37234e-13)
(978.58 0.000108121 1.39328e-13)
(978.58 0.000157143 1.37575e-13)
(978.58 0.000228789 1.35394e-13)
(978.58 0.000333671 1.35748e-13)
(978.579 0.000487539 1.36874e-13)
(978.579 0.00071344 1.37724e-13)
(978.579 0.00104722 1.37307e-13)
(978.578 0.00153625 1.39491e-13)
(978.577 0.0022969 1.39123e-13)
(978.576 0.00342419 1.36959e-13)
(978.58 9.19367e-09 1.51734e-13)
(978.58 1.32906e-08 1.49196e-13)
(978.58 1.89442e-08 1.48724e-13)
(978.58 2.67812e-08 1.50091e-13)
(978.58 3.76649e-08 1.49682e-13)
(978.58 5.28028e-08 1.49978e-13)
(978.58 7.38959e-08 1.50094e-13)
(978.58 1.03344e-07 1.49726e-13)
(978.58 1.44522e-07 1.47543e-13)
(978.58 2.02188e-07 1.48702e-13)
(978.58 2.83076e-07 1.46449e-13)
(978.58 3.96744e-07 1.45755e-13)
(978.58 5.56767e-07 1.43006e-13)
(978.58 7.82441e-07 1.41765e-13)
(978.58 1.10125e-06 1.46291e-13)
(978.58 1.55241e-06 1.4752e-13)
(978.58 2.192e-06 1.4554e-13)
(978.58 3.10025e-06 1.45036e-13)
(978.58 4.39223e-06 1.44312e-13)
(978.58 6.23321e-06 1.42319e-13)
(978.58 8.86096e-06 1.40555e-13)
(978.58 1.26181e-05 1.42992e-13)
(978.58 1.79993e-05 1.43664e-13)
(978.58 2.57195e-05 1.42618e-13)
(978.58 3.68145e-05 1.45708e-13)
(978.58 5.27869e-05 1.49258e-13)
(978.58 7.582e-05 1.44902e-13)
(978.58 0.000109091 1.42697e-13)
(978.58 0.000157231 1.46768e-13)
(978.58 0.000227001 1.48037e-13)
(978.58 0.00032829 1.49545e-13)
(978.579 0.00047558 1.47442e-13)
(978.579 0.000690131 1.48026e-13)
(978.579 0.00100316 1.49952e-13)
(978.578 0.00146081 1.52292e-13)
(978.577 0.00213037 1.50998e-13)
(978.576 0.00311595 1.4984e-13)
(978.574 0.00455488 1.501e-13)
(978.572 0.00678063 1.48419e-13)
(978.568 0.0100624 1.49029e-13)
(978.58 3.37979e-08 1.65248e-13)
(978.58 4.69905e-08 1.64475e-13)
(978.58 6.51928e-08 1.63338e-13)
(978.58 9.03598e-08 1.61463e-13)
(978.58 1.25211e-07 1.62185e-13)
(978.58 1.73547e-07 1.63214e-13)
(978.58 2.40702e-07 1.63829e-13)
(978.58 3.34165e-07 1.61865e-13)
(978.58 4.64465e-07 1.61594e-13)
(978.58 6.46429e-07 1.62299e-13)
(978.58 9.00984e-07 1.56816e-13)
(978.58 1.25772e-06 1.57663e-13)
(978.58 1.75852e-06 1.57061e-13)
(978.58 2.46275e-06 1.56842e-13)
(978.58 3.4547e-06 1.58244e-13)
(978.58 4.85434e-06 1.57547e-13)
(978.58 6.83259e-06 1.54616e-13)
(978.58 9.63346e-06 1.53408e-13)
(978.58 1.36058e-05 1.55461e-13)
(978.58 1.92493e-05 1.54083e-13)
(978.58 2.72805e-05 1.5753e-13)
(978.58 3.87293e-05 1.59504e-13)
(978.58 5.50774e-05 1.60018e-13)
(978.58 7.84608e-05 1.57748e-13)
(978.58 0.000111963 1.5684e-13)
(978.58 0.000160041 1.57822e-13)
(978.58 0.000229153 1.56884e-13)
(978.58 0.000328664 1.56222e-13)
(978.579 0.000472181 1.57826e-13)
(978.579 0.000679511 1.60692e-13)
(978.579 0.000979517 1.61108e-13)
(978.578 0.00141434 1.60471e-13)
(978.577 0.00204562 1.60187e-13)
(978.576 0.00296353 1.62059e-13)
(978.575 0.00430089 1.62542e-13)
(978.572 0.00625073 1.58592e-13)
(978.569 0.00911005 1.60515e-13)
(978.564 0.0132698 1.61849e-13)
(978.556 0.0196683 1.61914e-13)
(978.545 0.0290535 1.61503e-13)
(978.58 1.12116e-07 1.77219e-13)
(978.58 1.53954e-07 1.7492e-13)
(978.58 2.11526e-07 1.75673e-13)
(978.58 2.9089e-07 1.76449e-13)
(978.58 4.00481e-07 1.77009e-13)
(978.58 5.52061e-07 1.77566e-13)
(978.58 7.62067e-07 1.73724e-13)
(978.58 1.05352e-06 1.71624e-13)
(978.58 1.45872e-06 1.75546e-13)
(978.58 2.02302e-06 1.74671e-13)
(978.58 2.81022e-06 1.70979e-13)
(978.58 3.91025e-06 1.74565e-13)
(978.58 5.45004e-06 1.72706e-13)
(978.58 7.60912e-06 1.69909e-13)
(978.58 1.06418e-05 1.69503e-13)
(978.58 1.49087e-05 1.65844e-13)
(978.58 2.09223e-05 1.65159e-13)
(978.58 2.94121e-05 1.67887e-13)
(978.58 4.14175e-05 1.68978e-13)
(978.58 5.84227e-05 1.71305e-13)
(978.58 8.255e-05 1.75408e-13)
(978.58 0.000116839 1.71266e-13)
(978.58 0.00016565 1.70068e-13)
(978.58 0.000235249 1.70095e-13)
(978.58 0.000334654 1.69803e-13)
(978.579 0.000476861 1.69924e-13)
(978.579 0.000680639 1.68923e-13)
(978.579 0.00097312 1.68528e-13)
(978.578 0.0013936 1.75365e-13)
(978.577 0.00199906 1.72502e-13)
(978.576 0.00287229 1.69224e-13)
(978.575 0.00413368 1.69158e-13)
(978.572 0.00595882 1.69855e-13)
(978.569 0.00860353 1.73085e-13)
(978.564 0.0124434 1.75081e-13)
(978.558 0.0180221 1.73974e-13)
(978.548 0.0261715 1.72525e-13)
(978.533 0.0379838 1.73906e-13)
(978.511 0.056051 1.77717e-13)
(978.48 0.0824103 1.75128e-13)
(978.58 3.56697e-07 1.90071e-13)
(978.58 4.87038e-07 1.90565e-13)
(978.58 6.65907e-07 1.89541e-13)
(978.58 9.11793e-07 1.87342e-13)
(978.58 1.25039e-06 1.8792e-13)
(978.58 1.71743e-06 1.89332e-13)
(978.58 2.36277e-06 1.86885e-13)
(978.58 3.256e-06 1.8272e-13)
(978.58 4.49443e-06 1.86568e-13)
(978.58 6.21442e-06 1.86562e-13)
(978.58 8.60726e-06 1.84279e-13)
(978.58 1.19418e-05 1.86892e-13)
(978.58 1.65965e-05 1.82236e-13)
(978.58 2.31048e-05 1.80143e-13)
(978.58 3.22198e-05 1.81859e-13)
(978.58 4.5007e-05 1.80552e-13)
(978.58 6.29754e-05 1.78613e-13)
(978.58 8.82666e-05 1.82021e-13)
(978.58 0.000123924 1.83268e-13)
(978.58 0.000174281 1.86003e-13)
(978.58 0.000245514 1.85176e-13)
(978.58 0.000346443 1.81626e-13)
(978.579 0.000489681 1.83873e-13)
(978.579 0.000693298 1.82635e-13)
(978.579 0.000983211 1.8036e-13)
(978.578 0.00139666 1.83064e-13)
(978.577 0.00198721 1.7933e-13)
(978.576 0.0028321 1.82099e-13)
(978.575 0.00404275 1.82512e-13)
(978.573 0.00578029 1.80443e-13)
(978.569 0.00827786 1.83133e-13)
(978.565 0.0118736 1.84862e-13)
(978.558 0.0170584 1.82866e-13)
(978.549 0.0245456 1.82358e-13)
(978.536 0.0353768 1.86284e-13)
(978.517 0.0510554 1.86601e-13)
(978.489 0.0738689 1.87012e-13)
(978.449 0.10681 1.87459e-13)
(978.388 0.1569 1.86638e-13)
(978.303 0.229556 1.85866e-13)
(978.58 1.10697e-06 2.03188e-13)
(978.58 1.50601e-06 2.02997e-13)
(978.58 2.05219e-06 2.01446e-13)
(978.58 2.80107e-06 2.0015e-13)
(978.58 3.82958e-06 1.98823e-13)
(978.58 5.24455e-06 1.98359e-13)
(978.58 7.19444e-06 1.99368e-13)
(978.58 9.88597e-06 1.98471e-13)
(978.58 1.36074e-05 1.99346e-13)
(978.58 1.87614e-05 1.98126e-13)
(978.58 2.59114e-05 1.97801e-13)
(978.58 3.58468e-05 1.98115e-13)
(978.58 4.96757e-05 1.93832e-13)
(978.58 6.89564e-05 1.94062e-13)
(978.58 9.58827e-05 1.96179e-13)
(978.58 0.000133549 1.94981e-13)
(978.58 0.000186326 1.94374e-13)
(978.58 0.000260395 1.94852e-13)
(978.58 0.000364517 1.93982e-13)
(978.579 0.000511121 1.95726e-13)
(978.579 0.000717873 1.95223e-13)
(978.579 0.00100992 1.93555e-13)
(978.578 0.00142311 1.93752e-13)
(978.577 0.00200863 1.93824e-13)
(978.576 0.00283967 1.93887e-13)
(978.575 0.00402104 1.93471e-13)
(978.573 0.0057031 1.94461e-13)
(978.57 0.00810176 1.94548e-13)
(978.565 0.0115276 1.92287e-13)
(978.559 0.0164279 1.95377e-13)
(978.55 0.023448 1.96067e-13)
(978.538 0.0335192 1.98176e-13)
(978.52 0.0479903 1.94008e-13)
(978.494 0.0688095 1.94532e-13)
(978.457 0.0988173 1.97554e-13)
(978.404 0.142083 1.99754e-13)
(978.327 0.204772 1.98907e-13)
(978.218 0.294912 1.9697e-13)
(978.054 0.431107 1.97145e-13)
(977.825 0.627359 1.99951e-13)
(978.58 3.36917e-06 2.16858e-13)
(978.58 4.57035e-06 2.15506e-13)
(978.58 6.21014e-06 2.14828e-13)
(978.58 8.45243e-06 2.11862e-13)
(978.58 1.15237e-05 2.12069e-13)
(978.58 1.57375e-05 2.15122e-13)
(978.58 2.15285e-05 2.13999e-13)
(978.58 2.95005e-05 2.10934e-13)
(978.58 4.04929e-05 2.12517e-13)
(978.58 5.56756e-05 2.11982e-13)
(978.58 7.66807e-05 2.10863e-13)
(978.58 0.000105789 2.10497e-13)
(978.58 0.000146191 2.06847e-13)
(978.58 0.00020236 2.08534e-13)
(978.58 0.000280577 2.1042e-13)
(978.579 0.000389669 2.07603e-13)
(978.579 0.000542071 2.09366e-13)
(978.579 0.000755322 2.10995e-13)
(978.579 0.0010542 2.08627e-13)
(978.578 0.00147375 2.07733e-13)
(978.577 0.00206364 2.06366e-13)
(978.576 0.00289434 2.04871e-13)
(978.575 0.00406598 2.09083e-13)
(978.572 0.0057211 2.0949e-13)
(978.569 0.00806283 2.099e-13)
(978.565 0.011381 2.07491e-13)
(978.559 0.01609 2.05195e-13)
(978.551 0.0227829 2.04845e-13)
(978.539 0.0323093 2.04522e-13)
(978.521 0.0458888 2.06932e-13)
(978.497 0.0652726 2.06125e-13)
(978.463 0.0929825 2.05922e-13)
(978.413 0.132644 2.07635e-13)
(978.343 0.189488 2.07698e-13)
(978.243 0.271061 2.05689e-13)
(978.1 0.388193 2.08109e-13)
(977.894 0.557069 2.08684e-13)
(977.6 0.798689 2.07258e-13)
(977.165 1.16106 2.08896e-13)
(976.559 1.67885 2.10879e-13)
(978.58 1.00748e-05 2.33124e-13)
(978.58 1.36297e-05 2.30709e-13)
(978.58 1.84701e-05 2.2755e-13)
(978.58 2.50719e-05 2.26312e-13)
(978.58 3.40909e-05 2.2643e-13)
(978.58 4.64326e-05 2.25643e-13)
(978.58 6.33486e-05 2.26052e-13)
(978.58 8.65723e-05 2.25332e-13)
(978.58 0.000118507 2.26286e-13)
(978.58 0.000162491 2.22482e-13)
(978.58 0.000223169 2.20819e-13)
(978.58 0.000307012 2.21317e-13)
(978.579 0.000423053 2.20646e-13)
(978.579 0.000583916 2.22682e-13)
(978.579 0.000807277 2.22472e-13)
(978.578 0.00111791 2.24677e-13)
(978.578 0.00155062 2.24461e-13)
(978.577 0.0021543 2.21605e-13)
(978.576 0.00299784 2.22177e-13)
(978.574 0.00417837 2.22376e-13)
(978.572 0.0058331 2.18042e-13)
(978.569 0.00815609 2.18804e-13)
(978.565 0.0114222 2.1948e-13)
(978.559 0.0160212 2.17985e-13)
(978.55 0.0225068 2.19702e-13)
(978.539 0.0316666 2.17596e-13)
(978.522 0.0446218 2.18147e-13)
(978.499 0.0629709 2.17606e-13)
(978.466 0.0889965 2.16271e-13)
(978.42 0.125959 2.1901e-13)
(978.354 0.178521 2.20356e-13)
(978.261 0.253349 2.20972e-13)
(978.129 0.360016 2.21686e-13)
(977.941 0.512176 2.18272e-13)
(977.674 0.729531 2.19138e-13)
(977.293 1.03979 2.22169e-13)
(976.749 1.48459 2.22794e-13)
(975.978 2.11662 2.21727e-13)
(974.849 3.0553 2.22518e-13)
(973.294 4.38031 2.24568e-13)
(978.58 2.19914e-05 2.47643e-13)
(978.58 2.96237e-05 2.47966e-13)
(978.58 3.99719e-05 2.43492e-13)
(978.58 5.40252e-05 2.42107e-13)
(978.58 7.31413e-05 2.42527e-13)
(978.58 9.9186e-05 2.38561e-13)
(978.58 0.000134728 2.40985e-13)
(978.58 0.000183309 2.3789e-13)
(978.58 0.000249822 2.36294e-13)
(978.58 0.000341034 2.38085e-13)
(978.579 0.000466319 2.35294e-13)
(978.579 0.000638681 2.32977e-13)
(978.579 0.000876189 2.33351e-13)
(978.578 0.00120398 2.34999e-13)
(978.578 0.00165709 2.33925e-13)
(978.577 0.0022844 2.3434e-13)
(978.576 0.00315423 2.36518e-13)
(978.574 0.00436222 2.32605e-13)
(978.572 0.00604244 2.31105e-13)
(978.569 0.00838314 2.32026e-13)
(978.564 0.0116489 2.31655e-13)
(978.558 0.0162121 2.30191e-13)
(978.55 0.0225979 2.31163e-13)
(978.538 0.0315473 2.28693e-13)
(978.522 0.0441077 2.28417e-13)
(978.499 0.0617606 2.33015e-13)
(978.467 0.0866057 2.31043e-13)
(978.423 0.12162 2.29532e-13)
(978.36 0.17103 2.29789e-13)
(978.272 0.240833 2.32431e-13)
(978.148 0.339563 2.32113e-13)
(977.973 0.47935 2.28088e-13)
(977.727 0.67744 2.3316e-13)
(977.378 0.958284 2.35196e-13)
(976.886 1.35669 2.31426e-13)
(976.189 1.9219 2.33454e-13)
(975.203 2.72329 2.35774e-13)
(973.807 3.86068 2.35347e-13)
(971.849 5.46137 2.34255e-13)
(969.025 7.80306 2.35356e-13)
(965.208 11.044 2.34457e-13)
(978.58 6.37573e-05 2.63761e-13)
(978.58 8.56624e-05 2.60801e-13)
(978.58 0.000115285 2.55204e-13)
(978.58 0.000155408 2.56171e-13)
(978.58 0.000209843 2.55023e-13)
(978.58 0.000283814 2.52086e-13)
(978.579 0.000384494 2.51747e-13)
(978.579 0.000521747 2.50456e-13)
(978.579 0.000709152 2.52635e-13)
(978.579 0.000965434 2.52688e-13)
(978.578 0.00131646 2.47972e-13)
(978.577 0.001798 2.47528e-13)
(978.577 0.00245964 2.48793e-13)
(978.575 0.00337012 2.48171e-13)
(978.574 0.00462501 2.46401e-13)
(978.571 0.00635728 2.47835e-13)
(978.568 0.00875223 2.47709e-13)
(978.563 0.0120684 2.45042e-13)
(978.557 0.0166668 2.44142e-13)
(978.549 0.0230529 2.44008e-13)
(978.537 0.0319347 2.43648e-13)
(978.521 0.0443052 2.45087e-13)
(978.498 0.061559 2.40082e-13)
(978.467 0.085657 2.37178e-13)
(978.423 0.119361 2.43857e-13)
(978.363 0.166559 2.45565e-13)
(978.278 0.232733 2.41371e-13)
(978.16 0.325617 2.41467e-13)
(977.994 0.456135 2.41822e-13)
(977.763 0.639698 2.43174e-13)
(977.438 0.898023 2.41899e-13)
(976.983 1.26172 2.44021e-13)
(976.344 1.77391 2.47277e-13)
(975.446 2.49513 2.45858e-13)
(974.188 3.50936 2.47411e-13)
(972.424 4.93426 2.45864e-13)
(969.963 6.92876 2.44656e-13)
(966.529 9.72221 2.47759e-13)
(961.817 13.572 2.50179e-13)
(955.21 19.0661 2.46534e-13)
(946.59 26.4096 2.4628e-13)
(978.58 0.000135916 2.76503e-13)
(978.58 0.000181846 2.74756e-13)
(978.58 0.000243697 2.67314e-13)
(978.58 0.000327122 2.68895e-13)
(978.579 0.000439825 2.70542e-13)
(978.579 0.000592321 2.66919e-13)
(978.579 0.000798983 2.66887e-13)
(978.578 0.00107949 2.67718e-13)
(978.578 0.00146082 2.65678e-13)
(978.577 0.00198005 2.67518e-13)
(978.576 0.00268816 2.66447e-13)
(978.575 0.00365534 2.60757e-13)
(978.573 0.00497844 2.61004e-13)
(978.57 0.00679121 2.61117e-13)
(978.567 0.00927867 2.60488e-13)
(978.562 0.012697 2.61543e-13)
(978.556 0.0174015 2.61986e-13)
(978.547 0.0238857 2.56978e-13)
(978.535 0.0328361 2.53832e-13)
(978.519 0.0452083 2.54367e-13)
(978.496 0.0623346 2.55864e-13)
(978.465 0.0860744 2.56574e-13)
(978.421 0.119027 2.54536e-13)
(978.362 0.164826 2.53876e-13)
(978.279 0.228558 2.56562e-13)
(978.164 0.31734 2.57514e-13)
(978.005 0.441156 2.56031e-13)
(977.784 0.613995 2.5483e-13)
(977.477 0.855437 2.54094e-13)
(977.049 1.19285 2.53675e-13)
(976.452 1.66455 2.5667e-13)
(975.621 2.32397 2.59109e-13)
(974.464 3.24511 2.54149e-13)
(972.855 4.52986 2.51121e-13)
(970.623 6.3181 2.54083e-13)
(967.536 8.79976 2.5594e-13)
(963.294 12.2248 2.56378e-13)
(957.518 16.915 2.57061e-13)
(949.722 23.2906 2.60906e-13)
(939.395 31.8103 2.60244e-13)
(925.64 43.3755 2.57297e-13)
(908.657 57.9969 2.58304e-13)
(978.58 0.000286979 2.86985e-13)
(978.579 0.000382349 2.85775e-13)
(978.579 0.000510243 2.83643e-13)
(978.579 0.000682025 2.83965e-13)
(978.579 0.000913114 2.84478e-13)
(978.578 0.00122447 2.82571e-13)
(978.578 0.00164465 2.81099e-13)
(978.577 0.00221258 2.82067e-13)
(978.576 0.0029814 2.80851e-13)
(978.574 0.00402376 2.79957e-13)
(978.572 0.00543912 2.80159e-13)
(978.569 0.00736389 2.75846e-13)
(978.566 0.00998541 2.73387e-13)
(978.561 0.0135612 2.74493e-13)
(978.554 0.0184457 2.74313e-13)
(978.545 0.0251279 2.73458e-13)
(978.532 0.0342831 2.73279e-13)
(978.515 0.0468446 2.70022e-13)
(978.492 0.0641037 2.67762e-13)
(978.46 0.0878493 2.66752e-13)
(978.417 0.120564 2.69507e-13)
(978.357 0.165694 2.70935e-13)
(978.275 0.228026 2.68101e-13)
(978.162 0.314213 2.65968e-13)
(978.007 0.433512 2.68659e-13)
(977.792 0.598813 2.6822e-13)
(977.496 0.828029 2.66778e-13)
(977.087 1.14602 2.6539e-13)
(976.522 1.5873 2.65524e-13)
(975.739 2.19977 2.64581e-13)
(974.658 3.04942 2.665e-13)
(973.165 4.2264 2.69104e-13)
(971.108 5.85376 2.66442e-13)
(968.282 8.09801 2.63477e-13)
(964.418 11.1794 2.66119e-13)
(959.18 15.3802 2.67272e-13)
(952.15 21.0569 2.67949e-13)
(942.822 28.6509 2.70208e-13)
(930.656 38.6447 2.70128e-13)
(915.077 51.5675 2.71301e-13)
(895.772 67.7619 2.70938e-13)
(871.492 88.5431 2.6893e-13)
(843.595 112.873 2.70573e-13)
(978.579 0.000796374 3.00139e-13)
(978.578 0.00105835 3.01413e-13)
(978.578 0.00140877 3.00728e-13)
(978.577 0.00187821 2.98095e-13)
(978.576 0.0025081 2.95501e-13)
(978.575 0.00335456 2.94345e-13)
(978.573 0.00449376 2.94874e-13)
(978.571 0.00602923 2.94045e-13)
(978.568 0.008102 2.91859e-13)
(978.564 0.0109044 2.917e-13)
(978.559 0.0146989 2.89891e-13)
(978.552 0.0198442 2.87388e-13)
(978.542 0.0268316 2.88739e-13)
(978.529 0.0363346 2.87555e-13)
(978.511 0.0492775 2.86675e-13)
(978.487 0.0669297 2.86502e-13)
(978.454 0.0910366 2.83997e-13)
(978.41 0.124003 2.85602e-13)
(978.349 0.169146 2.84263e-13)
(978.266 0.231036 2.82773e-13)
(978.153 0.31598 2.85841e-13)
(977.999 0.43269 2.84539e-13)
(977.788 0.593215 2.80348e-13)
(977.498 0.814181 2.79439e-13)
(977.101 1.1185 2.8118e-13)
(976.556 1.53773 2.81186e-13)