/*--------------------------------*- C++ -*----------------------------------*\
| =========                 |                                                 |
| \\      /  F ield         | OpenFOAM: The Open Source CFD Toolbox           |
|  \\    /   O peration     | Version:  v1706                                 |
|   \\  /    A nd           | Web:      www.OpenFOAM.com                      |
|    \\/     M anipulation  |                                                 |
\*---------------------------------------------------------------------------*/
FoamFile
{
    version     2.0;
    format      ascii;
    class       volScalarField;
    location    "3.6e-05";
    object      wallHeatFlux;
}
// * * * * * * * * * * * * * * * * * * * * * * * * * * * * * * * * * * * * * //

dimensions      [1 0 -3 0 0 0 0];


internalField   uniform 0;

boundaryField
{
    cone
    {
        type            calculated;
        value           nonuniform List<scalar> 
153
(
11319.2
11195.1
11071.7
10949.1
10827.2
10705.9
10585.2
10465.2
10345.8
10227.1
10109.1
9991.74
9875.16
9759.34
9644.31
9530.08
9416.69
9304.15
9192.5
9081.76
8971.94
8863.07
8755.18
8648.28
8542.4
8437.56
8333.77
8231.04
8129.39
8028.81
7929.31
7830.9
7733.54
7637.25
7541.98
7447.72
7354.42
7262.04
7170.51
7079.77
6989.71
6900.22
6811.13
6722.24
6633.24
6543.69
6452.99
6358.37
6261.34
6166.49
6073.15
5981.58
5891.45
5802.56
5714.72
5627.75
5541.54
5455.98
5371
5286.54
5202.54
5118.97
5035.8
4953.01
4870.57
4788.49
4706.76
4625.37
4544.33
4463.65
4383.33
4303.41
4223.89
4144.8
4066.15
3987.98
3910.31
3833.18
3756.61
3680.64
3605.29
3530.61
3456.61
3383.35
3310.84
3239.13
3168.23
3098.19
3029.03
2960.76
2893.43
2827.05
2761.64
2697.23
2633.82
2571.43
2510.09
2449.79
2390.56
2332.39
2275.31
2219.33
2164.44
2110.67
2058.03
2006.53
1956.17
1906.99
1859
1812.21
1766.66
1722.35
1679.31
1637.58
1597.16
1558.07
1520.35
1483.99
1449
1415.4
1383.16
1352.27
1322.71
1294.42
1267.37
1241.47
1216.64
1192.79
1169.81
1147.54
1125.86
1104.65
1083.77
1063.09
1042.44
1021.71
1000.77
979.548
957.967
936
913.652
890.972
868.052
845.032
822.097
799.479
777.456
756.358
736.55
718.514
702.597
689.214
679.083
)
;
    }
    inlet
    {
        type            calculated;
        value           uniform 0;
    }
    rWedge
    {
        type            wedge;
    }
    lWedge
    {
        type            wedge;
    }
    outlet
    {
        type            calculated;
        value           nonuniform 0();
    }
    procBoundary2to0
    {
        type            processor;
        value           uniform 0;
    }
    procBoundary2to1
    {
        type            processor;
        value           uniform 0;
    }
    procBoundary2to3
    {
        type            processor;
        value           uniform 0;
    }
}


// ************************************************************************* //
