/*--------------------------------*- C++ -*----------------------------------*\
| =========                 |                                                 |
| \\      /  F ield         | OpenFOAM: The Open Source CFD Toolbox           |
|  \\    /   O peration     | Version:  v1706                                 |
|   \\  /    A nd           | Web:      www.OpenFOAM.com                      |
|    \\/     M anipulation  |                                                 |
\*---------------------------------------------------------------------------*/
FoamFile
{
    version     2.0;
    format      ascii;
    class       volVectorField;
    location    "4e-05";
    object      U;
}
// * * * * * * * * * * * * * * * * * * * * * * * * * * * * * * * * * * * * * //

dimensions      [0 1 -1 0 0 0 0];


internalField   nonuniform List<vector> 
29987
(
(1760 -2.25035e-08 4.1382e-11)
(1760 -7.40949e-09 1.30622e-11)
(1760 -3.30884e-09 5.93452e-12)
(1760 -1.97201e-09 3.49396e-12)
(1760 -1.34148e-09 2.33465e-12)
(1760 -9.75244e-10 1.69731e-12)
(1760 -7.41368e-10 1.29345e-12)
(1760 -5.83745e-10 1.0156e-12)
(1760 -4.73211e-10 8.18338e-13)
(1760 -3.9059e-10 6.94515e-13)
(1760 -3.27852e-10 5.17428e-13)
(1760 -2.81531e-10 4.59621e-13)
(1760 -2.45899e-10 4.19057e-13)
(1760 -2.15488e-10 3.51808e-13)
(1760 -1.90821e-10 3.10265e-13)
(1760 -1.71759e-10 2.6586e-13)
(1760 -1.55409e-10 2.24033e-13)
(1760 -1.41141e-10 1.95652e-13)
(1760 -1.28489e-10 1.84075e-13)
(1760 -1.19261e-10 1.71955e-13)
(1760 -1.12126e-10 1.65484e-13)
(1760 -1.02144e-10 1.41405e-13)
(1760 -9.51752e-11 1.32287e-13)
(1760 -9.01818e-11 1.12665e-13)
(1760 -8.44894e-11 1.1563e-13)
(1760 -8.04359e-11 1.13129e-13)
(1760 -7.58229e-11 9.15247e-14)
(1760 -7.09598e-11 8.08928e-14)
(1760 -6.92364e-11 8.8383e-14)
(1760 -6.65199e-11 8.10318e-14)
(1760 -6.2907e-11 8.39333e-14)
(1760 -6.20696e-11 7.45696e-14)
(1760 -5.85542e-11 6.63277e-14)
(1760 -5.55944e-11 6.07147e-14)
(1760 -5.54073e-11 6.13383e-14)
(1760 -5.24107e-11 5.41399e-14)
(1760 -5.27177e-11 5.37561e-14)
(1760 -4.91012e-11 4.31375e-14)
(1760 -4.88405e-11 4.16679e-14)
(1760 -4.84834e-11 4.64693e-14)
(1760 -4.6082e-11 3.70188e-14)
(1760 -4.44653e-11 3.76032e-14)
(1760 -4.51042e-11 4.50342e-14)
(1760 -4.38253e-11 3.8462e-14)
(1760 -4.30322e-11 3.55116e-14)
(1760 -4.09926e-11 3.25398e-14)
(1760 -4.14579e-11 4.39876e-14)
(1760 -4.08343e-11 3.01423e-14)
(1760 -4.00711e-11 2.92283e-14)
(1760 -3.85568e-11 3.39227e-14)
(1760 -3.84713e-11 3.28702e-14)
(1760 -3.87331e-11 3.00452e-14)
(1760 -3.79861e-11 2.89454e-14)
(1760 -3.7103e-11 2.55709e-14)
(1760 -3.62917e-11 2.7463e-14)
(1760 -3.66803e-11 2.14682e-14)
(1760 -3.64103e-11 1.86724e-14)
(1760 -3.65394e-11 1.94992e-14)
(1760 -3.60503e-11 2.15714e-14)
(1760 -3.51637e-11 2.59564e-14)
(1760 -3.51067e-11 2.51337e-14)
(1760 -3.4284e-11 1.36905e-14)
(1760 -3.4426e-11 1.89075e-14)
(1760 -3.43155e-11 2.12449e-14)
(1760 -3.33434e-11 1.65771e-14)
(1760 -3.37237e-11 1.47803e-14)
(1760 -3.3126e-11 1.50397e-14)
(1760 -3.35753e-11 1.90477e-14)
(1760 -3.40933e-11 1.78051e-14)
(1760 -3.32856e-11 1.57059e-14)
(1760 -3.32467e-11 1.3985e-14)
(1760 -3.34935e-11 1.65061e-14)
(1760 -3.38987e-11 1.51817e-14)
(1760 -3.33768e-11 1.4899e-14)
(1760 -3.3487e-11 1.756e-14)
(1760 -3.39417e-11 1.58133e-14)
(1760 -3.35574e-11 1.45835e-14)
(1760 -3.39507e-11 1.69022e-14)
(1760 -3.336e-11 1.05807e-14)
(1760 -3.34567e-11 6.38141e-15)
(1760 -3.28005e-11 1.05746e-14)
(1760 -3.32853e-11 1.12828e-14)
(1760 -3.43651e-11 8.81768e-15)
(1760 -3.43827e-11 1.02211e-14)
(1760 -3.5487e-11 1.12404e-14)
(1760 -3.37183e-11 1.0302e-14)
(1760 -3.32183e-11 9.32916e-15)
(1760 -3.31957e-11 9.74911e-15)
(1760 -3.3201e-11 1.25307e-14)
(1760 -3.25017e-11 8.90941e-15)
(1760 -3.23048e-11 6.91289e-15)
(1760 -3.26213e-11 6.79895e-15)
(1760 -3.22855e-11 1.10491e-14)
(1760 -3.31405e-11 1.22344e-14)
(1760 -3.34259e-11 1.24532e-14)
(1760 -3.36307e-11 1.15427e-14)
(1760 -3.29154e-11 7.53924e-15)
(1760 -3.34882e-11 1.07018e-14)
(1760 -3.39158e-11 1.09704e-14)
(1760 -3.47663e-11 7.95621e-15)
(1760 -3.53876e-11 6.9523e-15)
(1760 -3.55853e-11 1.31172e-14)
(1760 -3.58094e-11 1.26087e-14)
(1760 -3.58905e-11 9.11465e-15)
(1760 -3.65651e-11 9.84971e-15)
(1760 -3.67105e-11 7.99215e-15)
(1760 -3.71836e-11 6.74882e-15)
(1760 -3.61078e-11 7.09377e-15)
(1760 -3.46806e-11 9.59196e-15)
(1760 -3.51255e-11 7.50274e-15)
(1760 -3.57823e-11 7.51101e-15)
(1760 -3.66532e-11 7.33201e-15)
(1760 -3.73691e-11 9.14995e-15)
(1760 -3.81856e-11 7.71165e-15)
(1760 -3.86666e-11 9.79269e-15)
(1760 -3.92025e-11 7.6433e-15)
(1760 -3.9979e-11 7.9015e-15)
(1760 -3.92447e-11 1.20054e-14)
(1760 -3.90743e-11 1.17115e-14)
(1760 -3.90733e-11 6.14557e-15)
(1760 -3.91189e-11 7.36428e-15)
(1760 -3.90224e-11 8.68397e-15)
(1760 -3.96295e-11 7.19605e-15)
(1760 -3.98242e-11 8.4699e-15)
(1760 -4.03035e-11 8.93099e-15)
(1760 -4.08275e-11 7.8935e-15)
(1760 -4.17567e-11 9.25187e-15)
(1760 -4.17701e-11 8.12559e-15)
(1760 -4.21751e-11 9.13842e-15)
(1760 -4.30823e-11 7.7167e-15)
(1760 -4.34013e-11 1.01716e-14)
(1760 -4.47373e-11 1.05745e-14)
(1760 -4.57255e-11 6.19312e-15)
(1760 -4.60137e-11 4.68572e-15)
(1760 -4.57055e-11 6.09938e-15)
(1760 -4.52737e-11 4.76313e-15)
(1760 -4.56668e-11 8.09146e-15)
(1760 -4.63036e-11 1.13363e-14)
(1760 -4.62585e-11 1.35976e-15)
(1760 -4.82145e-11 1.13223e-14)
(1760 -4.75799e-11 1.00903e-15)
(1760 -4.80959e-11 4.66969e-15)
(1760 -4.82761e-11 6.99036e-15)
(1760 -4.92203e-11 5.62396e-15)
(1760 -4.99392e-11 7.43603e-15)
(1760 -5.15006e-11 7.41122e-15)
(1760 -5.33932e-11 9.36075e-15)
(1760 -5.37334e-11 8.59375e-15)
(1760 -5.24292e-11 6.70926e-15)
(1760 -5.22763e-11 4.22054e-15)
(1760 -5.30258e-11 3.71526e-15)
(1760 -5.46459e-11 4.8804e-15)
(1760 -5.49761e-11 3.06748e-15)
(1760 -5.50651e-11 9.32524e-15)
(1760 -5.57837e-11 5.75984e-15)
(1760 -5.62988e-11 7.47864e-15)
(1760 -6.29903e-08 1.0778e-10)
(1760 -2.70658e-08 4.37519e-11)
(1760 -1.27642e-08 1.99648e-11)
(1760 -7.20561e-09 1.14006e-11)
(1760 -4.68297e-09 7.50036e-12)
(1760 -3.33071e-09 5.36472e-12)
(1760 -2.50601e-09 4.00867e-12)
(1760 -1.96274e-09 3.09488e-12)
(1760 -1.5849e-09 2.50384e-12)
(1760 -1.30651e-09 2.02735e-12)
(1760 -1.09281e-09 1.62673e-12)
(1760 -9.31696e-10 1.4195e-12)
(1760 -8.145e-10 1.19279e-12)
(1760 -7.14691e-10 1.04368e-12)
(1760 -6.2879e-10 8.91306e-13)
(1760 -5.6507e-10 8.19736e-13)
(1760 -5.08645e-10 7.05032e-13)
(1760 -4.62357e-10 6.42376e-13)
(1760 -4.22393e-10 5.89649e-13)
(1760 -3.92666e-10 5.3087e-13)
(1760 -3.66126e-10 4.85173e-13)
(1760 -3.32565e-10 4.18043e-13)
(1760 -3.08755e-10 3.90903e-13)
(1760 -2.94846e-10 3.53953e-13)
(1760 -2.76685e-10 3.45315e-13)
(1760 -2.60572e-10 3.29741e-13)
(1760 -2.44321e-10 2.9831e-13)
(1760 -2.30529e-10 2.74048e-13)
(1760 -2.22214e-10 2.6561e-13)
(1760 -2.13705e-10 2.49943e-13)
(1760 -2.01692e-10 2.1616e-13)
(1760 -1.95464e-10 2.13563e-13)
(1760 -1.87966e-10 1.74904e-13)
(1760 -1.7879e-10 1.64469e-13)
(1760 -1.75879e-10 1.71148e-13)
(1760 -1.68787e-10 1.66866e-13)
(1760 -1.64493e-10 1.5416e-13)
(1760 -1.57266e-10 1.53012e-13)
(1760 -1.53733e-10 1.416e-13)
(1760 -1.51928e-10 1.27427e-13)
(1760 -1.46669e-10 1.12831e-13)
(1760 -1.41375e-10 1.19214e-13)
(1760 -1.37432e-10 1.27187e-13)
(1760 -1.41026e-10 1.13672e-13)
(1760 -1.36387e-10 9.12343e-14)
(1760 -1.30679e-10 1.04644e-13)
(1760 -1.2718e-10 1.01986e-13)
(1760 -1.26608e-10 8.76622e-14)
(1760 -1.26206e-10 8.77387e-14)
(1760 -1.22978e-10 9.57226e-14)
(1760 -1.21593e-10 9.43854e-14)
(1760 -1.20726e-10 8.10059e-14)
(1760 -1.19579e-10 7.96601e-14)
(1760 -1.17e-10 6.53164e-14)
(1760 -1.13329e-10 6.92807e-14)
(1760 -1.12168e-10 6.33787e-14)
(1760 -1.12275e-10 6.21701e-14)
(1760 -1.1204e-10 6.22069e-14)
(1760 -1.11839e-10 7.20239e-14)
(1760 -1.08838e-10 7.05383e-14)
(1760 -1.08753e-10 6.00261e-14)
(1760 -1.07898e-10 4.97681e-14)
(1760 -1.07454e-10 6.22991e-14)
(1760 -1.06847e-10 5.61624e-14)
(1760 -1.048e-10 5.25868e-14)
(1760 -1.037e-10 5.2916e-14)
(1760 -1.01553e-10 4.60884e-14)
(1760 -1.02582e-10 5.12851e-14)
(1760 -1.02988e-10 5.08711e-14)
(1760 -1.0244e-10 4.68773e-14)
(1760 -1.01097e-10 4.9053e-14)
(1760 -1.01847e-10 5.08902e-14)
(1760 -1.02569e-10 4.47071e-14)
(1760 -1.01729e-10 4.39895e-14)
(1760 -1.00927e-10 4.77543e-14)
(1760 -1.00936e-10 5.01894e-14)
(1760 -9.95537e-11 4.59371e-14)
(1760 -1.01112e-10 4.37463e-14)
(1760 -1.02277e-10 3.15842e-14)
(1760 -1.01257e-10 3.09167e-14)
(1760 -9.95466e-11 3.58611e-14)
(1760 -9.98837e-11 3.35223e-14)
(1760 -9.94974e-11 3.14531e-14)
(1760 -9.93834e-11 3.62339e-14)
(1760 -1.01703e-10 4.15953e-14)
(1760 -1.0414e-10 3.95875e-14)
(1760 -1.03714e-10 3.42815e-14)
(1760 -1.03725e-10 3.8938e-14)
(1760 -1.03276e-10 3.60108e-14)
(1760 -1.02628e-10 2.82404e-14)
(1760 -1.02425e-10 3.1671e-14)
(1760 -1.0484e-10 2.66211e-14)
(1760 -1.01578e-10 3.4027e-14)
(1760 -1.00642e-10 3.53542e-14)
(1760 -1.01186e-10 3.96629e-14)
(1760 -1.04059e-10 3.14287e-14)
(1760 -1.03725e-10 2.41557e-14)
(1760 -1.03902e-10 2.61821e-14)
(1760 -1.03581e-10 2.4492e-14)
(1760 -1.02624e-10 2.47413e-14)
(1760 -1.02902e-10 2.55162e-14)
(1760 -1.03714e-10 2.73961e-14)
(1760 -1.05389e-10 2.95639e-14)
(1760 -1.05007e-10 2.18077e-14)
(1760 -1.05603e-10 2.25424e-14)
(1760 -1.05873e-10 2.10431e-14)
(1760 -1.07809e-10 2.22201e-14)
(1760 -1.1014e-10 2.10078e-14)
(1760 -1.09554e-10 1.86687e-14)
(1760 -1.09757e-10 2.02383e-14)
(1760 -1.08901e-10 2.37955e-14)
(1760 -1.08429e-10 2.30948e-14)
(1760 -1.09158e-10 2.30245e-14)
(1760 -1.10302e-10 2.4515e-14)
(1760 -1.11093e-10 2.72777e-14)
(1760 -1.11391e-10 2.58775e-14)
(1760 -1.14359e-10 2.65078e-14)
(1760 -1.15683e-10 2.61928e-14)
(1760 -1.17195e-10 2.23285e-14)
(1760 -1.18396e-10 1.75261e-14)
(1760 -1.1986e-10 1.9584e-14)
(1760 -1.2026e-10 2.05128e-14)
(1760 -1.20758e-10 2.12909e-14)
(1760 -1.21036e-10 2.21763e-14)
(1760 -1.22033e-10 2.29813e-14)
(1760 -1.22136e-10 2.17509e-14)
(1760 -1.23449e-10 2.18649e-14)
(1760 -1.23579e-10 2.07623e-14)
(1760 -1.24916e-10 2.14763e-14)
(1760 -1.26534e-10 2.38651e-14)
(1760 -1.27472e-10 2.35979e-14)
(1760 -1.28106e-10 1.86575e-14)
(1760 -1.29897e-10 1.86933e-14)
(1760 -1.31263e-10 2.03284e-14)
(1760 -1.35493e-10 1.82756e-14)
(1760 -1.37241e-10 1.92645e-14)
(1760 -1.38368e-10 2.30013e-14)
(1760 -1.36952e-10 1.98048e-14)
(1760 -1.37225e-10 2.01634e-14)
(1760 -1.38791e-10 2.23235e-14)
(1760 -1.40429e-10 1.68747e-14)
(1760 -1.43438e-10 2.09176e-14)
(1760 -1.45515e-10 1.75015e-14)
(1760 -1.46843e-10 2.16688e-14)
(1760 -1.47061e-10 1.66241e-14)
(1760 -1.44369e-10 2.16427e-14)
(1760 -1.48206e-10 2.07397e-14)
(1760 -1.52761e-10 2.1732e-14)
(1760 -1.56686e-10 2.36062e-14)
(1760 -1.60466e-10 1.82395e-14)
(1760 -1.58775e-10 1.68575e-14)
(1760 -1.61432e-10 1.21344e-14)
(1760 -1.6457e-10 1.53166e-14)
(1760 -1.65814e-10 1.84652e-14)
(1760 -1.69129e-10 1.64568e-14)
(1760 -1.68039e-10 1.90817e-14)
(1760 -9.30523e-08 1.56623e-10)
(1760 -4.73936e-08 7.42094e-11)
(1760 -2.41411e-08 3.58135e-11)
(1760 -1.36825e-08 2.00794e-11)
(1760 -8.72969e-09 1.2809e-11)
(1760 -6.10196e-09 8.97206e-12)
(1760 -4.5435e-09 6.74304e-12)
(1760 -3.53734e-09 5.18507e-12)
(1760 -2.84321e-09 4.16757e-12)
(1760 -2.34118e-09 3.36951e-12)
(1760 -1.95967e-09 2.80333e-12)
(1760 -1.66555e-09 2.40658e-12)
(1760 -1.44599e-09 2.04218e-12)
(1760 -1.26867e-09 1.7588e-12)
(1760 -1.11942e-09 1.55821e-12)
(1760 -1.0012e-09 1.36302e-12)
(1760 -9.00228e-10 1.18248e-12)
(1760 -8.18647e-10 1.07308e-12)
(1760 -7.49287e-10 9.58872e-13)
(1760 -6.93413e-10 8.90797e-13)
(1760 -6.43362e-10 7.9525e-13)
(1760 -5.89139e-10 7.00623e-13)
(1760 -5.44025e-10 6.69544e-13)
(1760 -5.15801e-10 6.0994e-13)
(1760 -4.85613e-10 5.93658e-13)
(1760 -4.55946e-10 5.48588e-13)
(1760 -4.29308e-10 5.20504e-13)
(1760 -4.06436e-10 4.69044e-13)
(1760 -3.89964e-10 4.24866e-13)
(1760 -3.72299e-10 4.03074e-13)
(1760 -3.54059e-10 3.69679e-13)
(1760 -3.40098e-10 3.61326e-13)
(1760 -3.25993e-10 3.208e-13)
(1760 -3.13966e-10 3.18412e-13)
(1760 -3.04892e-10 3.07357e-13)
(1760 -2.93506e-10 2.72274e-13)
(1760 -2.83334e-10 2.57164e-13)
(1760 -2.75283e-10 2.56938e-13)
(1760 -2.67784e-10 2.54469e-13)
(1760 -2.59371e-10 2.26764e-13)
(1760 -2.53216e-10 2.16329e-13)
(1760 -2.46424e-10 2.09154e-13)
(1760 -2.38328e-10 2.07605e-13)
(1760 -2.376e-10 1.91586e-13)
(1760 -2.35982e-10 1.73846e-13)
(1760 -2.2606e-10 1.73705e-13)
(1760 -2.19199e-10 1.6768e-13)
(1760 -2.16645e-10 1.66827e-13)
(1760 -2.12288e-10 1.64256e-13)
(1760 -2.11351e-10 1.70686e-13)
(1760 -2.08557e-10 1.5386e-13)
(1760 -2.05164e-10 1.44159e-13)
(1760 -2.03397e-10 1.35041e-13)
(1760 -2.00142e-10 1.30624e-13)
(1760 -1.95064e-10 1.21583e-13)
(1760 -1.92001e-10 1.19623e-13)
(1760 -1.89232e-10 1.12228e-13)
(1760 -1.91996e-10 1.0861e-13)
(1760 -1.90138e-10 1.20573e-13)
(1760 -1.86478e-10 1.15433e-13)
(1760 -1.83981e-10 1.08379e-13)
(1760 -1.84028e-10 1.10593e-13)
(1760 -1.83381e-10 1.02167e-13)
(1760 -1.83258e-10 8.43695e-14)
(1760 -1.7997e-10 9.40734e-14)
(1760 -1.76145e-10 8.89387e-14)
(1760 -1.72518e-10 8.12487e-14)
(1760 -1.73482e-10 9.06724e-14)
(1760 -1.73308e-10 8.07989e-14)
(1760 -1.72233e-10 7.6415e-14)
(1760 -1.71379e-10 7.61866e-14)
(1760 -1.71906e-10 7.89888e-14)
(1760 -1.72089e-10 7.36395e-14)
(1760 -1.70148e-10 7.57416e-14)
(1760 -1.69107e-10 7.97801e-14)
(1760 -1.6943e-10 7.76609e-14)
(1760 -1.68792e-10 7.03168e-14)
(1760 -1.69597e-10 7.00394e-14)
(1760 -1.71491e-10 7.05886e-14)
(1760 -1.70464e-10 6.74537e-14)
(1760 -1.67307e-10 6.34323e-14)
(1760 -1.67393e-10 5.88075e-14)
(1760 -1.68749e-10 5.54578e-14)
(1760 -1.66747e-10 5.53082e-14)
(1760 -1.67597e-10 5.54929e-14)
(1760 -1.69586e-10 5.5041e-14)
(1760 -1.70572e-10 6.08489e-14)
(1760 -1.71693e-10 6.51001e-14)
(1760 -1.7147e-10 5.7601e-14)
(1760 -1.72021e-10 5.54612e-14)
(1760 -1.71925e-10 5.15463e-14)
(1760 -1.75759e-10 5.17191e-14)
(1760 -1.73211e-10 5.88589e-14)
(1760 -1.70336e-10 6.4131e-14)
(1760 -1.69768e-10 6.19587e-14)
(1760 -1.71594e-10 4.69484e-14)
(1760 -1.71733e-10 4.28452e-14)
(1760 -1.72001e-10 4.66617e-14)
(1760 -1.75676e-10 4.71752e-14)
(1760 -1.7467e-10 4.64623e-14)
(1760 -1.74397e-10 4.14794e-14)
(1760 -1.74549e-10 4.6522e-14)
(1760 -1.7589e-10 4.46425e-14)
(1760 -1.76733e-10 4.15032e-14)
(1760 -1.77676e-10 4.68477e-14)
(1760 -1.78457e-10 4.37274e-14)
(1760 -1.80484e-10 3.97229e-14)
(1760 -1.81306e-10 3.69144e-14)
(1760 -1.79998e-10 3.86776e-14)
(1760 -1.81547e-10 4.06404e-14)
(1760 -1.83908e-10 3.53772e-14)
(1760 -1.83642e-10 3.49983e-14)
(1760 -1.8316e-10 3.58495e-14)
(1760 -1.83518e-10 3.83003e-14)
(1760 -1.85358e-10 3.92706e-14)
(1760 -1.85887e-10 4.62366e-14)
(1760 -1.87204e-10 4.73309e-14)
(1760 -1.8933e-10 4.64216e-14)
(1760 -1.91589e-10 3.93024e-14)
(1760 -1.92331e-10 3.78369e-14)
(1760 -1.94139e-10 3.88435e-14)
(1760 -1.96261e-10 3.80393e-14)
(1760 -1.98042e-10 3.60495e-14)
(1760 -1.98463e-10 3.34902e-14)
(1760 -2.00024e-10 3.48499e-14)
(1760 -2.01826e-10 3.59541e-14)
(1760 -2.04123e-10 3.52308e-14)
(1760 -2.0581e-10 3.63899e-14)
(1760 -2.06726e-10 4.10283e-14)
(1760 -2.08181e-10 3.84208e-14)
(1760 -2.104e-10 3.48527e-14)
(1760 -2.12012e-10 3.71461e-14)
(1760 -2.1381e-10 3.80476e-14)
(1760 -2.1549e-10 3.4805e-14)
(1760 -2.18535e-10 3.48272e-14)
(1760 -2.21063e-10 2.93781e-14)
(1760 -2.2773e-10 2.92577e-14)
(1760 -2.29395e-10 3.64025e-14)
(1760 -2.30599e-10 3.83224e-14)
(1760 -2.31001e-10 3.143e-14)
(1760 -2.30972e-10 2.86154e-14)
(1760 -2.32597e-10 2.77534e-14)
(1760 -2.37295e-10 3.1149e-14)
(1760 -2.4237e-10 3.04798e-14)
(1760 -2.45343e-10 3.36255e-14)
(1760 -2.43308e-10 2.9354e-14)
(1760 -2.41626e-10 3.03004e-14)
(1760 -2.45941e-10 3.34419e-14)
(1760 -2.51628e-10 3.69309e-14)
(1760 -2.565e-10 3.2767e-14)
(1760 -2.59432e-10 3.193e-14)
(1760 -2.61434e-10 3.02691e-14)
(1760 -2.66427e-10 3.08598e-14)
(1760 -2.68707e-10 2.72548e-14)
(1760 -2.72597e-10 3.29435e-14)
(1760 -2.74638e-10 3.29823e-14)
(1760 -1.14838e-07 1.92242e-10)
(1760 -6.65e-08 1.02209e-10)
(1760 -3.66225e-08 5.2453e-11)
(1760 -2.12827e-08 2.93875e-11)
(1760 -1.3527e-08 1.84915e-11)
(1760 -9.34423e-09 1.28159e-11)
(1760 -6.88752e-09 9.5219e-12)
(1760 -5.32378e-09 7.36387e-12)
(1760 -4.25578e-09 5.87764e-12)
(1760 -3.49516e-09 4.81604e-12)
(1760 -2.92749e-09 3.95069e-12)
(1760 -2.48774e-09 3.37513e-12)
(1760 -2.14954e-09 2.89105e-12)
(1760 -1.87933e-09 2.50975e-12)
(1760 -1.66097e-09 2.25662e-12)
(1760 -1.48333e-09 1.94064e-12)
(1760 -1.33244e-09 1.70148e-12)
(1760 -1.20928e-09 1.51059e-12)
(1760 -1.1051e-09 1.34433e-12)
(1760 -1.01899e-09 1.2619e-12)
(1760 -9.46498e-10 1.12293e-12)
(1760 -8.70755e-10 1.03964e-12)
(1760 -8.06008e-10 9.53151e-13)
(1760 -7.56018e-10 8.85256e-13)
(1760 -7.1076e-10 8.06769e-13)
(1760 -6.67167e-10 7.51232e-13)
(1760 -6.26094e-10 6.99111e-13)
(1760 -5.93137e-10 6.4748e-13)
(1760 -5.68685e-10 6.214e-13)
(1760 -5.43698e-10 5.71991e-13)
(1760 -5.18595e-10 5.40579e-13)
(1760 -4.96115e-10 5.08327e-13)
(1760 -4.73744e-10 4.92721e-13)
(1760 -4.57148e-10 4.57965e-13)
(1760 -4.42228e-10 4.28957e-13)
(1760 -4.2709e-10 4.0012e-13)
(1760 -4.10377e-10 3.80783e-13)
(1760 -3.99909e-10 3.47467e-13)
(1760 -3.87875e-10 3.5019e-13)
(1760 -3.75779e-10 3.16565e-13)
(1760 -3.62605e-10 3.08571e-13)
(1760 -3.55499e-10 2.9034e-13)
(1760 -3.48639e-10 2.8461e-13)
(1760 -3.412e-10 2.67448e-13)
(1760 -3.39042e-10 2.70847e-13)
(1760 -3.26323e-10 2.44022e-13)
(1760 -3.16763e-10 2.42222e-13)
(1760 -3.11598e-10 2.35296e-13)
(1760 -3.05748e-10 2.36614e-13)
(1760 -3.01981e-10 2.23405e-13)
(1760 -3.00122e-10 2.07066e-13)
(1760 -2.95405e-10 2.0365e-13)
(1760 -2.89831e-10 1.9464e-13)
(1760 -2.85795e-10 1.86823e-13)
(1760 -2.79855e-10 1.71839e-13)
(1760 -2.75619e-10 1.75545e-13)
(1760 -2.70939e-10 1.66312e-13)
(1760 -2.72577e-10 1.63007e-13)
(1760 -2.70532e-10 1.70682e-13)
(1760 -2.65683e-10 1.64006e-13)
(1760 -2.61749e-10 1.51125e-13)
(1760 -2.59812e-10 1.39416e-13)
(1760 -2.58835e-10 1.33843e-13)
(1760 -2.59064e-10 1.36393e-13)
(1760 -2.57117e-10 1.4452e-13)
(1760 -2.52769e-10 1.337e-13)
(1760 -2.48272e-10 1.26014e-13)
(1760 -2.47602e-10 1.28437e-13)
(1760 -2.45723e-10 1.11628e-13)
(1760 -2.44306e-10 1.08981e-13)
(1760 -2.44214e-10 1.09625e-13)
(1760 -2.45132e-10 1.1492e-13)
(1760 -2.43104e-10 1.1146e-13)
(1760 -2.40968e-10 1.11785e-13)
(1760 -2.40265e-10 1.07767e-13)
(1760 -2.39158e-10 1.04893e-13)
(1760 -2.39015e-10 1.07303e-13)
(1760 -2.38948e-10 1.0764e-13)
(1760 -2.39933e-10 9.99001e-14)
(1760 -2.40086e-10 9.2823e-14)
(1760 -2.36829e-10 8.64369e-14)
(1760 -2.34736e-10 9.39059e-14)
(1760 -2.36747e-10 8.80848e-14)
(1760 -2.36732e-10 8.85109e-14)
(1760 -2.37382e-10 8.63887e-14)
(1760 -2.38838e-10 8.80177e-14)
(1760 -2.38822e-10 8.58299e-14)
(1760 -2.37938e-10 8.14198e-14)
(1760 -2.39384e-10 7.74932e-14)
(1760 -2.40544e-10 8.05871e-14)
(1760 -2.41229e-10 8.0143e-14)
(1760 -2.44029e-10 8.00117e-14)
(1760 -2.42757e-10 8.25968e-14)
(1760 -2.40055e-10 8.65611e-14)
(1760 -2.39004e-10 7.48135e-14)
(1760 -2.39613e-10 7.30754e-14)
(1760 -2.40111e-10 7.47481e-14)
(1760 -2.399e-10 6.82335e-14)
(1760 -2.42683e-10 6.67938e-14)
(1760 -2.43309e-10 6.3566e-14)
(1760 -2.42133e-10 5.92827e-14)
(1760 -2.43223e-10 5.9996e-14)
(1760 -2.46546e-10 6.12784e-14)
(1760 -2.47578e-10 6.5655e-14)
(1760 -2.48708e-10 6.42823e-14)
(1760 -2.49455e-10 6.30197e-14)
(1760 -2.52901e-10 6.03221e-14)
(1760 -2.54198e-10 5.94991e-14)
(1760 -2.53511e-10 5.59892e-14)
(1760 -2.53179e-10 5.04701e-14)
(1760 -2.54519e-10 5.22321e-14)
(1760 -2.56906e-10 5.22256e-14)
(1760 -2.5739e-10 5.74696e-14)
(1760 -2.57644e-10 5.8076e-14)
(1760 -2.58316e-10 6.14381e-14)
(1760 -2.60803e-10 5.9446e-14)
(1760 -2.62256e-10 5.82657e-14)
(1760 -2.63844e-10 5.43004e-14)
(1760 -2.66535e-10 5.0936e-14)
(1760 -2.67325e-10 5.33707e-14)
(1760 -2.67961e-10 5.37288e-14)
(1760 -2.69732e-10 5.05143e-14)
(1760 -2.72281e-10 4.72017e-14)
(1760 -2.74617e-10 5.02507e-14)
(1760 -2.76039e-10 5.22042e-14)
(1760 -2.77045e-10 5.13272e-14)
(1760 -2.79612e-10 5.53936e-14)
(1760 -2.82419e-10 5.63124e-14)
(1760 -2.85206e-10 5.08679e-14)
(1760 -2.87767e-10 4.92014e-14)
(1760 -2.89895e-10 4.99121e-14)
(1760 -2.9183e-10 5.05472e-14)
(1760 -2.94517e-10 4.84085e-14)
(1760 -2.979e-10 4.81108e-14)
(1760 -3.00379e-10 4.89136e-14)
(1760 -3.03611e-10 4.938e-14)
(1760 -3.08451e-10 5.48957e-14)
(1760 -3.12796e-10 5.12809e-14)
(1760 -3.16632e-10 4.92067e-14)
(1760 -3.18291e-10 4.41204e-14)
(1760 -3.20531e-10 4.62425e-14)
(1760 -3.22413e-10 4.63636e-14)
(1760 -3.25332e-10 4.3718e-14)
(1760 -3.30774e-10 4.49954e-14)
(1760 -3.36873e-10 4.67904e-14)
(1760 -3.4024e-10 4.90009e-14)
(1760 -3.40915e-10 4.81949e-14)
(1760 -3.4007e-10 4.87186e-14)
(1760 -3.4499e-10 4.44735e-14)
(1760 -3.50289e-10 4.36997e-14)
(1760 -3.54772e-10 4.39165e-14)
(1760 -3.59237e-10 4.69846e-14)
(1760 -3.65004e-10 4.80922e-14)
(1760 -3.69376e-10 4.13788e-14)
(1760 -3.74454e-10 4.29411e-14)
(1760 -3.76589e-10 4.26845e-14)
(1760 -1.31029e-07 2.18795e-10)
(1760 -8.36421e-08 1.27309e-10)
(1760 -4.94892e-08 6.91061e-11)
(1760 -2.97627e-08 3.92798e-11)
(1760 -1.9055e-08 2.46989e-11)
(1760 -1.30927e-08 1.69713e-11)
(1760 -9.56629e-09 1.2441e-11)
(1760 -7.33966e-09 9.6139e-12)
(1760 -5.84016e-09 7.67778e-12)
(1760 -4.7779e-09 6.29595e-12)
(1760 -3.99593e-09 5.20001e-12)
(1760 -3.39462e-09 4.38117e-12)
(1760 -2.92396e-09 3.72535e-12)
(1760 -2.55144e-09 3.2477e-12)
(1760 -2.2525e-09 2.86458e-12)
(1760 -2.00867e-09 2.51547e-12)
(1760 -1.80345e-09 2.21001e-12)
(1760 -1.63579e-09 1.99073e-12)
(1760 -1.49322e-09 1.80281e-12)
(1760 -1.37231e-09 1.62557e-12)
(1760 -1.27241e-09 1.48414e-12)
(1760 -1.17779e-09 1.36188e-12)
(1760 -1.09001e-09 1.23129e-12)
(1760 -1.016e-09 1.14592e-12)
(1760 -9.54345e-10 1.04431e-12)
(1760 -8.95726e-10 1.00228e-12)
(1760 -8.41501e-10 9.16834e-13)
(1760 -7.95923e-10 8.71298e-13)
(1760 -7.58949e-10 8.25862e-13)
(1760 -7.26999e-10 7.59429e-13)
(1760 -6.94359e-10 7.01574e-13)
(1760 -6.62285e-10 6.69121e-13)
(1760 -6.33901e-10 6.12793e-13)
(1760 -6.0929e-10 5.73435e-13)
(1760 -5.88448e-10 5.52501e-13)
(1760 -5.66503e-10 5.26277e-13)
(1760 -5.4601e-10 4.92991e-13)
(1760 -5.31219e-10 4.70322e-13)
(1760 -5.14344e-10 4.35516e-13)
(1760 -4.98622e-10 4.1316e-13)
(1760 -4.82808e-10 4.11376e-13)
(1760 -4.6962e-10 3.9524e-13)
(1760 -4.60799e-10 3.76099e-13)
(1760 -4.51329e-10 3.65714e-13)
(1760 -4.44406e-10 3.4991e-13)
(1760 -4.31377e-10 3.36916e-13)
(1760 -4.20085e-10 3.15421e-13)
(1760 -4.12187e-10 3.03166e-13)
(1760 -4.02592e-10 2.88232e-13)
(1760 -3.98747e-10 2.69227e-13)
(1760 -3.94542e-10 2.74076e-13)
(1760 -3.87883e-10 2.62234e-13)
(1760 -3.81934e-10 2.55026e-13)
(1760 -3.74613e-10 2.45781e-13)
(1760 -3.67012e-10 2.42578e-13)
(1760 -3.6222e-10 2.33031e-13)
(1760 -3.58629e-10 2.12991e-13)
(1760 -3.56559e-10 2.09994e-13)
(1760 -3.53872e-10 2.12348e-13)
(1760 -3.47761e-10 1.93276e-13)
(1760 -3.42897e-10 1.858e-13)
(1760 -3.39384e-10 1.80074e-13)
(1760 -3.3565e-10 1.84537e-13)
(1760 -3.36597e-10 1.90399e-13)
(1760 -3.35499e-10 1.74782e-13)
(1760 -3.30496e-10 1.76617e-13)
(1760 -3.24869e-10 1.71035e-13)
(1760 -3.22801e-10 1.56127e-13)
(1760 -3.19796e-10 1.63201e-13)
(1760 -3.18012e-10 1.59445e-13)
(1760 -3.17951e-10 1.50325e-13)
(1760 -3.16163e-10 1.49136e-13)
(1760 -3.17033e-10 1.42985e-13)
(1760 -3.13164e-10 1.39502e-13)
(1760 -3.11775e-10 1.42002e-13)
(1760 -3.09865e-10 1.39855e-13)
(1760 -3.1099e-10 1.37847e-13)
(1760 -3.09622e-10 1.29286e-13)
(1760 -3.10662e-10 1.20688e-13)
(1760 -3.11863e-10 1.22878e-13)
(1760 -3.0808e-10 1.29901e-13)
(1760 -3.05044e-10 1.19331e-13)
(1760 -3.04688e-10 1.13828e-13)
(1760 -3.05968e-10 1.13566e-13)
(1760 -3.0681e-10 1.13527e-13)
(1760 -3.0701e-10 1.06628e-13)
(1760 -3.08712e-10 1.03829e-13)
(1760 -3.07673e-10 1.09819e-13)
(1760 -3.08382e-10 1.13339e-13)
(1760 -3.08536e-10 1.10756e-13)
(1760 -3.1094e-10 1.03807e-13)
(1760 -3.12444e-10 1.01923e-13)
(1760 -3.13745e-10 1.0043e-13)
(1760 -3.12215e-10 9.65105e-14)
(1760 -3.09884e-10 9.52372e-14)
(1760 -3.09507e-10 9.63942e-14)
(1760 -3.10264e-10 8.96781e-14)
(1760 -3.11548e-10 8.95881e-14)
(1760 -3.12918e-10 9.15102e-14)
(1760 -3.1625e-10 8.43273e-14)
(1760 -3.14221e-10 7.97966e-14)
(1760 -3.11958e-10 8.25311e-14)
(1760 -3.14682e-10 8.63648e-14)
(1760 -3.18797e-10 7.87405e-14)
(1760 -3.19786e-10 7.90066e-14)
(1760 -3.21085e-10 8.19851e-14)
(1760 -3.23706e-10 7.98218e-14)
(1760 -3.25141e-10 7.90794e-14)
(1760 -3.27112e-10 7.59081e-14)
(1760 -3.27394e-10 7.7707e-14)
(1760 -3.28446e-10 7.7911e-14)
(1760 -3.2799e-10 7.63531e-14)
(1760 -3.28308e-10 7.70657e-14)
(1760 -3.30378e-10 6.56979e-14)
(1760 -3.31023e-10 6.67072e-14)
(1760 -3.3276e-10 7.11632e-14)
(1760 -3.35484e-10 7.42145e-14)
(1760 -3.3994e-10 7.12036e-14)
(1760 -3.43233e-10 7.42624e-14)
(1760 -3.4471e-10 7.37028e-14)
(1760 -3.45969e-10 6.63176e-14)
(1760 -3.47891e-10 6.37414e-14)
(1760 -3.49104e-10 6.94995e-14)
(1760 -3.5123e-10 6.86356e-14)
(1760 -3.54392e-10 6.44691e-14)
(1760 -3.55832e-10 7.04128e-14)
(1760 -3.57715e-10 6.99827e-14)
(1760 -3.60435e-10 6.29415e-14)
(1760 -3.63857e-10 6.13852e-14)
(1760 -3.66521e-10 6.1256e-14)
(1760 -3.69628e-10 6.24978e-14)
(1760 -3.72557e-10 6.58108e-14)
(1760 -3.74941e-10 6.45388e-14)
(1760 -3.78164e-10 6.64087e-14)
(1760 -3.8083e-10 6.64633e-14)
(1760 -3.85872e-10 6.60774e-14)
(1760 -3.87749e-10 6.56804e-14)
(1760 -3.9144e-10 5.96279e-14)
(1760 -3.9772e-10 6.05782e-14)
(1760 -4.00827e-10 5.64487e-14)
(1760 -4.03117e-10 6.15934e-14)
(1760 -4.08955e-10 5.88253e-14)
(1760 -4.13758e-10 5.9679e-14)
(1760 -4.18362e-10 6.14733e-14)
(1760 -4.24551e-10 5.95981e-14)
(1760 -4.29398e-10 5.95636e-14)
(1760 -4.33381e-10 5.72298e-14)
(1760 -4.35519e-10 5.35794e-14)
(1760 -4.37666e-10 5.46758e-14)
(1760 -4.43752e-10 5.69296e-14)
(1760 -4.48724e-10 5.45694e-14)
(1760 -4.54165e-10 6.14844e-14)
(1760 -4.60642e-10 5.44752e-14)
(1760 -4.66518e-10 5.48756e-14)
(1760 -4.76455e-10 6.00837e-14)
(1760 -4.79782e-10 5.89955e-14)
(1760 -1.43499e-07 2.39765e-10)
(1760 -9.8699e-08 1.49222e-10)
(1760 -6.2214e-08 8.51344e-11)
(1760 -3.88456e-08 4.96734e-11)
(1760 -2.52313e-08 3.1263e-11)
(1760 -1.73428e-08 2.13199e-11)
(1760 -1.26033e-08 1.56437e-11)
(1760 -9.60712e-09 1.19406e-11)
(1760 -7.60282e-09 9.45731e-12)
(1760 -6.19678e-09 7.69956e-12)
(1760 -5.16858e-09 6.4095e-12)
(1760 -4.38607e-09 5.40135e-12)
(1760 -3.77427e-09 4.62516e-12)
(1760 -3.28734e-09 4.0317e-12)
(1760 -2.89645e-09 3.48259e-12)
(1760 -2.57838e-09 3.06353e-12)
(1760 -2.31228e-09 2.74579e-12)
(1760 -2.0964e-09 2.43415e-12)
(1760 -1.91347e-09 2.21184e-12)
(1760 -1.7551e-09 1.98132e-12)
(1760 -1.62174e-09 1.81611e-12)
(1760 -1.50399e-09 1.66182e-12)
(1760 -1.39334e-09 1.51673e-12)
(1760 -1.29594e-09 1.37067e-12)
(1760 -1.21488e-09 1.29665e-12)
(1760 -1.14148e-09 1.22061e-12)
(1760 -1.07374e-09 1.13138e-12)
(1760 -1.01366e-09 1.06374e-12)
(1760 -9.62075e-10 9.75237e-13)
(1760 -9.21281e-10 8.97169e-13)
(1760 -8.81548e-10 8.61353e-13)
(1760 -8.42166e-10 8.0537e-13)
(1760 -8.04307e-10 7.55434e-13)
(1760 -7.71465e-10 7.22962e-13)
(1760 -7.43329e-10 6.78445e-13)
(1760 -7.16134e-10 6.19499e-13)
(1760 -6.89693e-10 6.19463e-13)
(1760 -6.67236e-10 5.80209e-13)
(1760 -6.48767e-10 5.52857e-13)
(1760 -6.28558e-10 5.31685e-13)
(1760 -6.09193e-10 4.90932e-13)
(1760 -5.91586e-10 4.72296e-13)
(1760 -5.78587e-10 4.57077e-13)
(1760 -5.65905e-10 4.43654e-13)
(1760 -5.53825e-10 4.25091e-13)
(1760 -5.40535e-10 4.17572e-13)
(1760 -5.2648e-10 3.83519e-13)
(1760 -5.16463e-10 3.71813e-13)
(1760 -5.05404e-10 3.60508e-13)
(1760 -4.98642e-10 3.38856e-13)
(1760 -4.92014e-10 3.28845e-13)
(1760 -4.85272e-10 3.18322e-13)
(1760 -4.77224e-10 3.065e-13)
(1760 -4.67446e-10 3.00861e-13)
(1760 -4.58141e-10 2.84964e-13)
(1760 -4.50493e-10 2.72363e-13)
(1760 -4.47033e-10 2.66497e-13)
(1760 -4.44646e-10 2.65984e-13)
(1760 -4.40461e-10 2.50349e-13)
(1760 -4.32381e-10 2.40449e-13)
(1760 -4.26636e-10 2.38823e-13)
(1760 -4.21074e-10 2.29857e-13)
(1760 -4.16386e-10 2.26307e-13)
(1760 -4.16602e-10 2.17124e-13)
(1760 -4.15158e-10 2.15903e-13)
(1760 -4.09526e-10 2.15813e-13)
(1760 -4.03012e-10 2.0201e-13)
(1760 -3.99622e-10 1.91038e-13)
(1760 -3.98677e-10 1.99031e-13)
(1760 -3.94701e-10 1.89329e-13)
(1760 -3.92563e-10 1.80702e-13)
(1760 -3.91642e-10 1.77778e-13)
(1760 -3.91143e-10 1.7722e-13)
(1760 -3.87302e-10 1.67169e-13)
(1760 -3.85077e-10 1.71904e-13)
(1760 -3.8169e-10 1.65738e-13)
(1760 -3.83325e-10 1.59912e-13)
(1760 -3.81224e-10 1.56422e-13)
(1760 -3.79798e-10 1.68802e-13)
(1760 -3.8287e-10 1.5932e-13)
(1760 -3.80841e-10 1.54521e-13)
(1760 -3.77655e-10 1.43974e-13)
(1760 -3.75548e-10 1.43755e-13)
(1760 -3.75757e-10 1.34192e-13)
(1760 -3.77378e-10 1.38621e-13)
(1760 -3.76844e-10 1.29959e-13)
(1760 -3.78358e-10 1.35684e-13)
(1760 -3.78866e-10 1.30768e-13)
(1760 -3.79634e-10 1.29584e-13)
(1760 -3.78685e-10 1.2288e-13)
(1760 -3.80469e-10 1.2148e-13)
(1760 -3.82055e-10 1.24894e-13)
(1760 -3.83098e-10 1.18839e-13)
(1760 -3.82965e-10 1.1494e-13)
(1760 -3.81069e-10 1.16906e-13)
(1760 -3.79155e-10 1.16189e-13)
(1760 -3.7915e-10 1.08293e-13)
(1760 -3.80896e-10 1.10974e-13)
(1760 -3.81339e-10 1.1069e-13)
(1760 -3.8327e-10 1.09191e-13)
(1760 -3.85851e-10 1.0646e-13)
(1760 -3.84856e-10 1.0735e-13)
(1760 -3.84819e-10 9.89433e-14)
(1760 -3.87772e-10 9.67634e-14)
(1760 -3.89688e-10 1.0157e-13)
(1760 -3.91048e-10 1.00557e-13)
(1760 -3.9247e-10 9.88622e-14)
(1760 -3.94668e-10 9.68461e-14)
(1760 -3.97132e-10 9.90141e-14)
(1760 -4.01253e-10 1.00141e-13)
(1760 -4.02372e-10 9.33984e-14)
(1760 -4.0358e-10 9.14171e-14)
(1760 -4.02845e-10 8.81876e-14)
(1760 -4.05114e-10 8.79652e-14)
(1760 -4.05985e-10 9.16058e-14)
(1760 -4.06162e-10 9.17955e-14)
(1760 -4.07496e-10 9.40329e-14)
(1760 -4.10879e-10 9.42128e-14)
(1760 -4.15971e-10 9.2651e-14)
(1760 -4.19184e-10 8.85377e-14)
(1760 -4.20891e-10 8.08362e-14)
(1760 -4.23492e-10 8.64518e-14)
(1760 -4.26206e-10 9.04161e-14)
(1760 -4.27502e-10 8.30258e-14)
(1760 -4.2982e-10 7.99496e-14)
(1760 -4.32297e-10 8.03272e-14)
(1760 -4.34482e-10 8.06866e-14)
(1760 -4.37094e-10 8.10862e-14)
(1760 -4.41373e-10 8.25304e-14)
(1760 -4.46164e-10 8.02823e-14)
(1760 -4.48877e-10 8.19074e-14)
(1760 -4.51689e-10 8.19582e-14)
(1760 -4.54266e-10 8.08943e-14)
(1760 -4.57869e-10 8.15042e-14)
(1760 -4.62526e-10 7.9998e-14)
(1760 -4.67306e-10 7.9785e-14)
(1760 -4.706e-10 7.86158e-14)