/*--------------------------------*- C++ -*----------------------------------*\
| =========                 |                                                 |
| \\      /  F ield         | OpenFOAM: The Open Source CFD Toolbox           |
|  \\    /   O peration     | Version:  v1706                                 |
|   \\  /    A nd           | Web:      www.OpenFOAM.com                      |
|    \\/     M anipulation  |                                                 |
\*---------------------------------------------------------------------------*/
FoamFile
{
    version     2.0;
    format      ascii;
    class       volScalarField;
    location    "4e-05";
    object      wallHeatFlux;
}
// * * * * * * * * * * * * * * * * * * * * * * * * * * * * * * * * * * * * * //

dimensions      [1 0 -3 0 0 0 0];


internalField   uniform 0;

boundaryField
{
    cone
    {
        type            calculated;
        value           nonuniform List<scalar> 
147
(
244809
244758
244684
244620
244533
244440
244328
244204
244062
243906
243735
243548
243346
243129
242897
242650
242387
242109
241815
241507
241182
240843
240487
240117
239731
239330
238913
238481
238034
237572
237095
236604
236097
235575
235039
234489
233924
233344
232751
232143
231522
230887
230238
229576
228900
228211
227509
226794
226066
225326
224573
223807
223029
222239
221436
220622
219797
218961
218114
217257
216389
215510
214620
213720
212810
211889
210958
210017
209067
208106
207136
206157
205169
204171
203165
202150
201126
200094
199053
198005
196949
195885
194813
193734
192648
191555
190455
189348
188235
187116
185990
184859
183722
182579
181431
180277
179119
177956
176788
175615
174439
173258
172074
170886
169694
168499
167301
166100
164896
163690
162481
161271
160058
158844
157628
156410
155192
153972
152752
151531
150310
149088
147866
146644
145423
144202
142981
141762
140543
139325
138109
136894
135681
134470
133260
132053
130848
129645
128445
127248
126055
124866
123684
122506
121331
120157
245076
)
;
    }
    inlet
    {
        type            calculated;
        value           uniform 0;
    }
    rWedge
    {
        type            wedge;
    }
    lWedge
    {
        type            wedge;
    }
    outlet
    {
        type            calculated;
        value           nonuniform 0();
    }
    procBoundary3to2
    {
        type            processor;
        value           uniform 0;
    }
}


// ************************************************************************* //
