/*--------------------------------*- C++ -*----------------------------------*\
| =========                 |                                                 |
| \\      /  F ield         | OpenFOAM: The Open Source CFD Toolbox           |
|  \\    /   O peration     | Version:  v1706                                 |
|   \\  /    A nd           | Web:      www.OpenFOAM.com                      |
|    \\/     M anipulation  |                                                 |
\*---------------------------------------------------------------------------*/
FoamFile
{
    version     2.0;
    format      ascii;
    class       volScalarField;
    location    "2e-05";
    object      alpha;
}
// * * * * * * * * * * * * * * * * * * * * * * * * * * * * * * * * * * * * * //

dimensions      [1 -1 -1 0 0 0 0];


internalField   nonuniform List<scalar> 
29871
(
1.40478e-05
1.40478e-05
1.40478e-05
1.40478e-05
1.40478e-05
1.40478e-05
1.40478e-05
1.40478e-05
1.40478e-05
1.40478e-05
1.40478e-05
1.40478e-05
1.40478e-05
1.40478e-05
1.40478e-05
1.40478e-05
1.40478e-05
1.40478e-05
1.40478e-05
1.40479e-05
1.40479e-05
1.40479e-05
1.40479e-05
1.40479e-05
1.40479e-05
1.40479e-05
1.40479e-05
1.40479e-05
1.40479e-05
1.40479e-05
1.40479e-05
1.40479e-05
1.40479e-05
1.40479e-05
1.40479e-05
1.40479e-05
1.40479e-05
1.40479e-05
1.40479e-05
1.40479e-05
1.4048e-05
1.4048e-05
1.4048e-05
1.4048e-05
1.4048e-05
1.4048e-05
1.4048e-05
1.4048e-05
1.4048e-05
1.4048e-05
1.4048e-05
1.4048e-05
1.4048e-05
1.4048e-05
1.4048e-05
1.4048e-05
1.4048e-05
1.4048e-05
1.4048e-05
1.4048e-05
1.40479e-05
1.40479e-05
1.40479e-05
1.40479e-05
1.40479e-05
1.40479e-05
1.40479e-05
1.40479e-05
1.40479e-05
1.40479e-05
1.40479e-05
1.40479e-05
1.40479e-05
1.40479e-05
1.40479e-05
1.40479e-05
1.40479e-05
1.40479e-05
1.40479e-05
1.40479e-05
1.40479e-05
1.40479e-05
1.40479e-05
1.40479e-05
1.40479e-05
1.40479e-05
1.40478e-05
1.40478e-05
1.40478e-05
1.40478e-05
1.40478e-05
1.40478e-05
1.40478e-05
1.40478e-05
1.40478e-05
1.40478e-05
1.40478e-05
1.40478e-05
1.40478e-05
1.40478e-05
1.40478e-05
1.40478e-05
1.40478e-05
1.40478e-05
1.40478e-05
1.40479e-05
1.40479e-05
1.40479e-05
1.40479e-05
1.40479e-05
1.40479e-05
1.40479e-05
1.40479e-05
1.40479e-05
1.40479e-05
1.4048e-05
1.4048e-05
1.4048e-05
1.4048e-05
1.4048e-05
1.40481e-05
1.40481e-05
1.40481e-05
1.40481e-05
1.40482e-05
1.40482e-05
1.40482e-05
1.40482e-05
1.40483e-05
1.40483e-05
1.40483e-05
1.40484e-05
1.40484e-05
1.40484e-05
1.40485e-05
1.40485e-05
1.40485e-05
1.40486e-05
1.40486e-05
1.40486e-05
1.40486e-05
1.40487e-05
1.40487e-05
1.40487e-05
1.40488e-05
1.40488e-05
1.40488e-05
1.40488e-05
1.40488e-05
1.40489e-05
1.40489e-05
1.40489e-05
1.40489e-05
1.40489e-05
1.40489e-05
1.40489e-05
1.40489e-05
1.40489e-05
1.40489e-05
1.40489e-05
1.40489e-05
1.40489e-05
1.40488e-05
1.40488e-05
1.40488e-05
1.40488e-05
1.40488e-05
1.40487e-05
1.40487e-05
1.40487e-05
1.40487e-05
1.40486e-05
1.40486e-05
1.40486e-05
1.40486e-05
1.40485e-05
1.40485e-05
1.40485e-05
1.40484e-05
1.40484e-05
1.40484e-05
1.40484e-05
1.40483e-05
1.40483e-05
1.40483e-05
1.40483e-05
1.40483e-05
1.40482e-05
1.40482e-05
1.40482e-05
1.40482e-05
1.40482e-05
1.40482e-05
1.40482e-05
1.40481e-05
1.40481e-05
1.40481e-05
1.40481e-05
1.40481e-05
1.40481e-05
1.40481e-05
1.40481e-05
1.40481e-05
1.40481e-05
1.40481e-05
1.40481e-05
1.40481e-05
1.40481e-05
1.40481e-05
1.40481e-05
1.4048e-05
1.4048e-05
1.4048e-05
1.4048e-05
1.40481e-05
1.40481e-05
1.40481e-05
1.40482e-05
1.40482e-05
1.40483e-05
1.40483e-05
1.40484e-05
1.40484e-05
1.40485e-05
1.40485e-05
1.40486e-05
1.40487e-05
1.40487e-05
1.40488e-05
1.40489e-05
1.4049e-05
1.40491e-05
1.40491e-05
1.40492e-05
1.40493e-05
1.40494e-05
1.40495e-05
1.40496e-05
1.40497e-05
1.40498e-05
1.40499e-05
1.405e-05
1.40501e-05
1.40502e-05
1.40503e-05
1.40504e-05
1.40505e-05
1.40506e-05
1.40507e-05
1.40508e-05
1.40509e-05
1.4051e-05
1.4051e-05
1.40511e-05
1.40511e-05
1.40512e-05
1.40512e-05
1.40513e-05
1.40513e-05
1.40513e-05
1.40513e-05
1.40513e-05
1.40513e-05
1.40513e-05
1.40513e-05
1.40513e-05
1.40513e-05
1.40512e-05
1.40512e-05
1.40511e-05
1.40511e-05
1.4051e-05
1.40509e-05
1.40509e-05
1.40508e-05
1.40507e-05
1.40506e-05
1.40505e-05
1.40504e-05
1.40504e-05
1.40503e-05
1.40502e-05
1.40501e-05
1.405e-05
1.40499e-05
1.40498e-05
1.40497e-05
1.40497e-05
1.40496e-05
1.40495e-05
1.40494e-05
1.40494e-05
1.40493e-05
1.40493e-05
1.40492e-05
1.40491e-05
1.40491e-05
1.40491e-05
1.4049e-05
1.4049e-05
1.4049e-05
1.40489e-05
1.40489e-05
1.40489e-05
1.40489e-05
1.40489e-05
1.40489e-05
1.40489e-05
1.40489e-05
1.40489e-05
1.40489e-05
1.40489e-05
1.40489e-05
1.40489e-05
1.40489e-05
1.40489e-05
1.40483e-05
1.40483e-05
1.40484e-05
1.40485e-05
1.40486e-05
1.40487e-05
1.40488e-05
1.40489e-05
1.4049e-05
1.40491e-05
1.40492e-05
1.40494e-05
1.40495e-05
1.40497e-05
1.40498e-05
1.405e-05
1.40502e-05
1.40504e-05
1.40506e-05
1.40508e-05
1.40511e-05
1.40513e-05
1.40516e-05
1.40518e-05
1.40521e-05
1.40523e-05
1.40526e-05
1.40529e-05
1.40532e-05
1.40534e-05
1.40537e-05
1.4054e-05
1.40543e-05
1.40546e-05
1.40548e-05
1.40551e-05
1.40554e-05
1.40556e-05
1.40559e-05
1.40561e-05
1.40563e-05
1.40565e-05
1.40567e-05
1.40569e-05
1.4057e-05
1.40572e-05
1.40573e-05
1.40574e-05
1.40575e-05
1.40575e-05
1.40576e-05
1.40576e-05
1.40576e-05
1.40575e-05
1.40575e-05
1.40574e-05
1.40573e-05
1.40572e-05
1.40571e-05
1.40569e-05
1.40568e-05
1.40566e-05
1.40564e-05
1.40562e-05
1.4056e-05
1.40558e-05
1.40556e-05
1.40553e-05
1.40551e-05
1.40549e-05
1.40546e-05
1.40544e-05
1.40541e-05
1.40539e-05
1.40537e-05
1.40534e-05
1.40532e-05
1.4053e-05
1.40528e-05
1.40526e-05
1.40524e-05
1.40522e-05
1.4052e-05
1.40519e-05
1.40517e-05
1.40516e-05
1.40515e-05
1.40514e-05
1.40513e-05
1.40512e-05
1.40511e-05
1.40511e-05
1.4051e-05
1.4051e-05
1.40509e-05
1.40509e-05
1.40509e-05
1.40509e-05
1.40509e-05
1.40509e-05
1.40509e-05
1.40509e-05
1.40509e-05
1.4051e-05
1.4051e-05
1.40511e-05
1.4049e-05
1.40491e-05
1.40493e-05
1.40495e-05
1.40497e-05
1.40499e-05
1.40501e-05
1.40504e-05
1.40506e-05
1.40509e-05
1.40513e-05
1.40516e-05
1.4052e-05
1.40524e-05
1.40528e-05
1.40532e-05
1.40537e-05
1.40542e-05
1.40547e-05
1.40553e-05
1.40558e-05
1.40564e-05
1.40571e-05
1.40577e-05
1.40583e-05
1.4059e-05
1.40597e-05
1.40604e-05
1.40611e-05
1.40618e-05
1.40626e-05
1.40633e-05
1.4064e-05
1.40647e-05
1.40654e-05
1.40661e-05
1.40668e-05
1.40675e-05
1.40681e-05
1.40687e-05
1.40693e-05
1.40698e-05
1.40703e-05
1.40708e-05
1.40712e-05
1.40716e-05
1.4072e-05
1.40722e-05
1.40725e-05
1.40726e-05
1.40728e-05
1.40728e-05
1.40729e-05
1.40728e-05
1.40727e-05
1.40726e-05
1.40724e-05
1.40722e-05
1.40719e-05
1.40715e-05
1.40712e-05
1.40708e-05
1.40703e-05
1.40698e-05
1.40693e-05
1.40688e-05
1.40682e-05
1.40677e-05
1.40671e-05
1.40665e-05
1.40659e-05
1.40653e-05
1.40647e-05
1.40641e-05
1.40635e-05
1.40629e-05
1.40623e-05
1.40617e-05
1.40612e-05
1.40607e-05
1.40602e-05
1.40597e-05
1.40593e-05
1.40588e-05
1.40585e-05
1.40581e-05
1.40578e-05
1.40575e-05
1.40572e-05
1.4057e-05
1.40568e-05
1.40566e-05
1.40564e-05
1.40563e-05
1.40562e-05
1.40562e-05
1.40561e-05
1.40561e-05
1.40561e-05
1.40561e-05
1.40562e-05
1.40562e-05
1.40563e-05
1.40564e-05
1.40565e-05
1.40566e-05
1.40567e-05
1.40509e-05
1.40513e-05
1.40517e-05
1.40522e-05
1.40527e-05
1.40532e-05
1.40538e-05
1.40545e-05
1.40552e-05
1.40559e-05
1.40568e-05
1.40577e-05
1.40586e-05
1.40596e-05
1.40607e-05
1.40618e-05
1.4063e-05
1.40643e-05
1.40656e-05
1.4067e-05
1.40684e-05
1.40699e-05
1.40714e-05
1.4073e-05
1.40746e-05
1.40763e-05
1.4078e-05
1.40798e-05
1.40815e-05
1.40833e-05
1.40851e-05
1.40869e-05
1.40886e-05
1.40904e-05
1.40921e-05
1.40938e-05
1.40955e-05
1.40971e-05
1.40986e-05
1.41e-05
1.41014e-05
1.41027e-05
1.41039e-05
1.4105e-05
1.4106e-05
1.41068e-05
1.41076e-05
1.41082e-05
1.41087e-05
1.41091e-05
1.41094e-05
1.41095e-05
1.41095e-05
1.41093e-05
1.41091e-05
1.41087e-05
1.41082e-05
1.41076e-05
1.41068e-05
1.4106e-05
1.41051e-05
1.4104e-05
1.41029e-05
1.41017e-05
1.41005e-05
1.40992e-05
1.40978e-05
1.40964e-05
1.4095e-05
1.40935e-05
1.4092e-05
1.40906e-05
1.40891e-05
1.40876e-05
1.40862e-05
1.40848e-05
1.40834e-05
1.40821e-05
1.40808e-05
1.40795e-05
1.40784e-05
1.40773e-05
1.40762e-05
1.40752e-05
1.40743e-05
1.40735e-05
1.40727e-05
1.4072e-05
1.40714e-05
1.40709e-05
1.40704e-05
1.40701e-05
1.40698e-05
1.40695e-05
1.40693e-05
1.40692e-05
1.40692e-05
1.40692e-05
1.40693e-05
1.40694e-05
1.40696e-05
1.40698e-05
1.407e-05
1.40703e-05
1.40706e-05
1.40709e-05
1.40713e-05
1.40534e-05
1.40541e-05
1.40549e-05
1.40557e-05
1.40567e-05
1.40578e-05
1.40589e-05
1.40602e-05
1.40616e-05
1.40631e-05
1.40648e-05
1.40666e-05
1.40685e-05
1.40705e-05
1.40727e-05
1.40751e-05
1.40776e-05
1.40802e-05
1.4083e-05
1.4086e-05
1.40891e-05
1.40923e-05
1.40957e-05
1.40993e-05
1.41029e-05
1.41067e-05
1.41105e-05
1.41145e-05
1.41185e-05
1.41226e-05
1.41268e-05
1.4131e-05
1.41352e-05
1.41395e-05
1.41437e-05
1.41479e-05
1.4152e-05
1.4156e-05
1.416e-05
1.41638e-05
1.41674e-05
1.41709e-05
1.41742e-05
1.41774e-05
1.41803e-05
1.41829e-05
1.41854e-05
1.41875e-05
1.41894e-05
1.4191e-05
1.41924e-05
1.41934e-05
1.41941e-05
1.41945e-05
1.41946e-05
1.41945e-05
1.4194e-05
1.41933e-05
1.41922e-05
1.41909e-05
1.41893e-05
1.41875e-05
1.41854e-05
1.41831e-05
1.41807e-05
1.4178e-05
1.41751e-05
1.41722e-05
1.4169e-05
1.41658e-05
1.41625e-05
1.41592e-05
1.41558e-05
1.41523e-05
1.41489e-05
1.41455e-05
1.41421e-05
1.41388e-05
1.41355e-05
1.41323e-05
1.41293e-05
1.41263e-05
1.41235e-05
1.41208e-05
1.41182e-05
1.41159e-05
1.41137e-05
1.41116e-05
1.41098e-05
1.41081e-05
1.41066e-05
1.41053e-05
1.41042e-05
1.41033e-05
1.41025e-05
1.41019e-05
1.41015e-05
1.41013e-05
1.41012e-05
1.41013e-05
1.41014e-05
1.41017e-05
1.41021e-05
1.41027e-05
1.41033e-05
1.41041e-05
1.41049e-05
1.41059e-05
1.41069e-05
1.41079e-05
1.4062e-05
1.40638e-05
1.40657e-05
1.40678e-05
1.40702e-05
1.40728e-05
1.40757e-05
1.40789e-05
1.40823e-05
1.40861e-05
1.40901e-05
1.40945e-05
1.40992e-05
1.41042e-05
1.41096e-05
1.41154e-05
1.41214e-05
1.41279e-05
1.41347e-05
1.41418e-05
1.41492e-05
1.4157e-05
1.41651e-05
1.41734e-05
1.4182e-05
1.41909e-05
1.41999e-05
1.42091e-05
1.42185e-05
1.42281e-05
1.42377e-05
1.42474e-05
1.42571e-05
1.42668e-05
1.42764e-05
1.42859e-05
1.42952e-05
1.43043e-05
1.43131e-05
1.43215e-05
1.43296e-05
1.43373e-05
1.43445e-05
1.43512e-05
1.43573e-05
1.4363e-05
1.4368e-05
1.43724e-05
1.43763e-05
1.43794e-05
1.4382e-05
1.43838e-05
1.4385e-05
1.43854e-05
1.43852e-05
1.43844e-05
1.4383e-05
1.4381e-05
1.43783e-05
1.4375e-05
1.43711e-05
1.43667e-05
1.43618e-05
1.43565e-05
1.43507e-05
1.43445e-05
1.43379e-05
1.43311e-05
1.4324e-05
1.43167e-05
1.43093e-05
1.43017e-05
1.4294e-05
1.42864e-05
1.42787e-05
1.42711e-05
1.42636e-05
1.42562e-05
1.4249e-05
1.42419e-05
1.42352e-05
1.42287e-05
1.42225e-05
1.42167e-05
1.42112e-05
1.4206e-05
1.42013e-05
1.41969e-05
1.4193e-05
1.41895e-05
1.41864e-05
1.41838e-05
1.41816e-05
1.41798e-05
1.41785e-05
1.41775e-05
1.4177e-05
1.41769e-05
1.4177e-05
1.41775e-05
1.41783e-05
1.41794e-05
1.41808e-05
1.41825e-05
1.41844e-05
1.41866e-05
1.4189e-05
1.41916e-05
1.41944e-05
1.41973e-05
1.40837e-05
1.40877e-05
1.40924e-05
1.40975e-05
1.41032e-05
1.41096e-05
1.41166e-05
1.41242e-05
1.41325e-05
1.41415e-05
1.41513e-05
1.41618e-05
1.4173e-05
1.4185e-05
1.41977e-05
1.42112e-05
1.42255e-05
1.42405e-05
1.42563e-05
1.42729e-05
1.42902e-05
1.43082e-05
1.43268e-05
1.43459e-05
1.43656e-05
1.43856e-05
1.4406e-05
1.44267e-05
1.44475e-05
1.44684e-05
1.44894e-05
1.45104e-05
1.45313e-05
1.45521e-05
1.45725e-05
1.45925e-05
1.4612e-05
1.46309e-05
1.4649e-05
1.46664e-05
1.46828e-05
1.46982e-05
1.47125e-05
1.47257e-05
1.47377e-05
1.47485e-05
1.4758e-05
1.47662e-05
1.47731e-05
1.47786e-05
1.47827e-05
1.47854e-05
1.47866e-05
1.47865e-05
1.47851e-05
1.47824e-05
1.47785e-05
1.47733e-05
1.47669e-05
1.47592e-05
1.47505e-05
1.47407e-05
1.47299e-05
1.47182e-05
1.47056e-05
1.46923e-05
1.46784e-05
1.46638e-05
1.46488e-05
1.46334e-05
1.46177e-05
1.46017e-05
1.45856e-05
1.45695e-05
1.45535e-05
1.45375e-05
1.45218e-05
1.45064e-05
1.44913e-05
1.44768e-05
1.44628e-05
1.44493e-05
1.44366e-05
1.44245e-05
1.44132e-05
1.44028e-05
1.43932e-05
1.43845e-05
1.43767e-05
1.43699e-05
1.43641e-05
1.43592e-05
1.43553e-05
1.43523e-05
1.43503e-05
1.43492e-05
1.43491e-05
1.43496e-05
1.43508e-05
1.43528e-05
1.43556e-05
1.43591e-05
1.43632e-05
1.43679e-05
1.43732e-05
1.4379e-05
1.43853e-05
1.4392e-05
1.43991e-05
1.44066e-05
1.4137e-05
1.41464e-05
1.41571e-05
1.41692e-05
1.41826e-05
1.41974e-05
1.42137e-05
1.42315e-05
1.42508e-05
1.42717e-05
1.42943e-05
1.43185e-05
1.43444e-05
1.43719e-05
1.4401e-05
1.44317e-05
1.44638e-05
1.44975e-05
1.45326e-05
1.4569e-05
1.46067e-05
1.46456e-05
1.46854e-05
1.47261e-05
1.47674e-05
1.48092e-05
1.48513e-05
1.48935e-05
1.49357e-05
1.49777e-05
1.50194e-05
1.50607e-05
1.51014e-05
1.51414e-05
1.51805e-05
1.52185e-05
1.52552e-05
1.52904e-05
1.53238e-05
1.53553e-05
1.53846e-05
1.54118e-05
1.54366e-05
1.5459e-05
1.54789e-05
1.54963e-05
1.55112e-05
1.55236e-05
1.55336e-05
1.55409e-05
1.55457e-05
1.55478e-05
1.55473e-05
1.55447e-05
1.55397e-05
1.55325e-05
1.5523e-05
1.55113e-05
1.54975e-05
1.54817e-05
1.54638e-05
1.54442e-05
1.54228e-05
1.53999e-05
1.53756e-05
1.535e-05
1.53232e-05
1.52955e-05
1.5267e-05
1.52377e-05
1.5208e-05
1.51779e-05
1.51476e-05
1.51173e-05
1.50871e-05
1.50572e-05
1.50277e-05
1.49987e-05
1.49705e-05
1.49431e-05
1.49167e-05
1.48915e-05
1.48676e-05
1.48452e-05
1.48243e-05
1.48051e-05
1.47875e-05
1.47718e-05
1.4758e-05
1.4746e-05
1.47361e-05
1.47281e-05
1.47222e-05
1.47183e-05
1.47164e-05
1.47166e-05
1.47179e-05
1.4721e-05
1.47259e-05
1.47323e-05
1.47402e-05
1.47495e-05
1.47602e-05
1.47721e-05
1.47851e-05
1.47992e-05
1.48142e-05
1.48302e-05
1.4847e-05
1.48645e-05
1.42666e-05
1.4287e-05
1.43106e-05
1.43373e-05
1.43672e-05
1.44004e-05
1.44368e-05
1.44765e-05
1.45194e-05
1.45657e-05
1.46152e-05
1.46678e-05
1.47234e-05
1.47819e-05
1.48431e-05
1.49068e-05
1.4973e-05
1.50413e-05
1.51119e-05
1.51844e-05
1.52589e-05
1.53349e-05
1.5412e-05
1.54895e-05
1.55671e-05
1.56442e-05
1.57204e-05
1.57953e-05
1.58687e-05
1.59405e-05
1.60103e-05
1.6078e-05
1.61435e-05
1.62066e-05
1.6267e-05
1.63246e-05
1.63791e-05
1.64304e-05
1.64783e-05
1.65226e-05
1.65631e-05
1.65997e-05
1.66323e-05
1.66607e-05
1.66851e-05
1.67054e-05
1.67217e-05
1.67341e-05
1.6743e-05
1.67483e-05
1.67489e-05
1.67466e-05
1.67405e-05
1.6731e-05
1.67188e-05
1.67034e-05
1.66848e-05
1.66632e-05
1.66388e-05
1.66116e-05
1.65818e-05
1.65496e-05
1.6515e-05
1.64783e-05
1.64397e-05
1.63993e-05
1.63573e-05
1.63139e-05
1.62693e-05
1.62237e-05
1.61773e-05
1.61303e-05
1.60828e-05
1.60352e-05
1.59876e-05
1.59402e-05
1.58934e-05
1.58473e-05
1.58025e-05
1.57591e-05
1.57173e-05
1.56774e-05
1.56397e-05
1.56042e-05
1.55713e-05
1.55412e-05
1.55141e-05
1.54903e-05
1.54699e-05
1.54531e-05
1.54397e-05
1.543e-05
1.54238e-05
1.54218e-05
1.5423e-05
1.54266e-05
1.54337e-05
1.54439e-05
1.54572e-05
1.54732e-05
1.54919e-05
1.55129e-05
1.55362e-05
1.55615e-05
1.55886e-05
1.56175e-05
1.56479e-05
1.56797e-05
1.57128e-05
1.5747e-05
1.45395e-05
1.45731e-05
1.4614e-05
1.46619e-05
1.47167e-05
1.47783e-05
1.48464e-05
1.49207e-05
1.5001e-05
1.50872e-05
1.51791e-05
1.52765e-05
1.53793e-05
1.54867e-05
1.55981e-05
1.57127e-05
1.58297e-05
1.59483e-05
1.60681e-05
1.61886e-05
1.63095e-05
1.64303e-05
1.65506e-05
1.66694e-05
1.67861e-05
1.68998e-05
1.70101e-05
1.71164e-05
1.72181e-05
1.73149e-05
1.74067e-05
1.74933e-05
1.75748e-05
1.76509e-05
1.77217e-05
1.77873e-05
1.7848e-05
1.79038e-05
1.79547e-05
1.80003e-05
1.80405e-05
1.80754e-05
1.8105e-05
1.81292e-05
1.8148e-05
1.81619e-05
1.81709e-05
1.81751e-05
1.81748e-05
1.8172e-05
1.81653e-05
1.81543e-05
1.81399e-05
1.81226e-05
1.81016e-05
1.80778e-05
1.80518e-05
1.8023e-05
1.79913e-05
1.79572e-05
1.79207e-05
1.78816e-05
1.78405e-05
1.77976e-05
1.7753e-05
1.77066e-05
1.76586e-05
1.76093e-05
1.75586e-05
1.75067e-05
1.74538e-05
1.74e-05
1.73455e-05
1.72903e-05
1.72348e-05
1.71792e-05
1.71241e-05
1.70694e-05
1.70155e-05
1.69624e-05
1.69104e-05
1.68601e-05
1.6812e-05
1.67666e-05
1.67244e-05
1.66859e-05
1.66514e-05
1.6621e-05
1.6595e-05
1.65736e-05
1.65571e-05
1.65456e-05
1.65399e-05
1.65401e-05
1.6544e-05
1.65527e-05
1.65664e-05
1.65847e-05
1.66073e-05
1.6634e-05
1.66643e-05
1.6698e-05
1.67346e-05
1.6774e-05
1.68157e-05
1.68594e-05
1.69048e-05
1.69518e-05
1.7e-05
1.70495e-05
1.70999e-05
1.52043e-05
1.52562e-05
1.5324e-05
1.54068e-05
1.55038e-05
1.56138e-05
1.57355e-05
1.58676e-05
1.60087e-05
1.61575e-05
1.63128e-05
1.64735e-05
1.66383e-05
1.68054e-05
1.69732e-05
1.71404e-05
1.73057e-05
1.7468e-05
1.76265e-05
1.77803e-05
1.79295e-05
1.8075e-05
1.82161e-05
1.83506e-05
1.84767e-05
1.85935e-05
1.87004e-05
1.87973e-05
1.88844e-05
1.89617e-05
1.90298e-05
1.90892e-05
1.91403e-05
1.91836e-05
1.92193e-05
1.92475e-05
1.92687e-05
1.92835e-05
1.92924e-05
1.92959e-05
1.92956e-05
1.92934e-05
1.92882e-05
1.92796e-05
1.92679e-05
1.92532e-05
1.92359e-05
1.92162e-05
1.91945e-05
1.91718e-05
1.9148e-05
1.91241e-05
1.90953e-05
1.90651e-05
1.90361e-05
1.90068e-05
1.89758e-05
1.89434e-05
1.89106e-05
1.88766e-05
1.88414e-05
1.88062e-05
1.87709e-05
1.87342e-05
1.86966e-05
1.8659e-05
1.86208e-05
1.85819e-05
1.85426e-05
1.85029e-05
1.84627e-05
1.84219e-05
1.8381e-05
1.83402e-05
1.82995e-05
1.82583e-05
1.82167e-05
1.81749e-05
1.81335e-05
1.80936e-05
1.80557e-05
1.80203e-05
1.79875e-05
1.79572e-05
1.7929e-05
1.79035e-05
1.78813e-05
1.7863e-05
1.78492e-05
1.78406e-05
1.78385e-05
1.78405e-05
1.78475e-05
1.78591e-05
1.78765e-05
1.78975e-05
1.79231e-05
1.79529e-05
1.79865e-05
1.80232e-05
1.80628e-05
1.81042e-05
1.81469e-05
1.81906e-05
1.82349e-05
1.82796e-05
1.83245e-05
1.83692e-05
1.8413e-05
1.84556e-05
1.84971e-05
1.85375e-05
1.85768e-05
1.65743e-05
1.66197e-05
1.66968e-05
1.68016e-05
1.69302e-05
1.70786e-05
1.72426e-05
1.74183e-05
1.76024e-05
1.77917e-05
1.7984e-05
1.81788e-05
1.83744e-05
1.85666e-05
1.87516e-05
1.89261e-05
1.9088e-05
1.92359e-05
1.9369e-05
1.9487e-05
1.95898e-05
1.96772e-05
1.97501e-05
1.98106e-05
1.98601e-05
1.99001e-05
1.99314e-05
1.99543e-05
1.99697e-05
1.99782e-05
1.99796e-05
1.99776e-05
1.99718e-05
1.9962e-05
1.99489e-05
1.99327e-05
1.99137e-05
1.98925e-05
1.98691e-05
1.98438e-05
1.9817e-05
1.97901e-05
1.97627e-05
1.97362e-05
1.97049e-05
1.96733e-05
1.96431e-05
1.96107e-05
1.95776e-05
1.9547e-05
1.95167e-05
1.94839e-05
1.94487e-05
1.94163e-05
1.93863e-05
1.93541e-05
1.93211e-05
1.92891e-05
1.92568e-05
1.92247e-05
1.91947e-05
1.91645e-05
1.9133e-05
1.91025e-05
1.9074e-05
1.90452e-05
1.90163e-05
1.89886e-05
1.89618e-05
1.89355e-05
1.89103e-05
1.88864e-05
1.88627e-05
1.8839e-05
1.88157e-05
1.87935e-05
1.87731e-05
1.87549e-05
1.8739e-05
1.87248e-05
1.87118e-05
1.87002e-05
1.86904e-05
1.8682e-05
1.86762e-05
1.86746e-05
1.8676e-05
1.86812e-05
1.86902e-05
1.87023e-05
1.87154e-05
1.87319e-05
1.87516e-05
1.87721e-05
1.87954e-05
1.88206e-05
1.88466e-05
1.88732e-05
1.89004e-05
1.89275e-05
1.89539e-05
1.89803e-05
1.90066e-05
1.90318e-05
1.90556e-05
1.9078e-05
1.90993e-05
1.91197e-05
1.91395e-05
1.91585e-05
1.91759e-05
1.91919e-05
1.92069e-05
1.90625e-05
1.89269e-05
1.88431e-05
1.88138e-05
1.88254e-05
1.88762e-05
1.89655e-05
1.9083e-05
1.92189e-05
1.93652e-05
1.95148e-05
1.96616e-05
1.98003e-05
1.99262e-05
2.00367e-05
2.01318e-05
2.02121e-05
2.02789e-05
2.03333e-05
2.03767e-05
2.04098e-05
2.04332e-05
2.04479e-05
2.04536e-05
2.04528e-05
2.0448e-05
2.04383e-05
2.04242e-05
2.04067e-05
2.03864e-05
2.03639e-05
2.03388e-05
2.0312e-05
2.02843e-05
2.02558e-05
2.02263e-05
2.01965e-05
2.01681e-05
2.01347e-05
2.01012e-05
2.00688e-05
2.00341e-05
1.99993e-05
1.99663e-05
1.99346e-05
1.99004e-05
1.98649e-05
1.98305e-05
1.97959e-05
1.97598e-05
1.97264e-05
1.96942e-05
1.96601e-05
1.96244e-05
1.95913e-05
1.9559e-05
1.95256e-05
1.94921e-05
1.94621e-05
1.94313e-05
1.93992e-05
1.93687e-05
1.93385e-05
1.93077e-05
1.92793e-05
1.92532e-05
1.92261e-05
1.91993e-05
1.91752e-05
1.91522e-05
1.91295e-05
1.9108e-05
1.90874e-05
1.90677e-05
1.9049e-05
1.90325e-05
1.90189e-05
1.90071e-05
1.89964e-05
1.8987e-05
1.89795e-05
1.89735e-05
1.89687e-05
1.89664e-05
1.89682e-05
1.89739e-05
1.89814e-05
1.89906e-05
1.90019e-05
1.90155e-05
1.90309e-05
1.90469e-05
1.90653e-05
1.90857e-05
1.91067e-05
1.9129e-05
1.91518e-05
1.91742e-05
1.91966e-05
1.9218e-05
1.9238e-05
1.92571e-05
1.92755e-05
1.92929e-05
1.93083e-05
1.93228e-05
1.93365e-05
1.93492e-05
1.93606e-05
1.93714e-05
1.93811e-05
1.93896e-05
1.93977e-05
1.94051e-05
1.94115e-05
2.21359e-05
2.18325e-05
2.15795e-05
2.1383e-05
2.12213e-05
2.1097e-05
2.10103e-05
2.09541e-05
2.09194e-05
2.0899e-05
2.0888e-05
2.08821e-05
2.08786e-05
2.08754e-05
2.08714e-05
2.08655e-05
2.08571e-05
2.08456e-05
2.0831e-05
2.08133e-05
2.0793e-05
2.07703e-05
2.07458e-05
2.07193e-05
2.06918e-05
2.06637e-05
2.06349e-05
2.06048e-05
2.05738e-05
2.0544e-05
2.05084e-05
2.04717e-05
2.04369e-05
2.04016e-05
2.03657e-05
2.033e-05
2.02951e-05
2.02599e-05
2.02235e-05
2.01871e-05
2.01509e-05
2.01142e-05
2.00776e-05
2.00423e-05
2.00075e-05
1.99717e-05
1.99359e-05
1.99005e-05
1.98649e-05
1.98297e-05
1.97961e-05
1.97624e-05
1.9728e-05
1.96941e-05
1.96609e-05
1.96272e-05
1.95937e-05
1.95646e-05
1.95353e-05
1.95039e-05
1.94733e-05
1.94435e-05
1.94131e-05
1.93856e-05
1.93602e-05
1.93337e-05
1.93072e-05
1.92848e-05
1.9263e-05
1.92409e-05
1.92205e-05
1.92012e-05
1.91823e-05
1.91658e-05
1.91512e-05
1.91371e-05
1.91242e-05
1.91127e-05
1.91023e-05
1.90937e-05
1.90879e-05
1.90871e-05
1.90882e-05
1.90913e-05
1.90957e-05
1.91017e-05
1.91098e-05
1.912e-05
1.91329e-05
1.91479e-05
1.91647e-05
1.91829e-05
1.92024e-05
1.92217e-05
1.92415e-05
1.92619e-05
1.92816e-05
1.93018e-05
1.93214e-05
1.93388e-05
1.93553e-05
1.93712e-05
1.93857e-05
1.93992e-05
1.94121e-05
1.94241e-05
1.94341e-05
1.94429e-05
1.94521e-05
1.94608e-05
1.94684e-05
1.94753e-05
1.9481e-05
1.94855e-05
1.94898e-05
1.94938e-05
2.57686e-05
2.55622e-05
2.53354e-05
2.50873e-05
2.48173e-05
2.4526e-05
2.42172e-05
2.38992e-05
2.35804e-05
2.327e-05
2.29741e-05
2.26963e-05
2.24419e-05
2.22152e-05
2.20172e-05
2.18458e-05
2.16984e-05
2.15734e-05
2.14666e-05
2.13748e-05
2.12959e-05
2.12274e-05
2.11672e-05
2.11133e-05
2.10649e-05
2.10202e-05
2.09782e-05
2.09388e-05
2.09026e-05
2.0862e-05
2.08222e-05
2.07843e-05
2.07473e-05
2.07105e-05
2.06739e-05
2.0638e-05
2.06021e-05
2.05646e-05
2.05269e-05
2.04902e-05
2.04535e-05
2.04165e-05
2.03803e-05
2.03448e-05
2.03086e-05
2.0272e-05
2.02357e-05
2.01994e-05
2.01628e-05
2.01264e-05
2.00914e-05
2.00564e-05
2.00209e-05
1.99857e-05
1.99506e-05
1.99152e-05
1.98808e-05
1.98477e-05
1.9814e-05
1.97804e-05
1.97477e-05
1.97148e-05
1.9681e-05
1.96498e-05
1.96218e-05
1.95921e-05
1.95611e-05
1.95318e-05
1.95021e-05
1.94737e-05
1.94481e-05
1.9422e-05
1.93948e-05
1.93716e-05
1.935e-05
1.93271e-05
1.93062e-05
1.92881e-05
1.92699e-05
1.92519e-05
1.92355e-05
1.92198e-05
1.92056e-05
1.91934e-05
1.91836e-05
1.91772e-05
1.91731e-05
1.91706e-05
1.91691e-05
1.91692e-05
1.91705e-05
1.9174e-05
1.91799e-05
1.91888e-05
1.92004e-05
1.92142e-05
1.92287e-05
1.92429e-05
1.9258e-05
1.9274e-05
1.92906e-05
1.93083e-05
1.93263e-05
1.93439e-05
1.93624e-05
1.93793e-05
1.93939e-05
1.94079e-05
1.94225e-05
1.94361e-05
1.94488e-05
1.94604e-05
1.94705e-05
1.94812e-05
1.94909e-05
1.94996e-05
1.95077e-05
1.95151e-05
1.95212e-05
1.95262e-05
1.95316e-05
1.9536e-05
1.95394e-05
2.58819e-05
2.57145e-05
2.55366e-05
2.53472e-05
2.51445e-05
2.49267e-05
2.46954e-05
2.4452e-05
2.41971e-05
2.39347e-05
2.36685e-05
2.34016e-05
2.31381e-05
2.28829e-05
2.26399e-05
2.24127e-05
2.22039e-05
2.20153e-05
2.1847e-05
2.16985e-05
2.15685e-05
2.14553e-05
2.13568e-05
2.12712e-05
2.11966e-05
2.11308e-05
2.10718e-05
2.10189e-05
2.097e-05
2.09226e-05
2.08775e-05
2.08353e-05
2.07951e-05
2.07557e-05
2.07173e-05
2.06801e-05
2.06427e-05
2.06047e-05
2.05671e-05
2.05301e-05
2.04929e-05
2.04556e-05
2.04196e-05
2.03838e-05
2.03472e-05
2.03108e-05
2.0275e-05
2.02392e-05
2.0203e-05
2.01677e-05
2.01335e-05
2.00988e-05
2.00641e-05
2.00299e-05
1.99955e-05
1.99611e-05
1.99281e-05
1.98955e-05
1.98623e-05
1.98302e-05
1.97984e-05
1.97661e-05
1.97332e-05
1.97045e-05
1.96769e-05
1.96468e-05
1.96174e-05
1.95891e-05
1.95608e-05
1.95352e-05
1.95099e-05
1.94834e-05
1.94594e-05
1.9438e-05
1.94156e-05
1.93943e-05
1.93756e-05
1.93574e-05
1.93378e-05
1.93198e-05
1.93042e-05
1.92898e-05
1.9278e-05
1.92677e-05
1.92574e-05
1.92475e-05
1.92399e-05
1.92356e-05
1.92346e-05
1.92357e-05
1.92391e-05
1.92445e-05
1.92509e-05
1.92582e-05
1.92665e-05
1.92761e-05
1.92871e-05
1.92996e-05
1.93136e-05
1.93282e-05
1.9343e-05
1.93586e-05
1.93739e-05
1.93891e-05
1.94051e-05
1.94202e-05
1.94335e-05
1.94458e-05
1.94582e-05
1.94718e-05
1.94844e-05
1.94961e-05
1.95071e-05
1.95173e-05
1.95261e-05
1.95363e-05
1.95452e-05
1.95528e-05
1.95598e-05
1.95659e-05
1.95708e-05
1.95756e-05
1.95795e-05
2.57499e-05
2.55951e-05
2.54338e-05
2.52671e-05
2.50974e-05
2.49202e-05
2.47399e-05
2.45557e-05
2.43659e-05
2.41693e-05
2.39661e-05
2.37564e-05
2.35406e-05
2.33195e-05
2.30945e-05
2.28686e-05
2.26456e-05
2.24291e-05
2.22231e-05
2.20314e-05
2.18564e-05
2.16992e-05
2.15601e-05
2.14387e-05
2.13334e-05
2.12418e-05
2.11624e-05
2.10937e-05
2.10327e-05
2.0977e-05
2.09257e-05
2.08785e-05
2.08339e-05
2.07911e-05
2.07505e-05
2.07112e-05
2.06721e-05
2.06335e-05
2.05958e-05
2.05585e-05
2.05211e-05
2.04845e-05
2.04491e-05
2.04134e-05
2.03773e-05
2.0342e-05
2.03072e-05
2.02722e-05
2.0237e-05
2.02032e-05
2.01699e-05
2.01361e-05
2.01027e-05
2.00697e-05
2.00363e-05
2.00034e-05
1.99719e-05
1.99396e-05
1.9908e-05
1.98784e-05
1.98479e-05
1.98162e-05
1.97858e-05
1.97589e-05
1.97313e-05
1.97019e-05
1.96741e-05
1.96465e-05
1.96211e-05
1.95971e-05
1.95718e-05
1.95472e-05
1.95255e-05
1.95047e-05
1.94823e-05
1.94624e-05
1.94436e-05
1.94271e-05
1.94081e-05
1.93911e-05
1.93758e-05
1.93616e-05
1.93485e-05
1.93367e-05
1.93269e-05
1.93198e-05
1.93153e-05
1.93125e-05
1.93111e-05
1.93111e-05
1.93118e-05
1.93135e-05
1.93169e-05
1.93224e-05
1.933e-05
1.93391e-05
1.93489e-05
1.93592e-05
1.93702e-05
1.93815e-05
1.93934e-05
1.94064e-05
1.94196e-05
1.94327e-05
1.94466e-05
1.94603e-05
1.94723e-05
1.94835e-05
1.94943e-05
1.9506e-05
1.95197e-05
1.95322e-05
1.95437e-05
1.9555e-05
1.95644e-05
1.95729e-05
1.95834e-05
1.95922e-05
1.95999e-05
1.96072e-05
1.96134e-05
1.96179e-05
1.96219e-05
2.55631e-05
2.54213e-05
2.52769e-05
2.51319e-05
2.49881e-05
2.48455e-05
2.46949e-05
2.45449e-05
2.43995e-05
2.42538e-05
2.41048e-05
2.39511e-05
2.37908e-05
2.36221e-05
2.34435e-05
2.32545e-05
2.30556e-05
2.28483e-05
2.2636e-05
2.24235e-05
2.22164e-05
2.20194e-05
2.18371e-05
2.16725e-05
2.15263e-05
2.13982e-05
2.12876e-05
2.11926e-05
2.11107e-05
2.10402e-05
2.09778e-05
2.09217e-05
2.08703e-05
2.08229e-05
2.07791e-05
2.07373e-05
2.06966e-05
2.06573e-05
2.06195e-05
2.05821e-05
2.0545e-05
2.05095e-05
2.04747e-05
2.04394e-05
2.04043e-05
2.03703e-05
2.03366e-05
2.03025e-05
2.02688e-05
2.02366e-05
2.02041e-05
2.01714e-05
2.01397e-05
2.01078e-05
2.00755e-05
2.00448e-05
2.00142e-05
1.99826e-05
1.99537e-05
1.99258e-05
1.98963e-05
1.98658e-05
1.98386e-05
1.98133e-05
1.97858e-05
1.97578e-05
1.9731e-05
1.97058e-05
1.96823e-05
1.96588e-05
1.96341e-05
1.96124e-05
1.95925e-05
1.95715e-05
1.95502e-05
1.95312e-05
1.95124e-05
1.94962e-05
1.94795e-05
1.94623e-05
1.94468e-05
1.94327e-05
1.94212e-05
1.94115e-05
1.9403e-05
1.93957e-05
1.93899e-05
1.93852e-05
1.9382e-05
1.93811e-05
1.93818e-05
1.93841e-05
1.93878e-05
1.93924e-05
1.93977e-05
1.94038e-05
1.94106e-05
1.94182e-05
1.94266e-05
1.94358e-05
1.94458e-05
1.94569e-05
1.9468e-05
1.9479e-05
1.94912e-05
1.95035e-05
1.95142e-05
1.95242e-05
1.95348e-05
1.95448e-05
1.95575e-05
1.95714e-05
1.95834e-05
1.95948e-05
1.96059e-05
1.96148e-05
1.96238e-05
1.96339e-05
1.96426e-05
1.96507e-05
1.96582e-05
1.96635e-05
1.96675e-05
1.96723e-05
1.96773e-05
2.53643e-05
2.52407e-05
2.51185e-05
2.49979e-05
2.48786e-05
2.47592e-05
2.46364e-05
2.4517e-05
2.44019e-05
2.42896e-05
2.41776e-05
2.40639e-05
2.39465e-05
2.38229e-05
2.36907e-05
2.35476e-05
2.33913e-05
2.322e-05
2.30337e-05
2.28341e-05
2.26245e-05
2.24102e-05
2.21979e-05
2.1994e-05
2.18042e-05
2.16322e-05
2.14788e-05
2.1343e-05
2.12242e-05
2.11244e-05
2.10436e-05
2.09762e-05
2.09156e-05
2.08612e-05
2.0812e-05
2.07662e-05
2.07229e-05
2.06822e-05
2.06434e-05
2.06055e-05
2.05687e-05
2.05339e-05
2.04994e-05
2.04647e-05
2.04308e-05
2.03981e-05
2.03652e-05
2.03319e-05
2.03001e-05
2.02692e-05
2.02375e-05
2.02064e-05
2.01761e-05
2.01449e-05
2.01148e-05
2.00859e-05
2.00559e-05
2.00264e-05
1.99996e-05
1.99727e-05
1.99439e-05
1.9916e-05
1.98911e-05
1.98668e-05
1.98397e-05
1.98132e-05
1.97884e-05
1.97652e-05
1.97433e-05
1.97197e-05
1.96975e-05
1.96768e-05
1.96581e-05
1.96379e-05
1.96175e-05
1.9599e-05
1.95808e-05
1.95644e-05
1.95484e-05
1.9533e-05
1.95188e-05
1.95061e-05
1.9495e-05
1.94851e-05
1.94763e-05
1.94688e-05
1.94631e-05
1.9459e-05
1.94563e-05
1.9455e-05
1.9455e-05
1.94555e-05
1.9457e-05
1.94596e-05
1.94632e-05
1.94679e-05
1.94735e-05
1.94796e-05
1.94863e-05
1.94934e-05
1.95012e-05
1.95099e-05
1.95187e-05
1.95281e-05
1.95385e-05
1.95497e-05
1.95592e-05
1.95682e-05
1.9578e-05
1.95877e-05
1.95991e-05
1.96138e-05
1.96262e-05
1.96375e-05
1.96489e-05
1.96599e-05
1.96686e-05
1.96771e-05
1.96872e-05
1.96963e-05
1.97047e-05
1.97113e-05
1.97157e-05
1.97205e-05
1.97265e-05
2.51902e-05
2.50841e-05
2.49822e-05
2.48843e-05
2.47895e-05
2.46961e-05
2.45974e-05
2.45002e-05
2.44064e-05
2.43153e-05
2.42263e-05
2.41378e-05
2.4048e-05
2.3955e-05
2.38567e-05
2.37508e-05
2.36344e-05
2.35045e-05
2.33589e-05
2.31956e-05
2.3014e-05
2.28154e-05
2.26036e-05
2.23843e-05
2.2165e-05
2.19535e-05
2.17565e-05
2.1579e-05
2.14229e-05
2.12865e-05
2.11677e-05
2.10647e-05
2.09811e-05
2.09142e-05
2.08559e-05
2.08033e-05
2.07555e-05
2.07117e-05
2.06706e-05
2.06313e-05
2.05943e-05
2.05593e-05
2.05249e-05
2.04905e-05
2.04578e-05
2.04261e-05
2.03938e-05
2.03616e-05
2.03317e-05
2.03015e-05
2.02708e-05
2.02416e-05
2.02121e-05
2.01822e-05
2.01546e-05
2.01267e-05
2.00976e-05
2.00707e-05
2.00455e-05
2.00191e-05
1.99913e-05
1.99664e-05
1.99429e-05
1.99191e-05
1.98928e-05
1.9868e-05
1.98456e-05
1.98242e-05
1.98032e-05
1.97805e-05
1.976e-05
1.974e-05
1.97215e-05
1.97028e-05
1.96836e-05
1.96656e-05
1.96482e-05