/*--------------------------------*- C++ -*----------------------------------*\
| =========                 |                                                 |
| \\      /  F ield         | OpenFOAM: The Open Source CFD Toolbox           |
|  \\    /   O peration     | Version:  v1706                                 |
|   \\  /    A nd           | Web:      www.OpenFOAM.com                      |
|    \\/     M anipulation  |                                                 |
\*---------------------------------------------------------------------------*/
FoamFile
{
    version     2.0;
    format      ascii;
    class       volScalarField;
    location    "2e-05";
    object      kappatr;
}
// * * * * * * * * * * * * * * * * * * * * * * * * * * * * * * * * * * * * * //

dimensions      [1 1 -3 -1 0 0 0];


internalField   nonuniform List<scalar> 
29871
(
0.014593
0.014593
0.014593
0.014593
0.014593
0.014593
0.014593
0.014593
0.014593
0.014593
0.014593
0.014593
0.014593
0.014593
0.014593
0.0145931
0.0145931
0.0145931
0.0145931
0.0145931
0.0145931
0.0145931
0.0145931
0.0145931
0.0145931
0.0145931
0.0145931
0.0145931
0.0145931
0.0145931
0.0145931
0.0145931
0.0145931
0.0145931
0.0145931
0.0145932
0.0145932
0.0145932
0.0145932
0.0145932
0.0145932
0.0145932
0.0145932
0.0145932
0.0145932
0.0145932
0.0145932
0.0145932
0.0145932
0.0145932
0.0145932
0.0145932
0.0145932
0.0145932
0.0145932
0.0145932
0.0145932
0.0145932
0.0145932
0.0145932
0.0145932
0.0145932
0.0145932
0.0145932
0.0145932
0.0145932
0.0145931
0.0145931
0.0145931
0.0145931
0.0145931
0.0145931
0.0145931
0.0145931
0.0145931
0.0145931
0.0145931
0.0145931
0.0145931
0.0145931
0.0145931
0.0145931
0.0145931
0.0145931
0.0145931
0.0145931
0.0145931
0.0145931
0.0145931
0.0145931
0.0145931
0.0145931
0.0145931
0.0145931
0.0145931
0.0145931
0.0145931
0.0145931
0.0145931
0.0145931
0.0145931
0.0145931
0.0145931
0.0145931
0.0145931
0.0145931
0.0145931
0.0145931
0.0145931
0.0145931
0.0145931
0.0145931
0.0145931
0.0145932
0.0145932
0.0145932
0.0145932
0.0145932
0.0145932
0.0145933
0.0145933
0.0145933
0.0145933
0.0145934
0.0145934
0.0145934
0.0145934
0.0145935
0.0145935
0.0145935
0.0145936
0.0145936
0.0145936
0.0145937
0.0145937
0.0145937
0.0145938
0.0145938
0.0145938
0.0145939
0.0145939
0.0145939
0.014594
0.014594
0.014594
0.014594
0.0145941
0.0145941
0.0145941
0.0145941
0.0145941
0.0145941
0.0145941
0.0145942
0.0145942
0.0145942
0.0145942
0.0145942
0.0145941
0.0145941
0.0145941
0.0145941
0.0145941
0.0145941
0.0145941
0.014594
0.014594
0.014594
0.014594
0.0145939
0.0145939
0.0145939
0.0145939
0.0145938
0.0145938
0.0145938
0.0145937
0.0145937
0.0145937
0.0145937
0.0145936
0.0145936
0.0145936
0.0145936
0.0145935
0.0145935
0.0145935
0.0145935
0.0145935
0.0145934
0.0145934
0.0145934
0.0145934
0.0145934
0.0145934
0.0145934
0.0145934
0.0145934
0.0145933
0.0145933
0.0145933
0.0145933
0.0145933
0.0145933
0.0145933
0.0145933
0.0145933
0.0145933
0.0145933
0.0145933
0.0145932
0.0145932
0.0145932
0.0145933
0.0145933
0.0145933
0.0145934
0.0145934
0.0145934
0.0145935
0.0145935
0.0145936
0.0145936
0.0145937
0.0145938
0.0145938
0.0145939
0.014594
0.0145941
0.0145941
0.0145942
0.0145943
0.0145944
0.0145945
0.0145946
0.0145947
0.0145948
0.0145949
0.014595
0.0145951
0.0145952
0.0145953
0.0145954
0.0145956
0.0145957
0.0145958
0.0145959
0.014596
0.014596
0.0145961
0.0145962
0.0145963
0.0145964
0.0145964
0.0145965
0.0145965
0.0145966
0.0145966
0.0145967
0.0145967
0.0145967
0.0145967
0.0145967
0.0145967
0.0145967
0.0145966
0.0145966
0.0145966
0.0145965
0.0145965
0.0145964
0.0145963
0.0145963
0.0145962
0.0145961
0.014596
0.0145959
0.0145959
0.0145958
0.0145957
0.0145956
0.0145955
0.0145954
0.0145953
0.0145952
0.0145951
0.014595
0.014595
0.0145949
0.0145948
0.0145947
0.0145947
0.0145946
0.0145945
0.0145945
0.0145944
0.0145944
0.0145943
0.0145943
0.0145943
0.0145942
0.0145942
0.0145942
0.0145942
0.0145941
0.0145941
0.0145941
0.0145941
0.0145941
0.0145941
0.0145941
0.0145941
0.0145941
0.0145941
0.0145942
0.0145942
0.0145935
0.0145936
0.0145937
0.0145937
0.0145938
0.0145939
0.014594
0.0145941
0.0145942
0.0145944
0.0145945
0.0145946
0.0145948
0.014595
0.0145951
0.0145953
0.0145955
0.0145957
0.014596
0.0145962
0.0145964
0.0145967
0.0145969
0.0145972
0.0145974
0.0145977
0.014598
0.0145983
0.0145986
0.0145989
0.0145992
0.0145995
0.0145998
0.0146001
0.0146003
0.0146006
0.0146009
0.0146012
0.0146014
0.0146016
0.0146019
0.0146021
0.0146023
0.0146025
0.0146026
0.0146028
0.0146029
0.014603
0.0146031
0.0146031
0.0146032
0.0146032
0.0146032
0.0146031
0.0146031
0.014603
0.0146029
0.0146028
0.0146027
0.0146025
0.0146023
0.0146022
0.014602
0.0146018
0.0146015
0.0146013
0.0146011
0.0146008
0.0146006
0.0146003
0.0146001
0.0145998
0.0145996
0.0145993
0.0145991
0.0145989
0.0145986
0.0145984
0.0145982
0.014598
0.0145978
0.0145976
0.0145974
0.0145973
0.0145971
0.014597
0.0145968
0.0145967
0.0145966
0.0145965
0.0145965
0.0145964
0.0145963
0.0145963
0.0145963
0.0145962
0.0145962
0.0145962
0.0145962
0.0145962
0.0145962
0.0145963
0.0145963
0.0145963
0.0145964
0.0145964
0.0145942
0.0145944
0.0145946
0.0145947
0.014595
0.0145952
0.0145954
0.0145957
0.014596
0.0145963
0.0145966
0.014597
0.0145974
0.0145978
0.0145982
0.0145987
0.0145992
0.0145997
0.0146002
0.0146008
0.0146014
0.014602
0.0146026
0.0146033
0.014604
0.0146047
0.0146054
0.0146061
0.0146069
0.0146076
0.0146084
0.0146091
0.0146099
0.0146106
0.0146113
0.0146121
0.0146128
0.0146135
0.0146141
0.0146147
0.0146153
0.0146159
0.0146164
0.0146169
0.0146174
0.0146178
0.0146181
0.0146184
0.0146186
0.0146188
0.014619
0.014619
0.014619
0.014619
0.0146189
0.0146188
0.0146186
0.0146183
0.014618
0.0146177
0.0146173
0.0146169
0.0146164
0.0146159
0.0146154
0.0146148
0.0146143
0.0146137
0.014613
0.0146124
0.0146118
0.0146112
0.0146105
0.0146099
0.0146093
0.0146087
0.0146081
0.0146075
0.0146069
0.0146064
0.0146059
0.0146054
0.0146049
0.0146045
0.0146041
0.0146037
0.0146034
0.0146031
0.0146028
0.0146025
0.0146023
0.0146021
0.014602
0.0146019
0.0146018
0.0146017
0.0146017
0.0146016
0.0146017
0.0146017
0.0146017
0.0146018
0.0146018
0.0146019
0.014602
0.0146022
0.0146023
0.0145962
0.0145966
0.0145971
0.0145975
0.0145981
0.0145986
0.0145993
0.0146
0.0146007
0.0146015
0.0146023
0.0146033
0.0146042
0.0146053
0.0146064
0.0146076
0.0146088
0.0146101
0.0146115
0.0146129
0.0146144
0.014616
0.0146176
0.0146192
0.0146209
0.0146226
0.0146244
0.0146262
0.014628
0.0146299
0.0146318
0.0146336
0.0146355
0.0146373
0.0146391
0.0146408
0.0146425
0.0146442
0.0146458
0.0146473
0.0146487
0.01465
0.0146513
0.0146524
0.0146534
0.0146544
0.0146551
0.0146558
0.0146563
0.0146567
0.014657
0.0146571
0.0146571
0.0146569
0.0146567
0.0146563
0.0146557
0.0146551
0.0146543
0.0146535
0.0146525
0.0146514
0.0146503
0.014649
0.0146477
0.0146464
0.014645
0.0146435
0.014642
0.0146405
0.014639
0.0146374
0.0146359
0.0146344
0.0146329
0.0146314
0.01463
0.0146286
0.0146273
0.014626
0.0146248
0.0146236
0.0146225
0.0146215
0.0146206
0.0146197
0.0146189
0.0146182
0.0146176
0.014617
0.0146165
0.0146161
0.0146158
0.0146156
0.0146154
0.0146153
0.0146153
0.0146153
0.0146153
0.0146154
0.0146156
0.0146158
0.0146161
0.0146164
0.0146167
0.0146171
0.0146175
0.0145988
0.0145995
0.0146004
0.0146013
0.0146023
0.0146034
0.0146046
0.0146059
0.0146074
0.0146089
0.0146107
0.0146125
0.0146145
0.0146166
0.0146189
0.0146214
0.014624
0.0146267
0.0146296
0.0146327
0.0146359
0.0146393
0.0146428
0.0146465
0.0146503
0.0146542
0.0146582
0.0146623
0.0146665
0.0146708
0.0146751
0.0146795
0.0146839
0.0146883
0.0146926
0.014697
0.0147012
0.0147054
0.0147095
0.0147135
0.0147173
0.0147209
0.0147244
0.0147276
0.0147306
0.0147334
0.0147359
0.0147382
0.0147401
0.0147418
0.0147432
0.0147443
0.014745
0.0147455
0.0147455
0.0147454
0.0147449
0.0147441
0.014743
0.0147417
0.01474
0.0147381
0.014736
0.0147336
0.014731
0.0147282
0.0147253
0.0147222
0.014719
0.0147156
0.0147122
0.0147087
0.0147052
0.0147016
0.014698
0.0146945
0.014691
0.0146875
0.0146841
0.0146808
0.0146776
0.0146746
0.0146716
0.0146688
0.0146662
0.0146637
0.0146614
0.0146593
0.0146574
0.0146557
0.0146541
0.0146528
0.0146516
0.0146506
0.0146498
0.0146492
0.0146488
0.0146486
0.0146485
0.0146485
0.0146487
0.014649
0.0146495
0.01465
0.0146507
0.0146515
0.0146524
0.0146533
0.0146544
0.0146555
0.0146078
0.0146096
0.0146116
0.0146138
0.0146163
0.014619
0.014622
0.0146253
0.0146289
0.0146328
0.014637
0.0146415
0.0146464
0.0146516
0.0146572
0.0146632
0.0146695
0.0146762
0.0146833
0.0146907
0.0146984
0.0147065
0.0147148
0.0147235
0.0147324
0.0147416
0.014751
0.0147606
0.0147704
0.0147803
0.0147903
0.0148003
0.0148104
0.0148205
0.0148305
0.0148403
0.01485
0.0148595
0.0148686
0.0148774
0.0148858
0.0148937
0.0149012
0.0149082
0.0149146
0.0149204
0.0149257
0.0149303
0.0149342
0.0149375
0.0149401
0.0149421
0.0149433
0.0149437
0.0149436
0.0149427
0.0149413
0.0149391
0.0149363
0.0149329
0.0149289
0.0149243
0.0149192
0.0149137
0.0149076
0.0149012
0.0148944
0.0148873
0.01488
0.0148724
0.0148646
0.0148568
0.0148488
0.0148408
0.0148329
0.014825
0.0148171
0.0148095
0.014802
0.0147947
0.0147877
0.0147809
0.0147745
0.0147684
0.0147627
0.0147574
0.0147525
0.0147479
0.0147439
0.0147402
0.014737
0.0147343
0.014732
0.0147301
0.0147287
0.0147278
0.0147272
0.0147271
0.0147273
0.0147277
0.0147286
0.0147297
0.0147312
0.0147329
0.014735
0.0147372
0.0147397
0.0147424
0.0147453
0.0147483
0.0146303
0.0146345
0.0146393
0.0146447
0.0146506
0.0146572
0.0146644
0.0146724
0.014681
0.0146904
0.0147005
0.0147114
0.0147231
0.0147355
0.0147488
0.0147628
0.0147776
0.0147932
0.0148096
0.0148268
0.0148448
0.0148635
0.0148828
0.0149027
0.0149231
0.014944
0.0149651
0.0149866
0.0150082
0.01503
0.0150518
0.0150736
0.0150953
0.0151168
0.0151381
0.0151589
0.0151791
0.0151987
0.0152176
0.0152356
0.0152527
0.0152687
0.0152836
0.0152973
0.0153097
0.0153209
0.0153308
0.0153393
0.0153464
0.0153522
0.0153564
0.0153592
0.0153605
0.0153603
0.0153589
0.0153562
0.0153521
0.0153467
0.01534
0.0153321
0.015323
0.0153128
0.0153016
0.0152894
0.0152764
0.0152626
0.0152481
0.015233
0.0152173
0.0152013
0.015185
0.0151684
0.0151517
0.015135
0.0151183
0.0151017
0.0150854
0.0150694
0.0150538
0.0150386
0.0150241
0.0150101
0.0149969
0.0149843
0.0149726
0.0149618
0.0149518
0.0149428
0.0149347
0.0149277
0.0149216
0.0149165
0.0149124
0.0149094
0.0149073
0.0149061
0.014906
0.0149065
0.0149078
0.0149099
0.0149128
0.0149164
0.0149207
0.0149256
0.014931
0.0149371
0.0149436
0.0149506
0.014958
0.0149658
0.0146857
0.0146954
0.0147066
0.0147191
0.014733
0.0147485
0.0147654
0.0147838
0.0148039
0.0148256
0.0148491
0.0148742
0.0149011
0.0149297
0.0149599
0.0149918
0.0150252
0.0150602
0.0150966
0.0151345
0.0151736
0.015214
0.0152554
0.0152976
0.0153405
0.015384
0.0154277
0.0154715
0.0155154
0.015559
0.0156024
0.0156452
0.0156875
0.015729
0.0157697
0.0158092
0.0158473
0.0158839
0.0159186
0.0159512
0.0159817
0.0160099
0.0160357
0.016059
0.0160796
0.0160977
0.0161132
0.0161261
0.0161364
0.0161441
0.016149
0.0161512
0.0161507
0.016148
0.0161428
0.0161353
0.0161255
0.0161134
0.016099
0.0160825
0.016064
0.0160436
0.0160214
0.0159976
0.0159724
0.0159457
0.015918
0.0158892
0.0158595
0.0158291
0.0157983
0.015767
0.0157355
0.015704
0.0156727
0.0156416
0.0156109
0.0155808
0.0155515
0.015523
0.0154956
0.0154694
0.0154446
0.0154213
0.0153997
0.0153797
0.0153615
0.0153451
0.0153307
0.0153183
0.015308
0.0152998
0.0152936
0.0152895
0.0152876
0.0152878
0.0152892
0.0152924
0.0152974
0.0153041
0.0153123
0.015322
0.0153331
0.0153454
0.0153589
0.0153736
0.0153892
0.0154058
0.0154232
0.0154414
0.0148203
0.0148416
0.014866
0.0148938
0.0149248
0.0149593
0.0149971
0.0150383
0.015083
0.015131
0.0151824
0.0152371
0.0152949
0.0153556
0.0154192
0.0154854
0.0155541
0.0156251
0.0156984
0.0157738
0.0158511
0.0159301
0.0160101
0.0160907
0.0161713
0.0162514
0.0163305
0.0164083
0.0164846
0.0165591
0.0166317
0.016702
0.0167701
0.0168356
0.0168983
0.0169582
0.0170148
0.0170681
0.0171178
0.0171638
0.0172059
0.017244
0.0172778
0.0173074
0.0173327
0.0173538
0.0173707
0.0173836
0.0173929
0.0173983
0.017399
0.0173966
0.0173902
0.0173804
0.0173677
0.0173517
0.0173323
0.0173099
0.0172845
0.0172563
0.0172254
0.0171919
0.017156
0.0171179
0.0170777
0.0170358
0.0169921
0.0169471
0.0169007
0.0168534
0.0168052
0.0167563
0.0167071
0.0166576
0.0166081
0.0165589
0.0165102
0.0164624
0.0164158
0.0163707
0.0163273
0.0162859
0.0162467
0.0162098
0.0161756
0.0161444
0.0161163
0.0160915
0.0160704
0.0160528
0.016039
0.0160289
0.0160224
0.0160203
0.0160216
0.0160253
0.0160327
0.0160433
0.0160571
0.0160737
0.0160931
0.016115
0.0161392
0.0161654
0.0161937
0.0162236
0.0162552
0.0162883
0.0163226
0.0163582
0.0151038
0.0151387
0.0151811
0.0152309
0.0152879
0.0153519
0.0154226
0.0154998
0.0155832
0.0156728
0.0157682
0.0158694
0.0159762
0.0160878
0.0162035
0.0163226
0.0164441
0.0165673
0.0166917
0.0168169
0.0169425
0.017068
0.0171929
0.0173164
0.0174376
0.0175558
0.0176703
0.0177807
0.0178863
0.0179869
0.0180823
0.0181723
0.0182569
0.0183359
0.0184095
0.0184777
0.0185407
0.0185986
0.0186515
0.0186989
0.0187407
0.0187769
0.0188076
0.0188328
0.0188524
0.0188667
0.0188761
0.0188805
0.0188802
0.0188773
0.0188703
0.0188589
0.0188439
0.018826
0.0188042
0.0187794
0.0187524
0.0187225
0.0186896
0.0186542
0.0186162
0.0185756
0.0185329
0.0184884
0.0184421
0.0183938
0.018344
0.0182927
0.0182401
0.0181862
0.0181312
0.0180753
0.0180187
0.0179614
0.0179037
0.017846
0.0177887
0.0177319
0.0176759
0.0176207
0.0175668
0.0175145
0.0174645
0.0174173
0.0173735
0.0173335
0.0172976
0.0172661
0.0172391
0.0172169
0.0171997
0.0171878
0.0171818
0.0171821
0.0171861
0.0171951
0.0172094
0.0172284
0.0172519
0.0172796
0.0173111
0.0173461
0.0173841
0.017425
0.0174683
0.0175137
0.0175609
0.0176097
0.0176598
0.0177112
0.0177635
0.0157944
0.0158483
0.0159187
0.0160048
0.0161055
0.0162198
0.0163462
0.0164834
0.01663
0.0167846
0.0169459
0.0171129
0.017284
0.0174576
0.017632
0.0178057
0.0179774
0.018146
0.0183106
0.0184704
0.0186254
0.0187765
0.018923
0.0190628
0.0191938
0.0193152
0.0194262
0.0195269
0.0196173
0.0196977
0.0197684
0.0198301
0.0198832
0.0199282
0.0199653
0.0199945
0.0200165
0.0200319
0.0200412
0.0200448
0.0200445
0.0200422
0.0200368
0.0200278
0.0200157
0.0200005
0.0199824
0.019962
0.0199395
0.0199159
0.0198912
0.0198663
0.0198364
0.0198051
0.0197749
0.0197445
0.0197123
0.0196787
0.0196446
0.0196092
0.0195727
0.0195362
0.0194994
0.0194613
0.0194223
0.0193832
0.0193435
0.0193031
0.0192623
0.0192211
0.0191793
0.0191369
0.0190944
0.0190521
0.0190097
0.018967
0.0189237
0.0188802
0.0188373
0.0187958
0.0187564
0.0187197
0.0186857
0.0186541
0.0186249
0.0185984
0.0185753
0.0185563
0.018542
0.018533
0.0185308
0.0185329
0.0185402
0.0185522
0.0185703
0.0185921
0.0186187
0.0186497
0.0186846
0.0187227
0.0187638
0.0188069
0.0188513
0.0188966
0.0189426
0.0189891
0.0190357
0.0190821
0.0191276
0.0191719
0.019215
0.019257
0.0192978
0.0172176
0.0172648
0.0173449
0.0174536
0.0175873
0.0177414
0.0179118
0.0180944
0.0182856
0.0184823
0.018682
0.0188843
0.0190875
0.0192873
0.0194793
0.0196606
0.0198288
0.0199825
0.0201208
0.0202433
0.0203501
0.0204409
0.0205167
0.0205795
0.0206309
0.0206724
0.0207049
0.0207288
0.0207448
0.0207536
0.020755
0.0207529
0.0207469
0.0207368
0.0207232
0.0207063
0.0206866
0.0206645
0.0206403
0.020614
0.0205861
0.0205582
0.0205297
0.0205022
0.0204697
0.0204369
0.0204055
0.0203718
0.0203375
0.0203056
0.0202742
0.0202401
0.0202035
0.0201699
0.0201387
0.0201052
0.0200709
0.0200377
0.0200042
0.0199708
0.0199397
0.0199083
0.0198756
0.0198439
0.0198143
0.0197844
0.0197544
0.0197256
0.0196977
0.0196704
0.0196443
0.0196194
0.0195948
0.0195702
0.019546
0.0195229
0.0195017
0.0194829
0.0194663
0.0194515
0.019438
0.019426
0.0194158
0.0194071
0.0194011
0.0193994
0.0194008
0.0194063
0.0194156
0.0194282
0.0194417
0.0194589
0.0194794
0.0195007
0.0195249
0.0195511
0.019578
0.0196057
0.019634
0.0196621
0.0196896
0.0197169
0.0197442
0.0197705
0.0197951
0.0198185
0.0198406
0.0198618
0.0198824
0.019902
0.0199201
0.0199368
0.0199524
0.0198023
0.0196615
0.0195745
0.019544
0.0195561
0.0196089
0.0197016
0.0198236
0.0199648
0.0201168
0.0202722
0.0204247
0.0205688
0.0206996
0.0208144
0.0209131
0.0209966
0.0210659
0.0211225
0.0211675
0.021202
0.0212263
0.0212415
0.0212475
0.0212466
0.0212416
0.0212315
0.0212169
0.0211987
0.0211776
0.0211542
0.0211282
0.0211003
0.0210716
0.021042
0.0210113
0.0209804
0.0209509
0.0209161
0.0208814
0.0208477
0.0208117
0.0207755
0.0207412
0.0207083
0.0206728
0.0206359
0.0206002
0.0205642
0.0205267
0.020492
0.0204586
0.0204231
0.0203861
0.0203517
0.0203181
0.0202834
0.0202486
0.0202175
0.0201854
0.0201521
0.0201204
0.0200891
0.020057
0.0200275
0.0200005
0.0199723
0.0199445
0.0199194
0.0198955
0.019872
0.0198496
0.0198282
0.0198078
0.0197883
0.0197711
0.019757
0.0197448
0.0197337
0.0197239
0.0197161
0.0197099
0.0197049
0.0197026
0.0197044
0.0197103
0.0197181
0.0197277
0.0197394
0.0197535
0.0197695
0.0197861
0.0198052
0.0198264
0.0198483
0.0198714
0.0198952
0.0199184
0.0199416
0.0199639
0.0199847
0.0200045
0.0200237
0.0200417
0.0200577
0.0200728
0.020087
0.0201001
0.020112
0.0201233
0.0201333
0.0201422
0.0201505
0.0201583
0.0201649
0.022995
0.0226799
0.0224171
0.0222129
0.0220449
0.0219158
0.0218257
0.0217673
0.0217313
0.0217102
0.0216987
0.0216926
0.0216889
0.0216856
0.0216815
0.0216753
0.0216666
0.0216547
0.0216395
0.0216211
0.0216
0.0215765
0.021551
0.0215235
0.0214949
0.0214657
0.0214358
0.0214045
0.0213723
0.0213413
0.0213044
0.0212662
0.0212301
0.0211934
0.0211561
0.021119
0.0210827
0.0210462
0.0210084
0.0209706
0.020933
0.0208949
0.0208569
0.0208202
0.020784
0.0207468
0.0207096
0.0206728
0.0206359
0.0205993
0.0205644
0.0205295
0.0204936
0.0204585
0.020424
0.0203889
0.0203542
0.0203239
0.0202935
0.0202609
0.0202291
0.0201981
0.0201666
0.020138
0.0201116
0.0200841
0.0200566
0.0200333
0.0200106
0.0199877
0.0199665
0.0199464
0.0199268
0.0199097
0.0198945
0.0198798
0.0198665
0.0198545
0.0198437
0.0198348
0.0198288
0.0198279
0.0198291
0.0198323
0.0198369
0.0198431
0.0198515
0.0198621
0.0198755
0.0198911
0.0199085
0.0199274
0.0199476
0.0199677
0.0199883
0.0200094
0.0200299
0.020051
0.0200713
0.0200894
0.0201065
0.020123
0.0201381
0.0201522
0.0201655
0.020178
0.0201884
0.0201975
0.0202071
0.0202161
0.020224
0.0202312
0.0202371
0.0202417
0.0202462
0.0202504
0.0267688
0.0265543
0.0263187
0.026061
0.0257805
0.0254779
0.0251571
0.0248268
0.0244956
0.0241731
0.0238657
0.0235772
0.0233129
0.0230774
0.0228717
0.0226937
0.0225405
0.0224107
0.0222997
0.0222044
0.0221224
0.0220513
0.0219887
0.0219328
0.0218825
0.021836
0.0217923
0.0217515
0.0217138
0.0216716
0.0216303
0.021591
0.0215526
0.0215143
0.0214763
0.021439
0.0214017
0.0213628
0.0213236
0.0212854
0.0212473
0.0212089
0.0211713
0.0211344
0.0210968
0.0210587
0.0210211
0.0209834
0.0209454
0.0209076
0.0208712
0.0208348
0.0207979
0.0207614
0.0207249
0.0206881
0.0206524
0.020618
0.0205831
0.0205481
0.0205141
0.02048
0.0204449
0.0204124
0.0203834
0.0203525
0.0203203
0.0202899
0.020259
0.0202295
0.0202029
0.0201758
0.0201476
0.0201234
0.020101
0.0200772
0.0200555
0.0200367
0.0200178
0.0199991
0.019982
0.0199658
0.019951
0.0199383
0.0199281
0.0199215
0.0199172
0.0199147
0.0199131
0.0199132
0.0199146
0.0199182
0.0199243
0.0199335
0.0199456
0.01996
0.019975
0.0199897
0.0200054
0.0200221
0.0200393
0.0200577
0.0200764
0.0200947
0.0201139
0.0201314
0.0201466
0.0201611
0.0201763
0.0201905
0.0202036
0.0202156
0.0202262
0.0202373
0.0202473
0.0202564
0.0202649
0.0202725
0.0202788
0.020284
0.0202897
0.0202942
0.0202978
0.0268864
0.0267126
0.0265277
0.0263309
0.0261204
0.0258941
0.0256539
0.025401
0.0251362
0.0248636
0.0245871
0.0243098
0.0240361
0.023771
0.0235186
0.0232825
0.0230656
0.0228697
0.0226949
0.0225406
0.0224057
0.022288
0.0221857
0.0220967
0.0220193
0.0219509
0.0218896
0.0218346
0.0217839
0.0217346
0.0216878
0.0216439
0.0216022
0.0215613
0.0215214
0.0214828
0.0214438
0.0214044
0.0213653
0.0213269
0.0212882
0.0212495
0.0212122
0.0211749
0.0211369
0.0210991
0.0210619
0.0210247
0.0209871
0.0209504
0.0209149
0.0208789
0.0208428
0.0208073
0.0207716
0.0207358
0.0207015
0.0206677
0.0206332
0.0205999
0.0205669
0.0205333
0.0204991
0.0204692
0.0204405
0.0204093
0.0203788
0.0203494
0.02032
0.0202934
0.0202671
0.0202395
0.0202146
0.0201924
0.0201692
0.0201471
0.0201276
0.0201086
0.0200883
0.0200697
0.0200535
0.0200385
0.0200262
0.0200155
0.0200049
0.0199946
0.0199866
0.0199822
0.0199811
0.0199822
0.0199858
0.0199914
0.0199981
0.0200056
0.0200143
0.0200243
0.0200357
0.0200487
0.0200632
0.0200783
0.0200938
0.02011
0.0201258
0.0201416
0.0201583
0.0201739
0.0201877
0.0202005
0.0202135
0.0202275
0.0202406
0.0202528
0.0202642
0.0202748
0.0202839
0.0202945
0.0203038
0.0203117
0.0203189
0.0203253
0.0203303
0.0203354
0.0203394
0.0267493
0.0265885
0.026421
0.0262478
0.0260714
0.0258874
0.0257001
0.0255088
0.0253115
0.0251073
0.0248963
0.0246784
0.0244543
0.0242245
0.0239909
0.0237562
0.0235245
0.0232996
0.0230856
0.0228865
0.0227047
0.0225414
0.0223969
0.0222708
0.0221614
0.0220662
0.0219837
0.0219124
0.0218491
0.0217912
0.0217379
0.0216888
0.0216425
0.021598
0.0215558
0.0215151
0.0214744
0.0214343
0.0213951
0.0213564
0.0213176
0.0212796
0.0212428
0.0212057
0.0211682
0.0211315
0.0210954
0.021059
0.0210224
0.0209874
0.0209528
0.0209176
0.0208829
0.0208486
0.0208139
0.0207798
0.020747
0.0207135
0.0206807
0.0206499
0.0206182
0.0205853
0.0205537
0.0205257
0.0204971
0.0204666
0.0204377
0.0204091
0.0203827
0.0203577
0.0203314
0.0203058
0.0202833
0.0202617
0.0202385
0.0202177
0.0201983
0.0201811
0.0201614
0.0201437
0.0201278
0.0201131
0.0200995
0.0200872
0.020077
0.0200696
0.0200649
0.0200621
0.0200606
0.0200606
0.0200613
0.0200631
0.0200666
0.0200723
0.0200802
0.0200896
0.0200998
0.0201106
0.020122
0.0201338
0.0201461
0.0201595
0.0201733
0.0201869
0.0202014
0.0202156
0.020228
0.0202396
0.0202509
0.0202631
0.0202773
0.0202902
0.0203022
0.0203139
0.0203237
0.0203325
0.0203434
0.0203526
0.0203606
0.0203682
0.0203747
0.0203793
0.0203834
0.0265553
0.026408
0.026258
0.0261073
0.0259579
0.0258098
0.0256533
0.0254975
0.0253465
0.0251951
0.0250404
0.0248807
0.0247142
0.0245389
0.0243533
0.024157
0.0239505
0.0237351
0.0235145
0.0232938
0.0230786
0.022874
0.0226847
0.0225136
0.0223617
0.0222287
0.0221138
0.0220152
0.0219301
0.0218569
0.021792
0.0217337
0.0216803
0.021631
0.0215855
0.0215421
0.0214999
0.0214591
0.0214197
0.0213809
0.0213424
0.0213055
0.0212693
0.0212327
0.0211962
0.0211609
0.0211259
0.0210904
0.0210554
0.021022
0.0209883
0.0209543
0.0209213
0.0208882
0.0208547
0.0208228
0.020791
0.0207581
0.0207281
0.0206992
0.0206685
0.0206368
0.0206086
0.0205823
0.0205537
0.0205247
0.0204968
0.0204706
0.0204462
0.0204218
0.0203962
0.0203736
0.0203529
0.0203311
0.020309
0.0202892
0.0202697
0.0202529
0.0202355
0.0202176
0.0202016
0.020187
0.020175
0.0201649
0.020156
0.0201485
0.0201424
0.0201376
0.0201342
0.0201333
0.0201341
0.0201364
0.0201402
0.020145
0.0201506
0.0201569
0.020164
0.0201718
0.0201806
0.0201901
0.0202005
0.020212
0.0202236
0.020235
0.0202477
0.0202605
0.0202715
0.020282
0.020293
0.0203034
0.0203165
0.020331
0.0203435
0.0203553
0.0203668
0.0203761
0.0203855
0.0203959
0.020405
0.0204134
0.0204212
0.0204267
0.0204309
0.0204359
0.020441
0.0263488
0.0262203
0.0260934
0.0259681
0.0258442
0.0257201
0.0255926
0.0254685
0.025349
0.0252323
0.0251159
0.0249978
0.0248759
0.0247475
0.0246101
0.0244615
0.0242991
0.0241213
0.0239277
0.0237203
0.0235026
0.02328
0.0230594
0.0228476
0.0226505
0.0224717
0.0223125
0.0221713
0.022048
0.0219443
0.0218603
0.0217903
0.0217273
0.0216708
0.0216198
0.0215722
0.0215272
0.021485
0.0214446
0.0214052
0.021367
0.0213308
0.021295
0.0212589
0.0212237
0.0211897
0.0211556
0.021121
0.021088
0.0210558
0.0210229
0.0209907
0.0209591
0.0209268
0.0208955
0.0208655
0.0208343
0.0208037
0.0207758
0.0207479
0.020718
0.020689
0.0206631
0.0206379
0.0206098
0.0205822
0.0205564
0.0205323
0.0205096
0.0204851
0.020462
0.0204405
0.0204211
0.0204001
0.0203789
0.0203597
0.0203408
0.0203237
0.0203072
0.0202911
0.0202763
0.0202632
0.0202517
0.0202413
0.0202322
0.0202245
0.0202185
0.0202142
0.0202114
0.0202101
0.02021
0.0202106
0.0202122
0.0202148
0.0202186
0.0202235
0.0202293
0.0202357
0.0202425
0.02025
0.0202581
0.0202671
0.0202763
0.020286
0.0202968
0.0203084
0.0203184
0.0203277
0.0203378
0.0203479
0.0203597
0.020375
0.020388
0.0203997
0.0204115
0.0204229
0.0204319
0.0204408
0.0204513
0.0204607
0.0204695
0.0204763
0.0204809
0.0204859
0.0204921
0.0261679
0.0260576
0.0259518
0.0258501
0.0257516
0.0256546
0.0255521
0.0254511
0.0253536
0.0252591
0.0251665
0.0250746
0.0249814
0.0248848
0.0247827
0.0246726
0.0245516
0.0244168
0.0242655
0.0240958
0.0239072
0.0237009
0.0234808
0.0232531
0.0230253
0.0228056
0.0226009
0.0224166
0.0222544
0.0221126
0.0219893
0.0218823
0.0217954
0.0217259
0.0216653
0.0216108
0.0215611
0.0215156
0.0214729
0.021432
0.0213936
0.0213573
0.0213215
0.0212858
0.0212518
0.0212188
0.0211853
0.0211518
0.0211208
0.0210894
0.0210575
0.0210272
0.0209966
0.0209655
0.0209368
0.0209079
0.0208777
0.0208497
0.0208235
0.0207961
0.0207672
0.0207413
0.0207169
0.0206922
0.0206648
0.0206391
0.0206158
0.0205936
0.0205717
0.0205482
0.0205269
0.0205061
0.0204869
0.0204675
0.0204475
0.0204288
0.0204108
0.0203942
0.0203785
0.0203634
0.0203494
0.0203368
0.0203257
0.0203161
0.0203077
0.0203005
0.0202945
0.0202896
0.0202859
0.0202834
0.0202823
0.0202824
0.0202834
0.0202852
0.0202877
0.0202908
0.0202946
0.0202989
0.0203039
0.0203096
0.0203162
0.0203234
0.0203312
0.0203394
0.0203486
0.0203587
0.0203679
0.0203761
0.0203851
0.0203944
0.020406
0.0204215
0.0204345
0.020446
0.0204578
0.02047
0.0204807
0.0204887
0.0204986
0.0205093
0.0205192
0.0205274
0.0205327
0.0205379
0.0205446
0.0261246
0.0260262
0.0259332
0.0258458
0.0257636
0.0256865
0.0256119
0.025531
0.0254485
0.0253682
0.0252901
0.0252134
0.0251372
0.0250609
0.0249835
0.0249035
0.024819
0.0247277
0.0246269
0.0245139
0.0243856
0.0242388
0.0240713
0.023882
0.023672
0.0234456
0.02321
0.022974
0.0227466
0.0225351
0.0223445
0.0221782
0.0220372
0.0219173
0.0218159
0.0217337
0.0216654
0.0216067
0.0215549
0.0215077
0.021464
0.021424
0.0213866
0.0213501
0.0213145
0.0212815
0.0212489
0.0212155
0.021184
0.0211541
0.021123
0.0210931
0.0210642
0.0210341
0.0210053
0.0209782
0.02095
0.0209216
0.0208956
0.0208706
0.0208437
0.0208169
0.0207929
0.02077
0.0207455
0.0207193
0.0206959
0.0206741
0.0206538
0.0206316
0.0206103
0.0205905
0.0205706
0.0205518
0.0205333
0.0205147
0.0204968
0.0204797
0.0204637
0.0204487
0.0204343
0.0204209
0.0204088
0.0203982
0.0203888
0.0203806
0.0203734
0.0203672
0.0203621
0.0203582
0.0203553
0.0203536
0.0203529
0.020353
0.0203536
0.0203549
0.0203567
0.0203592
0.0203622
0.0203658
0.02037
0.0203748
0.0203803
0.0203865
0.0203934
0.0204011
0.0204097
0.0204187
0.0204261
0.0204341
0.0204424
0.0204546
0.0204696
0.0204821
0.0204931
0.0205047
0.0205169
0.020529
0.0205379
0.0205461
0.0205573
0.0205684
0.0205783
0.0205843
0.0205897
0.0205969
0.0260079
0.0259254
0.0258482
0.0257763
0.0257094
0.0256475
0.0255887
0.0255253
0.0254568
0.0253903
0.0253252
0.0252606
0.0251961
0.0251313
0.0250657
0.0249988
0.0249298
0.0248572
0.0247792
0.0246936
0.0245976
0.0244883
0.0243619
0.024215
0.0240447
0.02385
0.0236325
0.0233971
0.0231516
0.0229062
0.0226715
0.0224558
0.0222646
0.0220994
0.021959
0.0218411
0.0217466
0.0216717
0.0216085
0.0215535
0.0215045
0.021461
0.0214211
0.0213827
0.0213469
0.0213139
0.021281
0.0212479
0.0212182
0.0211886
0.0211581
0.0211301
0.021102
0.021073
0.0210461
0.02102
0.0209924
0.0209662
0.0209415
0.0209175
0.0208912
0.0208668
0.0208441
0.0208226
0.0207981
0.0207737
0.0207521
0.0207313
0.0207116
0.0206908
0.0206711
0.0206523
0.0206335
0.0206154
0.0205979
0.0205807
0.0205639
0.0205476
0.0205323
0.0205179
0.0205043
0.0204915
0.0204798
0.0204693
0.0204601
0.0204519
0.0204446
0.0204383
0.020433
0.0204286
0.0204252
0.0204226
0.020421
0.02042
0.0204199
0.0204201
0.020421
0.0204223
0.0204243
0.0204267
0.0204298
0.0204334
0.0204377
0.0204426
0.0204483
0.0204546
0.0204615
0.0204693
0.0204763
0.0204836
0.0204916
0.0205036
0.0205179
0.02053
0.0205407
0.0205521
0.0205643
0.0205767
0.0205871
0.0205949
0.020605
0.0206174
0.0206287
0.0206363
0.0206421
0.0206499
0.0206578
0.0206637
0.0259312
0.0258629
0.0257993
0.0257403
0.0256852
0.0256334
0.0255839
0.0255327
0.0254754
0.0254191
0.0253639
0.025309
0.0252537
0.0251978
0.0251411
0.0250835
0.0250245
0.0249635
0.0248996
0.0248317
0.0247577
0.0246752
0.0245814
0.0244724
0.0243444
0.0241935
0.0240169
0.0238132
0.0235846
0.0233369
0.0230799
0.0228257
0.0225857
0.0223689
0.0221802
0.0220204
0.0218858
0.0217745
0.0216876
0.0216177
0.0215589
0.0215088
0.0214639
0.0214222
0.0213852
0.0213509
0.0213166
0.0212844
0.0212553
0.0212253
0.021196
0.0211691
0.0211413
0.0211139
0.0210883
0.0210628
0.0210362
0.0210117
0.0209884
0.0209646
0.0209395
0.020917
0.0208954
0.0208751
0.0208507
0.0208281
0.0208078
0.020788
0.0207687
0.0207496
0.0207311
0.0207131
0.0206954
0.0206782
0.0206615
0.0206452
0.0206293
0.0206142
0.0205999
0.0205865
0.0205738
0.0205617
0.0205504
0.02054
0.0205308
0.0205226
0.0205153
0.0205089
0.0205034
0.0204986
0.0204946
0.0204913
0.0204887
0.0204868
0.0204856
0.0204848
0.0204846
0.0204849
0.0204857
0.020487
0.0204888
0.0204912
0.0204943
0.0204981
0.0205028
0.0205083
0.0205142
0.0205209
0.0205276
0.0205342
0.0205413
0.0205522
0.0205655
0.020577
0.0205873
0.0205985
0.0206107
0.020623
0.0206346
0.020643
0.0206522
0.0206654
0.0206778
0.0206872
0.0206939
0.0207018
0.0207103
0.0207175
0.0258901
0.0258341
0.0257814
0.025732
0.0256856
0.0256412
0.0255985
0.0255549
0.0255067
0.0254579
0.0254096
0.0253616
0.0253128
0.0252632
0.0252136
0.0251635
0.0251124
0.0250599
0.0250054
0.0249487
0.0248889
0.0248244
0.024753
0.0246719
0.0245779
0.024467
0.0243348
0.0241768
0.0239896
0.0237725
0.0235286
0.0232661
0.0229971
0.0227353
0.0224928
0.0222778
0.0220942
0.0219415
0.0218149
0.0217138
0.0216364
0.0215739
0.0215202
0.021473
0.0214326
0.0213953
0.0213587
0.0213269
0.021297
0.0212663
0.0212381
0.0212115
0.0211838
0.0211576
0.021133
0.0211076
0.0210825
0.0210591
0.0210369
0.0210129
0.0209895
0.0209683
0.0209476
0.0209279