/*--------------------------------*- C++ -*----------------------------------*\
| =========                 |                                                 |
| \\      /  F ield         | OpenFOAM: The Open Source CFD Toolbox           |
|  \\    /   O peration     | Version:  v1706                                 |
|   \\  /    A nd           | Web:      www.OpenFOAM.com                      |
|    \\/     M anipulation  |                                                 |
\*---------------------------------------------------------------------------*/
FoamFile
{
    version     2.0;
    format      ascii;
    class       volScalarField;
    location    "2e-05";
    object      Mach;
}
// * * * * * * * * * * * * * * * * * * * * * * * * * * * * * * * * * * * * * //

dimensions      [0 0 0 0 0 0 0];


internalField   nonuniform List<scalar> 
29871
(
3.99497
3.99497
3.99497
3.99497
3.99497
3.99497
3.99497
3.99497
3.99497
3.99497
3.99497
3.99497
3.99497
3.99497
3.99497
3.99497
3.99496
3.99496
3.99496
3.99496
3.99496
3.99496
3.99496
3.99496
3.99495
3.99495
3.99495
3.99495
3.99495
3.99495
3.99495
3.99494
3.99494
3.99494
3.99494
3.99494
3.99494
3.99494
3.99494
3.99493
3.99493
3.99493
3.99493
3.99493
3.99493
3.99493
3.99493
3.99493
3.99493
3.99493
3.99493
3.99493
3.99493
3.99493
3.99493
3.99493
3.99493
3.99493
3.99493
3.99493
3.99493
3.99494
3.99494
3.99494
3.99494
3.99494
3.99494
3.99494
3.99494
3.99495
3.99495
3.99495
3.99495
3.99495
3.99495
3.99495
3.99495
3.99495
3.99496
3.99496
3.99496
3.99496
3.99496
3.99496
3.99496
3.99496
3.99496
3.99496
3.99496
3.99496
3.99496
3.99496
3.99496
3.99496
3.99496
3.99496
3.99496
3.99496
3.99496
3.99496
3.99496
3.99496
3.99496
3.99496
3.99496
3.99496
3.99496
3.99496
3.99495
3.99495
3.99495
3.99495
3.99494
3.99494
3.99493
3.99493
3.99493
3.99492
3.99492
3.99491
3.9949
3.9949
3.99489
3.99489
3.99488
3.99487
3.99486
3.99486
3.99485
3.99484
3.99483
3.99482
3.99481
3.99481
3.9948
3.99479
3.99478
3.99477
3.99476
3.99476
3.99475
3.99474
3.99473
3.99473
3.99472
3.99471
3.99471
3.9947
3.9947
3.9947
3.99469
3.99469
3.99469
3.99469
3.99468
3.99468
3.99469
3.99469
3.99469
3.99469
3.99469
3.9947
3.9947
3.99471
3.99471
3.99472
3.99472
3.99473
3.99474
3.99474
3.99475
3.99476
3.99476
3.99477
3.99478
3.99479
3.99479
3.9948
3.99481
3.99482
3.99482
3.99483
3.99483
3.99484
3.99485
3.99485
3.99486
3.99486
3.99487
3.99487
3.99487
3.99488
3.99488
3.99488
3.99489
3.99489
3.99489
3.99489
3.99489
3.99489
3.99489
3.99489
3.99489
3.99489
3.99489
3.99489
3.99489
3.99489
3.99489
3.99489
3.99493
3.99492
3.99492
3.99491
3.9949
3.99489
3.99488
3.99487
3.99486
3.99485
3.99484
3.99482
3.99481
3.99479
3.99478
3.99476
3.99474
3.99472
3.9947
3.99468
3.99466
3.99464
3.99461
3.99459
3.99456
3.99454
3.99451
3.99448
3.99446
3.99443
3.9944
3.99438
3.99435
3.99432
3.99429
3.99427
3.99424
3.99422
3.9942
3.99417
3.99415
3.99413
3.99412
3.9941
3.99409
3.99407
3.99406
3.99405
3.99405
3.99404
3.99404
3.99404
3.99404
3.99404
3.99405
3.99406
3.99407
3.99408
3.99409
3.9941
3.99412
3.99414
3.99416
3.99418
3.9942
3.99422
3.99424
3.99426
3.99429
3.99431
3.99433
3.99436
3.99438
3.9944
3.99443
3.99445
3.99447
3.99449
3.99451
3.99453
3.99455
3.99457
3.99458
3.9946
3.99461
3.99462
3.99464
3.99465
3.99466
3.99466
3.99467
3.99468
3.99468
3.99469
3.99469
3.99469
3.99469
3.99469
3.99469
3.99469
3.99469
3.99469
3.99469
3.99469
3.99468
3.99468
3.99484
3.99482
3.99481
3.99479
3.99476
3.99474
3.99471
3.99469
3.99466
3.99462
3.99459
3.99455
3.99451
3.99447
3.99442
3.99437
3.99432
3.99427
3.99421
3.99415
3.99409
3.99403
3.99396
3.99389
3.99382
3.99375
3.99368
3.99361
3.99353
3.99346
3.99338
3.99331
3.99323
3.99316
3.99309
3.99302
3.99295
3.99289
3.99282
3.99276
3.99271
3.99265
3.99261
3.99256
3.99252
3.99249
3.99246
3.99244
3.99242
3.99241
3.9924
3.9924
3.9924
3.99242
3.99243
3.99245
3.99248
3.99251
3.99254
3.99258
3.99263
3.99267
3.99273
3.99278
3.99284
3.99289
3.99296
3.99302
3.99308
3.99314
3.99321
3.99327
3.99333
3.9934
3.99346
3.99352
3.99358
3.99363
3.99369
3.99374
3.99379
3.99383
3.99387
3.99392
3.99395
3.99399
3.99402
3.99404
3.99407
3.99409
3.99411
3.99412
3.99414
3.99415
3.99415
3.99416
3.99416
3.99416
3.99416
3.99416
3.99415
3.99415
3.99414
3.99413
3.99412
3.99411
3.99465
3.99461
3.99457
3.99452
3.99447
3.99441
3.99434
3.99427
3.9942
3.99412
3.99403
3.99394
3.99384
3.99373
3.99362
3.9935
3.99337
3.99324
3.9931
3.99295
3.9928
3.99264
3.99248
3.99231
3.99213
3.99195
3.99177
3.99158
3.99139
3.9912
3.99101
3.99082
3.99063
3.99044
3.99025
3.99007
3.98989
3.98972
3.98955
3.98939
3.98924
3.9891
3.98897
3.98885
3.98875
3.98865
3.98857
3.9885
3.98844
3.9884
3.98838
3.98836
3.98837
3.98838
3.98841
3.98845
3.98851
3.98858
3.98866
3.98875
3.98886
3.98897
3.98909
3.98922
3.98936
3.98951
3.98966
3.98981
3.98997
3.99013
3.99029
3.99045
3.99061
3.99077
3.99093
3.99108
3.99123
3.99138
3.99152
3.99165
3.99178
3.9919
3.99201
3.99212
3.99222
3.99231
3.99239
3.99247
3.99253
3.99259
3.99264
3.99268
3.99272
3.99274
3.99276
3.99278
3.99278
3.99278
3.99278
3.99277
3.99276
3.99274
3.99272
3.99269
3.99266
3.99263
3.99259
3.99413
3.99403
3.99391
3.99379
3.99365
3.9935
3.99334
3.99316
3.99296
3.99276
3.99254
3.9923
3.99204
3.99177
3.99149
3.99118
3.99086
3.99053
3.99017
3.9898
3.98942
3.98902
3.9886
3.98818
3.98774
3.98729
3.98684
3.98638
3.98591
3.98544
3.98497
3.98451
3.98404
3.98358
3.98313
3.98269
3.98227
3.98186
3.98146
3.98109
3.98073
3.9804
3.9801
3.97982
3.97957
3.97936
3.97917
3.97902
3.9789
3.97881
3.97876
3.97875
3.97877
3.97883
3.97891
3.97902
3.97917
3.97934
3.97955
3.97979
3.98004
3.98033
3.98063
3.98095
3.98129
3.98164
3.98201
3.98238
3.98276
3.98314
3.98353
3.98392
3.98431
3.98469
3.98506
3.98543
3.98579
3.98613
3.98647
3.98679
3.98709
3.98738
3.98764
3.98789
3.98812
3.98833
3.98852
3.98869
3.98884
3.98897
3.98908
3.98916
3.98923
3.98929
3.98932
3.98934
3.98934
3.98932
3.9893
3.98926
3.98921
3.98915
3.98908
3.989
3.98891
3.98882
3.98871
3.99346
3.99326
3.99305
3.99281
3.99255
3.99226
3.99194
3.9916
3.99122
3.99081
3.99037
3.98989
3.98937
3.98881
3.98822
3.98759
3.98691
3.9862
3.98544
3.98465
3.98382
3.98295
3.98205
3.98112
3.98016
3.97916
3.97814
3.9771
3.97603
3.97495
3.97385
3.97274
3.97162
3.97051
3.9694
3.9683
3.96722
3.96617
3.96515
3.96416
3.96322
3.96232
3.96147
3.96068
3.95994
3.95927
3.95866
3.95813
3.95766
3.95728
3.95696
3.95673
3.95658
3.95651
3.95652
3.9566
3.95677
3.957
3.95729
3.95767
3.95812
3.95863
3.9592
3.95983
3.9605
3.96123
3.96199
3.9628
3.96363
3.96448
3.96536
3.96625
3.96715
3.96805
3.96895
3.96984
3.97072
3.97159
3.97243
3.97325
3.97404
3.9748
3.97552
3.97621
3.97685
3.97745
3.978
3.97851
3.97897
3.97938
3.97975
3.98006
3.98033
3.98055
3.98072
3.98084
3.98092
3.98096
3.98096
3.98091
3.98085
3.98076
3.98062
3.98046
3.98027
3.98005
3.97982
3.97956
3.97928
3.97899
3.99112
3.99065
3.99012
3.98954
3.98889
3.98818
3.9874
3.98655
3.98561
3.9846
3.9835
3.98233
3.98106
3.97971
3.97828
3.97675
3.97513
3.97343
3.97163
3.96974
3.96776
3.96569
3.96354
3.96133
3.95904
3.95671
3.95432
3.95189
3.94943
3.94694
3.94443
3.94191
3.9394
3.9369
3.93444
3.93201
3.92964
3.92734
3.92512
3.92298
3.92095
3.91903
3.91724
3.91557
3.91404
3.91266
3.91143
3.91036
3.90945
3.90871
3.90815
3.90775
3.90754
3.90751
3.90764
3.90794
3.90842
3.90898
3.90973
3.91065
3.91171
3.9129
3.91423
3.91566
3.91721
3.91884
3.92056
3.92236
3.92421
3.92611
3.92805
3.93002
3.932
3.93398
3.93596
3.93792
3.93985
3.94174
3.94358
3.94537
3.94708
3.94873
3.95029
3.95177
3.95315
3.95443
3.95561
3.95668
3.95763
3.95848
3.95921
3.95983
3.96033
3.96073
3.96101
3.96119
3.96127
3.96124
3.96111
3.96096
3.96071
3.96037
3.95995
3.95947
3.95892
3.95832
3.95766
3.95696
3.95621
3.95542
3.98533
3.9842
3.98294
3.98153
3.97997
3.97825
3.97638
3.97433
3.9721
3.9697
3.9671
3.96431
3.96131
3.95812
3.95472
3.95113
3.94734
3.94336
3.93919
3.93484
3.93032
3.92564
3.92083
3.9159
3.91086
3.90572
3.90051
3.89524
3.88993
3.88459
3.87925
3.87392
3.86863
3.8634
3.85826
3.85324
3.84837
3.84369
3.83921
3.83497
3.83097
3.82724
3.8238
3.82066
3.81783
3.81531
3.81311
3.81125
3.80972
3.80853
3.8077
3.80722
3.80709
3.80731
3.80785
3.80874
3.80989
3.81126
3.81301
3.81506
3.81739
3.81998
3.8228
3.82585
3.82909
3.83251
3.83609
3.83981
3.84363
3.84755
3.85153
3.85556
3.85961
3.86366
3.86769
3.87168
3.8756
3.87944
3.88317
3.88679
3.89026
3.89357
3.8967
3.89964
3.90238
3.90491
3.90722
3.90929
3.91113
3.91273
3.91409
3.91519
3.91604
3.91665
3.91701
3.91715
3.91703
3.91669
3.91631
3.91569
3.91486
3.91385
3.91268
3.91136
3.9099
3.90832
3.90662
3.90482
3.90292
3.90093
3.97115
3.96857
3.96566
3.96241
3.95879
3.95481
3.95044
3.94568
3.94052
3.93496
3.92899
3.92261
3.91585
3.9087
3.90118
3.8933
3.88505
3.87645
3.86749
3.85819
3.84858
3.8387
3.82861
3.81837
3.80803
3.79764
3.78725
3.77689
3.76659
3.7564
3.74633
3.73642
3.72671
3.71723
3.70804
3.69918
3.69071
3.68266
3.67507
3.66796
3.66138
3.65534
3.64987
3.64498
3.64067
3.63695
3.63383
3.63128
3.62932
3.62796
3.62722
3.6271
3.62756
3.62854
3.63014
3.63225
3.63459
3.63754
3.64104
3.64503
3.64945
3.6543
3.65953
3.6651
3.671
3.67718
3.68362
3.69028
3.69712
3.70411
3.71121
3.71839
3.72562
3.73285
3.74005
3.74719
3.75422
3.7611
3.7678
3.77427
3.78048
3.7864
3.792
3.79724
3.8021
3.80655
3.81056
3.81412
3.81719
3.81979
3.82189
3.82351
3.82462
3.82523
3.82536
3.82499
3.82418
3.82327
3.82183
3.81996
3.81773
3.81517
3.8123
3.80914
3.80573
3.80208
3.79822
3.79415
3.7899
3.78549
3.93733
3.93168
3.92526
3.91805
3.91007
3.90131
3.89178
3.88148
3.8704
3.85855
3.84591
3.83249
3.81835
3.80356
3.78818
3.77228
3.75592
3.73913
3.72195
3.70444
3.68665
3.6687
3.6507
3.63277
3.61499
3.59746
3.58024
3.5634
3.54701
3.53108
3.51567
3.5008
3.48651
3.47282
3.45979
3.44745
3.43588
3.42513
3.41524
3.40622
3.39809
3.39087
3.38457
3.37917
3.37468
3.37106
3.36829
3.36631
3.36509
3.36467
3.36518
3.36642
3.36845
3.3711
3.37466
3.37833
3.38261
3.38772
3.39347
3.39982
3.40672
3.41413
3.422
3.43031
3.43902
3.44809
3.45747
3.46714
3.47706
3.48718
3.49746
3.50785
3.51832
3.52882
3.53928
3.54966
3.5599
3.56995
3.57975
3.58923
3.59834
3.60701
3.61517
3.62277
3.62975
3.63607
3.64167
3.64653
3.65061
3.65389
3.65634
3.65791
3.65864
3.65846
3.65742
3.65566
3.65372
3.65078
3.64711
3.64281
3.63795
3.63257
3.62671
3.62042
3.61375
3.60673
3.5994
3.5918
3.58395
3.57588
3.86921
3.8598
3.84869
3.83591
3.8215
3.8055
3.788
3.7691
3.74887
3.72741
3.70479
3.6811
3.65648
3.63113
3.60522
3.57893
3.55239
3.52573
3.49904
3.47239
3.44579
3.41932
3.39317
3.36764
3.34293
3.3192
3.29654
3.27502
3.25469
3.23554
3.21758
3.20078
3.18512
3.17061
3.15721
3.1449
3.13365
3.12348
3.1144
3.10646
3.09964
3.09389
3.08921
3.08561
3.08306
3.08148
3.08081
3.08102
3.08202
3.08361
3.08594
3.08897
3.09282
3.0981
3.10253
3.1079
3.11383
3.12019
3.12714
3.13465
3.14266
3.15108
3.15987
3.16898
3.17841
3.18815
3.19816
3.20842
3.2189
3.22958
3.24043
3.25143
3.26253
3.27371
3.28492
3.2961
3.30721
3.31819
3.329
3.33956
3.34977
3.35953
3.36876
3.37736
3.38525
3.39238
3.39864
3.40399
3.40835
3.41166
3.41388
3.41496
3.41486
3.41369
3.41098
3.40792
3.40425
3.39924
3.39329
3.38655
3.37911
3.37105
3.36246
3.3534
3.34395
3.33418
3.32413
3.31386
3.30341
3.29283
3.28216
3.71159
3.69644
3.67788
3.65616
3.63159
3.6045
3.57527
3.54426
3.51177
3.4781
3.44342
3.40787
3.37176
3.33558
3.2998
3.26478
3.23078
3.19798
3.16646
3.13625
3.10727
3.07927
3.05239
3.02713
3.0038
2.98253
2.96333
2.94619
2.93104
2.91779
2.90634
2.89654
2.8883
2.88155
2.87628
2.87246
2.86994
2.86861
2.86834
2.86897
2.87025
2.87204
2.87444
2.87741
2.88093
2.88505
2.88955
2.89444
2.8998
2.90532
2.911
2.91698
2.92234
2.92925
2.93622
2.9427
2.94931
2.95632
2.96354
2.97085
2.97824
2.98574
2.99336
3.00113
3.009
3.01688
3.02479
3.03276
3.04077
3.04878
3.05681
3.06483
3.07282
3.0808
3.08877
3.09673
3.1046
3.11226
3.11957
3.12648
3.13296
3.139
3.14457
3.14963
3.15408
3.15778
3.16058
3.16239
3.16314
3.16281
3.16138
3.15909
3.15513
3.15078
3.1462
3.14008
3.13318
3.12554
3.11726
3.10849
3.09937
3.09002
3.08055
3.07102
3.06151
3.05206
3.04274
3.03364
3.02481
3.01627
3.00804
3.0001
2.99247
3.42194
3.40491
3.38228
3.35471
3.32294
3.2879
3.25058
3.21186
3.1725
3.13308
3.09397
3.05517
3.01692
2.98005
2.94527
2.91304
2.88364
2.85718
2.83371
2.81323
2.79573
2.78119
2.76933
2.75976
2.7522
2.74647
2.74243
2.73991
2.73869
2.73859
2.73949
2.74108
2.74334
2.74625
2.7497
2.75364
2.75808
2.76303
2.76833
2.77403
2.78016
2.78637
2.79257
2.79908
2.80445
2.81137
2.81838
2.82512
2.83239
2.83982
2.84656
2.85333
2.86032
2.86826
2.87553
2.88246
2.88959
2.89656
2.9033
2.91024
2.91736
2.92413
2.93095
2.93769
2.94421
2.9505
2.95677
2.96286
2.96866
2.97426
2.97971
2.98496
2.99004
2.99494
2.99948
3.00356
3.00721
3.01049
3.01341
3.01597
3.01818
3.01984
3.02079
3.02093
3.02023
3.0187
3.01655
3.01366
3.01
3.00567
3.00038
2.99605
2.99003
2.98352
2.97683
2.96978
2.96258
2.95539
2.94828
2.94131
2.93452
2.92795
2.92164
2.91573
2.91025
2.9051
2.90023
2.89565
2.89135
2.88744
2.88395
2.8808
2.87792
3.0102
3.01763
3.01477
3.00382
2.98704
2.96494
2.93807
2.90798
2.87617
2.844
2.81265
2.78311
2.75619
2.73253
2.71232
2.69531
2.68126
2.66991
2.66102
2.65437
2.64978
2.64703
2.64585
2.64603
2.64722
2.64915
2.65184
2.65518
2.65905
2.66338
2.66822
2.6738
2.67977
2.68596
2.69248
2.69912
2.70599
2.71307
2.71885
2.72633
2.73361
2.74055
2.74836
2.75628
2.76384
2.7705
2.77797
2.78572
2.79318
2.80055
2.80898
2.81644
2.82351
2.83075
2.83873
2.84614
2.85345
2.86054
2.868
2.87453
2.88132
2.88828
2.89497
2.90126
2.90792
2.91403
2.91984
2.92559
2.93121
2.9363
2.94128
2.94611
2.95059
2.95468
2.95835
2.96186
2.96516
2.9679
2.97021
2.97222
2.97371
2.97449
2.97435
2.97333
2.97241
2.97055
2.96771
2.96463
2.9612
2.95706
2.95196
2.94607
2.9403
2.93404
2.92747
2.92085
2.91403
2.90725
2.90075
2.89446
2.8884
2.88273
2.87752
2.87265
2.86798
2.86379
2.86003
2.85661
2.85356
2.85079
2.84821
2.84596
2.84405
2.84243
2.84107
2.6007
2.61212
2.62149
2.62681
2.62483
2.6196
2.6129
2.60543
2.59768
2.59022
2.58356
2.57805
2.57393
2.57123
2.56988
2.56975
2.57071
2.57264
2.57535
2.5787
2.58258
2.58692
2.59187
2.59757
2.60365
2.60995
2.61655
2.62329
2.63024
2.63761
2.64346
2.65112
2.65909
2.66667
2.67433
2.68222
2.69011
2.69759
2.70507
2.71284
2.72048
2.72808
2.73587
2.74393
2.75154
2.75903
2.76675
2.77438
2.7819
2.78968
2.79763
2.80507
2.81252
2.82018
2.82756
2.83475
2.84195
2.84985
2.85647
2.86327
2.87041
2.87697
2.88302
2.89002
2.89619
2.90187
2.90752
2.91362
2.91845
2.92316
2.9278
2.93186
2.93602
2.94024
2.94376
2.94664
2.94936
2.95165
2.95326
2.95427
2.95472
2.95455
2.954
2.95317
2.95149
2.94915
2.94617
2.94263
2.93833
2.93329
2.92799
2.9226
2.91691
2.91068
2.90453
2.89813
2.89168
2.88553
2.87928
2.87357
2.86847
2.86337
2.85835
2.85402
2.8502
2.8466
2.8431
2.84011
2.83766
2.83513
2.83295
2.83129
2.82963
2.82827
2.8273
2.82644
2.37421
2.37968
2.38484
2.38983
2.39497
2.4006
2.4069
2.41382
2.42143
2.42975
2.4377
2.44514
2.45251
2.46011
2.46772
2.47497
2.48199
2.48903
2.49572
2.50241
2.50916
2.5159
2.52267
2.52946
2.53652
2.54347
2.55065
2.55814
2.56557
2.57199
2.57982
2.58767
2.59528
2.60273
2.6102
2.61777
2.62503
2.63235
2.64001
2.64772
2.65537
2.66316
2.67124
2.67913
2.68695
2.69491
2.70288
2.7107
2.71844
2.72632
2.73423
2.74185
2.7496
2.75739
2.76498
2.77247
2.78025
2.78781
2.79512
2.80277
2.81025
2.81743
2.82433
2.83215
2.83933
2.84564
2.85267
2.8596
2.86568
2.87256
2.87901
2.88457
2.89008
2.89639
2.90145
2.90596
2.9111
2.91573
2.91944
2.92366
2.92749
2.93055
2.93354
2.93604
2.93826
2.94041
2.94216
2.94301
2.94242
2.94142
2.94
2.9379
2.93521
2.9322
2.9289
2.9252
2.92078
2.91579
2.91066
2.90516
2.89946
2.89361
2.88751
2.8817
2.87612
2.87004
2.86474
2.86018
2.85564
2.85087
2.84646
2.84243
2.83876
2.83598
2.83295
2.83016
2.82776
2.82542
2.82343
2.82194
2.82087
2.81962
2.81867
2.33078
2.33514
2.33909
2.34247
2.34539
2.34826
2.35162
2.35579
2.36102
2.36726
2.3745
2.38284
2.3923
2.40275
2.41391
2.42549
2.43725
2.44889
2.46024
2.47126
2.48185
2.49197
2.50169
2.51113
2.52027
2.52905
2.53758
2.5459
2.55369
2.56135
2.56912
2.57701
2.58492
2.59281
2.6009
2.60894
2.61687
2.62485
2.63287
2.64079
2.64855
2.65643
2.66446
2.6722
2.67999
2.68798
2.6959
2.70367
2.7114
2.71936
2.72713
2.73471
2.74251
2.75024
2.75776
2.76532
2.77298
2.78026
2.7875
2.79496
2.80195
2.80889
2.81572
2.82335
2.82976
2.83607
2.84322
2.84954
2.85594
2.86272
2.86836
2.87377
2.87996
2.88556
2.89007
2.89521
2.90005
2.904
2.90744
2.91161
2.91528
2.91855
2.92202
2.92478
2.92643
2.92752
2.92834
2.92869
2.92849
2.92798
2.92708
2.92564
2.9236
2.92091
2.91766
2.91397
2.90993
2.90559
2.90099
2.89618
2.89125
2.8861
2.88037
2.87506
2.86991
2.86422
2.85917
2.85461
2.85043
2.84626
2.84179
2.8376
2.83386
2.83033
2.8272
2.8249
2.82216
2.81967
2.81751
2.81565
2.81409
2.81301
2.81192
2.2921
2.29861
2.30486
2.31091
2.31663
2.32095
2.32579
2.33132
2.33743
2.34424
2.35176
2.36005
2.36915
2.37907
2.38978
2.40124
2.4133
2.42574
2.43835
2.45091
2.46319
2.47505
2.48646
2.49737
2.50766
2.51734
2.52659
2.53546
2.54409
2.55283
2.56156
2.56997
2.57797
2.58591
2.59402
2.60197
2.60989
2.61791
2.62591
2.63376
2.64156
2.64957
2.65748
2.66522
2.67312
2.68111
2.68893
2.69663
2.70435
2.7122
2.71973
2.72728
2.73504
2.74259
2.75
2.75756
2.76489
2.77183
2.77941
2.7869
2.79369
2.8004
2.80747
2.81443
2.82038
2.82688
2.83351
2.8396
2.8463
2.85239
2.85762
2.8634
2.86918
2.874
2.87862
2.88385
2.88825
2.89252
2.89563
2.89975
2.90316
2.90641
2.9091
2.91133
2.91326
2.91472
2.9157
2.91623
2.91631
2.91585
2.91483
2.91327
2.91128
2.90889
2.90615
2.90306
2.89966
2.89596
2.89201
2.88782
2.88347
2.87895
2.87382
2.86887
2.86408
2.85885
2.85391
2.84952
2.84523
2.84155
2.8376
2.83319
2.82917
2.82549
2.82184
2.81902
2.81674
2.81402
2.81168
2.80961
2.80783
2.80625
2.80516
2.26382
2.27075
2.27795
2.28545
2.29307
2.30045
2.30714
2.31487
2.32278
2.33093
2.33939
2.34816
2.35724
2.36668
2.37656
2.38694
2.39788
2.4094
2.42144
2.43387
2.4465
2.45917
2.47167
2.48379
2.49533
2.50632
2.51695
2.52722
2.53697
2.54615
2.55484
2.56308
2.57125
2.57953
2.58778
2.59587
2.60394
2.61203
2.62001
2.62784
2.63568
2.64369
2.65144
2.65916
2.66705
2.67494
2.68259
2.69017
2.69788
2.70552
2.71284
2.72036
2.72795
2.73524
2.74259
2.75001
2.75686
2.76374
2.77152
2.7784
2.78503
2.79173
2.79896
2.80544
2.81126
2.81772
2.8237
2.8301
2.8364
2.84169
2.84714
2.85292
2.85823
2.8623
2.86722
2.87215
2.87641
2.881
2.88428
2.88767
2.89078
2.89363
2.8964
2.8988
2.90074
2.9021
2.90285
2.90314
2.90307
2.90264
2.90194
2.90087
2.89936
2.89742
2.89506
2.89234
2.8893
2.88604
2.88262
2.87903
2.87526
2.8714
2.86692
2.86244
2.858
2.85311
2.84843
2.84423
2.84022
2.83585
2.83271
2.82849
2.8242
2.82028
2.81673
2.81321
2.81061
2.80815
2.80558
2.80335
2.80141
2.79951
2.79817
2.79756
2.79671
2.2441
2.25145
2.25916
2.26733
2.27599
2.28497
2.29334
2.30231
2.31141
2.3206
2.32991
2.3393
2.34876
2.35828
2.3679
2.37769
2.38772
2.39812
2.40897
2.42029
2.4321
2.44436
2.45695
2.46963
2.48215
2.49432
2.50593
2.51691
2.52747
2.53758
2.54689
2.55591
2.5649
2.57366
2.58206
2.5903
2.59849
2.60662
2.61457
2.62237
2.63024
2.63813
2.64576
2.65341
2.66126
2.66897
2.67644
2.6839
2.69163
2.69894
2.70611
2.71366
2.72088
2.7279
2.7354
2.74235
2.74896
2.75614
2.76335
2.76977
2.77629
2.78325
2.78996
2.79604
2.80184
2.80817
2.81431
2.82036
2.8261
2.83088
2.83674
2.84191
2.84721
2.85091
2.85562
2.86021
2.86436
2.86855
2.87226
2.87575
2.87889
2.88166
2.88405
2.88604
2.88766
2.88895
2.88987
2.89041
2.89055
2.89029
2.88963
2.8886
2.8872
2.8855
2.88353
2.88132
2.87884
2.87615
2.87325
2.87012
2.86679
2.86338
2.85956
2.85558
2.85147
2.84696
2.84242
2.83845
2.83463
2.83031
2.82701
2.82321
2.81877
2.81481
2.81108
2.80764
2.80429
2.8017
2.79947
2.79695
2.79482
2.79277
2.79111
2.79024
2.7895
2.22653
2.23547
2.24479
2.25444
2.26424
2.27381
2.28251
2.29217
2.30197
2.3118
2.32164
2.33145
2.34123
2.35101
2.36078
2.37054
2.38032
2.39022
2.40028
2.41059
2.42126
2.4324
2.44406
2.45619
2.4686
2.48105
2.49333
2.50529
2.51675
2.52763
2.53834
2.54847
2.55816
2.56724
2.57603
2.58459
2.59296
2.60115
2.6091
2.6169
2.62479
2.63254
2.64007
2.64765
2.65546
2.66293
2.67022
2.67769
2.68528
2.69223
2.69945
2.70682
2.71361
2.72067
2.72804
2.73458
2.74114
2.74832
2.75506
2.76113
2.76755
2.77448
2.78074
2.7864
2.79213
2.7985
2.80464
2.81053
2.8155
2.82051
2.82594
2.83068
2.8356
2.83996
2.84425
2.84848
2.85243
2.85646
2.86018
2.86359
2.86665
2.86932
2.87162
2.87359
2.87524
2.87654
2.87744
2.87792
2.87802
2.87777
2.87722
2.87639
2.8753
2.87393
2.87229
2.87039
2.86824
2.86591
2.86342
2.86073
2.85787
2.85491
2.85171
2.84823
2.84455
2.84051
2.83602
2.83219
2.82858
2.82439
2.8212
2.8173
2.81286
2.80894
2.80525
2.80172
2.79824
2.79502
2.7931
2.79062
2.78824
2.7861
2.78415
2.783
2.7823
2.20225
2.21214
2.22242
2.23297
2.2437
2.25445
2.26493
2.27426
2.2843
2.2944
2.30439
2.31425
2.32409
2.33397
2.34393
2.35389
2.36382
2.37372
2.38361
2.3935
2.40343
2.41345
2.4237
2.43427
2.44525
2.45665
2.46842
2.48051
2.49278
2.505
2.51706
2.52885
2.53992
2.5501
2.55996
2.56948
2.57847
2.58708
2.59535
2.60337
2.61122
2.61911
2.62676
2.6342
2.64179
2.64949
2.6567
2.66382
2.67152
2.6786
2.68537
2.69281
2.69969
2.70625
2.71349
2.72035
2.72669
2.73336
2.74017
2.74658
2.75243
2.75899
2.76537
2.77146
2.77671
2.78256
2.78884
2.79454
2.80018
2.80456
2.81006
2.81513
2.81974
2.82448
2.82883
2.83307
2.83706
2.84087
2.84458
2.84806
2.85132
2.8543
2.85695
2.85922
2.86113
2.86271
2.86398
2.86492
2.86553
2.86581
2.86577
2.86542
2.86477
2.86384
2.86268
2.86128
2.85967
2.85785
2.85585
2.85368
2.85132
2.84879
2.84613
2.8433
2.84024
2.83699
2.83352
2.8294
2.82546
2.82209
2.8182
2.81525
2.81103
2.80663
2.8028
2.79925
2.79562
2.79227
2.78875
2.78606
2.78423
2.78163
2.77943
2.77721
2.7758
2.77507
2.1893
2.2001
2.21106
2.22218
2.23345
2.24478
2.2561
2.26631
2.27645
2.28687
2.29712
2.3072
2.31721
2.32712
2.33694
2.34685
2.35689
2.36696
2.37702
2.38704
2.39702
2.40696
2.41691
2.42692
2.43707
2.44741
2.45807
2.4692
2.48086
2.49299
2.50538
2.51769
2.52953
2.5408
2.55141
2.56136
2.57108
2.58021
2.58892
2.59716
2.60516
2.61307
2.62066
2.62803
2.63574
2.64316
2.65021
2.65741
2.66497
2.67165
2.67851
2.68583
2.69232
2.69894
2.706
2.71247
2.71865
2.72541
2.73185
2.73794
2.7437
2.75024
2.75619
2.76214
2.76698
2.77303
2.77888
2.78409
2.78924
2.79406
2.79924
2.804
2.80858
2.81319
2.81767
2.82202
2.82595
2.82957
2.83298
2.8362
2.83922
2.84204
2.84457
2.84676
2.84861
2.85015
2.8514
2.85236
2.85304
2.85341
2.85348
2.85329
2.85285
2.85218
2.85129
2.8502
2.84891
2.84743
2.84577
2.84393
2.84192
2.83974
2.8374
2.83486
2.83211
2.82917
2.82607
2.8226
2.81851
2.81515
2.81176
2.80859
2.80444
2.80016
2.7965
2.79314
2.78959
2.78622
2.78275
2.7795
2.77764
2.77532
2.77295
2.77066
2.76901
2.76818
2.76712
2.76617
2.17818
2.18931
2.20049
2.21185
2.22341
2.23505
2.24667
2.25759
2.26772
2.27837
2.28893
2.2994
2.30977
2.31997
2.33002
2.33995
2.34978
2.35979
2.36996
2.38015
2.3903
2.4004
2.41043
2.4204
2.4303
2.44016
2.45006
2.46018
2.47072
2.4818
2.49345
2.50548
2.51764
2.52965
2.54126
2.55216
2.56226
2.572
2.58138
2.5901
2.59846
2.60645
2.61404
2.62148
2.62925
2.6364
2.64331
2.65085
2.65791
2.66442
2.67151
2.67843
2.68471
2.69144
2.69821
2.70434
2.71053
2.71711
2.72339
2.72901
2.73498
2.74126
2.74693
2.75261
2.75722
2.7632
2.76862
2.77354
2.77849
2.78346
2.78829
2.79292
2.79743
2.80185
2.80616
2.81028
2.81424
2.81796
2.82141
2.82463
2.8276
2.83025
2.83259
2.83463
2.83637
2.83781
2.83897
2.83989
2.84056
2.84098
2.84114
2.84106
2.84076
2.84024
2.83952
2.83861
2.83754
2.83633
2.83497
2.83346
2.8318
2.83
2.82805
2.82591
2.82356
2.82101
2.81834
2.81557
2.81179
2.80812
2.80478
2.80162
2.79762
2.79337
2.78977
2.7867
2.78326
2.77986
2.7766
2.77315
2.77087
2.76895
2.76642
2.76416
2.76236
2.76112
2.75989
2.75878
2.16792
2.17925
2.19081
2.20249
2.21425
2.22607
2.2378
2.24889
2.25938
2.27007
2.28075
2.29125
2.30152
2.31184
2.3223
2.33259
2.34264
2.35255
2.36246
2.37259
2.38285
2.39311
2.40331
2.41344
2.42345
2.43332
2.44304
2.45268
2.46238
2.47232
2.48269
2.4936
2.50508
2.51694
2.5289
2.54061
2.55188
2.56245
2.57212
2.58151
2.59046
2.59885
2.60665
2.61436
2.62199
2.62904
2.636
2.64369
2.65034
2.65683
2.66406
2.67058
2.67677
2.68352
2.69004
2.69586
2.7022
2.70845
2.71458
2.71984
2.72603
2.73197
2.73746
2.74273
2.7474
2.75311
2.75818
2.76293
2.76777
2.7726
2.77727
2.78177
2.78614
2.79039
2.79451
2.79848
2.8023
2.8059
2.80924
2.8123
2.81511
2.81772
2.82011
2.82223
2.82407
2.82562
2.8269
2.82787
2.82851
2.82888
2.82904
2.82899
2.82873
2.82828
2.82764
2.82684
2.8259
2.82486
2.82368
2.82237
2.82093
2.81936
2.81765
2.81579
2.81376
2.81159
2.80934
2.80689
2.80433
2.80076
2.79739
2.79435
2.79082
2.78659
2.78301
2.78013
2.77688
2.77352
2.7703
2.7667
2.76432
2.76246
2.75989
2.75769
2.75571
2.75427
2.75291
2.7517
2.15827
2.17002
2.18188
2.19374
2.20556
2.21736
2.22897
2.23997
2.25082
2.26148
2.27213
2.28271
2.29309
2.30339
2.31375
2.32416
2.33461
2.34483
2.35489
2.36477
2.37471
2.38488
2.39516
2.40544
2.41564
2.4257
2.43557
2.44522
2.45469
2.46403
2.47342
2.48306
2.49318
2.50394
2.51533
2.52711
2.53894
2.55043
2.56127
2.57114
2.58053
2.58956
2.5979
2.6061
2.61374
2.62081
2.6281
2.63554
2.64205
2.64868
2.65588
2.6621
2.66836
2.67504
2.68125
2.687
2.69333
2.69934
2.70516
2.71042
2.71651
2.72215
2.72755
2.73238
2.73741
2.74274
2.74752
2.75212
2.75682
2.76147
2.76598
2.77034
2.77457
2.77867
2.78263
2.78645
2.7901
2.79355
2.79676
2.79969
2.80239
2.80489
2.80718
2.80922
2.81101
2.81252
2.81375
2.81471
2.81546
2.81599
2.8163
2.81642
2.81634
2.81609
2.81568
2.81512
2.81437
2.81339
2.81226
2.81102
2.80967
2.80818
2.80658
2.80487
2.80302
2.80105
2.799
2.7969
2.79458
2.79155
2.78854
2.78557
2.78253
2.77903
2.77538
2.77256
2.76981
2.76653
2.76345
2.75993
2.75755
2.75564
2.75308
2.75073
2.74862
2.74695
2.74531
2.74379
2.74252
2.16111
2.17298
2.18478
2.19653
2.20826
2.21971
2.2307
2.24169
2.25239
2.263
2.27356
2.28401
2.29436
2.30472
2.3151
2.32546
2.33587
2.34626
2.35644
2.36647
2.37625
2.38611
2.39623
2.40648
2.4167
2.42679
2.43666
2.44627
2.45559
2.46465
2.47355
2.4825
2.49181
2.50176
2.51249
2.5239
2.53563
2.54719
2.55828
2.56869
2.578
2.58696
2.59581
2.60381
2.61125
2.619
2.62617
2.63269
2.63961
2.64665
2.65274
2.65911
2.66576
2.67164
2.67749
2.68371
2.68959
2.695
2.70043
2.70624
2.71164
2.71682
2.72179
2.72687
2.73186
2.73644
2.74088
2.74541
2.74988
2.75421
2.75842
2.76251
2.76646
2.77027
2.77393
2.77743
2.78073
2.7838
2.78663
2.78923
2.79162
2.7938
2.79575
2.79746
2.79891
2.80012
2.8011
2.80187
2.80243
2.80279
2.80296
2.80296
2.80279
2.80245
2.80196
2.80132
2.80056
2.79969
2.79871
2.79763
2.79643
2.7951
2.79353
2.79173
2.78983
2.78786
2.78583
2.78365
2.78103
2.77818
2.77536
2.77259
2.76944
2.76576
2.76297
2.7604
2.75734
2.75439
2.7511
2.74852
2.74655
2.74398
2.74147
2.73924
2.7374
2.73559
2.73385
2.73229
2.1516
2.16341
2.17515
2.18683
2.19847
2.20977
2.22079
2.23178
2.24252
2.25312
2.26365
2.27409
2.28447
2.29483
2.30517
2.31551
2.32584
2.33616
2.34657
2.35689
2.367
2.37694
2.38654
2.39622
2.40618
2.41629
2.42637
2.43624
2.44581
2.455
2.46381
2.47228
2.4806
2.48907
2.49809
2.50798
2.51878
2.5302
2.54183
2.55317
2.56381
2.5736
2.58272
2.59123
2.59942
2.60761
2.61496
2.62177
2.62911
2.63595
2.64205
2.64856
2.65527
2.66098
2.66688
2.67307
2.67885
2.68397
2.6895
2.69509
2.70034
2.70539
2.71038
2.71535
2.72011
2.72457
2.7289
2.73326
2.73756
2.74172
2.74577
2.7497
2.7535
2.75716
2.76066
2.764
2.76715
2.77008
2.7728
2.77529
2.77758
2.77965
2.78151
2.78315
2.78456
2.78575
2.78672
2.7875
2.78807
2.78846
2.78867
2.78871
2.78859
2.78832
2.7879
2.78736
2.78671
2.78596
2.78509
2.78412
2.78302
2.78179
2.78041
2.77892
2.77733
2.77565
2.7739
2.77197
2.76957
2.76682
2.76409
2.76147
2.75858
2.75495
2.75212
2.74967
2.74679
2.74387
2.74067
2.73795
2.73582
2.73327
2.73058
2.72824
2.72624
2.72424
2.72228
2.72048
2.15282
2.16449
2.17608
2.18761
2.1988
2.20985
2.2208
2.23154
2.24215
2.25266
2.26308
2.27344
2.28377
2.29408
2.30437
2.31464
2.32492
2.33519
2.34547
2.35582
2.36598
2.37599
2.3858
2.39519
2.40451
2.41418
2.42413
2.43398
2.4435
2.45257
2.46114
2.46922
2.47693
2.48456
2.49256
2.50139
2.5113
2.52222
2.5337
2.54512
2.55615
2.56647
2.57567
2.58426
2.59289
2.6008
2.60824
2.616
2.62299
2.62936
2.63621
2.64298
2.64875
2.65461
2.66094
2.66671
2.67173
2.6772
2.68273
2.68789
2.69286
2.69777
2.70259
2.70719
2.71157
2.71582
2.72002
2.72418
2.72819
2.73207
2.73583
2.73948
2.74298
2.74632
2.74949
2.75248
2.75527
2.75785
2.76023
2.7624
2.76437
2.76613
2.7677
2.76905
2.7702
2.77116
2.77192
2.7725
2.7729
2.77313
2.7732
2.77312
2.77291
2.77256
2.7721
2.77153
2.77086
2.77008
2.76919
2.76818
2.76705
2.76582
2.76447
2.76301
2.76145
2.75979
2.75801
2.75605
2.75373
2.75128
2.74887
2.74633
2.74308
2.74021
2.73772
2.73504
2.7321
2.72895
2.72609
2.72364
2.72093
2.71797
2.71541
2.71306
2.71064
2.70822
2.70591
2.15234
2.16386
2.17526
2.18637
2.19743
2.20833
2.21905
2.22966
2.24015
2.25056
2.2609
2.2712
2.28147
2.29171
2.30192
2.31211
2.32229
2.33248
2.34265
2.35286
2.36311
2.37309
2.38292
2.39263
2.40166
2.41039
2.41982
2.42955
2.43901
2.44796
2.4563
2.46401
2.47114
2.47792
2.4848
2.49236
2.5011
2.51118
2.52221
2.53367
2.54495
2.55556
2.56553
2.57474
2.58289
2.59083
2.59912
2.60663
2.61357
2.62087
2.62786
2.63402
2.64002
2.64662
2.65257
2.65771
2.66304
2.66861
2.67381
2.6787
2.68353
2.68825
2.69275
2.69706
2.70125
2.70531
2.70933
2.71323
2.71696
2.72056
2.72404
2.72738
2.73056
2.73356
2.73638
2.73901
2.74144
2.74368
2.74573
2.74758
2.74924
2.7507
2.75198
2.75308
2.75398
2.75471
2.75527
2.75566
2.7559
2.75598
2.75594
2.75576
2.75546
2.75506
2.75455
2.75394
2.75323
2.75241
2.75149
2.75046
2.74934
2.7481
2.74674
2.74527
2.7437
2.74207
2.74031
2.73825
2.736
2.7337
2.73136
2.72845
2.72539
2.72285
2.72031
2.71735
2.71441
2.7112
2.70835
2.70541
2.70235
2.6995
2.69675
2.69393
2.69109
2.68829
2.68557
2.68291
2.13824
2.14967
2.16092
2.17202
2.18303
2.19388
2.20459
2.21518
2.22567
2.23607
2.24639
2.25667
2.2669
2.27709
2.28724
2.29736
2.30742
2.31752
2.3276
2.33767
2.34772
2.35785
2.36794
2.37775
2.38748
2.39694
2.40512
2.41346
2.42271
2.43203
2.44085
2.44896
2.45632
2.4629
2.46884
2.47451
2.48062
2.48788
2.49668
2.50694
2.51808
2.52937
2.54042
2.55084
2.56042
2.56944
2.57812