/*--------------------------------*- C++ -*----------------------------------*\
| =========                 |                                                 |
| \\      /  F ield         | OpenFOAM: The Open Source CFD Toolbox           |
|  \\    /   O peration     | Version:  v1706                                 |
|   \\  /    A nd           | Web:      www.OpenFOAM.com                      |
|    \\/     M anipulation  |                                                 |
\*---------------------------------------------------------------------------*/
FoamFile
{
    version     2.0;
    format      ascii;
    class       volScalarField;
    location    "2e-05";
    object      mu;
}
// * * * * * * * * * * * * * * * * * * * * * * * * * * * * * * * * * * * * * //

dimensions      [1 -1 -1 0 0 0 0];


internalField   nonuniform List<scalar> 
29871
(
1.0351e-05
1.0351e-05
1.0351e-05
1.0351e-05
1.0351e-05
1.0351e-05
1.0351e-05
1.0351e-05
1.0351e-05
1.0351e-05
1.0351e-05
1.0351e-05
1.0351e-05
1.0351e-05
1.0351e-05
1.0351e-05
1.0351e-05
1.0351e-05
1.0351e-05
1.0351e-05
1.03511e-05
1.03511e-05
1.03511e-05
1.03511e-05
1.03511e-05
1.03511e-05
1.03511e-05
1.03511e-05
1.03511e-05
1.03511e-05
1.03511e-05
1.03511e-05
1.03511e-05
1.03511e-05
1.03511e-05
1.03511e-05
1.03511e-05
1.03511e-05
1.03511e-05
1.03511e-05
1.03511e-05
1.03511e-05
1.03511e-05
1.03511e-05
1.03511e-05
1.03511e-05
1.03511e-05
1.03511e-05
1.03511e-05
1.03511e-05
1.03511e-05
1.03511e-05
1.03511e-05
1.03511e-05
1.03511e-05
1.03511e-05
1.03511e-05
1.03511e-05
1.03511e-05
1.03511e-05
1.03511e-05
1.03511e-05
1.03511e-05
1.03511e-05
1.03511e-05
1.03511e-05
1.03511e-05
1.03511e-05
1.03511e-05
1.03511e-05
1.03511e-05
1.03511e-05
1.03511e-05
1.03511e-05
1.03511e-05
1.03511e-05
1.03511e-05
1.03511e-05
1.03511e-05
1.03511e-05
1.03511e-05
1.03511e-05
1.03511e-05
1.03511e-05
1.0351e-05
1.0351e-05
1.0351e-05
1.0351e-05
1.0351e-05
1.0351e-05
1.0351e-05
1.0351e-05
1.0351e-05
1.0351e-05
1.0351e-05
1.0351e-05
1.0351e-05
1.0351e-05
1.0351e-05
1.0351e-05
1.0351e-05
1.0351e-05
1.0351e-05
1.0351e-05
1.0351e-05
1.0351e-05
1.03511e-05
1.03511e-05
1.03511e-05
1.03511e-05
1.03511e-05
1.03511e-05
1.03511e-05
1.03511e-05
1.03511e-05
1.03511e-05
1.03511e-05
1.03512e-05
1.03512e-05
1.03512e-05
1.03512e-05
1.03512e-05
1.03512e-05
1.03513e-05
1.03513e-05
1.03513e-05
1.03513e-05
1.03513e-05
1.03514e-05
1.03514e-05
1.03514e-05
1.03514e-05
1.03514e-05
1.03515e-05
1.03515e-05
1.03515e-05
1.03515e-05
1.03516e-05
1.03516e-05
1.03516e-05
1.03516e-05
1.03517e-05
1.03517e-05
1.03517e-05
1.03517e-05
1.03517e-05
1.03517e-05
1.03518e-05
1.03518e-05
1.03518e-05
1.03518e-05
1.03518e-05
1.03518e-05
1.03518e-05
1.03518e-05
1.03518e-05
1.03518e-05
1.03518e-05
1.03518e-05
1.03518e-05
1.03518e-05
1.03518e-05
1.03518e-05
1.03518e-05
1.03518e-05
1.03517e-05
1.03517e-05
1.03517e-05
1.03517e-05
1.03517e-05
1.03516e-05
1.03516e-05
1.03516e-05
1.03516e-05
1.03516e-05
1.03515e-05
1.03515e-05
1.03515e-05
1.03515e-05
1.03515e-05
1.03514e-05
1.03514e-05
1.03514e-05
1.03514e-05
1.03514e-05
1.03514e-05
1.03513e-05
1.03513e-05
1.03513e-05
1.03513e-05
1.03513e-05
1.03513e-05
1.03513e-05
1.03513e-05
1.03513e-05
1.03513e-05
1.03513e-05
1.03512e-05
1.03512e-05
1.03512e-05
1.03512e-05
1.03512e-05
1.03512e-05
1.03512e-05
1.03512e-05
1.03512e-05
1.03512e-05
1.03512e-05
1.03512e-05
1.03512e-05
1.03511e-05
1.03511e-05
1.03512e-05
1.03512e-05
1.03512e-05
1.03512e-05
1.03513e-05
1.03513e-05
1.03513e-05
1.03513e-05
1.03514e-05
1.03514e-05
1.03515e-05
1.03515e-05
1.03515e-05
1.03516e-05
1.03516e-05
1.03517e-05
1.03518e-05
1.03518e-05
1.03519e-05
1.03519e-05
1.0352e-05
1.03521e-05
1.03521e-05
1.03522e-05
1.03523e-05
1.03524e-05
1.03524e-05
1.03525e-05
1.03526e-05
1.03527e-05
1.03527e-05
1.03528e-05
1.03529e-05
1.0353e-05
1.0353e-05
1.03531e-05
1.03532e-05
1.03532e-05
1.03533e-05
1.03533e-05
1.03534e-05
1.03534e-05
1.03535e-05
1.03535e-05
1.03535e-05
1.03536e-05
1.03536e-05
1.03536e-05
1.03536e-05
1.03536e-05
1.03536e-05
1.03536e-05
1.03536e-05
1.03536e-05
1.03536e-05
1.03535e-05
1.03535e-05
1.03535e-05
1.03534e-05
1.03534e-05
1.03533e-05
1.03533e-05
1.03532e-05
1.03531e-05
1.03531e-05
1.0353e-05
1.0353e-05
1.03529e-05
1.03528e-05
1.03528e-05
1.03527e-05
1.03526e-05
1.03526e-05
1.03525e-05
1.03524e-05
1.03524e-05
1.03523e-05
1.03523e-05
1.03522e-05
1.03522e-05
1.03521e-05
1.03521e-05
1.0352e-05
1.0352e-05
1.0352e-05
1.03519e-05
1.03519e-05
1.03519e-05
1.03519e-05
1.03518e-05
1.03518e-05
1.03518e-05
1.03518e-05
1.03518e-05
1.03518e-05
1.03518e-05
1.03518e-05
1.03518e-05
1.03518e-05
1.03518e-05
1.03518e-05
1.03518e-05
1.03518e-05
1.03518e-05
1.03514e-05
1.03514e-05
1.03515e-05
1.03515e-05
1.03516e-05
1.03516e-05
1.03517e-05
1.03518e-05
1.03519e-05
1.0352e-05
1.03521e-05
1.03522e-05
1.03523e-05
1.03524e-05
1.03525e-05
1.03526e-05
1.03528e-05
1.03529e-05
1.03531e-05
1.03533e-05
1.03534e-05
1.03536e-05
1.03538e-05
1.0354e-05
1.03542e-05
1.03543e-05
1.03545e-05
1.03548e-05
1.0355e-05
1.03552e-05
1.03554e-05
1.03556e-05
1.03558e-05
1.0356e-05
1.03562e-05
1.03564e-05
1.03566e-05
1.03568e-05
1.0357e-05
1.03571e-05
1.03573e-05
1.03574e-05
1.03576e-05
1.03577e-05
1.03578e-05
1.03579e-05
1.0358e-05
1.03581e-05
1.03581e-05
1.03582e-05
1.03582e-05
1.03582e-05
1.03582e-05
1.03582e-05
1.03581e-05
1.03581e-05
1.0358e-05
1.03579e-05
1.03578e-05
1.03577e-05
1.03576e-05
1.03575e-05
1.03574e-05
1.03572e-05
1.03571e-05
1.03569e-05
1.03567e-05
1.03566e-05
1.03564e-05
1.03562e-05
1.0356e-05
1.03559e-05
1.03557e-05
1.03555e-05
1.03553e-05
1.03552e-05
1.0355e-05
1.03548e-05
1.03547e-05
1.03545e-05
1.03544e-05
1.03543e-05
1.03541e-05
1.0354e-05
1.03539e-05
1.03538e-05
1.03537e-05
1.03536e-05
1.03536e-05
1.03535e-05
1.03535e-05
1.03534e-05
1.03534e-05
1.03533e-05
1.03533e-05
1.03533e-05
1.03533e-05
1.03533e-05
1.03533e-05
1.03533e-05
1.03533e-05
1.03533e-05
1.03533e-05
1.03534e-05
1.03534e-05
1.03534e-05
1.03519e-05
1.0352e-05
1.03521e-05
1.03522e-05
1.03524e-05
1.03525e-05
1.03527e-05
1.03529e-05
1.03531e-05
1.03533e-05
1.03536e-05
1.03538e-05
1.03541e-05
1.03544e-05
1.03547e-05
1.0355e-05
1.03554e-05
1.03557e-05
1.03561e-05
1.03565e-05
1.03569e-05
1.03574e-05
1.03578e-05
1.03583e-05
1.03588e-05
1.03593e-05
1.03598e-05
1.03603e-05
1.03608e-05
1.03614e-05
1.03619e-05
1.03624e-05
1.0363e-05
1.03635e-05
1.0364e-05
1.03645e-05
1.0365e-05
1.03655e-05
1.0366e-05
1.03664e-05
1.03668e-05
1.03672e-05
1.03676e-05
1.0368e-05
1.03683e-05
1.03686e-05
1.03688e-05
1.0369e-05
1.03692e-05
1.03693e-05
1.03694e-05
1.03695e-05
1.03695e-05
1.03694e-05
1.03694e-05
1.03693e-05
1.03691e-05
1.0369e-05
1.03688e-05
1.03685e-05
1.03682e-05
1.03679e-05
1.03676e-05
1.03672e-05
1.03669e-05
1.03665e-05
1.03661e-05
1.03657e-05
1.03652e-05
1.03648e-05
1.03643e-05
1.03639e-05
1.03634e-05
1.0363e-05
1.03625e-05
1.03621e-05
1.03617e-05
1.03613e-05
1.03609e-05
1.03605e-05
1.03601e-05
1.03598e-05
1.03595e-05
1.03591e-05
1.03589e-05
1.03586e-05
1.03584e-05
1.03581e-05
1.03579e-05
1.03578e-05
1.03576e-05
1.03575e-05
1.03574e-05
1.03573e-05
1.03572e-05
1.03572e-05
1.03571e-05
1.03571e-05
1.03571e-05
1.03571e-05
1.03572e-05
1.03572e-05
1.03573e-05
1.03573e-05
1.03574e-05
1.03575e-05
1.03576e-05
1.03533e-05
1.03536e-05
1.03539e-05
1.03542e-05
1.03546e-05
1.0355e-05
1.03554e-05
1.03559e-05
1.03565e-05
1.0357e-05
1.03576e-05
1.03583e-05
1.0359e-05
1.03597e-05
1.03605e-05
1.03613e-05
1.03622e-05
1.03631e-05
1.03641e-05
1.03651e-05
1.03662e-05
1.03673e-05
1.03684e-05
1.03696e-05
1.03708e-05
1.0372e-05
1.03733e-05
1.03746e-05
1.03759e-05
1.03772e-05
1.03785e-05
1.03798e-05
1.03811e-05
1.03824e-05
1.03837e-05
1.03849e-05
1.03861e-05
1.03873e-05
1.03884e-05
1.03895e-05
1.03905e-05
1.03915e-05
1.03923e-05
1.03931e-05
1.03939e-05
1.03945e-05
1.03951e-05
1.03955e-05
1.03959e-05
1.03962e-05
1.03964e-05
1.03965e-05
1.03965e-05
1.03964e-05
1.03962e-05
1.03959e-05
1.03955e-05
1.0395e-05
1.03945e-05
1.03939e-05
1.03932e-05
1.03924e-05
1.03916e-05
1.03907e-05
1.03898e-05
1.03889e-05
1.03878e-05
1.03868e-05
1.03858e-05
1.03847e-05
1.03836e-05
1.03825e-05
1.03814e-05
1.03804e-05
1.03793e-05
1.03783e-05
1.03772e-05
1.03763e-05
1.03753e-05
1.03744e-05
1.03735e-05
1.03727e-05
1.03719e-05
1.03712e-05
1.03705e-05
1.03699e-05
1.03694e-05
1.03689e-05
1.03684e-05
1.0368e-05
1.03677e-05
1.03674e-05
1.03672e-05
1.0367e-05
1.03669e-05
1.03668e-05
1.03668e-05
1.03668e-05
1.03668e-05
1.03669e-05
1.0367e-05
1.03672e-05
1.03674e-05
1.03676e-05
1.03678e-05
1.03681e-05
1.03683e-05
1.03551e-05
1.03556e-05
1.03562e-05
1.03569e-05
1.03576e-05
1.03584e-05
1.03592e-05
1.03602e-05
1.03612e-05
1.03623e-05
1.03635e-05
1.03648e-05
1.03663e-05
1.03678e-05
1.03694e-05
1.03711e-05
1.0373e-05
1.03749e-05
1.0377e-05
1.03791e-05
1.03814e-05
1.03838e-05
1.03863e-05
1.03889e-05
1.03916e-05
1.03944e-05
1.03972e-05
1.04002e-05
1.04031e-05
1.04062e-05
1.04092e-05
1.04123e-05
1.04154e-05
1.04186e-05
1.04217e-05
1.04247e-05
1.04278e-05
1.04308e-05
1.04336e-05
1.04365e-05
1.04392e-05
1.04417e-05
1.04442e-05
1.04465e-05
1.04486e-05
1.04506e-05
1.04524e-05
1.0454e-05
1.04554e-05
1.04566e-05
1.04575e-05
1.04583e-05
1.04588e-05
1.04591e-05
1.04592e-05
1.04591e-05
1.04587e-05
1.04582e-05
1.04574e-05
1.04564e-05
1.04553e-05
1.04539e-05
1.04524e-05
1.04507e-05
1.04489e-05
1.04469e-05
1.04448e-05
1.04426e-05
1.04404e-05
1.0438e-05
1.04356e-05
1.04331e-05
1.04306e-05
1.0428e-05
1.04255e-05
1.0423e-05
1.04205e-05
1.0418e-05
1.04156e-05
1.04133e-05
1.0411e-05
1.04089e-05
1.04068e-05
1.04048e-05
1.04029e-05
1.04012e-05
1.03995e-05
1.0398e-05
1.03967e-05
1.03954e-05
1.03943e-05
1.03934e-05
1.03926e-05
1.03919e-05
1.03913e-05
1.03909e-05
1.03906e-05
1.03904e-05
1.03904e-05
1.03904e-05
1.03905e-05
1.03907e-05
1.0391e-05
1.03915e-05
1.03919e-05
1.03925e-05
1.03931e-05
1.03938e-05
1.03945e-05
1.03953e-05
1.03615e-05
1.03628e-05
1.03642e-05
1.03658e-05
1.03675e-05
1.03695e-05
1.03716e-05
1.03739e-05
1.03765e-05
1.03792e-05
1.03822e-05
1.03854e-05
1.03889e-05
1.03926e-05
1.03966e-05
1.04008e-05
1.04053e-05
1.041e-05
1.0415e-05
1.04203e-05
1.04258e-05
1.04315e-05
1.04374e-05
1.04436e-05
1.04499e-05
1.04564e-05
1.04631e-05
1.04699e-05
1.04768e-05
1.04838e-05
1.04909e-05
1.04981e-05
1.05052e-05
1.05124e-05
1.05194e-05
1.05264e-05
1.05333e-05
1.054e-05
1.05465e-05
1.05527e-05
1.05587e-05
1.05643e-05
1.05696e-05
1.05746e-05
1.05791e-05
1.05832e-05
1.0587e-05
1.05902e-05
1.0593e-05
1.05954e-05
1.05972e-05
1.05986e-05
1.05994e-05
1.05998e-05
1.05996e-05
1.05991e-05
1.0598e-05
1.05965e-05
1.05945e-05
1.05921e-05
1.05892e-05
1.0586e-05
1.05824e-05
1.05784e-05
1.05742e-05
1.05696e-05
1.05648e-05
1.05598e-05
1.05545e-05
1.05492e-05
1.05437e-05
1.05381e-05
1.05324e-05
1.05268e-05
1.05211e-05
1.05155e-05
1.051e-05
1.05045e-05
1.04992e-05
1.04941e-05
1.04891e-05
1.04843e-05
1.04797e-05
1.04754e-05
1.04714e-05
1.04676e-05
1.04641e-05
1.04609e-05
1.0458e-05
1.04554e-05
1.04532e-05
1.04512e-05
1.04496e-05
1.04483e-05
1.04473e-05
1.04466e-05
1.04462e-05
1.04461e-05
1.04462e-05
1.04466e-05
1.04472e-05
1.0448e-05
1.0449e-05
1.04503e-05
1.04517e-05
1.04533e-05
1.04551e-05
1.0457e-05
1.0459e-05
1.04612e-05
1.03774e-05
1.03804e-05
1.03838e-05
1.03876e-05
1.03919e-05
1.03965e-05
1.04017e-05
1.04073e-05
1.04134e-05
1.04201e-05
1.04273e-05
1.0435e-05
1.04433e-05
1.04521e-05
1.04615e-05
1.04714e-05
1.04819e-05
1.0493e-05
1.05047e-05
1.05169e-05
1.05296e-05
1.05429e-05
1.05566e-05
1.05707e-05
1.05852e-05
1.05999e-05
1.0615e-05
1.06302e-05
1.06455e-05
1.06609e-05
1.06764e-05
1.06919e-05
1.07073e-05
1.07226e-05
1.07376e-05
1.07524e-05
1.07667e-05
1.07806e-05
1.0794e-05
1.08068e-05
1.08189e-05
1.08303e-05
1.08408e-05
1.08505e-05
1.08594e-05
1.08673e-05
1.08743e-05
1.08804e-05
1.08854e-05
1.08895e-05
1.08925e-05
1.08945e-05
1.08954e-05
1.08953e-05
1.08943e-05
1.08923e-05
1.08894e-05
1.08856e-05
1.08808e-05
1.08752e-05
1.08688e-05
1.08616e-05
1.08536e-05
1.0845e-05
1.08357e-05
1.08259e-05
1.08156e-05
1.08049e-05
1.07939e-05
1.07825e-05
1.07709e-05
1.07592e-05
1.07473e-05
1.07354e-05
1.07236e-05
1.07118e-05
1.07003e-05
1.06889e-05
1.06778e-05
1.06671e-05
1.06568e-05
1.06469e-05
1.06375e-05
1.06286e-05
1.06203e-05
1.06126e-05
1.06055e-05
1.05991e-05
1.05934e-05
1.05884e-05
1.05841e-05
1.05805e-05
1.05776e-05
1.05754e-05
1.05739e-05
1.05731e-05
1.0573e-05
1.05734e-05
1.05743e-05
1.05758e-05
1.05778e-05
1.05804e-05
1.05834e-05
1.05869e-05
1.05908e-05
1.05951e-05
1.05997e-05
1.06046e-05
1.06099e-05
1.06154e-05
1.04167e-05
1.04237e-05
1.04316e-05
1.04404e-05
1.04503e-05
1.04613e-05
1.04733e-05
1.04864e-05
1.05006e-05
1.0516e-05
1.05326e-05
1.05505e-05
1.05695e-05
1.05898e-05
1.06112e-05
1.06338e-05
1.06576e-05
1.06824e-05
1.07082e-05
1.07351e-05
1.07629e-05
1.07915e-05
1.08208e-05
1.08508e-05
1.08812e-05
1.0912e-05
1.0943e-05
1.09742e-05
1.10052e-05
1.10362e-05
1.10669e-05
1.10974e-05
1.11273e-05
1.11568e-05
1.11856e-05
1.12136e-05
1.12407e-05
1.12666e-05
1.12912e-05
1.13144e-05
1.1336e-05
1.1356e-05
1.13743e-05
1.13908e-05
1.14055e-05
1.14183e-05
1.14293e-05
1.14385e-05
1.14458e-05
1.14512e-05
1.14547e-05
1.14562e-05
1.14559e-05
1.1454e-05
1.14503e-05
1.1445e-05
1.1438e-05
1.14294e-05
1.14192e-05
1.14075e-05
1.13944e-05
1.13799e-05
1.13642e-05
1.13473e-05
1.13294e-05
1.13105e-05
1.12908e-05
1.12704e-05
1.12493e-05
1.12278e-05
1.12059e-05
1.11837e-05
1.11614e-05
1.11391e-05
1.11168e-05
1.10948e-05
1.1073e-05
1.10517e-05
1.10309e-05
1.10107e-05
1.09912e-05
1.09727e-05
1.09551e-05
1.09386e-05
1.09232e-05
1.0909e-05
1.08961e-05
1.08845e-05
1.08743e-05
1.08655e-05
1.08582e-05
1.08523e-05
1.08479e-05
1.0845e-05
1.08437e-05
1.08438e-05
1.08448e-05
1.08471e-05
1.08506e-05
1.08554e-05
1.08612e-05
1.08681e-05
1.08759e-05
1.08847e-05
1.08943e-05
1.09047e-05
1.09158e-05
1.09275e-05
1.09399e-05
1.09528e-05
1.05122e-05
1.05273e-05
1.05447e-05
1.05643e-05
1.05864e-05
1.06108e-05
1.06376e-05
1.06669e-05
1.06985e-05
1.07326e-05
1.07691e-05
1.08079e-05
1.08488e-05
1.08919e-05
1.0937e-05
1.0984e-05
1.10327e-05
1.10831e-05
1.11351e-05
1.11885e-05
1.12434e-05
1.12994e-05
1.13562e-05
1.14133e-05
1.14705e-05
1.15273e-05
1.15834e-05
1.16386e-05
1.16928e-05
1.17456e-05
1.1797e-05
1.1847e-05
1.18952e-05
1.19417e-05
1.19862e-05
1.20286e-05
1.20688e-05
1.21066e-05
1.21419e-05
1.21745e-05
1.22044e-05
1.22314e-05
1.22554e-05
1.22763e-05
1.22943e-05
1.23093e-05
1.23212e-05
1.23304e-05
1.2337e-05
1.23409e-05
1.23413e-05
1.23396e-05
1.23351e-05
1.23281e-05
1.23191e-05
1.23078e-05
1.2294e-05
1.22781e-05
1.22601e-05
1.22401e-05
1.22182e-05
1.21944e-05
1.2169e-05
1.21419e-05
1.21134e-05
1.20837e-05
1.20527e-05
1.20208e-05
1.19879e-05
1.19543e-05
1.19201e-05
1.18855e-05
1.18505e-05
1.18154e-05
1.17803e-05
1.17454e-05
1.17109e-05
1.1677e-05
1.16439e-05
1.16119e-05
1.15812e-05
1.15518e-05
1.1524e-05
1.14978e-05
1.14736e-05
1.14514e-05
1.14315e-05
1.14139e-05
1.13989e-05
1.13865e-05
1.13766e-05
1.13695e-05
1.13649e-05
1.13634e-05
1.13643e-05
1.1367e-05
1.13722e-05
1.13797e-05
1.13895e-05
1.14013e-05
1.14151e-05
1.14306e-05
1.14477e-05
1.14664e-05
1.14864e-05
1.15076e-05
1.153e-05
1.15535e-05
1.15778e-05
1.1603e-05
1.07133e-05
1.07381e-05
1.07682e-05
1.08035e-05
1.08439e-05
1.08893e-05
1.09394e-05
1.09942e-05
1.10534e-05
1.11169e-05
1.11846e-05
1.12564e-05
1.13321e-05
1.14113e-05
1.14934e-05
1.15778e-05
1.1664e-05
1.17514e-05
1.18397e-05
1.19284e-05
1.20175e-05
1.21066e-05
1.21952e-05
1.22827e-05
1.23687e-05
1.24525e-05
1.25338e-05
1.26121e-05
1.2687e-05
1.27583e-05
1.2826e-05
1.28898e-05
1.29498e-05
1.30059e-05
1.30581e-05
1.31064e-05
1.31511e-05
1.31922e-05
1.32298e-05
1.32634e-05
1.3293e-05
1.33187e-05
1.33405e-05
1.33583e-05
1.33722e-05
1.33824e-05
1.33891e-05
1.33921e-05
1.33919e-05
1.33899e-05
1.3385e-05
1.33769e-05
1.33662e-05
1.33535e-05
1.33381e-05
1.33205e-05
1.33013e-05
1.32801e-05
1.32568e-05
1.32316e-05
1.32047e-05
1.31759e-05
1.31456e-05
1.31141e-05
1.30812e-05
1.3047e-05
1.30116e-05
1.29753e-05
1.29379e-05
1.28997e-05
1.28607e-05
1.28211e-05
1.27809e-05
1.27402e-05
1.26993e-05
1.26584e-05
1.26177e-05
1.25775e-05
1.25377e-05
1.24986e-05
1.24603e-05
1.24232e-05
1.23878e-05
1.23543e-05
1.23233e-05
1.22949e-05
1.22694e-05
1.2247e-05
1.22279e-05
1.22122e-05
1.22e-05
1.21915e-05
1.21873e-05
1.21875e-05
1.21903e-05
1.21967e-05
1.22069e-05
1.22203e-05
1.2237e-05
1.22566e-05
1.2279e-05
1.23038e-05
1.23308e-05
1.23598e-05
1.23905e-05
1.24227e-05
1.24562e-05
1.24908e-05
1.25263e-05
1.25628e-05
1.25999e-05
1.12032e-05
1.12414e-05
1.12914e-05
1.13524e-05
1.14238e-05
1.15049e-05
1.15946e-05
1.16919e-05
1.17959e-05
1.19055e-05
1.20199e-05
1.21384e-05
1.22598e-05
1.23829e-05
1.25066e-05
1.26298e-05
1.27516e-05
1.28712e-05
1.29879e-05
1.31013e-05
1.32112e-05
1.33184e-05
1.34224e-05
1.35215e-05
1.36144e-05
1.37005e-05
1.37793e-05
1.38507e-05
1.39148e-05
1.39718e-05
1.4022e-05
1.40657e-05
1.41034e-05
1.41353e-05
1.41616e-05
1.41824e-05
1.4198e-05
1.42089e-05
1.42155e-05
1.4218e-05
1.42178e-05
1.42162e-05
1.42124e-05
1.4206e-05
1.41974e-05
1.41866e-05
1.41738e-05
1.41593e-05
1.41433e-05
1.41266e-05
1.41091e-05
1.40914e-05
1.40702e-05
1.4048e-05
1.40266e-05
1.4005e-05
1.39822e-05
1.39583e-05
1.39341e-05
1.39091e-05
1.38832e-05
1.38572e-05
1.38312e-05
1.38041e-05
1.37765e-05
1.37487e-05
1.37206e-05
1.36919e-05
1.3663e-05
1.36338e-05
1.36041e-05
1.3574e-05
1.35439e-05
1.35139e-05
1.34838e-05
1.34535e-05
1.34228e-05
1.3392e-05
1.33615e-05
1.33321e-05
1.33042e-05
1.32781e-05
1.3254e-05
1.32316e-05
1.32109e-05
1.31921e-05
1.31757e-05
1.31622e-05
1.3152e-05
1.31457e-05
1.31441e-05
1.31456e-05
1.31508e-05
1.31593e-05
1.31722e-05
1.31876e-05
1.32065e-05
1.32285e-05
1.32532e-05
1.32803e-05
1.33094e-05
1.334e-05
1.33714e-05
1.34036e-05
1.34362e-05
1.34692e-05
1.35023e-05
1.35352e-05
1.35674e-05
1.35989e-05
1.36294e-05
1.36592e-05
1.36882e-05
1.22126e-05
1.22461e-05
1.23029e-05
1.23801e-05
1.24749e-05
1.25842e-05
1.27051e-05
1.28346e-05
1.29702e-05
1.31097e-05
1.32514e-05
1.33949e-05
1.3539e-05
1.36807e-05
1.38169e-05
1.39455e-05
1.40648e-05
1.41738e-05
1.42719e-05
1.43589e-05
1.44346e-05
1.4499e-05
1.45527e-05
1.45973e-05
1.46338e-05
1.46632e-05
1.46863e-05
1.47032e-05
1.47145e-05
1.47208e-05
1.47218e-05
1.47203e-05
1.4716e-05
1.47089e-05
1.46992e-05
1.46872e-05
1.46733e-05
1.46576e-05
1.46404e-05
1.46218e-05
1.4602e-05
1.45822e-05
1.4562e-05
1.45424e-05
1.45194e-05
1.44961e-05
1.44739e-05
1.445e-05
1.44256e-05
1.4403e-05
1.43807e-05
1.43565e-05
1.43306e-05
1.43067e-05
1.42846e-05
1.42609e-05
1.42366e-05
1.4213e-05
1.41892e-05
1.41656e-05
1.41435e-05
1.41212e-05
1.4098e-05
1.40755e-05
1.40545e-05
1.40333e-05
1.4012e-05
1.39916e-05
1.39718e-05
1.39525e-05
1.39339e-05
1.39163e-05
1.38988e-05
1.38814e-05
1.38642e-05
1.38479e-05
1.38328e-05
1.38194e-05
1.38077e-05
1.37972e-05
1.37876e-05
1.37791e-05
1.37719e-05
1.37657e-05
1.37614e-05
1.37603e-05
1.37613e-05
1.37651e-05
1.37717e-05
1.37806e-05
1.37903e-05
1.38025e-05
1.3817e-05
1.38321e-05
1.38492e-05
1.38678e-05
1.38869e-05
1.39066e-05
1.39266e-05
1.39466e-05
1.39661e-05
1.39855e-05
1.40048e-05
1.40235e-05
1.40409e-05
1.40575e-05
1.40732e-05
1.40882e-05
1.41028e-05
1.41168e-05
1.41296e-05
1.41414e-05
1.41525e-05
1.4046e-05
1.39462e-05
1.38844e-05
1.38628e-05
1.38714e-05
1.39088e-05
1.39746e-05
1.40611e-05
1.41613e-05
1.42691e-05
1.43793e-05
1.44875e-05
1.45897e-05
1.46825e-05
1.47639e-05
1.48339e-05
1.48931e-05
1.49423e-05
1.49824e-05
1.50144e-05
1.50388e-05
1.50561e-05
1.50668e-05
1.50711e-05
1.50705e-05
1.5067e-05
1.50598e-05
1.50494e-05
1.50365e-05
1.50215e-05
1.5005e-05
1.49865e-05
1.49667e-05
1.49463e-05
1.49253e-05
1.49036e-05
1.48816e-05
1.48607e-05
1.48361e-05
1.48114e-05
1.47875e-05
1.4762e-05
1.47363e-05
1.4712e-05
1.46887e-05
1.46635e-05
1.46373e-05
1.4612e-05
1.45864e-05
1.45598e-05
1.45352e-05
1.45115e-05
1.44864e-05
1.44601e-05
1.44357e-05
1.44119e-05
1.43873e-05
1.43626e-05
1.43405e-05
1.43178e-05
1.42942e-05
1.42717e-05
1.42494e-05
1.42267e-05
1.42058e-05
1.41866e-05
1.41666e-05
1.41468e-05
1.41291e-05
1.41122e-05
1.40954e-05
1.40796e-05
1.40644e-05
1.40499e-05
1.40361e-05
1.40239e-05
1.40139e-05
1.40053e-05
1.39974e-05
1.39904e-05
1.39849e-05
1.39805e-05
1.3977e-05
1.39753e-05
1.39766e-05
1.39808e-05
1.39863e-05
1.39931e-05
1.40014e-05
1.40114e-05
1.40227e-05
1.40345e-05
1.40481e-05
1.40631e-05
1.40787e-05
1.4095e-05
1.41119e-05
1.41284e-05
1.41449e-05
1.41606e-05
1.41754e-05
1.41894e-05
1.4203e-05
1.42158e-05
1.42272e-05
1.42379e-05
1.4248e-05
1.42573e-05
1.42657e-05
1.42737e-05
1.42808e-05
1.42871e-05
1.4293e-05
1.42985e-05
1.43032e-05
1.63107e-05
1.60871e-05
1.59007e-05
1.57559e-05
1.56368e-05
1.55452e-05
1.54813e-05
1.54398e-05
1.54143e-05
1.53993e-05
1.53912e-05
1.53868e-05
1.53842e-05
1.53819e-05
1.53789e-05
1.53746e-05
1.53684e-05
1.53599e-05
1.53491e-05
1.53361e-05
1.53211e-05
1.53045e-05
1.52864e-05
1.52669e-05
1.52466e-05
1.52259e-05
1.52047e-05
1.51825e-05
1.51596e-05
1.51377e-05
1.51115e-05
1.50844e-05
1.50588e-05
1.50328e-05
1.50063e-05
1.498e-05
1.49543e-05
1.49283e-05
1.49015e-05
1.48747e-05
1.48481e-05
1.4821e-05
1.47941e-05
1.4768e-05
1.47424e-05
1.4716e-05
1.46896e-05
1.46635e-05
1.46373e-05
1.46113e-05
1.45866e-05
1.45618e-05
1.45364e-05
1.45115e-05
1.4487e-05
1.44621e-05
1.44375e-05
1.4416e-05
1.43944e-05
1.43713e-05
1.43487e-05
1.43268e-05
1.43044e-05
1.42842e-05
1.42654e-05
1.42459e-05
1.42264e-05
1.42099e-05
1.41938e-05
1.41775e-05
1.41625e-05
1.41482e-05
1.41343e-05
1.41222e-05
1.41114e-05
1.4101e-05
1.40915e-05
1.40831e-05
1.40754e-05
1.4069e-05
1.40648e-05
1.40642e-05
1.4065e-05
1.40673e-05
1.40705e-05
1.4075e-05
1.40809e-05
1.40884e-05
1.40979e-05
1.4109e-05
1.41214e-05
1.41348e-05
1.41491e-05
1.41634e-05
1.41779e-05
1.41929e-05
1.42075e-05
1.42224e-05
1.42368e-05
1.42496e-05
1.42618e-05
1.42735e-05
1.42842e-05
1.42942e-05
1.43037e-05
1.43125e-05
1.43199e-05
1.43264e-05
1.43331e-05
1.43396e-05
1.43451e-05
1.43502e-05
1.43545e-05
1.43577e-05
1.43609e-05
1.43638e-05
1.89874e-05
1.88353e-05
1.86682e-05
1.84854e-05
1.82864e-05
1.80718e-05
1.78442e-05
1.76099e-05
1.7375e-05
1.71463e-05
1.69283e-05
1.67236e-05
1.65362e-05
1.63691e-05
1.62232e-05
1.60969e-05
1.59883e-05
1.58962e-05
1.58175e-05
1.57498e-05
1.56917e-05
1.56413e-05
1.55969e-05
1.55572e-05
1.55215e-05
1.54886e-05
1.54576e-05
1.54286e-05
1.54019e-05
1.5372e-05
1.53427e-05
1.53148e-05
1.52875e-05
1.52604e-05
1.52334e-05
1.5207e-05
1.51805e-05
1.51529e-05
1.51251e-05
1.5098e-05
1.5071e-05
1.50437e-05
1.50171e-05
1.49909e-05
1.49642e-05
1.49372e-05
1.49105e-05
1.48838e-05
1.48568e-05
1.483e-05
1.48042e-05
1.47784e-05
1.47522e-05
1.47263e-05
1.47004e-05
1.46743e-05
1.4649e-05
1.46246e-05
1.45998e-05
1.4575e-05
1.45509e-05
1.45267e-05
1.45018e-05
1.44788e-05
1.44582e-05
1.44363e-05
1.44135e-05
1.43919e-05
1.437e-05
1.4349e-05
1.43302e-05
1.4311e-05
1.42909e-05
1.42738e-05
1.42579e-05
1.4241e-05
1.42256e-05
1.42123e-05
1.41989e-05
1.41856e-05
1.41735e-05
1.4162e-05
1.41515e-05
1.41425e-05
1.41353e-05
1.41306e-05
1.41275e-05
1.41257e-05
1.41246e-05
1.41247e-05
1.41257e-05
1.41282e-05
1.41326e-05
1.41391e-05
1.41477e-05
1.41579e-05
1.41685e-05
1.4179e-05
1.41901e-05
1.42019e-05
1.42142e-05
1.42272e-05
1.42404e-05
1.42534e-05
1.4267e-05
1.42794e-05
1.42902e-05
1.43005e-05
1.43113e-05
1.43214e-05
1.43307e-05
1.43392e-05
1.43467e-05
1.43546e-05
1.43617e-05
1.43681e-05
1.43741e-05
1.43796e-05
1.4384e-05
1.43877e-05
1.43917e-05
1.4395e-05
1.43975e-05
1.90709e-05
1.89476e-05
1.88164e-05
1.86769e-05
1.85275e-05
1.8367e-05
1.81966e-05
1.80173e-05
1.78294e-05
1.76361e-05
1.74399e-05
1.72433e-05
1.70491e-05
1.6861e-05
1.66821e-05
1.65146e-05
1.63608e-05
1.62218e-05
1.60978e-05
1.59884e-05
1.58926e-05
1.58092e-05
1.57366e-05
1.56735e-05
1.56186e-05
1.55701e-05
1.55266e-05
1.54876e-05
1.54516e-05
1.54166e-05
1.53834e-05
1.53523e-05
1.53227e-05
1.52937e-05
1.52654e-05
1.5238e-05
1.52104e-05
1.51824e-05
1.51547e-05
1.51274e-05
1.51e-05
1.50726e-05
1.5046e-05
1.50196e-05
1.49927e-05
1.49658e-05
1.49395e-05
1.49131e-05
1.48864e-05
1.48604e-05
1.48352e-05
1.48097e-05
1.47841e-05
1.47589e-05
1.47335e-05
1.47082e-05
1.46839e-05
1.46598e-05
1.46354e-05
1.46117e-05
1.45883e-05
1.45645e-05
1.45402e-05
1.45191e-05
1.44987e-05
1.44766e-05
1.44549e-05
1.44341e-05
1.44132e-05
1.43943e-05
1.43757e-05
1.43562e-05
1.43385e-05
1.43227e-05
1.43062e-05
1.42906e-05
1.42767e-05
1.42633e-05
1.42489e-05
1.42357e-05
1.42242e-05
1.42135e-05
1.42049e-05
1.41972e-05
1.41897e-05
1.41824e-05
1.41768e-05
1.41736e-05
1.41729e-05
1.41737e-05
1.41762e-05
1.41801e-05
1.41849e-05
1.41902e-05
1.41964e-05
1.42035e-05
1.42116e-05
1.42208e-05
1.4231e-05
1.42418e-05
1.42528e-05
1.42643e-05
1.42755e-05
1.42867e-05
1.42985e-05
1.43096e-05
1.43194e-05
1.43285e-05
1.43377e-05
1.43476e-05
1.43569e-05
1.43656e-05
1.43737e-05
1.43812e-05
1.43876e-05
1.43952e-05
1.44017e-05
1.44073e-05
1.44125e-05
1.4417e-05
1.44206e-05
1.44241e-05
1.4427e-05
1.89736e-05
1.88596e-05
1.87407e-05
1.86179e-05
1.84928e-05
1.83623e-05
1.82294e-05
1.80937e-05
1.79538e-05
1.78089e-05
1.76592e-05
1.75047e-05
1.73457e-05
1.71828e-05
1.7017e-05
1.68506e-05
1.66862e-05
1.65267e-05
1.63749e-05
1.62337e-05
1.61047e-05
1.59889e-05
1.58864e-05
1.5797e-05
1.57193e-05
1.56518e-05
1.55933e-05
1.55427e-05
1.54978e-05
1.54567e-05
1.54189e-05
1.53842e-05
1.53513e-05
1.53197e-05
1.52898e-05
1.52609e-05
1.52321e-05
1.52036e-05
1.51758e-05
1.51484e-05
1.51208e-05
1.50939e-05
1.50678e-05
1.50415e-05
1.50149e-05
1.49888e-05
1.49632e-05
1.49374e-05
1.49115e-05
1.48866e-05
1.48621e-05
1.48371e-05
1.48125e-05
1.47882e-05
1.47636e-05
1.47394e-05
1.47161e-05
1.46923e-05
1.46691e-05
1.46472e-05
1.46248e-05
1.46014e-05
1.4579e-05
1.45592e-05
1.45389e-05
1.45172e-05
1.44967e-05
1.44764e-05
1.44577e-05
1.44399e-05
1.44213e-05
1.44032e-05
1.43872e-05
1.43719e-05
1.43554e-05
1.43407e-05
1.43269e-05
1.43147e-05
1.43007e-05
1.42882e-05
1.42769e-05
1.42665e-05
1.42568e-05
1.42481e-05
1.42409e-05
1.42357e-05
1.42323e-05
1.42303e-05
1.42292e-05
1.42292e-05
1.42297e-05
1.4231e-05
1.42335e-05
1.42376e-05
1.42431e-05
1.42498e-05
1.42571e-05
1.42647e-05
1.42728e-05
1.42811e-05
1.42898e-05
1.42994e-05
1.43092e-05
1.43188e-05
1.43291e-05
1.43392e-05
1.4348e-05
1.43562e-05
1.43643e-05
1.43729e-05
1.43829e-05
1.43921e-05
1.44006e-05
1.44089e-05
1.44158e-05
1.44221e-05
1.44299e-05
1.44364e-05
1.4442e-05
1.44474e-05
1.4452e-05
1.44553e-05
1.44582e-05
1.8836e-05
1.87315e-05
1.86251e-05
1.85183e-05
1.84123e-05
1.83072e-05
1.81962e-05
1.80857e-05
1.79786e-05
1.78712e-05
1.77615e-05
1.76482e-05
1.75301e-05
1.74058e-05
1.72741e-05
1.71349e-05
1.69884e-05
1.68356e-05
1.66791e-05
1.65226e-05
1.637e-05
1.62248e-05
1.60905e-05
1.59692e-05
1.58615e-05
1.57671e-05
1.56856e-05
1.56156e-05
1.55553e-05
1.55033e-05
1.54573e-05
1.5416e-05
1.53781e-05
1.53432e-05
1.53109e-05
1.52801e-05
1.52501e-05
1.52212e-05
1.51933e-05
1.51657e-05
1.51384e-05
1.51122e-05
1.50866e-05
1.50606e-05
1.50348e-05
1.50097e-05
1.49849e-05
1.49597e-05
1.49349e-05
1.49112e-05
1.48873e-05
1.48632e-05
1.48398e-05
1.48162e-05
1.47925e-05
1.47699e-05
1.47473e-05
1.4724e-05
1.47027e-05
1.46822e-05
1.46604e-05
1.46379e-05
1.46179e-05
1.45993e-05
1.4579e-05
1.45584e-05
1.45386e-05
1.45201e-05
1.45027e-05
1.44855e-05
1.44673e-05
1.44513e-05
1.44366e-05
1.44211e-05
1.44054e-05
1.43914e-05
1.43776e-05
1.43656e-05
1.43533e-05
1.43406e-05
1.43292e-05
1.43189e-05
1.43104e-05
1.43032e-05
1.42969e-05
1.42916e-05
1.42873e-05
1.42839e-05
1.42815e-05
1.42808e-05
1.42813e-05
1.4283e-05
1.42857e-05
1.42891e-05
1.42931e-05
1.42976e-05
1.43026e-05
1.43081e-05
1.43143e-05
1.43211e-05
1.43285e-05
1.43366e-05
1.43448e-05
1.4353e-05
1.43619e-05
1.4371e-05
1.43788e-05
1.43862e-05
1.43941e-05
1.44014e-05
1.44108e-05
1.4421e-05
1.44299e-05
1.44382e-05
1.44464e-05
1.4453e-05
1.44597e-05
1.44671e-05
1.44735e-05
1.44795e-05
1.4485e-05
1.44889e-05
1.44919e-05
1.44954e-05
1.4499e-05
1.86895e-05
1.85984e-05
1.85083e-05
1.84195e-05
1.83316e-05
1.82436e-05
1.81531e-05
1.80651e-05
1.79804e-05
1.78976e-05
1.78151e-05
1.77313e-05
1.76448e-05
1.75537e-05
1.74563e-05
1.73508e-05
1.72357e-05
1.71095e-05
1.69722e-05
1.68251e-05
1.66707e-05
1.65128e-05
1.63563e-05
1.62061e-05
1.60663e-05
1.59395e-05
1.58265e-05
1.57264e-05
1.56389e-05
1.55654e-05
1.55058e-05
1.54561e-05
1.54115e-05
1.53714e-05
1.53352e-05
1.53014e-05
1.52695e-05
1.52395e-05
1.52109e-05
1.5183e-05
1.51559e-05
1.51302e-05
1.51048e-05
1.50792e-05
1.50543e-05
1.50302e-05
1.5006e-05
1.49814e-05
1.49579e-05
1.49352e-05
1.49118e-05
1.48889e-05
1.48666e-05
1.48436e-05
1.48215e-05
1.48002e-05
1.47781e-05
1.47563e-05
1.47366e-05
1.47167e-05
1.46955e-05
1.4675e-05
1.46566e-05
1.46387e-05
1.46188e-05
1.45992e-05
1.45809e-05
1.45638e-05
1.45477e-05
1.45303e-05
1.4514e-05
1.44987e-05
1.44849e-05
1.447e-05
1.4455e-05
1.44414e-05
1.4428e-05
1.44158e-05
1.44041e-05
1.43927e-05
1.43823e-05
1.43729e-05
1.43647e-05
1.43574e-05
1.43509e-05
1.43455e-05
1.43412e-05
1.43382e-05
1.43362e-05
1.43353e-05
1.43352e-05
1.43357e-05
1.43368e-05
1.43386e-05
1.43413e-05
1.43448e-05
1.43489e-05
1.43534e-05
1.43583e-05
1.43636e-05
1.43693e-05
1.43757e-05
1.43822e-05
1.43891e-05
1.43968e-05
1.4405e-05
1.44121e-05
1.44187e-05
1.44259e-05
1.4433e-05
1.44414e-05
1.44523e-05
1.44614e-05
1.44697e-05
1.44781e-05
1.44862e-05
1.44926e-05
1.44989e-05
1.45063e-05
1.4513e-05
1.45193e-05
1.45241e-05
1.45274e-05
1.45309e-05
1.45353e-05
1.85612e-05
1.8483e-05
1.84079e-05
1.83358e-05
1.8266e-05
1.81971e-05
1.81244e-05
1.80528e-05
1.79836e-05
1.79166e-05
1.78509e-05
1.77857e-05
1.77196e-05
1.76511e-05
1.75786e-05
1.75006e-05
1.74148e-05
1.73191e-05
1.72118e-05
1.70915e-05
1.69577e-05
1.68114e-05
1.66553e-05
1.64937e-05
1.63321e-05
1.61763e-05
1.60311e-05
1.59003e-05
1.57853e-05
1.56848e-05
1.55973e-05
1.55214e-05
1.54598e-05
1.54104e-05
1.53675e-05
1.53288e-05
1.52935e-05
1.52613e-05
1.5231e-05
1.5202e-05
1.51747e-05
1.5149e-05
1.51236e-05
1.50983e-05
1.50742e-05
1.50508e-05
1.5027e-05
1.50033e-05
1.49812e-05
1.4959e-05
1.49363e-05
1.49149e-05
1.48931e-05
1.48711e-05
1.48507e-05
1.48302e-05
1.48088e-05
1.4789e-05
1.47703e-05
1.47509e-05
1.47304e-05
1.47121e-05
1.46948e-05
1.46772e-05
1.46578e-05
1.46396e-05
1.4623e-05
1.46073e-05
1.45918e-05
1.45751e-05
1.456e-05
1.45453e-05
1.45316e-05
1.45179e-05
1.45037e-05
1.44904e-05
1.44776e-05