/*--------------------------------*- C++ -*----------------------------------*\
| =========                 |                                                 |
| \\      /  F ield         | OpenFOAM: The Open Source CFD Toolbox           |
|  \\    /   O peration     | Version:  v1706                                 |
|   \\  /    A nd           | Web:      www.OpenFOAM.com                      |
|    \\/     M anipulation  |                                                 |
\*---------------------------------------------------------------------------*/
FoamFile
{
    version     2.0;
    format      ascii;
    class       volScalarField;
    location    "2e-05";
    object      p;
}
// * * * * * * * * * * * * * * * * * * * * * * * * * * * * * * * * * * * * * //

dimensions      [1 -1 -2 0 0 0 0];


internalField   nonuniform List<scalar> 
29871
(
21.9139
21.9139
21.9139
21.9139
21.914
21.914
21.914
21.914
21.914
21.914
21.914
21.914
21.914
21.914
21.914
21.9141
21.9141
21.9141
21.9141
21.9141
21.9141
21.9141
21.9142
21.9142
21.9142
21.9142
21.9142
21.9142
21.9143
21.9143
21.9143
21.9143
21.9143
21.9144
21.9144
21.9144
21.9144
21.9144
21.9144
21.9145
21.9145
21.9145
21.9145
21.9145
21.9145
21.9145
21.9145
21.9145
21.9145
21.9145
21.9145
21.9145
21.9145
21.9145
21.9145
21.9145
21.9145
21.9145
21.9145
21.9145
21.9145
21.9145
21.9144
21.9144
21.9144
21.9144
21.9144
21.9144
21.9143
21.9143
21.9143
21.9143
21.9143
21.9143
21.9143
21.9142
21.9142
21.9142
21.9142
21.9142
21.9142
21.9142
21.9141
21.9141
21.9141
21.9141
21.9141
21.9141
21.9141
21.9141
21.9141
21.9141
21.9141
21.9141
21.9141
21.9141
21.9141
21.9141
21.9141
21.9141
21.9141
21.9141
21.9141
21.9141
21.9141
21.9141
21.9141
21.9142
21.9142
21.9142
21.9143
21.9143
21.9143
21.9144
21.9144
21.9145
21.9145
21.9146
21.9147
21.9147
21.9148
21.9149
21.915
21.9151
21.9152
21.9152
21.9153
21.9154
21.9155
21.9157
21.9158
21.9159
21.916
21.9161
21.9162
21.9163
21.9165
21.9166
21.9167
21.9168
21.9169
21.917
21.9171
21.9172
21.9173
21.9174
21.9175
21.9175
21.9176
21.9177
21.9177
21.9178
21.9178
21.9178
21.9178
21.9179
21.9179
21.9178
21.9178
21.9178
21.9178
21.9177
21.9177
21.9176
21.9176
21.9175
21.9174
21.9173
21.9172
21.9172
21.9171
21.917
21.9169
21.9168
21.9167
21.9166
21.9165
21.9164
21.9163
21.9162
21.9161
21.916
21.9159
21.9158
21.9157
21.9157
21.9156
21.9155
21.9155
21.9154
21.9153
21.9153
21.9153
21.9152
21.9152
21.9151
21.9151
21.9151
21.9151
21.9151
21.9151
21.9151
21.915
21.915
21.9151
21.9151
21.9151
21.9151
21.9151
21.9151
21.9145
21.9146
21.9146
21.9147
21.9148
21.9149
21.915
21.9152
21.9153
21.9155
21.9156
21.9158
21.916
21.9162
21.9164
21.9166
21.9168
21.9171
21.9174
21.9176
21.9179
21.9182
21.9185
21.9189
21.9192
21.9195
21.9199
21.9203
21.9206
21.921
21.9214
21.9217
21.9221
21.9225
21.9228
21.9232
21.9235
21.9239
21.9242
21.9245
21.9248
21.9251
21.9254
21.9256
21.9259
21.9261
21.9262
21.9264
21.9265
21.9266
21.9267
21.9267
21.9267
21.9267
21.9267
21.9266
21.9265
21.9264
21.9262
21.926
21.9258
21.9256
21.9254
21.9251
21.9249
21.9246
21.9243
21.924
21.9237
21.9233
21.923
21.9227
21.9224
21.9221
21.9218
21.9214
21.9211
21.9208
21.9206
21.9203
21.92
21.9198
21.9195
21.9193
21.9191
21.9189
21.9188
21.9186
21.9185
21.9183
21.9182
21.9181
21.918
21.918
21.9179
21.9179
21.9179
21.9178
21.9178
21.9178
21.9178
21.9179
21.9179
21.9179
21.9179
21.918
21.9155
21.9157
21.916
21.9162
21.9165
21.9168
21.9171
21.9175
21.9179
21.9183
21.9187
21.9192
21.9197
21.9203
21.9209
21.9215
21.9222
21.9229
21.9236
21.9243
21.9251
21.926
21.9268
21.9277
21.9286
21.9296
21.9306
21.9316
21.9326
21.9336
21.9347
21.9357
21.9367
21.9378
21.9388
21.9398
21.9408
21.9417
21.9427
21.9435
21.9444
21.9452
21.9459
21.9466
21.9472
21.9477
21.9482
21.9486
21.949
21.9493
21.9494
21.9495
21.9496
21.9495
21.9494
21.9492
21.9489
21.9486
21.9482
21.9477
21.9471
21.9465
21.9459
21.9452
21.9444
21.9437
21.9429
21.942
21.9412
21.9403
21.9394
21.9385
21.9376
21.9368
21.9359
21.9351
21.9342
21.9334
21.9327
21.9319
21.9312
21.9305
21.9299
21.9293
21.9287
21.9282
21.9278
21.9273
21.927
21.9266
21.9263
21.9261
21.9259
21.9257
21.9256
21.9255
21.9254
21.9254
21.9254
21.9254
21.9254
21.9255
21.9256
21.9257
21.9258
21.926
21.9178
21.9183
21.9188
21.9194
21.9201
21.9208
21.9216
21.9225
21.9235
21.9245
21.9256
21.9268
21.928
21.9294
21.9308
21.9323
21.934
21.9357
21.9375
21.9395
21.9415
21.9436
21.9458
21.9481
21.9505
21.9529
21.9554
21.9579
21.9605
21.9631
21.9657
21.9683
21.971
21.9736
21.9762
21.9788
21.9814
21.9839
21.9863
21.9886
21.9908
21.993
21.995
21.9968
21.9985
22.0001
22.0015
22.0027
22.0037
22.0045
22.0052
22.0056
22.0058
22.0059
22.0057
22.0054
22.0048
22.0041
22.0032
22.0021
22.0009
21.9995
21.998
21.9963
21.9945
21.9926
21.9907
21.9886
21.9865
21.9843
21.9821
21.9799
21.9777
21.9754
21.9732
21.971
21.9689
21.9668
21.9647
21.9628
21.9609
21.9591
21.9574
21.9558
21.9543
21.9529
21.9516
21.9505
21.9494
21.9485
21.9477
21.947
21.9464
21.9459
21.9456
21.9453
21.9451
21.945
21.945
21.945
21.9452
21.9454
21.9456
21.9459
21.9463
21.9467
21.9471
21.9241
21.9254
21.9268
21.9284
21.9301
21.932
21.934
21.9362
21.9386
21.9412
21.944
21.9471
21.9504
21.9539
21.9576
21.9616
21.9658
21.9702
21.9748
21.9796
21.9847
21.9899
21.9954
22.001
22.0068
22.0129
22.0191
22.0254
22.0318
22.0384
22.045
22.0517
22.0583
22.065
22.0715
22.0779
22.0842
22.0903
22.0962
22.1019
22.1073
22.1124
22.1172
22.1216
22.1257
22.1294
22.1326
22.1354
22.1378
22.1396
22.141
22.1419
22.1423
22.1423
22.1418
22.1408
22.1393
22.1373
22.135
22.1322
22.129
22.1255
22.1216
22.1174
22.113
22.1083
22.1033
22.0982
22.093
22.0876
22.0822
22.0767
22.0713
22.0658
22.0604
22.0551
22.0499
22.0448
22.04
22.0353
22.0308
22.0265
22.0225
22.0187
22.0151
22.0119
22.0089
22.0061
22.0037
22.0016
21.9998
21.9982
21.9969
21.9959
21.9952
21.9947
21.9945
21.9945
21.9946
21.995
21.9955
21.9962
21.9971
21.9981
21.9993
22.0006
22.002
21.9322
21.9345
21.9371
21.94
21.9433
21.9468
21.9508
21.9551
21.9599
21.9651
21.9708
21.9769
21.9835
21.9905
21.9981
22.0062
22.0148
22.0239
22.0337
22.044
22.055
22.0665
22.0786
22.0913
22.1045
22.1182
22.1322
22.1466
22.1614
22.1765
22.1918
22.2074
22.2231
22.2388
22.2545
22.2702
22.2857
22.301
22.3161
22.3308
22.3452
22.359
22.3722
22.3847
22.3966
22.4076
22.4178
22.4271
22.4354
22.4427
22.4489
22.4539
22.4579
22.4607
22.4623
22.4627
22.462
22.4604
22.4576
22.4537
22.4487
22.4427
22.4358
22.428
22.4194
22.41
22.3999
22.3892
22.3779
22.3662
22.3541
22.3416
22.329
22.3161
22.3032
22.2903
22.2775
22.2648
22.2523
22.2402
22.2283
22.2169
22.2059
22.1954
22.1854
22.176
22.1673
22.1593
22.1519
22.1453
22.1393
22.1341
22.1295
22.1256
22.1224
22.1199
22.1181
22.1168
22.1163
22.1163
22.1167
22.1177
22.1191
22.1209
22.1232
22.1259
22.129
22.1324
22.1361
22.14
21.9604
21.9662
21.9727
21.9799
21.988
21.9969
22.0067
22.0174
22.029
22.0417
22.0555
22.0705
22.0867
22.1042
22.1231
22.1433
22.1648
22.1876
22.2117
22.2371
22.2636
22.2913
22.32
22.3499
22.3808
22.4129
22.446
22.4801
22.5151
22.5508
22.5871
22.6239
22.6611
22.6986
22.7361
22.7735
22.8105
22.8468
22.8822
22.9165
22.9496
22.9812
23.0113
23.0396
23.0661
23.0905
23.1129
23.133
23.1509
23.1663
23.1791
23.1894
23.1971
23.202
23.2043
23.2039
23.2011
23.1959
23.1879
23.1774
23.1645
23.1494
23.1322
23.113
23.0919
23.0692
23.0449
23.0192
22.9924
22.9646
22.9361
22.9069
22.8774
22.8476
22.8179
22.7883
22.7589
22.73
22.7016
22.6739
22.6471
22.6214
22.5968
22.5735
22.5516
22.531
22.5118
22.4941
22.478
22.4634
22.4506
22.4395
22.43
22.4223
22.4163
22.4118
22.4089
22.4078
22.4079
22.4092
22.4117
22.4154
22.4204
22.4265
22.4336
22.4417
22.4508
22.4606
22.4712
22.4824
22.031
22.0448
22.0603
22.0777
22.0971
22.1187
22.1426
22.1689
22.1977
22.2291
22.2631
22.2998
22.3389
22.3808
22.4253
22.4727
22.5231
22.5766
22.6335
22.6936
22.7571
22.8239
22.8936
22.9661
23.0408
23.1176
23.1962
23.2762
23.3576
23.4402
23.5236
23.6077
23.6922
23.7764
23.86
23.9426
24.0239
24.1036
24.1814
24.2567
24.3292
24.3983
24.4637
24.5251
24.5821
24.6345
24.682
24.7243
24.7613
24.7926
24.8182
24.8378
24.8512
24.8587
24.8602
24.8558
24.8468
24.8318
24.8109
24.7848
24.7536
24.7176
24.6769
24.632
24.5833
24.531
24.4755
24.4172
24.3566
24.294
24.2298
24.1644
24.0982
24.0315
23.9647
23.8982
23.8325
23.768
23.7052
23.6443
23.5855
23.5291
23.4752
23.4241
23.3761
23.3315
23.2905
23.2534
23.2201
23.1907
23.1652
23.1434
23.1255
23.1116
23.1013
23.0948
23.0925
23.093
23.0965
23.1031
23.1126
23.1251
23.1404
23.1582
23.1784
23.2008
23.2253
23.2517
23.2799
23.3098
22.205
22.2377
22.2749
22.3167
22.3632
22.4145
22.4709
22.5324
22.5996
22.6726
22.7522
22.8386
22.9321
23.0327
23.1403
23.2547
23.3757
23.5031
23.6369
23.7768
23.9223
24.0731
24.229
24.39
24.556
24.7267
24.9016
25.0801
25.2615
25.4453
25.6309
25.8175
26.0048
26.1922
26.3791
26.5645
26.747
26.925
27.0969
27.2615
27.4181
27.5659
27.7043
27.8324
27.9497
28.0557
28.1504
28.2336
28.3048
28.3632
28.4087
28.4409
28.4606
28.4675
28.4602
28.4431
28.4141
28.3724
28.3187
28.2535
28.1773
28.0912
27.9959
27.892
27.78
27.661
27.5358
27.4055
27.2706
27.1321
26.9909
26.8481
26.7044
26.5609
26.4183
26.2773
26.1385
26.0022
25.869
25.7395
25.6148
25.4959
25.3834
25.278
25.1798
25.0891
25.006
24.9306
24.8633
24.8043
24.7542
24.7136
24.682
24.6589
24.6453
24.6411
24.6432
24.6529
24.6698
24.6937
24.7247
24.7622
24.8061
24.856
24.9115
24.9723
25.0379
25.108
25.1825
25.2611
22.6324
22.7048
22.788
22.8826
22.9894
23.1088
23.2414
23.3873
23.5469
23.72
23.9066
24.1061
24.3183
24.5433
24.7817
25.0342
25.3014
25.5837
25.8812
26.1948
26.525
26.8709
27.2304
27.6007
27.9789
28.363
28.7511
29.1422
29.535
29.9286
30.3221
30.7144
31.1046
31.4904
31.869
32.2385
32.5973
32.9448
33.2802
33.6023
33.9088
34.197
34.4652
34.7118
34.9358
35.1362
35.312
35.4625
35.589
35.6913
35.7642
35.8106
35.8274
35.8194
35.7907
35.74
35.6622
35.5607
35.4367
35.2915
35.1272
34.9436
34.7408
34.5213
34.2876
34.0408
33.7818
33.5127
33.2356
32.9522
32.6637
32.3717
32.0778
31.7835
31.4898
31.1982
30.9111
30.6315
30.3618
30.1036
29.8575
29.6235
29.4017
29.1927
28.9981
28.8197
28.6588
28.5168
28.3946
28.292
28.2084
28.1427
28.095
28.0702
28.0631
28.0714
28.0968
28.1384
28.1962
28.2698
28.3586
28.4615
28.5776
28.7059
28.8459
28.997
29.1588
29.3304
29.5108
29.6994
23.5411
23.6727
23.8306
24.0151
24.2259
24.4627
24.7255
25.0148
25.3316
25.6773
26.0539
26.4645
26.9108
27.3927
27.9082
28.4542
29.0277
29.6263
30.2489
30.8951
31.5631
32.2494
32.9517
33.67
34.4052
35.1569
35.9224
36.6975
37.4779
38.2596
39.0399
39.8163
40.5856
41.3446
42.0924
42.8307
43.5598
44.2776
44.9779
45.6459
46.2694
46.8459
47.3746
47.8508
48.2716
48.6378
48.9487
49.2047
49.4115
49.5748
49.6833
49.7365
49.7437
49.7081
49.6118
49.4712
49.3053
49.1013
48.8532
48.5674
48.2448
47.8824
47.489
47.0764
46.6434
46.1858
45.7092
45.2195
44.7169
44.2018
43.6784
43.1501
42.6177
42.0826
41.5491
41.0233
40.5098
40.0092
39.5185
39.0356
38.5618
38.1021
37.6638
37.2546
36.8795
36.5401
36.2352
35.9643
35.7263
35.5205
35.3495
35.2173
35.1288
35.0838
35.0738
35.1036
35.1677
35.2648
35.3964
35.5616
35.7581
35.985
36.2417
36.5268
36.8387
37.1755
37.5345
37.9147
38.3169
38.7417
39.188
25.8934
26.135
26.44
26.8098
27.2462
27.7503
28.3215
28.9583
29.6583
30.4202
31.2421
32.1185
33.0434
34.0146
35.0336
36.1033
37.2259
38.4017
39.6293
40.9064
42.2408
43.6596
45.1654
46.7247
48.3034
49.8755
51.4242
52.9383
54.4083
55.8242
57.1766
58.4573
59.6618
60.7892
61.8308
62.7725
63.6114
64.3462
64.9743
65.5105
65.9816
66.4011
66.7494
67.027
67.2497
67.4026
67.4917
67.5326
67.5065
67.4282
67.3427
67.2483
67.0457
66.7619
66.502
66.2588
65.9722
65.6361
65.2734
64.8693
64.423
63.9775
63.5332
63.0463
62.518
61.9814
61.4321
60.8547
60.2583
59.6503
59.0239
58.3797
57.7302
57.0847
56.4392
55.7808
55.0998
54.4023
53.7097
53.0469
52.4305
51.865
51.3438
50.8526
50.3796
49.927
49.5087
49.1395
48.8304
48.5958
48.4468
48.3632
48.3382
48.3802
48.4924
48.6581
48.8881
49.186
49.5442
49.9608
50.4342
50.9527
51.5053
52.0898
52.7053
53.3494
54.0216
54.7147
55.4148
56.1139
56.8125
57.5137
58.22
31.5838
31.9683
32.5078
33.1922
34.0127
34.9608
36.0311
37.2218
38.5331
39.964
41.5218
43.2483
45.1705
47.2609
49.4759
51.7713
54.1059
56.4423
58.7481
60.9972
63.1613
65.1942
67.0731
68.8045
70.3979
71.8626
73.1935
74.3751
75.408
76.3012
77.0552
77.6934
78.2281
78.6625
78.9909
79.2285
79.3978
79.4966
79.5355
79.5161
79.423
79.2853
79.1464
79.0382
78.8059
78.5419
78.3159
78.0175
77.6591
77.3877
77.1499
76.8289
76.3837
76.0158
75.7336
75.3769
74.955
74.5522
74.142
73.7324
73.3886
73.0294
72.59
72.1491
71.7717
71.3816
70.9535
70.5378
70.1357
69.7294
69.3341
68.9566
68.5673
68.1414
67.6893
67.242
66.8333
66.4808
66.1721
65.8749
65.5594
65.2171
64.8592
64.5055
64.205
63.991
63.8569
63.796
63.7989
63.843
63.8793
63.9814
64.1574
64.3536
64.6094
64.9273
65.282
65.6679
66.0895
66.5305
66.9721
67.4335
67.9268
68.4279
68.9156
69.3941
69.8608
70.3183
70.7853
71.2553
71.708
72.1386
72.5499
44.4432
44.2117
44.2844
44.6989
45.4618
46.573
48.0451
49.8578
51.977
54.3574
56.9449
59.6782
62.4871
65.268
67.9354
70.4588
72.8221
75.0142
77.0327
78.8792
80.5411
81.9985
83.2461
84.2788
85.1083
85.7669
86.2749
86.652
86.9124
87.0986
87.2425
87.315
87.3278
87.295
87.2029
87.0612
86.9391
86.8347
86.565
86.2785
86.0196
85.6705
85.2736
84.9642
84.7269
84.4081
84.0197
83.6417
83.2267
82.7277
82.3433
82.0282
81.6453
81.1811
80.8026
80.4504
79.9943
79.4811
79.1294
78.788
78.3984
78.0287
77.6289
77.1455
76.7511
76.4607
76.1176
75.7209
75.3968
75.1052
74.7991
74.5001
74.205
73.9023
73.6015
73.3611
73.2028
73.077
72.9431
72.7867
72.6094
72.4117
72.2241
72.1271
72.1499
72.2491
72.352
72.4372
72.5252
72.6355
72.7655
72.889
73.067
73.3131
73.5927
73.9085
74.2349
74.5409
74.8602
75.1874
75.5019
75.8116
76.1309
76.4416
76.7072
76.9583
77.2143
77.4705
77.7082
77.9447
78.1572
78.3407
78.5251
78.7101
78.8775
78.8705
76.6902
75.4197
74.9095
74.8646
75.2941
76.2417
77.5911
79.1714
80.8577
82.5683
84.2382
85.8166
87.2669
88.5682
89.706
90.6695
91.4532
92.0626
92.5105
92.8199
93.0446
93.2163
93.3143
93.3522
93.3387
93.2569
93.1089
92.9653
92.8494
92.5408
92.1366
91.7652
91.3696
90.9283
90.4918
90.0966
89.6912
89.2424
88.7847
88.3295
87.8413
87.3415
86.8986
86.4862
86.0507
85.6109
85.169
84.6948
84.2236
83.8153
83.4088
82.976
82.5721
82.1769
81.7068
81.2053
80.8936
80.6016
80.2353
79.8654
79.4938
79.0654
78.7439
78.5
78.1872
77.8172
77.59
77.3765
77.1157
76.8695
76.6436
76.4253
76.2811
76.1717
76.0412
75.8866
75.7028
75.5042
75.3598
75.3117
75.3448
75.4602
75.6025
75.6999
75.7747
75.8493
75.9494
76.1148
76.3538
76.6545
76.981
77.3106
77.5963
77.877
78.1728
78.4457
78.738
79.0252
79.2682
79.4994
79.7241
79.9119
80.0842
80.2668
80.4573
80.5819
80.6658
80.7764
80.9026
81.02
81.1482
81.2421
81.292
81.3494
81.4214
157.648
153.868
149.698
145.186
140.414
135.517
130.647
125.967
121.604
117.646
114.134
111.084
108.52
106.461
104.855
103.573
102.549
101.766
101.147
100.63
100.19
99.8076
99.46
99.1324
98.8189
98.5109
98.1974
97.9456
97.7378
97.3529
96.8761
96.3984
95.9202
95.4259
94.9387
94.4995
94.0669
93.5839
93.089
92.6157
92.1295
91.6249
91.16
90.7255
90.2672
89.7869
89.3196
88.8478
88.3467
87.8511
87.4134
86.9811
86.534
86.0963
85.6521
85.1797
84.7341
84.3335
83.9124
83.4964
83.1204
82.7143
82.2066
81.7957
81.5337
81.2212
80.8428
80.4906
80.1011
79.7608
79.5224
79.2426
78.866
78.6185
78.4258
78.1593
77.9215
77.7923
77.6486
77.4782
77.3223
77.1588
77.0118
76.918
76.8751
76.9147
77.0254
77.1268
77.1601
77.1821
77.2156
77.2861
77.421
77.6407
77.9322
78.2591
78.5537
78.7874
79.0167
79.2573
79.5071
79.7893
80.0725
80.3376
80.6339
80.8841
81.0443
81.1935
81.3734
81.5365
81.6817
81.7982
81.8768
81.9882
82.0931
82.1685
82.2448
82.3267
82.374
82.4071
82.4682
82.5207
82.5477
176.619
174.943
172.939
170.571
167.765
164.461
160.723
156.651
152.27
147.629
142.82
137.949
133.149
128.57
124.306
120.415
116.964
113.967
111.368
109.12
107.209
105.596
104.228
103.071
102.075
101.176
100.352
99.6321
98.973
98.3044
97.6575
97.0619
96.4958
95.9292
95.3927
94.9054
94.4056
93.8825
93.3702
92.8732
92.3615
91.8469
91.3876
90.9399
90.4618
89.9796
89.5163
89.0428
88.5399
88.0641
87.6373
87.2016
86.7613
86.3348
85.8933
85.4342
85.0227
84.6231
84.2082
83.8413
83.4856
83.0621
82.5715
82.2618
82.0119
81.6744
81.3203
80.9722
80.6212
80.3811
80.1479
79.8211
79.5425
79.3596
79.1333
78.9073
78.764
78.6333
78.4472
78.2726
78.1537
78.068
78.0396
78.0446
77.9941
77.9235
77.8842
77.8995
77.9742
78.1086
78.3028
78.5308
78.7589
78.97
79.1718
79.3817
79.6097
79.865
80.15
80.4335
80.7018
80.9765
81.2188
81.4435
81.6946
81.9243
82.0816
82.1869
82.2998
82.4556
82.5971
82.709
82.7961
82.8541
82.8985
82.9977
83.0842
83.1508
83.2072
83.2415
83.2631
83.3047
83.3311
181.59
180.789
179.778
178.543
177.044
175.135
172.738
169.892
166.612
162.88
158.692
154.082
149.143
143.998
138.766
133.605
128.684
124.105
119.925
116.205
112.977
110.213
107.871
105.902
104.226
102.772
101.539
100.52
99.624
98.7808
98.0132
97.3364
96.7016
96.0806
95.5174
94.9921
94.4546
93.9139
93.3979
92.8877
92.3553
91.8521
91.4008
90.9373
90.4501
89.9823
89.5322
89.0612
88.5712
88.1319
87.7169
87.2843
86.8643
86.4543
86.0188
85.5966
85.2153
84.8022
84.4082
84.0936
83.7529
83.3158
82.9021
82.6537
82.3965
82.0611
81.7354
81.3914
81.133
80.9348
80.6775
80.3865
80.1923
80.0239
79.7878
79.5938
79.4781
79.4007
79.2461
79.1056
79.0161
78.9444
78.8782
78.8218
78.7941
78.8236
78.9042
79.0124
79.1366
79.2731
79.4075
79.5445
79.7044
79.9047
80.1463
80.4106
80.6754
80.9381
81.1966
81.4323
81.6552
81.9002
82.1335
82.3366
82.5564
82.7717
82.9306
83.0427
83.1077
83.1941
83.3482
83.4835
83.5876
83.6696
83.7021
83.7402
83.8477
83.9328
83.9961
84.0537
84.0879
84.0938
84.1074
182.886
182.325
181.584
180.717
179.743
178.537
176.862
174.827
172.531
169.889
166.83
163.324
159.376
155
150.235
145.181
139.963
134.701
129.539
124.649
120.16
116.145
112.639
109.628
107.05
104.866
103.074
101.621
100.396
99.3219
98.3636
97.5242
96.7585
96.0608
95.4476
94.8683
94.293
93.7421
93.222
92.6966
92.163
91.687
91.2403
90.7692
90.2912
89.85
89.4156
88.9494
88.4897
88.089
87.683
87.2643
86.8754
86.4763
86.0578
85.6921
85.3196
84.8901
84.5683
84.2982
83.9582
83.5214
83.2028
82.9876
82.7179
82.4102
82.0968
81.8218
81.6242
81.4236
81.1487
80.9455
80.8157
80.6495
80.4371
80.2755
80.1613
80.1089
80.0176
79.8878
79.7864
79.7119
79.6866
79.7075
79.7491
79.8027
79.8634
79.9328
80.0234
80.154
80.3262
80.5325
80.756
80.9832
81.2078
81.4262
81.6433
81.8688
82.1015
82.3283
82.5529
82.7985
83.0153
83.1968
83.399
83.6086
83.7624
83.8747
83.9552
83.9976
84.1038
84.2663
84.3949
84.4966
84.5692
84.5926
84.6448
84.7416
84.8197
84.888
84.9399
84.951
84.9428
84.9788
85.0256
182.281
182.076
181.723
181.196
180.433
179.365
178.047
176.558
174.899
173.015
170.849
168.359
165.511
162.26
158.578
154.469
149.948
145.048
139.865
134.55
129.273
124.205
119.505
115.277
111.567
108.377
105.643
103.27
101.257
99.7104
98.6137
97.7229
96.848
96.045
95.3433
94.689
94.069
93.5002
92.9626
92.4197
91.8989
91.4424
90.9945
90.5207
90.0644
89.6511
89.2259
88.7642
88.3519
87.9789
87.5751
87.1895
86.8259
86.4241
86.0573
85.7342
85.3487
84.9608
84.6991
84.4461
84.0963
83.7186
83.4701
83.2702
82.9927
82.6978
82.4312
82.2256
82.0651
81.8365
81.6097
81.4529
81.3666
81.2266
81.0424
80.904
80.7968
80.7256
80.6661
80.5983
80.5451
80.5161
80.5135
80.5333
80.5714
80.6318
80.7205
80.8391
80.9834
81.1472
81.3246
81.5075
81.6972
81.8985
82.115
82.3453
82.5835
82.8221
83.0513
83.2661
83.4759
83.6905
83.8793
84.0492
84.2404
84.4542
84.6119
84.7244
84.8104
84.8559
84.9312
85.1074
85.2536
85.365
85.4631
85.531
85.5454
85.5888
85.6819
85.7683
85.8346
85.8603
85.8396
85.8623
85.9217
181.348
181.285
181.148
180.888
180.433
179.681
178.582
177.304
175.918
174.412
172.765
170.942
168.893
166.562
163.905
160.882
157.441
153.534
149.156
144.342
139.175
133.797
128.396
123.163
118.271
113.854
110.005
106.768
104.116
101.922
100.013
98.3337
97.065
96.147
95.3395
94.5851
93.8965
93.2811
92.7028
92.1365
91.6241
91.1706
90.7142
90.2386
89.8122
89.4185
88.9882
88.5443
88.1857
87.8172
87.4236
87.0827
86.7197
86.3317
86.0325
85.7238
85.3371
85.019
84.7932
84.5362
84.1839
83.8946
83.6935
83.4953
83.2124
82.9396
82.7296
82.5771
82.4269
82.2061
82.0274
81.8983
81.8167
81.7153
81.5794
81.4623
81.3648
81.2972
81.2587
81.2297
81.2105
81.2093
81.2321
81.2811
81.3545
81.4492
81.5623
81.6916
81.8359
81.9952
82.172
82.3667
82.5755
82.7945
83.0178
83.2419
83.4654
83.6865
83.9038
84.1185
84.3338
84.5474
84.7414
84.9155
85.0988
85.3107
85.4827
85.5943
85.676
85.7158
85.7973
85.9893
86.1441
86.2564
86.3697
86.4679
86.5166
86.5075
86.5805
86.6888
86.7737
86.8158
86.7929
86.7992
86.858
180.508
180.472
180.431
180.387
180.281
180.031
179.523
178.646
177.566
176.39
175.124
173.765
172.299
170.708
168.961
167.022
164.842
162.356
159.494
156.193
152.401
148.092
143.285
138.057
132.55
126.971
121.571
116.581
112.138
108.277
104.982
102.246
100.045
98.2548
96.7811
95.6309
94.6794
93.8637
93.1562
92.5055
91.8996
91.3748
90.9056
90.4274
89.9532
89.5569
89.164
88.715
88.3247
87.9924
87.6093
87.2573
86.942
86.5684
86.2344
85.9727
85.6622
85.3077
85.042
84.8378
84.5672
84.2531
84.0204
83.8568
83.6557
83.3758
83.1445
82.9781
82.8692
82.7054
82.5197
82.3794
82.266
82.1837
82.1143
82.0244
81.9359
81.8597
81.8079
81.784
81.7781
81.7853
81.8111
81.8602
81.9329
82.0266
82.1379
82.2659
82.4114
82.5753
82.7571
82.9544
83.1634
83.3802
83.601
83.8247
84.051
84.2785
84.5037
84.7234
84.9377
85.1468
85.3489
85.5417
85.724
85.9039
86.1119
86.3266
86.4585
86.5392
86.5757
86.689
86.8989
87.0509
87.1527
87.2634
87.378
87.4587
87.4641
87.4744
87.5773
87.688
87.7499
87.7324
87.7185
87.7761
179.803
179.757
179.729
179.704
179.626
179.436
179.089
178.449
177.525
176.506
175.427
174.278
173.054
171.75
170.355
168.849
167.205
165.381
163.314
160.936
158.171
154.941
151.176
146.831
141.915
136.53
130.861
125.146
119.625
114.52
109.999
106.14
102.923
100.27
98.0932
96.3326
95.0212
94.0457
93.2001
92.4386
91.761
91.1917
90.6804
90.1611
89.6973
89.3114
88.8938
88.445
88.1104
87.7698
87.385
87.0806
86.7687
86.4076
86.122
85.8738
85.5584
85.2544
85.0265
84.8313
84.5504
84.2865
84.0925
83.9606
83.7523
83.4962
83.3002
83.1654
83.0638
82.9209
82.7776
82.664
82.5631
82.4839
82.4251
82.3704
82.3186
82.2705
82.2377
82.2287
82.2409
82.2715
82.321
82.3909
82.4816
82.5914
82.7181
82.8607
83.0201
83.1972
83.3902
83.5964
83.813
84.0373
84.2683
84.5026
84.7396
84.9776
85.2139
85.4466
85.6749
85.8965
86.1085
86.3109
86.5032
86.6833
86.8662
87.0818
87.246
87.3378
87.4047
87.553
87.7791
87.9373
88.0411
88.1547
88.2807
88.3806
88.4213
88.3948
88.4599
88.5906
88.6795
88.6838
88.6543
88.7116
88.7743
88.7986
179.264
179.222
179.171
179.108
179.004
178.811
178.529
178.062
177.28
176.386
175.463
174.49
173.454
172.355
171.199
169.986
168.696
167.289
165.738
164.001
162.016
159.705
156.973
153.725
149.877
145.395
140.304
134.709
128.812
122.891
117.239
112.096
107.611
103.846
100.781
98.3183
96.3096
94.7004
93.523
92.5858
91.7868
91.1309
90.5372
89.9615
89.5018
89.0929
88.6283
88.2163
87.8996
87.5323
87.1734
86.8946
86.575
86.2446
85.9919
85.7413
85.4325
85.1722
84.9783
84.7724
84.499
84.2726
84.1152
84.0089
83.7942
83.5646
83.3986
83.2793
83.1753
83.0669
82.9636
82.8706
82.7869
82.7191
82.6729
82.6414
82.6127
82.5878
82.5752
82.5828
82.6146
82.6683
82.7387
82.8261
82.932
83.0562
83.1969
83.353
83.5256
83.7139
83.9162
84.1303
84.3541
84.5857
84.8232
85.064
85.3074
85.5509
85.7943
86.0362
86.2752
86.5093
86.7364
86.9577
87.1764
87.3843
87.5805
87.801
87.9961
88.1086
88.1859
88.3418
88.5725
88.732
88.8312
88.9525
89.093
89.2069
89.275
89.2585
89.2858
89.4183
89.5314
89.5693
89.5367
89.557
89.6034
89.626
178.832
178.779
178.691
178.597
178.479
178.286
178.004
177.588
176.929
176.144
175.345
174.53
173.648
172.699
171.717
170.716
169.675
168.57
167.373
166.054
164.59
162.929
160.993
158.69
155.916
152.569
148.561
143.847
138.465
132.562
126.391
120.277
114.549
109.452
105.104
101.512
98.6206
96.3246
94.477
93.0633
92.0627
91.2641
90.5386
89.8952
89.4017
88.9321
88.4197
88.0437
87.7091
87.3139
86.9874
86.7109
86.3807
86.0823
85.8509
85.5849
85.2992
85.0698
84.8992
84.672
84.42
84.2243
84.0982
83.9985
83.781
83.5788
83.438
83.3296
83.2318
83.1457
83.0691
82.999
82.9354
82.8829
82.8488
82.8313
82.8231
82.8228
82.8341
82.8626
82.9115
82.9785
83.0626
83.164
83.2831
83.4197
83.5735
83.7458
83.9335
84.1332
84.3443
84.5663
84.7975
85.0363
85.281
85.5292
85.7795
86.0314
86.2835
86.5339
86.7808
87.0231
87.2592
87.4901
87.7192
87.9432
88.1621
88.3657
88.5857
88.7802
88.912
89.0871
89.3247
89.5041
89.6024
89.7165
89.8594
89.9801
90.0546
90.032
90.0489
90.1868
90.3092
90.3713
90.3646
90.3607
90.3916
90.4165
178.431
178.357
178.263
178.159
178.03
177.838
177.547
177.116
176.545
175.866
175.148
174.437
173.69
172.882
172.046
171.201
170.339
169.451
168.513
167.514
166.421
165.199
163.811
162.193
160.263
157.92
155.044
151.515
147.237
142.174
136.398
130.116
123.655
117.391
111.657
106.675
102.532
99.2027
96.5701
94.4804
92.8675
91.7107
90.787
90.0363
89.4527
88.8797
88.332
87.9516
87.5738
87.1545
86.8448
86.5516
86.2143
85.9384
85.7098
85.4297
85.1669
84.9611
84.7945
84.5568
84.3246
84.1492
84.039
83.9221
83.7258
83.555
83.433
83.3323
83.2416
83.1675
83.1073
83.0558
83.0109
82.9749
82.9528
82.9463
82.9534
82.9726
83.0047
83.0522
83.1163
83.1974
83.2962
83.4129
83.5473
83.6988
83.8674
84.0512
84.2476
84.4558
84.6751
84.9047
85.1433
85.3894
85.6413
85.8978
86.1602
86.4253
86.6881
86.9476
87.2037
87.4564
87.7027
87.9449
88.1855
88.4237
88.651
88.8619
89.0897
89.2885
89.4598
89.6465
89.8626
90.1053
90.2398
90.3471
90.4973
90.6409
90.7346
90.7354
90.7564
90.8894
91.005
91.0701
91.0726
91.0587
91.0663
91.0771
91.0753
177.961
177.86
177.738
177.595
177.409
177.122
176.676
176.158
175.571
174.924
174.273
173.621
172.937
172.229
171.518
170.807
170.079
169.329
168.556
167.749
166.881
165.895
164.757
163.423
161.825
159.869
157.433
154.376
150.561
145.889
140.354
134.09
127.385
120.646
114.295
108.667
103.928
100.073
97.0376
94.712
92.8649
91.4312
90.4787
89.744
89.0232
88.4294
87.9952
87.5458
87.099
86.783
86.4582
86.1076
85.8411
85.5962
85.3045
85.0547
84.8639
84.6802
84.4443
84.2312
84.0625
83.9362
83.8071
83.6484
83.5065
83.3963
83.2999
83.2132
83.1448
83.0932
83.0537
83.0231
83.0014
82.9911
82.9947
83.013
83.0459
83.0935
83.1561
83.234
83.3281
83.4395
83.5687
83.7155
83.8792
84.0587
84.252
84.4578
84.6759
84.9054
85.1451
85.3941
85.6509
85.9142
86.1829
86.4556
86.7287
87.0005
87.27
87.5368
87.8002
88.0617
88.323
88.5807
88.8326
89.0702
89.298
89.5307
89.7423
89.9367
90.1242
90.3379
90.5877
90.7422
90.8519
90.9943
91.1414
91.2472
91.2733
91.2968
91.4169
91.534
91.6044
91.6132
91.603
91.6089
91.6195
91.6218
177.555
177.446
177.312
177.157
176.97
176.686
176.255
175.773
175.254
174.678
174.081
173.489
172.896
172.295
171.697
171.11
170.527
169.937
169.332
168.722
168.095
167.438
166.703
165.823
164.763
163.47
161.866
159.836
157.235
153.896
149.668
144.466
138.338
131.51
124.383
117.454
111.153
105.742
101.342
97.896
95.1995
93.1146
91.5717
90.4207
89.4965
88.8084
88.2601
87.7025
87.2174
86.8618
86.4878
86.1063
85.8314
85.5579
85.2468
84.9933
84.8028
84.5943
84.3586
84.1537
83.9821
83.8349
83.6973
83.5605
83.4389
83.3366
83.243
83.1577
83.0906
83.0426
83.009
82.9868
82.975
82.9744
82.9867
83.0136
83.0559
83.114
83.1876
83.2767
83.3815
83.503
83.6414
83.797
83.9692
84.1565
84.3575
84.5715
84.798
85.0361
85.2848
85.543
85.8094
86.0828
86.3619
86.644
86.9275
87.2115
87.4954
87.7781
88.059
88.3382
88.6139
88.8848
89.1499
89.4032
89.6506
89.8981
90.1379
90.3528
90.5453
90.7597
91.017
91.1889
91.3028
91.44
91.5874
91.7056
91.7568
91.7834
91.8886
92.0059
92.0822
92.0974
92.0925
92.0987
92.1088
92.1131
177.013
176.873
176.707
176.508
176.223
175.822
175.377
174.907
174.395
173.857
173.319
172.79
172.271
171.766
171.279
170.813
170.359
169.913
169.469
169.025
168.577
168.104
167.601
167.015
166.253
165.257
163.971
162.315
160.147
157.287
153.543
148.757
142.882
136.06
128.66
121.195
114.211
108.141
103.134
99.1288
96.0705
93.7934
91.9752
90.5352
89.5786
88.8657
88.1776
87.6143
87.1741
86.7204
86.2867
85.9736
85.6607
85.3127
85.0302
84.8218
84.589
84.3358
84.1208
83.9388
83.7743
83.6236
83.4883
83.3718
83.2709
83.1776
83.091
83.021
82.9718
82.9391
82.9196
82.9122
82.9172
82.9354
82.9682
83.0166
83.0813
83.1621
83.2589
83.3716
83.5003
83.6454
83.807
83.9848
84.1776
84.3846
84.6048
84.8378
85.0826
85.3384
85.6038
85.8778
86.1593
86.4466
86.7377
87.0313
87.327
87.6239
87.9209
88.2175
88.5121
88.8022
89.0891
89.3714
89.6461
89.9152
90.1788
90.4352
90.6675
90.8763
91.0988
91.3602
91.5662
91.6956
91.8255
91.9703
92.1089
92.1923
92.2249
92.314
92.4267
92.5046
92.5275
92.5315
92.5393
92.5477
92.5505
176.412
176.238
176.024
175.731
175.362
174.957
174.524
174.063
173.583
173.101
172.629
172.176
171.744
171.34
170.966
170.621
170.304
170.008
169.731
169.461
169.194
168.922
168.611
168.281
167.872
167.197
166.212
164.89
163.127
160.742
157.51
153.207
147.7
141.028
133.473
125.576
117.987
111.195
105.49
100.987
97.5277
94.8366
92.7945
91.2911
90.0867
89.0977
88.3973
87.8432
87.283
86.7687
86.3734
85.9947
85.5858
85.2421
84.9905
84.7232
84.4345
84.1847
83.9798
83.7935
83.6203
83.4683
83.3397
83.229
83.1292
83.0371
82.9578
82.9006
82.8634
82.841
82.8321
82.8372
82.8569
82.8919
82.943
83.0107
83.0952
83.1962
83.3134
83.4466
83.5958
83.7611
83.9422
84.1386
84.3494
84.574
84.8116
85.0614
85.3223
85.5934
85.8734
86.1613
86.4555
86.7547
87.0576
87.3634
87.6714
87.9805
88.2898
88.5976
88.9022
89.2034
89.5008
89.7936
90.0799
90.3596
90.6314
90.8803
91.1086
91.341
91.6087
91.8629
92.0034
92.1169
92.2588
92.4118
92.5315
92.5968
92.6578
92.7461
92.8197
92.8548
92.867
92.8739
92.8779
92.8765
92.8691
92.857
175.926
175.743
175.513
175.216
174.874
174.501
174.1
173.68
173.25
172.821
172.405
172.011
171.642
171.308
171.009
170.748
170.529
170.35
170.21
170.103
170.019
169.941
169.865
169.783
169.664
169.528
169.234
168.575
167.563
166.16
164.222
161.508
157.746
152.706
146.317
138.793
130.626
122.465
114.991
108.673
103.574
99.557
96.5282