/*--------------------------------*- C++ -*----------------------------------*\
| =========                 |                                                 |
| \\      /  F ield         | OpenFOAM: The Open Source CFD Toolbox           |
|  \\    /   O peration     | Version:  v1706                                 |
|   \\  /    A nd           | Web:      www.OpenFOAM.com                      |
|    \\/     M anipulation  |                                                 |
\*---------------------------------------------------------------------------*/
FoamFile
{
    version     2.0;
    format      ascii;
    class       volScalarField;
    location    "2e-05";
    object      Tov;
}
// * * * * * * * * * * * * * * * * * * * * * * * * * * * * * * * * * * * * * //

dimensions      [0 0 0 1 0 0 0];


internalField   nonuniform List<scalar> 
29871
(
144.4
144.4
144.4
144.4
144.4
144.4
144.4
144.4
144.4
144.4
144.4
144.4
144.4
144.401
144.401
144.401
144.401
144.401
144.401
144.401
144.401
144.401
144.401
144.401
144.401
144.401
144.401
144.401
144.401
144.402
144.402
144.402
144.402
144.402
144.402
144.402
144.402
144.402
144.402
144.402
144.402
144.402
144.402
144.402
144.402
144.402
144.402
144.403
144.403
144.403
144.403
144.403
144.403
144.402
144.402
144.402
144.402
144.402
144.402
144.402
144.402
144.402
144.402
144.402
144.402
144.402
144.402
144.402
144.402
144.402
144.402
144.402
144.402
144.401
144.401
144.401
144.401
144.401
144.401
144.401
144.401
144.401
144.401
144.401
144.401
144.401
144.401
144.401
144.401
144.401
144.401
144.401
144.401
144.401
144.401
144.401
144.401
144.401
144.401
144.401
144.401
144.401
144.401
144.401
144.401
144.401
144.401
144.401
144.401
144.401
144.401
144.402
144.402
144.402
144.402
144.402
144.403
144.403
144.403
144.403
144.404
144.404
144.404
144.405
144.405
144.405
144.406
144.406
144.407
144.407
144.408
144.408
144.408
144.409
144.409
144.41
144.41
144.411
144.411
144.412
144.412
144.412
144.413
144.413
144.413
144.414
144.414
144.414
144.415
144.415
144.415
144.415
144.415
144.415
144.415
144.415
144.415
144.415
144.415
144.415
144.415
144.415
144.415
144.414
144.414
144.414
144.414
144.413
144.413
144.413
144.412
144.412
144.411
144.411
144.411
144.41
144.41
144.409
144.409
144.409
144.408
144.408
144.408
144.407
144.407
144.407
144.406
144.406
144.406
144.406
144.406
144.405
144.405
144.405
144.405
144.405
144.405
144.405
144.405
144.404
144.404
144.404
144.404
144.404
144.404
144.404
144.404
144.404
144.405
144.405
144.402
144.403
144.403
144.403
144.404
144.404
144.405
144.405
144.406
144.406
144.407
144.408
144.409
144.409
144.41
144.411
144.412
144.413
144.414
144.415
144.416
144.418
144.419
144.42
144.421
144.423
144.424
144.425
144.427
144.428
144.43
144.431
144.433
144.434
144.435
144.437
144.438
144.439
144.441
144.442
144.443
144.444
144.445
144.446
144.447
144.447
144.448
144.448
144.449
144.449
144.449
144.449
144.449
144.449
144.449
144.449
144.448
144.448
144.447
144.446
144.445
144.445
144.444
144.443
144.441
144.44
144.439
144.438
144.437
144.436
144.434
144.433
144.432
144.431
144.429
144.428
144.427
144.426
144.425
144.424
144.423
144.422
144.421
144.42
144.42
144.419
144.418
144.418
144.417
144.417
144.416
144.416
144.416
144.415
144.415
144.415
144.415
144.415
144.415
144.415
144.415
144.415
144.415
144.415
144.415
144.415
144.407
144.408
144.409
144.41
144.411
144.412
144.413
144.415
144.416
144.418
144.42
144.422
144.424
144.426
144.429
144.431
144.434
144.436
144.439
144.442
144.445
144.449
144.452
144.456
144.459
144.463
144.467
144.471
144.474
144.478
144.482
144.486
144.49
144.494
144.498
144.502
144.505
144.509
144.512
144.515
144.518
144.521
144.524
144.526
144.528
144.53
144.532
144.533
144.534
144.535
144.536
144.536
144.536
144.535
144.534
144.534
144.532
144.531
144.529
144.527
144.525
144.522
144.52
144.517
144.514
144.511
144.508
144.505
144.501
144.498
144.495
144.491
144.488
144.485
144.482
144.478
144.475
144.472
144.469
144.467
144.464
144.461
144.459
144.457
144.455
144.453
144.451
144.45
144.448
144.447
144.446
144.445
144.445
144.444
144.444
144.443
144.443
144.443
144.443
144.443
144.443
144.444
144.444
144.444
144.445
144.445
144.416
144.419
144.421
144.423
144.426
144.429
144.432
144.436
144.44
144.444
144.448
144.453
144.458
144.464
144.469
144.476
144.482
144.489
144.496
144.504
144.512
144.52
144.528
144.537
144.546
144.556
144.565
144.575
144.585
144.595
144.605
144.615
144.625
144.635
144.645
144.655
144.664
144.673
144.682
144.69
144.698
144.706
144.713
144.72
144.725
144.731
144.735
144.739
144.743
144.745
144.747
144.748
144.748
144.747
144.746
144.744
144.742
144.738
144.734
144.73
144.725
144.719
144.713
144.706
144.699
144.692
144.684
144.676
144.668
144.66
144.651
144.643
144.634
144.626
144.618
144.609
144.601
144.594
144.586
144.579
144.572
144.566
144.559
144.554
144.548
144.543
144.539
144.534
144.531
144.527
144.525
144.522
144.52
144.518
144.517
144.516
144.516
144.515
144.516
144.516
144.516
144.517
144.518
144.519
144.521
144.522
144.524
144.443
144.448
144.454
144.461
144.468
144.475
144.484
144.493
144.503
144.513
144.525
144.537
144.55
144.564
144.579
144.594
144.611
144.628
144.647
144.666
144.686
144.706
144.728
144.75
144.772
144.796
144.819
144.844
144.868
144.893
144.918
144.942
144.967
144.991
145.015
145.039
145.062
145.084
145.105
145.125
145.144
145.162
145.179
145.194
145.208
145.22
145.231
145.239
145.247
145.252
145.255
145.257
145.257
145.255
145.251
145.246
145.239
145.23
145.22
145.209
145.196
145.181
145.166
145.149
145.132
145.114
145.095
145.075
145.055
145.035
145.015
144.994
144.974
144.954
144.934
144.914
144.895
144.876
144.858
144.841
144.825
144.809
144.795
144.781
144.768
144.757
144.746
144.737
144.728
144.721
144.715
144.709
144.705
144.702
144.699
144.698
144.697
144.698
144.698
144.7
144.702
144.705
144.708
144.712
144.717
144.721
144.727
144.478
144.487
144.498
144.51
144.523
144.538
144.554
144.572
144.592
144.613
144.636
144.66
144.687
144.715
144.746
144.779
144.813
144.85
144.889
144.93
144.973
145.018
145.065
145.114
145.165
145.217
145.271
145.326
145.382
145.439
145.497
145.555
145.614
145.673
145.732
145.79
145.847
145.903
145.958
146.011
146.062
146.111
146.157
146.201
146.241
146.278
146.312
146.342
146.369
146.391
146.41
146.424
146.435
146.44
146.442
146.439
146.433
146.423
146.408
146.39
146.368
146.343
146.314
146.282
146.248
146.21
146.171
146.129
146.086
146.041
145.995
145.949
145.901
145.854
145.806
145.758
145.711
145.665
145.619
145.575
145.533
145.491
145.452
145.415
145.379
145.346
145.315
145.287
145.261
145.238
145.217
145.199
145.184
145.17
145.16
145.152
145.146
145.143
145.142
145.143
145.145
145.149
145.155
145.162
145.171
145.182
145.193
145.206
145.22
145.235
144.598
144.621
144.648
144.678
144.711
144.747
144.787
144.831
144.879
144.931
144.987
145.048
145.113
145.183
145.258
145.337
145.422
145.511
145.606
145.705
145.808
145.916
146.029
146.145
146.264
146.387
146.513
146.642
146.773
146.906
147.04
147.175
147.31
147.446
147.58
147.713
147.843
147.97
148.093
148.211
148.324
148.431
148.532
148.625
148.712
148.791
148.861
148.923
148.977
149.022
149.057
149.083
149.099
149.106
149.103
149.092
149.073
149.044
149.006
148.96
148.906
148.845
148.777
148.702
148.621
148.534
148.443
148.348
148.249
148.147
148.042
147.937
147.83
147.722
147.615
147.509
147.404
147.301
147.2
147.103
147.008
146.918
146.831
146.75
146.673
146.601
146.535
146.475
146.42
146.371
146.328
146.291
146.26
146.236
146.217
146.204
146.196
146.194
146.197
146.203
146.214
146.229
146.249
146.272
146.299
146.33
146.363
146.399
146.437
146.478
144.897
144.954
145.018
145.09
145.169
145.257
145.354
145.46
145.575
145.701
145.836
145.982
146.138
146.305
146.482
146.67
146.869
147.078
147.299
147.53
147.771
148.022
148.282
148.55
148.824
149.105
149.39
149.679
149.971
150.265
150.56
150.854
151.148
151.439
151.726
152.008
152.282
152.548
152.804
153.048
153.28
153.498
153.7
153.887
154.056
154.208
154.343
154.459
154.556
154.634
154.693
154.731
154.749
154.747
154.728
154.69
154.636
154.562
154.471
154.364
154.24
154.102
153.95
153.785
153.608
153.42
153.224
153.019
152.807
152.59
152.369
152.145
151.919
151.692
151.466
151.242
151.021
150.804
150.593
150.389
150.192
150.004
149.825
149.655
149.497
149.351
149.216
149.095
148.986
148.89
148.809
148.74
148.685
148.643
148.615
148.599
148.598
148.605
148.621
148.65
148.688
148.737
148.794
148.86
148.934
149.015
149.103
149.197
149.296
149.402
145.638
145.769
145.918
146.085
146.272
146.478
146.704
146.952
147.221
147.513
147.827
148.165
148.526
148.911
149.318
149.747
150.198
150.67
151.162
151.674
152.204
152.751
153.312
153.886
154.469
155.06
155.655
156.253
156.851
157.448
158.04
158.627
159.207
159.776
160.334
160.877
161.402
161.905
162.383
162.834
163.255
163.645
164.002
164.324
164.61
164.861
165.075
165.254
165.398
165.504
165.573
165.604
165.598
165.56
165.489
165.386
165.251
165.083
164.885
164.657
164.402
164.12
163.814
163.486
163.137
162.77
162.388
161.991
161.583
161.166
160.741
160.312
159.88
159.448
159.018
158.592
158.172
157.76
157.359
156.97
156.595
156.238
155.9
155.582
155.286
155.013
154.766
154.543
154.347
154.178
154.037
153.924
153.84
153.784
153.757
153.76
153.779
153.822
153.89
153.98
154.092
154.223
154.373
154.541
154.725
154.924
155.136
155.362
155.599
155.847
147.444
147.728
148.056
148.429
148.846
149.309
149.818
150.374
150.976
151.625
152.321
153.061
153.845
154.671
155.535
156.438
157.375
158.346
159.349
160.384
161.446
162.533
163.637
164.751
165.867
166.977
168.077
169.161
170.224
171.265
172.279
173.265
174.22
175.141
176.024
176.867
177.666
178.419
179.123
179.774
180.371
180.911
181.392
181.812
182.173
182.473
182.714
182.899
183.031
183.11
183.12
183.087
182.997
182.858
182.678
182.451
182.177
181.86
181.5
181.1
180.662
180.188
179.681
179.142
178.575
177.983
177.368
176.732
176.08
175.414
174.737
174.051
173.36
172.667
171.974
171.286
170.606
169.939
169.289
168.661
168.057
167.481
166.936
166.424
165.95
165.516
165.126
164.783
164.49
164.246
164.054
163.914
163.824
163.794
163.811
163.862
163.963
164.11
164.299
164.529
164.796
165.098
165.433
165.796
166.187
166.602
167.04
167.499
167.976
168.47
151.27
151.74
152.311
152.983
153.755
154.622
155.583
156.634
157.772
158.996
160.304
161.694
163.163
164.704
166.306
167.958
169.649
171.369
173.11
174.866
176.632
178.403
180.17
181.92
183.643
185.328
186.965
188.546
190.063
191.51
192.884
194.184
195.408
196.553
197.621
198.612
199.529
200.373
201.145
201.838
202.448
202.979
203.43
203.799
204.087
204.298
204.437
204.502
204.498
204.457
204.357
204.191
203.972
203.711
203.393
203.031
202.637
202.201
201.722
201.206
200.653
200.063
199.442
198.795
198.123
197.423
196.701
195.958
195.197
194.418
193.624
192.819
192.003
191.178
190.348
189.52
188.698
187.885
187.082
186.294
185.523
184.777
184.063
183.391
182.768
182.199
181.688
181.239
180.855
180.54
180.296
180.125
180.039
180.042
180.099
180.224
180.426
180.693
181.026
181.418
181.864
182.36
182.901
183.481
184.097
184.744
185.417
186.113
186.829
187.563
188.313
160.702
161.434
162.396
163.576
164.962
166.54
168.292
170.2
172.244
174.408
176.675
179.029
181.452
183.918
186.405
188.891
191.357
193.787
196.167
198.486
200.742
202.946
205.091
207.143
209.072
210.863
212.507
214
215.343
216.539
217.593
218.514
219.308
219.981
220.538
220.977
221.308
221.54
221.681
221.736
221.732
221.7
221.621
221.487
221.306
221.08
220.812
220.508
220.172
219.82
219.452
219.082
218.638
218.171
217.721
217.27
216.791
216.292
215.786
215.261
214.72
214.178
213.633
213.07
212.493
211.914
211.329
210.732
210.129
209.522
208.906
208.283
207.658
207.035
206.413
205.786
205.152
204.515
203.886
203.278
202.702
202.165
201.668
201.206
200.78
200.393
200.056
199.778
199.568
199.436
199.403
199.432
199.536
199.71
199.973
200.289
200.675
201.126
201.633
202.19
202.789
203.418
204.067
204.731
205.405
206.086
206.771
207.453
208.122
208.775
209.41
210.029
210.632
180.61
181.258
182.378
183.909
185.802
187.995
190.43
193.051
195.809
198.657
201.561
204.514
207.494
210.434
213.274
215.964
218.469
220.764
222.836
224.678
226.286
227.656
228.802
229.753
230.533
231.163
231.657
232.02
232.265
232.4
232.425
232.394
232.304
232.153
231.948
231.694
231.397
231.064
230.698
230.302
229.882
229.461
229.031
228.616
228.129
227.634
227.162
226.656
226.14
225.66
225.189
224.678
224.13
223.624
223.158
222.658
222.145
221.647
221.147
220.648
220.182
219.715
219.227
218.754
218.313
217.869
217.421
216.993
216.579
216.172
215.784
215.414
215.05
214.684
214.326
213.983
213.668
213.388
213.143
212.923
212.723
212.545
212.393
212.265
212.174
212.148
212.168
212.247
212.384
212.569
212.77
213.023
213.325
213.641
213.998
214.385
214.785
215.195
215.615
216.033
216.441
216.848
217.254
217.645
218.012
218.36
218.691
219.006
219.314
219.607
219.877
220.127
220.359
218.333
216.201
214.872
214.383
214.538
215.291
216.644
218.44
220.531
222.794
225.118
227.407
229.578
231.555
233.295
234.796
236.067
237.124
237.988
238.678
239.206
239.58
239.814
239.909
239.897
239.823
239.67
239.448
239.172
238.851
238.496
238.1
237.676
237.239
236.789
236.323
235.853
235.406
234.879
234.352
233.842
233.296
232.748
232.229
231.732
231.195
230.638
230.098
229.556
228.99
228.466
227.963
227.43
226.872
226.355
225.851
225.33
224.808
224.339
223.86
223.361
222.886
222.417
221.938
221.495
221.091
220.671
220.254
219.88
219.524
219.173
218.839
218.52
218.215
217.926
217.669
217.458
217.277
217.111
216.965
216.848
216.756
216.682
216.646
216.672
216.759
216.875
217.016
217.19
217.399
217.636
217.884
218.167
218.482
218.809
219.152
219.506
219.853
220.2
220.533
220.843
221.139
221.426
221.695
221.935
222.162
222.374
222.571
222.749
222.918
223.069
223.201
223.327
223.443
223.543
267.247
262.285
258.14
254.94
252.311
250.285
248.866
247.944
247.371
247.033
246.847
246.746
246.685
246.631
246.564
246.469
246.334
246.151
245.918
245.637
245.313
244.952
244.562
244.14
243.702
243.256
242.798
242.32
241.827
241.354
240.791
240.208
239.656
239.098
238.529
237.964
237.412
236.856
236.282
235.707
235.137
234.559
233.982
233.426
232.878
232.315
231.752
231.196
230.638
230.085
229.559
229.032
228.492
227.963
227.443
226.916
226.393
225.937
225.482
224.993
224.515
224.05
223.577
223.149
222.754
222.342
221.93
221.581
221.242
220.9
220.583
220.283
219.99
219.734
219.508
219.288
219.089
218.911
218.75
218.616
218.525
218.511
218.528
218.576
218.644
218.736
218.861
219.018
219.217
219.449
219.709
219.99
220.292
220.592
220.898
221.215
221.521
221.835
222.139
222.41
222.667
222.915
223.14
223.351
223.551
223.738
223.895
224.032
224.175
224.311
224.429
224.537
224.627
224.696
224.763
224.826
327.934
324.405
320.541
316.326
311.752
306.837
301.641
296.309
290.982
285.813
280.904
276.312
272.119
268.392
265.146
262.342
259.936
257.901
256.164
254.675
253.397
252.29
251.318
250.45
249.671
248.952
248.278
247.647
247.068
246.42
245.784
245.18
244.59
244.004
243.421
242.85
242.279
241.684
241.085
240.502
239.92
239.333
238.761
238.198
237.627
237.047
236.474
235.902
235.324
234.75
234.199
233.648
233.089
232.535
231.983
231.427
230.887
230.368
229.84
229.313
228.801
228.286
227.758
227.268
226.831
226.367
225.884
225.427
224.964
224.519
224.121
223.715
223.292
222.929
222.593
222.239
221.912
221.631
221.349
221.069
220.814
220.571
220.35
220.16
220.008
219.908
219.844
219.805
219.782
219.783
219.803
219.856
219.947
220.084
220.264
220.477
220.702
220.922
221.156
221.405
221.663
221.937
222.216
222.491
222.777
223.04
223.268
223.486
223.714
223.926
224.123
224.303
224.462
224.628
224.779
224.915
225.043
225.158
225.253
225.331
225.415
225.484
225.538
329.834
326.965
323.919
320.687
317.239
313.544
309.631
305.525
301.239
296.841
292.394
287.949
283.576
279.352
275.345
271.607
268.182
265.096
262.348
259.929
257.816
255.979
254.383
252.998
251.795
250.734
249.784
248.933
248.151
247.391
246.669
245.994
245.352
244.724
244.112
243.52
242.924
242.32
241.723
241.135
240.545
239.954
239.383
238.815
238.237
237.661
237.095
236.529
235.958
235.4
234.861
234.316
233.769
233.23
232.689
232.148
231.629
231.117
230.597
230.093
229.595
229.089
228.573
228.123
227.691
227.222
226.762
226.32
225.878
225.478
225.084
224.67
224.296
223.962
223.615
223.283
222.991
222.707
222.403
222.124
221.881
221.657
221.473
221.312
221.154
221
220.88
220.813
220.797
220.813
220.865
220.948
221.048
221.161
221.29
221.439
221.61
221.803
222.02
222.247
222.477
222.72
222.957
223.193
223.443
223.678
223.885
224.077
224.271
224.481
224.678
224.861
225.033
225.192
225.328
225.488
225.627
225.746
225.855
225.95
226.026
226.102
226.164
327.555
324.902
322.143
319.298
316.406
313.399
310.342
307.229
304.031
300.728
297.324
293.822
290.227
286.554
282.829
279.099
275.425
271.868
268.493
265.358
262.503
259.943
257.683
255.714
254.008
252.528
251.246
250.139
249.159
248.265
247.442
246.686
245.973
245.289
244.641
244.016
243.393
242.778
242.178
241.586
240.993
240.412
239.851
239.285
238.713
238.154
237.604
237.05
236.495
235.961
235.436
234.902
234.376
233.856
233.33
232.813
232.316
231.81
231.313
230.848
230.37
229.874
229.396
228.974
228.543
228.083
227.648
227.217
226.819
226.443
226.05
225.664
225.325
225.001
224.653
224.341
224.049
223.792
223.497
223.232
222.993
222.773
222.569
222.385
222.232
222.121
222.05
222.007
221.984
221.984
221.995
222.022
222.074
222.159
222.276
222.417
222.569
222.731
222.901
223.077
223.261
223.463
223.669
223.872
224.09
224.303
224.489
224.664
224.834
225.015
225.228
225.423
225.602
225.779
225.926
226.059
226.222
226.361
226.481
226.596
226.693
226.763
226.825
324.339
321.914
319.449
316.976
314.527
312.108
309.56
307.021
304.567
302.114
299.615
297.041
294.365
291.556
288.588
285.457
282.171
278.753
275.26
271.775
268.383
265.165
262.194
259.514
257.14
255.065
253.275
251.74
250.419
249.284
248.281
247.38
246.557
245.798
245.098
244.431
243.783
243.158
242.555
241.961
241.372
240.807
240.255
239.696
239.14
238.602
238.068
237.528
236.995
236.487
235.975
235.459
234.958
234.455
233.947
233.463
232.982
232.484
232.03
231.592
231.128
230.65
230.223
229.826
229.396
228.957
228.537
228.142
227.774
227.408
227.022
226.682
226.371
226.044
225.711
225.413
225.121
224.867
224.607
224.339
224.098
223.879
223.699
223.548
223.415
223.302
223.21
223.138
223.087
223.073
223.083
223.118
223.175
223.246
223.33
223.425
223.53
223.648
223.779
223.922
224.077
224.249
224.423
224.595
224.784
224.977
225.143
225.299
225.465
225.621
225.818
226.034
226.222
226.4
226.574
226.714
226.854
227.012
227.149
227.275
227.393
227.476
227.539
227.613
227.691
320.928
318.816
316.733
314.681
312.654
310.631
308.553
306.532
304.589
302.696
300.813
298.906
296.942
294.879
292.676
290.299
287.708
284.876
281.802
278.514
275.071
271.558
268.084
264.755
261.663
258.866
256.379
254.179
252.259
250.646
249.342
248.257
247.285
246.413
245.627
244.894
244.203
243.555
242.936
242.333
241.748
241.194
240.647
240.097
239.559
239.04
238.521
237.994
237.489
237.001
236.5
236.01
235.531
235.04
234.566
234.11
233.638
233.173
232.751
232.328
231.877
231.438
231.045
230.665
230.241
229.825
229.434
229.072
228.729
228.36
228.012
227.688
227.395
227.08
226.761
226.471
226.188
225.93
225.682
225.44
225.219
225.022
224.848
224.693
224.555
224.439
224.35
224.285
224.243
224.222
224.222
224.231
224.254
224.293
224.35
224.423
224.509
224.605
224.708
224.82
224.941
225.076
225.214
225.359
225.522
225.696
225.846
225.986
226.138
226.29
226.466
226.697
226.892
227.068
227.245
227.418
227.554
227.688
227.845
227.987
228.12
228.223
228.292
228.367
228.461
317.948
316.137
314.402
312.737
311.129
309.548
307.882
306.237
304.652
303.117
301.618
300.131
298.626
297.07
295.429
293.664
291.728
289.575
287.164
284.467
281.473
278.207
274.729
271.136
267.552
264.101
260.894
258.009
255.478
253.27
251.353
249.692
248.342
247.265
246.331
245.489
244.725
244.025
243.37
242.744
242.154
241.599
241.052
240.506
239.987
239.484
238.972
238.462
237.989
237.511
237.026
236.565
236.1
235.627
235.191
234.753
234.294
233.87
233.472
233.057
232.62
232.228
231.859
231.485
231.072
230.683
230.331
229.995
229.666
229.31
228.989
228.676
228.386
228.094
227.793
227.512
227.24
226.99
226.754
226.527
226.315
226.126
225.96
225.814
225.688
225.58
225.49
225.417
225.361
225.323
225.306
225.308
225.321
225.348
225.386
225.434
225.49
225.555
225.629
225.715
225.813
225.922
226.039
226.163
226.3
226.452
226.59
226.713
226.849
226.989
227.163
227.395
227.592
227.764
227.942
228.126
228.289
228.409
228.557
228.719
228.868
228.993
229.072
229.151
229.252
317.233
315.616
314.091
312.659
311.316
310.054
308.841
307.528
306.187
304.88
303.612
302.368
301.134
299.901
298.651
297.362
296.004
294.539
292.925
291.119
289.072
286.736
284.075
281.073
277.75
274.176
270.463
266.751
263.182
259.87
256.891
254.298
252.102
250.239
248.665
247.391
246.335
245.429
244.631
243.905
243.234
242.62
242.048
241.489
240.945
240.44
239.942
239.433
238.952
238.497
238.023
237.566
237.127
236.67
236.231
235.82
235.392
234.96
234.564
234.186
233.778
233.372
233.009
232.661
232.291
231.895
231.541
231.211
230.903
230.569
230.247
229.948
229.648
229.364
229.085
228.805
228.534
228.277
228.036
227.81
227.593
227.391
227.209
227.048
226.907
226.784
226.675
226.582
226.506
226.446
226.403
226.376
226.366
226.368
226.377
226.395
226.423
226.46
226.506
226.56
226.623
226.695
226.777
226.87
226.975
227.09
227.219
227.354
227.466
227.586
227.711
227.893
228.12
228.308
228.474
228.649
228.833
229.016
229.15
229.273
229.441
229.61
229.759
229.851
229.933
230.041
315.313
313.959
312.695
311.517
310.423
309.411
308.454
307.427
306.314
305.232
304.175
303.128
302.083
301.034
299.973
298.893
297.781
296.614
295.361
293.988
292.453
290.707
288.693
286.357
283.653
280.569
277.13
273.415
269.549
265.693
262.011
258.637
255.651
253.076
250.894
249.063
247.595
246.435
245.46
244.611
243.858
243.189
242.576
241.988
241.44
240.935
240.432
239.927
239.473
239.021
238.556
238.129
237.702
237.26
236.85
236.454
236.035
235.636
235.261
234.897
234.498
234.128
233.784
233.457
233.087
232.717
232.39
232.075
231.777
231.463
231.165
230.88
230.596
230.323
230.058
229.799
229.545
229.3
229.068
228.851
228.646
228.453
228.277
228.119
227.979
227.855
227.746
227.652
227.571
227.505
227.453
227.415
227.39
227.375
227.373
227.377
227.389
227.41
227.439
227.476
227.522
227.577
227.641
227.715
227.8
227.895
227.998
228.116
228.222
228.331
228.451
228.631
228.847
229.029
229.192
229.364
229.548
229.734
229.892
230.01
230.161
230.349
230.52
230.635
230.722
230.84
230.959
231.049
314.05
312.931
311.889
310.924
310.024
309.177
308.371
307.542
306.611
305.695
304.798
303.907
303.012
302.107
301.189
300.258
299.306
298.321
297.293
296.2
295.013
293.693
292.192
290.454
288.415
286.018
283.216
279.991
276.378
272.472
268.429
264.436
260.675
257.285
254.341
251.852
249.761
248.034
246.685
245.604
244.697
243.924
243.235
242.594
242.026
241.501
240.976
240.484
240.038
239.581
239.134
238.724
238.301
237.882
237.492
237.104
236.7
236.327
235.972
235.612
235.23
234.888
234.561
234.252
233.883
233.54
233.232
232.932
232.64
232.351
232.071
231.799
231.531
231.271
231.019
230.772
230.533
230.304
230.088
229.885
229.694
229.511
229.34
229.184
229.044
228.921
228.811
228.714
228.631
228.559
228.498
228.448
228.41
228.381
228.362
228.35
228.348
228.352
228.363
228.383
228.41
228.447
228.493
228.55
228.621
228.703
228.792
228.893
228.994
229.094
229.201
229.364
229.565
229.739
229.894
230.064
230.247
230.433
230.609
230.736
230.874
231.073
231.261
231.404
231.505
231.624
231.753
231.861
313.372
312.456
311.593
310.785
310.026
309.301
308.606
307.9
307.117
306.322
305.538
304.759
303.967
303.163
302.359
301.549
300.723
299.874
298.996
298.082
297.12
296.083
294.938
293.641
292.139
290.371
288.267
285.757
282.79
279.354
275.503
271.366
267.135
263.026
259.229
255.869
253.006
250.63
248.664
247.095
245.894
244.928
244.101
243.375
242.754
242.181
241.621
241.133
240.676
240.207
239.775
239.37
238.948
238.547
238.173
237.786
237.403
237.047
236.709
236.345
235.988
235.667
235.352
235.054
234.695
234.375
234.082
233.795
233.514
233.241
232.976
232.717
232.464
232.217
231.977
231.743
231.516
231.3
231.097
230.905
230.723
230.551
230.39
230.242
230.108
229.989
229.883
229.788
229.701
229.623
229.554
229.494
229.444
229.403
229.369
229.343
229.326
229.315
229.311
229.313
229.321
229.338
229.364
229.401
229.453
229.516
229.59
229.668
229.761
229.867
229.971
230.115
230.296
230.468
230.615
230.775
230.954
231.137
231.322
231.454
231.593
231.802
232
232.168
232.292
232.424
232.568
232.703
313.168
312.402
311.679
310.993
310.343
309.728
309.134
308.496
307.819
307.117
306.408
305.704
304.993
304.27
303.545
302.823
302.099
301.362
300.605
299.826
299.018
298.171
297.264
296.269
295.149
293.856
292.33
290.497
288.276
285.588
282.383
278.666
274.525
270.131
265.718
261.526
257.747
254.491
251.782
249.561
247.769
246.394
245.312
244.429
243.699
243.041
242.432
241.919
241.43
240.943
240.513
240.099
239.676
239.285
238.916
238.529
238.163
237.817
237.488
237.126
236.788
236.477
236.174
235.874
235.542
235.242
234.962
234.685
234.414
234.153
233.9
233.653
233.412
233.177
232.949
232.727
232.513
232.308
232.114
231.932
231.759
231.596
231.443
231.302
231.173
231.057
230.951
230.855
230.767
230.687
230.615
230.552
230.496
230.447
230.406
230.371
230.343
230.318
230.298
230.282
230.273
230.274
230.282
230.301
230.333
230.377
230.43
230.49
230.569
230.655
230.75
230.875
231.026
231.202
231.349
231.495
231.67
231.857
232.051
232.199
232.347
232.563
232.772
232.957
233.105
233.257
233.421
233.581
233.728
312.7
312.092
311.516
310.962
310.43
309.901
309.312
308.705
308.074
307.422
306.769
306.116
305.456
304.796
304.142
303.491
302.84
302.184
301.517
300.836
300.133
299.394
298.608
297.751
296.792
295.687
294.38
292.799
290.856
288.458
285.52
282
277.933
273.454
268.795
264.236
260.031
256.348
253.26
250.756
248.728
247.119
245.924
244.99
244.182
243.493
242.914
242.368
241.848
241.401
240.965
240.53
240.137
239.761
239.37
239.01
238.671
238.337
237.983
237.655
237.346
237.048
236.751
236.447
236.162
235.89
235.621
235.359
235.108
234.864
234.627
234.396
234.173
233.956
233.746
233.543
233.349
233.164
232.989
232.825
232.67
232.524
232.388
232.263
232.148
232.042
231.945
231.856
231.774
231.699
231.631
231.569
231.514
231.464
231.42
231.38
231.345
231.314
231.288
231.269
231.258
231.258
231.264
231.279
231.303
231.337
231.382
231.444
231.515
231.599
231.703
231.833
231.993
232.133
232.269
232.436
232.62
232.82
232.987
233.15
233.371
233.599
233.805
233.982
234.164
234.36
234.556
234.741
313.344
312.826
312.327
311.841
311.366
310.876
310.33
309.77
309.19
308.588
307.977
307.366
306.755
306.146
305.545
304.953
304.369
303.788
303.211
302.633
302.046
301.446
300.822
300.155
299.433
298.625
297.695
296.59
295.243
293.567
291.458
288.81
285.537
281.616
277.135
272.303
267.419
262.792
258.67
255.183
252.333
250.052
248.255
246.866
245.782
244.932
244.229
243.588
243.013
242.52
242.04
241.574
241.165
240.766
240.362
239.993
239.65
239.304
238.952
238.624
238.314
238.015
237.722
237.435
237.159
236.893
236.63
236.375
236.13
235.895
235.666
235.445
235.23
235.023
234.823
234.631
234.446
234.27
234.104
233.946
233.798
233.659
233.528
233.406
233.292
233.187
233.089
232.998
232.913
232.835
232.762
232.695
232.632
232.574
232.52
232.469
232.423
232.381
232.345
232.315
232.292
232.277
232.272
232.276
232.289
232.314
232.352
232.404
232.464
232.535
232.621
232.736
232.882
233.018
233.149
233.31
233.495
233.701
233.893
234.077
234.306
234.555
234.787
234.997
235.216
235.449
235.685
235.913
313.842
313.396
312.955
312.518
312.052
311.543
311.018
310.476
309.914
309.342
308.766
308.193
307.625
307.067
306.522
305.99
305.47
304.962
304.463
303.973
303.484
302.983
302.469
301.933
301.348
300.688
299.92
299.003
297.873
296.45
294.628
292.282
289.294
285.589
281.195
276.274
271.127
266.117
261.555
257.628
254.407
251.853
249.818
248.196
246.98
246.042
245.239
244.561
243.98
243.429
242.909
242.457
242.019
241.582
241.182
240.821
240.455
240.089
239.75
239.431
239.123
238.827
238.542
238.269
238.004
237.745
237.493
237.252
237.022
236.8
236.585
236.377
236.178
235.987
235.804
235.628
235.461
235.301
235.151
235.009
234.874
234.748
234.629
234.517
234.413
234.314
234.222
234.135
234.054
233.976
233.903
233.833
233.766
233.703
233.643
233.586
233.534
233.486
233.444
233.408
233.379
233.359
233.35
233.353
233.366
233.392
233.431
233.483
233.548
233.63
233.737
233.877
234.021
234.157
234.316
234.505
234.723
234.945
235.152
235.395
235.666
235.926
236.175
236.435
236.707
236.981
237.251
314.709
314.3
313.884
313.434
312.956
312.459
311.945
311.416
310.876
310.334
309.794
309.261
308.739
308.231
307.741
307.268
306.814
306.378
305.96
305.555
305.162
304.771
304.364
303.95
303.516
303.003
302.388
301.643
300.716
299.529
297.982
295.943
293.269
289.84
285.617
280.711
275.4
270.063
265.08
260.733
257.13
254.232
251.952
250.174
248.744
247.588
246.689
245.951
245.279
244.669
244.137
243.632
243.138
242.683
242.277
241.874
241.477
241.106
240.763
240.436
240.123
239.826
239.543
239.272
239.01
238.755
238.511
238.282
238.062
237.85
237.646
237.452
237.267
237.091
236.922
236.762
236.61
236.465
236.329
236.199
236.077
235.961
235.851
235.748
235.649
235.556
235.467
235.382
235.3
235.222
235.145
235.071
234.999
234.93
234.863
234.8
234.741
234.687
234.639
234.597
234.563
234.539
234.53
234.533
234.547
234.574
234.615
234.672
234.749
234.851
234.983
235.136
235.277
235.435
235.635
235.867
236.125
236.369
236.628
236.92
237.22
237.519
237.827
238.146
238.469
238.79
239.104
239.408
316.26
315.873
315.469
315.034
314.578
314.104
313.613
313.109
312.598
312.084
311.574
311.072
310.582
310.108
309.651
309.215
308.803
308.416
308.055
307.716
307.399
307.1
306.813
306.531
306.237
305.932
305.576
305.114
304.531
303.783
302.81
301.517
299.776
297.428
294.316
290.349
285.572
280.207
274.646
269.333
264.596
260.598
257.372
254.83
252.81
251.178
249.865