/*--------------------------------*- C++ -*----------------------------------*\
| =========                 |                                                 |
| \\      /  F ield         | OpenFOAM: The Open Source CFD Toolbox           |
|  \\    /   O peration     | Version:  v1706                                 |
|   \\  /    A nd           | Web:      www.OpenFOAM.com                      |
|    \\/     M anipulation  |                                                 |
\*---------------------------------------------------------------------------*/
FoamFile
{
    version     2.0;
    format      ascii;
    class       volScalarField;
    location    "4e-05";
    object      Mach;
}
// * * * * * * * * * * * * * * * * * * * * * * * * * * * * * * * * * * * * * //

dimensions      [0 0 0 0 0 0 0];


internalField   nonuniform List<scalar> 
29871
(
7.18506
7.18506
7.18506
7.18506
7.18506
7.18506
7.18506
7.18506
7.18506
7.18506
7.18506
7.18506
7.18506
7.18506
7.18506
7.18506
7.18506
7.18506
7.18506
7.18506
7.18506
7.18506
7.18506
7.18506
7.18506
7.18506
7.18506
7.18506
7.18506
7.18506
7.18506
7.18506
7.18506
7.18506
7.18506
7.18506
7.18506
7.18506
7.18506
7.18506
7.18506
7.18506
7.18506
7.18506
7.18506
7.18506
7.18506
7.18506
7.18506
7.18506
7.18506
7.18506
7.18506
7.18506
7.18506
7.18506
7.18506
7.18506
7.18506
7.18506
7.18506
7.18506
7.18506
7.18506
7.18506
7.18506
7.18506
7.18506
7.18506
7.18506
7.18506
7.18506
7.18506
7.18506
7.18506
7.18506
7.18506
7.18506
7.18506
7.18506
7.18506
7.18506
7.18506
7.18506
7.18506
7.18506
7.18506
7.18506
7.18506
7.18506
7.18506
7.18506
7.18506
7.18506
7.18506
7.18506
7.18506
7.18506
7.18506
7.18506
7.18506
7.18506
7.18506
7.18506
7.18506
7.18506
7.18506
7.18506
7.18506
7.18506
7.18506
7.18506
7.18506
7.18506
7.18506
7.18506
7.18506
7.18506
7.18506
7.18506
7.18506
7.18506
7.18506
7.18506
7.18506
7.18506
7.18506
7.18506
7.18506
7.18506
7.18506
7.18506
7.18506
7.18506
7.18506
7.18506
7.18506
7.18506
7.18506
7.18506
7.18506
7.18506
7.18506
7.18506
7.18506
7.18506
7.18506
7.18506
7.18506
7.18506
7.18506
7.18506
7.18506
7.18506
7.18506
7.18506
7.18506
7.18506
7.18506
7.18506
7.18506
7.18506
7.18506
7.18506
7.18506
7.18506
7.18506
7.18506
7.18506
7.18506
7.18506
7.18506
7.18506
7.18506
7.18506
7.18506
7.18506
7.18506
7.18506
7.18506
7.18506
7.18506
7.18506
7.18506
7.18506
7.18506
7.18506
7.18506
7.18506
7.18506
7.18506
7.18506
7.18506
7.18506
7.18506
7.18506
7.18506
7.18506
7.18506
7.18506
7.18506
7.18506
7.18506
7.18506
7.18506
7.18506
7.18506
7.18506
7.18506
7.18506
7.18506
7.18506
7.18506
7.18506
7.18506
7.18506
7.18506
7.18506
7.18506
7.18506
7.18506
7.18506
7.18506
7.18506
7.18506
7.18506
7.18506
7.18506
7.18506
7.18506
7.18506
7.18506
7.18506
7.18506
7.18506
7.18506
7.18506
7.18506
7.18506
7.18506
7.18506
7.18506
7.18506
7.18506
7.18506
7.18506
7.18506
7.18506
7.18506
7.18506
7.18506
7.18506
7.18506
7.18506
7.18506
7.18506
7.18506
7.18506
7.18506
7.18506
7.18506
7.18506
7.18506
7.18506
7.18506
7.18506
7.18506
7.18506
7.18506
7.18506
7.18506
7.18506
7.18506
7.18506
7.18506
7.18506
7.18506
7.18506
7.18506
7.18506
7.18506
7.18506
7.18506
7.18506
7.18506
7.18506
7.18506
7.18506
7.18506
7.18506
7.18506
7.18506
7.18506
7.18506
7.18506
7.18506
7.18506
7.18506
7.18506
7.18506
7.18506
7.18506
7.18506
7.18506
7.18506
7.18506
7.18506
7.18506
7.18506
7.18506
7.18506
7.18506
7.18506
7.18506
7.18506
7.18506
7.18506
7.18506
7.18506
7.18506
7.18506
7.18506
7.18506
7.18506
7.18506
7.18506
7.18506
7.18506
7.18506
7.18506
7.18506
7.18506
7.18506
7.18506
7.18506
7.18506
7.18506
7.18506
7.18506
7.18506
7.18506
7.18506
7.18506
7.18506
7.18506
7.18506
7.18506
7.18506
7.18506
7.18506
7.18506
7.18506
7.18506
7.18506
7.18506
7.18506
7.18506
7.18506
7.18506
7.18506
7.18506
7.18506
7.18506
7.18506
7.18506
7.18506
7.18506
7.18506
7.18506
7.18506
7.18506
7.18506
7.18506
7.18506
7.18506
7.18506
7.18506
7.18506
7.18506
7.18506
7.18506
7.18506
7.18506
7.18506
7.18506
7.18506
7.18506
7.18506
7.18506
7.18506
7.18506
7.18506
7.18506
7.18506
7.18506
7.18506
7.18506
7.18506
7.18506
7.18506
7.18506
7.18506
7.18506
7.18506
7.18506
7.18506
7.18506
7.18506
7.18506
7.18506
7.18506
7.18506
7.18506
7.18506
7.18506
7.18506
7.18506
7.18506
7.18506
7.18506
7.18506
7.18506
7.18506
7.18506
7.18506
7.18506
7.18506
7.18506
7.18506
7.18506
7.18506
7.18506
7.18506
7.18506
7.18506
7.18506
7.18506
7.18506
7.18506
7.18506
7.18506
7.18506
7.18506
7.18506
7.18506
7.18506
7.18506
7.18506
7.18506
7.18506
7.18506
7.18506
7.18506
7.18506
7.18506
7.18506
7.18506
7.18506
7.18506
7.18506
7.18506
7.18506
7.18506
7.18506
7.18506
7.18506
7.18506
7.18506
7.18506
7.18506
7.18506
7.18506
7.18506
7.18506
7.18506
7.18506
7.18506
7.18506
7.18506
7.18506
7.18506
7.18506
7.18506
7.18506
7.18506
7.18506
7.18506
7.18506
7.18506
7.18506
7.18506
7.18506
7.18506
7.18506
7.18506
7.18506
7.18506
7.18506
7.18506
7.18506
7.18506
7.18506
7.18506
7.18506
7.18506
7.18506
7.18506
7.18506
7.18506
7.18506
7.18506
7.18506
7.18506
7.18506
7.18506
7.18506
7.18506
7.18506
7.18506
7.18506
7.18506
7.18506
7.18506
7.18506
7.18506
7.18506
7.18506
7.18506
7.18506
7.18506
7.18506
7.18506
7.18506
7.18506
7.18506
7.18506
7.18506
7.18506
7.18506
7.18506
7.18506
7.18506
7.18506
7.18506
7.18506
7.18506
7.18506
7.18506
7.18506
7.18506
7.18506
7.18506
7.18506
7.18506
7.18506
7.18506
7.18506
7.18506
7.18506
7.18506
7.18506
7.18506
7.18506
7.18506
7.18506
7.18506
7.18506
7.18506
7.18506
7.18506
7.18506
7.18506
7.18506
7.18506
7.18506
7.18506
7.18506
7.18506
7.18506
7.18506
7.18506
7.18506
7.18506
7.18506
7.18506
7.18506
7.18506
7.18506
7.18506
7.18506
7.18506
7.18506
7.18506
7.18506
7.18506
7.18506
7.18506
7.18506
7.18506
7.18506
7.18506
7.18506
7.18506
7.18506
7.18506
7.18506
7.18506
7.18506
7.18506
7.18506
7.18506
7.18506
7.18506
7.18506
7.18506
7.18506
7.18506
7.18506
7.18506
7.18506
7.18506
7.18506
7.18506
7.18506
7.18506
7.18506
7.18506
7.18506
7.18506
7.18506
7.18506
7.18506
7.18506
7.18506
7.18506
7.18506
7.18506
7.18506
7.18506
7.18506
7.18506
7.18506
7.18506
7.18506
7.18506
7.18506
7.18506
7.18506
7.18506
7.18506
7.18506
7.18506
7.18506
7.18506
7.18506
7.18506
7.18506
7.18506
7.18506
7.18506
7.18506
7.18506
7.18506
7.18506
7.18506
7.18506
7.18506
7.18506
7.18506
7.18506
7.18506
7.18506
7.18506
7.18506
7.18506
7.18506
7.18506
7.18506
7.18506
7.18506
7.18506
7.18506
7.18506
7.18506
7.18506
7.18506
7.18506
7.18506
7.18506
7.18506
7.18506
7.18506
7.18506
7.18506
7.18506
7.18506
7.18506
7.18506
7.18506
7.18506
7.18506
7.18506
7.18506
7.18506
7.18506
7.18506
7.18506
7.18506
7.18506
7.18506
7.18506
7.18506
7.18506
7.18506
7.18506
7.18506
7.18506
7.18506
7.18506
7.18506
7.18506
7.18506
7.18506
7.18506
7.18506
7.18506
7.18506
7.18506
7.18506
7.18506
7.18506
7.18506
7.18506
7.18506
7.18506
7.18506
7.18506
7.18506
7.18506
7.18506
7.18506
7.18506
7.18506
7.18506
7.18506
7.18506
7.18506
7.18506
7.18506
7.18506
7.18506
7.18506
7.18506
7.18506
7.18506
7.18506
7.18506
7.18506
7.18506
7.18506
7.18506
7.18506
7.18506
7.18506
7.18506
7.18506
7.18506
7.18506
7.18506
7.18506
7.18506
7.18506
7.18506
7.18506
7.18506
7.18506
7.18506
7.18506
7.18506
7.18506
7.18506
7.18506
7.18506
7.18506
7.18506
7.18506
7.18506
7.18506
7.18506
7.18506
7.18506
7.18506
7.18506
7.18506
7.18506
7.18506
7.18506
7.18506
7.18506
7.18506
7.18506
7.18506
7.18506
7.18506
7.18506
7.18506
7.18506
7.18506
7.18506
7.18506
7.18506
7.18506
7.18506
7.18506
7.18506
7.18506
7.18506
7.18506
7.18506
7.18506
7.18506
7.18506
7.18506
7.18506
7.18506
7.18506
7.18506
7.18506
7.18506
7.18506
7.18506
7.18506
7.18506
7.18506
7.18506
7.18506
7.18506
7.18506
7.18506
7.18506
7.18506
7.18506
7.18506
7.18506
7.18506
7.18506
7.18506
7.18506
7.18506
7.18506
7.18506
7.18506
7.18506
7.18506
7.18506
7.18506
7.18506
7.18506
7.18506
7.18506
7.18506
7.18506
7.18506
7.18506
7.18506
7.18506
7.18506
7.18506
7.18506
7.18506
7.18506
7.18506
7.18506
7.18506
7.18506
7.18506
7.18506
7.18506
7.18506
7.18506
7.18506
7.18506
7.18506
7.18506
7.18506
7.18506
7.18506
7.18506
7.18506
7.18506
7.18506
7.18506
7.18506
7.18506
7.18506
7.18506
7.18506
7.18506
7.18506
7.18506
7.18506
7.18506
7.18506
7.18506
7.18506
7.18506
7.18506
7.18506
7.18506
7.18506
7.18506
7.18506
7.18506
7.18506
7.18506
7.18506
7.18506
7.18506
7.18506
7.18506
7.18506
7.18506
7.18506
7.18506
7.18506
7.18506
7.18506
7.18506
7.18506
7.18506
7.18506
7.18506
7.18506
7.18506
7.18506
7.18506
7.18506
7.18506
7.18506
7.18506
7.18506
7.18506
7.18506
7.18506
7.18506
7.18506
7.18506
7.18506
7.18506
7.18506
7.18506
7.18506
7.18506
7.18506
7.18506
7.18506
7.18506
7.18506
7.18506
7.18506
7.18506
7.18506
7.18506
7.18506
7.18506
7.18506
7.18506
7.18506
7.18506
7.18506
7.18506
7.18506
7.18506
7.18506
7.18506
7.18506
7.18506
7.18506
7.18506
7.18506
7.18506
7.18506
7.18506
7.18506
7.18506
7.18506
7.18506
7.18506
7.18506
7.18506
7.18506
7.18506
7.18506
7.18506
7.18506
7.18506
7.18506
7.18506
7.18506
7.18506
7.18506
7.18506
7.18506
7.18506
7.18506
7.18506
7.18506
7.18506
7.18506
7.18506
7.18506
7.18506
7.18506
7.18506
7.18506
7.18506
7.18506
7.18506
7.18506
7.18506
7.18506
7.18506
7.18506
7.18506
7.18506
7.18506
7.18506
7.18506
7.18506
7.18506
7.18506
7.18506
7.18506
7.18506
7.18506
7.18506
7.18506
7.18506
7.18506
7.18506
7.18506
7.18506
7.18506
7.18506
7.18506
7.18506
7.18506
7.18506
7.18506
7.18506
7.18506
7.18506
7.18506
7.18506
7.18506
7.18506
7.18506
7.18506
7.18506
7.18506
7.18506
7.18506
7.18506
7.18506
7.18506
7.18506
7.18506
7.18506
7.18506
7.18506
7.18506
7.18506
7.18506
7.18506
7.18506
7.18506
7.18506
7.18506
7.18506
7.18506
7.18506
7.18506
7.18506
7.18506
7.18506
7.18506
7.18506
7.18506
7.18506
7.18506
7.18506
7.18506
7.18506
7.18506
7.18506
7.18506
7.18506
7.18506
7.18506
7.18506
7.18506
7.18506
7.18506
7.18506
7.18506
7.18506
7.18506
7.18506
7.18506
7.18506
7.18506
7.18506
7.18506
7.18506
7.18506
7.18506
7.18506
7.18506
7.18506
7.18506
7.18506
7.18506
7.18506
7.18506
7.18506
7.18506
7.18506
7.18506
7.18506
7.18506
7.18506
7.18506
7.18506
7.18506
7.18506
7.18506
7.18506
7.18506
7.18506
7.18506
7.18506
7.18506
7.18506
7.18506
7.18506
7.18506
7.18506
7.18506
7.18506
7.18506
7.18506
7.18506
7.18506
7.18506
7.18506
7.18506
7.18506
7.18506
7.18506
7.18506
7.18506
7.18506
7.18506
7.18506
7.18506
7.18506
7.18506
7.18506
7.18506
7.18506
7.18506
7.18506
7.18506
7.18506
7.18506
7.18506
7.18506
7.18506
7.18506
7.18506
7.18506
7.18506
7.18506
7.18506
7.18506
7.18506
7.18506
7.18506
7.18506
7.18506
7.18506
7.18506
7.18506
7.18506
7.18506
7.18506
7.18506
7.18506
7.18506
7.18506
7.18506
7.18506
7.18506
7.18506
7.18506
7.18506
7.18506
7.18506
7.18506
7.18506
7.18506
7.18506
7.18506
7.18506
7.18506
7.18506
7.18506
7.18506
7.18506
7.18506
7.18506
7.18506
7.18506
7.18506
7.18506
7.18506
7.18506
7.18506
7.18506
7.18506
7.18506
7.18506
7.18506
7.18506
7.18506
7.18506
7.18506
7.18506
7.18506
7.18506
7.18506
7.18506
7.18506
7.18506
7.18506
7.18506
7.18506
7.18506
7.18506
7.18506
7.18506
7.18506
7.18506
7.18506
7.18506
7.18506
7.18506
7.18506
7.18506
7.18506
7.18506
7.18506
7.18506
7.18506
7.18506
7.18506
7.18506
7.18506
7.18506
7.18506
7.18506
7.18506
7.18506
7.18506
7.18506
7.18506
7.18506
7.18506
7.18506
7.18506
7.18506
7.18506
7.18506
7.18506
7.18506
7.18506
7.18506
7.18506
7.18506
7.18506
7.18506
7.18506
7.18506
7.18506
7.18506
7.18506
7.18506
7.18506
7.18506
7.18506
7.18506
7.18506
7.18506
7.18506
7.18506
7.18506
7.18506
7.18506
7.18506
7.18506
7.18506
7.18506
7.18506
7.18506
7.18506
7.18506
7.18506
7.18506
7.18506
7.18506
7.18506
7.18506
7.18506
7.18506
7.18506
7.18506
7.18506
7.18506
7.18506
7.18506
7.18506
7.18506
7.18506
7.18506
7.18506
7.18506
7.18506
7.18506
7.18506
7.18506
7.18506
7.18506
7.18506
7.18506
7.18506
7.18506
7.18506
7.18506
7.18506
7.18506
7.18506
7.18506
7.18506
7.18506
7.18506
7.18506
7.18506
7.18506
7.18506
7.18506
7.18506
7.18506
7.18506
7.18506
7.18506
7.18506
7.18506
7.18506
7.18506
7.18506
7.18506
7.18506
7.18506
7.18506
7.18506
7.18506
7.18506
7.18506
7.18506
7.18506
7.18506
7.18506
7.18506
7.18506
7.18506
7.18506
7.18506
7.18506
7.18506
7.18506
7.18506
7.18506
7.18506
7.18506
7.18506
7.18506
7.18506
7.18506
7.18506
7.18506
7.18506
7.18506
7.18506
7.18506
7.18506
7.18506
7.18506
7.18506
7.18506
7.18506
7.18506
7.18506
7.18506
7.18506
7.18506
7.18506
7.18506
7.18506
7.18506
7.18506
7.18506
7.18506
7.18506
7.18506
7.18506
7.18506
7.18506
7.18506
7.18506
7.18506
7.18506
7.18506
7.18506
7.18506
7.18506
7.18506
7.18506
7.18506
7.18506
7.18506
7.18506
7.18506
7.18506
7.18506
7.18506
7.18506
7.18506
7.18506
7.18506
7.18506
7.18506
7.18506
7.18506
7.18506
7.18506
7.18506
7.18506
7.18506
7.18506
7.18506
7.18506
7.18506
7.18506
7.18506
7.18506
7.18506
7.18506
7.18506
7.18506
7.18506
7.18506
7.18506
7.18506
7.18506
7.18506
7.18506
7.18506
7.18506
7.18506
7.18506
7.18506
7.18506
7.18506
7.18506
7.18506
7.18506
7.18506
7.18506
7.18506
7.18506
7.18506
7.18506
7.18506
7.18506
7.18506
7.18506
7.18506
7.18506
7.18506
7.18506
7.18506
7.18506
7.18506
7.18506
7.18506
7.18506
7.18506
7.18506
7.18506
7.18506
7.18506
7.18506
7.18506
7.18506
7.18506
7.18506
7.18506
7.18506
7.18506
7.18506
7.18506
7.18506
7.18506
7.18506
7.18506
7.18506
7.18506
7.18506
7.18506
7.18506
7.18506
7.18506
7.18506
7.18506
7.18506
7.18506
7.18506
7.18506
7.18506
7.18506
7.18506
7.18506
7.18506
7.18506
7.18506
7.18506
7.18506
7.18506
7.18506
7.18506
7.18506
7.18506
7.18506
7.18506
7.18506
7.18506
7.18506
7.18506
7.18506
7.18506
7.18506
7.18506
7.18506
7.18506
7.18506
7.18506
7.18506
7.18506
7.18506
7.18506
7.18506
7.18506
7.18506
7.18506
7.18506
7.18506
7.18506
7.18506
7.18506
7.18506
7.18506
7.18506
7.18506
7.18506
7.18506
7.18506
7.18506
7.18506
7.18506
7.18506
7.18506
7.18506
7.18506
7.18506
7.18506
7.18506
7.18506
7.18506
7.18506
7.18506
7.18506
7.18506
7.18506
7.18506
7.18506
7.18506
7.18506
7.18506
7.18506
7.18505
7.18505
7.18505
7.18505
7.18505
7.18505
7.18505
7.18505
7.18505
7.18505
7.18505
7.18505
7.18505
7.18505
7.18505
7.18505
7.18504
7.18504
7.18504
7.18504
7.18504
7.18504
7.18503
7.18503
7.18503
7.18503
7.18502
7.18502
7.18502
7.18506
7.18506
7.18506
7.18506
7.18506
7.18506
7.18506
7.18506
7.18506
7.18506
7.18506
7.18506
7.18505
7.18505
7.18505
7.18505
7.18505
7.18505
7.18505
7.18505
7.18505
7.18505
7.18505
7.18505
7.18505
7.18505
7.18505
7.18505
7.18505
7.18505
7.18505
7.18504
7.18504
7.18504
7.18504
7.18504
7.18504
7.18504
7.18504
7.18504
7.18504
7.18504
7.18504
7.18504
7.18504
7.18504
7.18504
7.18504
7.18504
7.18504
7.18504
7.18504
7.18504
7.18504
7.18504
7.18504
7.18504
7.18504
7.18504
7.18504
7.18503
7.18503
7.18503
7.18503
7.18503
7.18503
7.18503
7.18503
7.18503
7.18503
7.18503
7.18503
7.18503
7.18503
7.18503
7.18503
7.18503
7.18503
7.18503
7.18503
7.18503
7.18503
7.18503
7.18502
7.18502
7.18502
7.18502
7.18502
7.18502
7.18502
7.18501
7.18501
7.18501
7.18501
7.185
7.185
7.185
7.18499
7.18499
7.18498
7.18498
7.18497
7.18497
7.18496
7.18496
7.18495
7.18494
7.18493
7.18492
7.18491
7.18489
7.18488
7.18486
7.18485
7.18483
7.18481
7.18505
7.18505
7.18505
7.18505
7.18505
7.18505
7.18505
7.18504
7.18504
7.18504
7.18504
7.18504
7.18504
7.18503
7.18503
7.18503
7.18503
7.18503
7.18503
7.18502
7.18502
7.18502
7.18502
7.18501
7.18501
7.18501
7.18501
7.18501
7.185
7.185
7.185
7.185
7.18499
7.18499
7.18499
7.18499
7.18499
7.18498
7.18498
7.18498
7.18498
7.18498
7.18497
7.18497
7.18497
7.18497
7.18497
7.18497
7.18496
7.18496
7.18496
7.18496
7.18496
7.18496
7.18496
7.18495
7.18495
7.18495
7.18495
7.18495
7.18495
7.18495
7.18495
7.18494
7.18494
7.18494
7.18494
7.18494
7.18494
7.18494
7.18494
7.18493
7.18493
7.18493
7.18493
7.18493
7.18493
7.18492
7.18492
7.18492
7.18492
7.18492
7.18491
7.18491
7.18491
7.18491
7.1849
7.1849
7.18489
7.18489
7.18489
7.18488
7.18487
7.18487
7.18486
7.18485
7.18484
7.18483
7.18482
7.18481
7.1848
7.18478
7.18477
7.18475
7.18473
7.18471
7.18469
7.18467
7.18465
7.18462
7.18459
7.18455
7.18451
7.18446
7.18441
7.18436
7.1843
7.18423
7.18416
7.18408
7.184
7.18391
7.1838
7.18501
7.18501
7.18501
7.185
7.185
7.18499
7.18499
7.18498
7.18497
7.18497
7.18496
7.18495
7.18495
7.18494
7.18493
7.18493
7.18492
7.18491
7.1849
7.18489
7.18489
7.18488
7.18487
7.18486
7.18485
7.18484
7.18483
7.18482
7.18482
7.18481
7.1848
7.18479
7.18478
7.18477
7.18476
7.18475
7.18474
7.18473
7.18473
7.18472
7.18471
7.1847
7.18469
7.18469
7.18468
7.18467
7.18467
7.18466
7.18466
7.18465
7.18464
7.18464
7.18463
7.18463
7.18462
7.18462
7.18461
7.18461
7.1846
7.18459
7.18459
7.18458
7.18458
7.18457
7.18457
7.18456
7.18455
7.18455
7.18454
7.18454
7.18453
7.18452
7.18452
7.18451
7.1845
7.18449
7.18449
7.18448
7.18447
7.18446
7.18445
7.18444
7.18443
7.18441
7.1844
7.18439
7.18437
7.18436
7.18434
7.18432
7.18429
7.18427
7.18424
7.1842
7.18416
7.18412
7.18408
7.18403
7.18397
7.18391
7.18385
7.18378
7.18371
7.18363
7.18355
7.18346
7.18336
7.18326
7.18314
7.183
7.18285
7.18267
7.18247
7.18226
7.18201
7.18175
7.18146
7.18115
7.18081
7.18044
7.18004
7.1796
7.17909
7.18486
7.18484
7.18482
7.1848
7.18478
7.18476
7.18474
7.18472
7.18469
7.18467
7.18464
7.18462
7.18459
7.18456
7.18453
7.1845
7.18447
7.18444
7.18441
7.18438
7.18434
7.18431
7.18428
7.18424
7.18421
7.18417
7.18414
7.1841
7.18406
7.18403
7.18399
7.18396
7.18392
7.18389
7.18385
7.18382
7.18378
7.18375
7.18372
7.18369
7.18366
7.18363
7.1836
7.18357
7.18354
7.18352
7.18349
7.18347
7.18345
7.18342
7.1834
7.18337
7.18335
7.18333
7.1833
7.18328
7.18325
7.18323
7.1832
7.18318
7.18315
7.18313
7.1831
7.18308
7.18305
7.18303
7.183
7.18297
7.18294
7.18291
7.18288
7.18285
7.18282
7.18279
7.18275
7.18272
7.18268
7.18264
7.1826
7.18255
7.1825
7.18245
7.1824
7.18234
7.18228
7.18222
7.18215
7.18207
7.18198
7.18189
7.18178
7.18165
7.18151
7.18135
7.18118
7.18099
7.18078
7.18055
7.18031
7.18004
7.17975
7.17944
7.17911
7.17876
7.17838
7.17797
7.17752
7.17702
7.17645
7.17579
7.17504
7.17419
7.17324
7.17218
7.17102
7.16975
7.16837
7.16688
7.16528
7.16355
7.16166
7.15953
7.15708
7.18422
7.18416
7.18409
7.18401
7.18393
7.18385
7.18376
7.18367
7.18358
7.18348
7.18339
7.18328
7.18318
7.18307
7.18296
7.18284
7.18273
7.18261
7.18249
7.18236
7.18224
7.18211
7.18198
7.18184
7.1817
7.18157
7.18143
7.18128
7.18114
7.181
7.18086
7.18072
7.18058
7.18045
7.18031
7.18018
7.18005
7.17992
7.1798
7.17968
7.17956
7.17945
7.17934
7.17923
7.17913
7.17903
7.17894
7.17884
7.17875
7.17865
7.17856
7.17846
7.17836
7.17827
7.17817
7.17807
7.17797
7.17787
7.17777
7.17767
7.17757
7.17747
7.17736
7.17726
7.17715
7.17704
7.17692
7.17681
7.17669
7.17656
7.17643
7.1763
7.17616
7.17601
7.17586
7.1757
7.17553
7.17535
7.17516
7.17496
7.17474
7.17452
7.17428
7.17402
7.17375
7.17346
7.17314
7.17279
7.17239
7.17194
7.17143
7.17084
7.17018
7.16945
7.16865
7.16777
7.16681
7.16577
7.16464
7.16343
7.16213
7.16073
7.15923
7.15764
7.15593
7.15408
7.15206
7.14977
7.14717
7.14418
7.14078
7.13694
7.13267
7.12794
7.12275
7.11711
7.111
7.10442
7.09737
7.08977
7.08145
7.07199
7.06093
7.04796
7.03296
7.18176
7.1815
7.18123
7.18095
7.18065
7.18033
7.18
7.17966
7.1793
7.17893
7.17855
7.17815
7.17775
7.17733
7.17691
7.17647
7.17603
7.17558
7.17512
7.17464
7.17416
7.17367
7.17318
7.17267
7.17216
7.17165
7.17113
7.17061
7.17009
7.16957
7.16905
7.16854
7.16803
7.16752
7.16703
7.16654
7.16606
7.1656
7.16514
7.1647
7.16427
7.16386
7.16346
7.16307
7.16269
7.16231
7.16195
7.16158
7.16121
7.16083
7.16045
7.16006
7.15967
7.15927
7.15886
7.15846
7.15804
7.15763
7.15721
7.15678
7.15636
7.15592
7.15548
7.15503
7.15457
7.15409
7.15361
7.15311
7.15259
7.15206
7.1515
7.15092
7.15032
7.14968
7.14902
7.14832
7.14758
7.1468
7.14597
7.1451
7.14418
7.1432
7.14216
7.14106
7.13988
7.13861
7.13724
7.1357
7.13396
7.13198
7.12973
7.12721
7.1244
7.12129
7.11788
7.11416
7.11011
7.10573
7.10099
7.09589
7.09042
7.08457
7.07831
7.07164
7.06451
7.05682
7.04834
7.0387
7.02756
7.01472
7.00012
6.98379
6.96578
6.94613
6.9249
6.90214
6.87791
6.85227
6.82523
6.7966
6.7655
6.73018
6.68923
6.64227
6.58969
7.17238
7.1714
7.17037
7.16929
7.16816
7.16698
7.16575
7.16448
7.16316
7.16181
7.16041
7.15898
7.15752
7.15602
7.15449
7.15293
7.15132
7.14968
7.14799
7.14627
7.14451
7.14271
7.14088
7.13902
7.13714
7.13525
7.13334
7.13144
7.12953
7.12763
7.12574
7.12388
7.12203
7.12022
7.11844
7.11669
7.11499
7.11333
7.11172
7.11015
7.10863
7.10716
7.10573
7.10433
7.10297
7.10162
7.10027
7.09891
7.09753
7.09614
7.09472
7.09328
7.09183
7.09035
7.08886
7.08736
7.08583
7.08429
7.08272
7.08113
7.07951
7.07787
7.07619
7.07447
7.0727
7.07089
7.06901
7.06707
7.06506
7.06297
7.06079
7.05851
7.05612
7.05361
7.05097
7.04819
7.04525
7.04216
7.03888
7.03541
7.03174
7.02785
7.02372
7.01934
7.01467
7.00967
7.0042
6.99808
6.99109
6.98309
6.97401
6.96385
6.95261
6.94031
6.92693
6.91247
6.89691
6.88024
6.86244
6.84349
6.82338
6.80211
6.77965
6.756
6.73109
6.70452
6.67529
6.64211
6.60426
6.56166
6.51465
6.46364
6.40907
6.35135
6.2909
6.22815
6.16352
6.0974
6.02992
5.96103
5.88889
5.80734
5.71423
5.61201
5.50437
7.14128
7.13794
7.13443
7.13073
7.12686
7.1228
7.11857
7.11418
7.10963
7.10494
7.10013
7.0952
7.09017
7.08505
7.07983
7.0745
7.06907
7.06352
7.05785
7.05207
7.04618
7.0402
7.03414
7.02802
7.02184
7.01563
7.0094
7.00317
6.99695
6.99076
6.98461
6.97853
6.97252
6.96662
6.96082
6.95515
6.94961
6.94422
6.93897
6.93387
6.92892
6.92412
6.91946
6.91492
6.9105
6.90612
6.90174
6.8973
6.89277
6.88813
6.8834
6.87857
6.87365
6.86867
6.86362
6.85852
6.85337
6.84816
6.84289
6.83756
6.83215
6.82665
6.82104
6.81532
6.80947
6.80346
6.79728
6.79091
6.78432
6.77748
6.77038
6.76299
6.75527
6.7472
6.73875
6.72989
6.72058
6.71081
6.70052
6.68969
6.67829
6.66627
6.65362
6.64027
6.6262
6.61134
6.59551
6.57826
6.55891
6.53693
6.51213
6.48457
6.45439
6.42174
6.38669
6.34935
6.30977
6.26805
6.22427
6.17854
6.13096
6.08165
6.03073
5.97836
5.92463
5.86946
5.81241
5.75068
5.68085
5.60282
5.51856
5.43021
5.33947
5.24768
5.15591
5.06496
4.97552
4.88812
4.80307
4.72064
4.64008
4.55943
4.46675
4.36362
4.25725
4.15273
7.02931
7.01801
7.00621
6.99391
6.98115
6.96796
6.95436
6.9404
6.92612
6.91155
6.89673
6.88172
6.86654
6.85118
6.83562
6.81981
6.80373
6.78737
6.77072
6.75382
6.73671
6.71943
6.70204
6.6846
6.66717
6.6498
6.63256
6.61549
6.59863
6.58204
6.56575
6.5498
6.53422
6.51905
6.50431
6.49002
6.47618
6.46279
6.44985
6.43735
6.42527
6.41359
6.4023
6.39134
6.38061
6.36992
6.35911
6.34809
6.33685
6.32542
6.31382
6.3021
6.29027
6.27836
6.26636
6.25428
6.24212
6.22986
6.21748
6.20498
6.19231
6.17947
6.1664
6.15309
6.13949
6.12557
6.11128
6.09657
6.08142
6.06576
6.04956
6.03277
6.01534
5.99722
5.97837
5.95875
5.93831
5.917
5.89479
5.87164
5.84751
5.82237
5.79618
5.76893
5.74057
5.71101
5.68003
5.64677
5.60929
5.56684
5.51986
5.46918
5.41549
5.35935
5.30118
5.24131
5.1801
5.11784
5.05479
4.99125
4.92747
4.86366
4.80007
4.73688
4.67429
4.61233
4.55007
4.48356
4.40739
4.32524
4.2411
4.15759
4.07626
3.99815
3.9239
3.85387
3.78827
3.72732
3.671
3.61893
3.57102
3.52754
3.48914
3.45505
3.42443
3.39672
3.37168
3.34923
6.68866
6.65739
6.62519
6.59216
6.55842
6.52411
6.48939
6.45439
6.41926
6.38414
6.34916
6.31446
6.28007
6.24588
6.21174
6.17755
6.14329
6.10901
6.0748
6.04075
6.00698
5.97359
5.94066
5.90827
5.87648
5.84537
5.815
5.78541
5.75665
5.72877
5.70181
5.67578
5.65071
5.62662
5.6035
5.58134
5.56011
5.53975
5.52024
5.5015
5.4835
5.46618
5.44948
5.43332
5.4175
5.40151
5.38509
5.36823
5.35104
5.33363
5.31611
5.29854
5.28097
5.26343
5.24591
5.22843
5.21096
5.19347
5.17595
5.15837
5.14067
5.12282
5.10479
5.08651
5.06796
5.04908
5.02983
5.01017
4.99004
4.96941
4.94824
4.92648
4.90411
4.88108
4.85737
4.83295
4.8078
4.7819
4.75524
4.72781
4.69962
4.67065
4.64092
4.61044
4.57923
4.5473
4.51431
4.47948
4.4391
4.3937
4.34507
4.29447
4.24271
4.19037
4.13783
4.08542
4.0335
3.98234
3.93214
3.88321
3.83574
3.78985
3.74573
3.70351
3.66324
3.62492
3.58866
3.55493
3.52414
3.49568
3.46917
3.44444
3.42143
3.40014
3.38052
3.36255
3.3462
3.33143
3.31813
3.30615
3.29554
3.28628
3.27822
3.27116
3.2648
3.25872
3.25283
3.24719
5.913
5.85504
5.79729
5.74001
5.68342
5.62771
5.57306
5.51961
5.46751
5.41686
5.36776
5.3203
5.27437
5.22949
5.18523
5.14149
5.09836
5.05598
5.01451
4.97408
4.9348
4.89679
4.86009
4.82475
4.79079
4.75823
4.72709
4.69734
4.66896
4.64197
4.61634
4.59201
4.56896
4.54716
4.52655
4.50703
4.48853
4.47096
4.45424
4.43829
4.42304
4.40842
4.3944
4.38086
4.36757
4.35344
4.33853
4.32324
4.3078
4.29237
4.27702
4.26179
4.2467
4.23174
4.21689
4.20215
4.18748
4.17285
4.15824
4.14361
4.12893
4.11417
4.09929
4.08427
4.06907
4.05366
4.03802
4.02212
4.00593
3.98944
3.97264
3.95549
3.93801
3.92018
3.902
3.88348
3.86463
3.84546
3.82598
3.80623
3.78622
3.766
3.7456
3.72506
3.70443
3.68372
3.66298
3.64238
3.62238
3.60289
3.58372
3.56484
3.54634
3.52821
3.51046
3.49327
3.47661
3.46047
3.44501
3.43026
3.41612
3.40273
3.39012
3.37822
3.36705
3.35661
3.3469
3.33803
3.32991
3.3223
3.31503
3.30797
3.30107
3.29435
3.28792
3.28178
3.27586
3.27017
3.26489
3.26006
3.25558
3.25121
3.24737
3.24427
3.24155
3.23871
3.23614
3.23364
4.82243
4.75978
4.69931
4.64117
4.58549
4.5323
4.48164
4.43352
4.3879
4.34475
4.30402
4.26574
4.22953
4.19409
4.15897
4.12453
4.09108
4.05884
4.02794
3.99842
3.97034
3.94374
3.91863
3.89496
3.8727
3.85185
3.83238
3.8142
3.79724
3.78155
3.76703
3.75359
3.74119
3.72979
3.71929
3.70959
3.70058
3.69221
3.68439
3.67706
3.67019
3.66372
3.65763
3.65187
3.64643
3.64144
3.63683
3.63251
3.6284
3.62446
3.62068
3.617
3.61341
3.60987
3.60638
3.60289
3.5994
3.59588
3.59231
3.58868
3.58497
3.58117
3.57725
3.57321
3.56904
3.56472
3.56025
3.55562
3.55082
3.54585
3.54071
3.53538
3.52988
3.52421
3.51836
3.51234
3.50617
3.49984
3.49337
3.48678
3.48007
3.47326
3.46636
3.45941
3.4524
3.44534
3.43828
3.43127
3.42435
3.41747
3.41054
3.40353
3.3965
3.38937
3.38224
3.37523
3.36817
3.36116
3.35442
3.34772
3.34106
3.33479
3.32868
3.32265
3.31704
3.31163
3.30639
3.30156
3.2971
3.29298
3.28907
3.28516
3.28139
3.27754
3.27368
3.27003
3.26645
3.26262
3.25876
3.25541
3.25235
3.24884
3.2453
3.24264
3.24009
3.23733
3.23512
3.23323
3.23069
3.82197
3.78089
3.74251
3.70682
3.67375
3.64322
3.61517
3.58951
3.56614
3.54495
3.52594
3.50892
3.49394
3.48086
3.46939
3.45928
3.4504
3.44263
3.43585
3.42995
3.42492
3.42069
3.41717
3.41425
3.41196
3.41028
3.40911
3.40831
3.40812
3.40829
3.40881
3.40968
3.41087
3.41228
3.4138
3.41541
3.41707
3.41877
3.42052
3.42228
3.42407
3.42588
3.42768
3.42949
3.4313
3.43311
3.43488
3.4366
3.43823
3.43976
3.44117
3.44247
3.44363
3.44467
3.44556
3.4463
3.44688
3.4473
3.44755
3.44761
3.4475
3.44719
3.44669
3.446
3.44512
3.44403
3.44275
3.44126
3.43958
3.43771
3.43563
3.43336
3.43091
3.42827
3.42545
3.42245
3.41929
3.41598
3.41251
3.40891
3.40518
3.40133
3.39739
3.39335
3.38923
3.38504
3.38081
3.37662
3.37245
3.36821
3.364
3.35974
3.35521
3.35076
3.34642
3.34165
3.33692
3.33266
3.32792
3.32293
3.31878
3.31423
3.30944
3.30541
3.30112
3.29688
3.29312
3.28915
3.28581
3.28287
3.27899
3.27617
3.27341
3.26991
3.26687
3.26458
3.26147
3.25826
3.25506
3.25223
3.24985
3.2467
3.24383
3.24118
3.23859
3.2361
3.23405
3.23189
3.2948
3.28433
3.27547
3.26806
3.26194
3.25697
3.25304
3.25011
3.24813
3.24704
3.24706
3.24772
3.24893
3.25055
3.25251
3.25467
3.257
3.2596
3.26237
3.26528
3.26831
3.27154
3.27477
3.27813
3.28161
3.28522
3.28879
3.29236
3.29612
3.3
3.3041
3.30836
3.31275
3.31719
3.3216
3.32594
3.33019
3.33435
3.3384
3.34234
3.34616
3.34986
3.35345
3.35691
3.36025
3.36348
3.3666
3.36958
3.37243
3.37513
3.37768
3.38007
3.38229
3.38434
3.38623
3.38794
3.38947
3.39083
3.392
3.39298
3.39376
3.39436
3.39475
3.39495
3.39495
3.39475
3.39433
3.39374
3.39295
3.39197
3.39081
3.38946
3.38794
3.38624
3.38438
3.38236
3.3802
3.37789
3.37545
3.37289
3.37021
3.36744
3.36457
3.36162
3.3586
3.35551
3.35236
3.34924
3.34609
3.3429
3.33983
3.33666
3.33327
3.33018
3.32703
3.32325
3.3201
3.3171
3.313
3.30964
3.30675
3.30271
3.2991
3.29629
3.2924
3.28892
3.28622
3.28243
3.27944
3.27704
3.27362
3.27095
3.26877
3.26583
3.26314
3.26101
3.25904
3.25612
3.25342
3.25046
3.24813
3.24575
3.24299
3.2404
3.2378
3.23531
3.23308
3.23091
3.12242
3.12477
3.12729
3.13007
3.1332
3.13649
3.13985
3.14351
3.14753
3.15222
3.15739
3.16266
3.16784
3.17304
3.17821
3.18326
3.18867
3.19363
3.19857
3.20342
3.20859
3.21302
3.21785
3.22255
3.22742
3.23153
3.23617
3.24099
3.24541
3.24992
3.25448
3.25901
3.26357
3.26817
3.27277
3.27734
3.28187
3.28631
3.29066
3.29489
3.299
3.30298
3.30684
3.31057
3.31416
3.31763
3.32096
3.32415
3.3272
3.3301
3.33284
3.33541
3.33782
3.34006
3.34213
3.34403
3.34574
3.34727
3.34862
3.34978
3.35076
3.35154
3.35214
3.35254
3.35276
3.35279
3.35264
3.35228
3.35178
3.3511
3.35027
3.34927
3.34813
3.34685
3.34543
3.34389
3.34223
3.34046
3.33859
3.33663
3.33459
3.33247
3.33029
3.32805
3.32574
3.32341
3.32106
3.31867
3.3163
3.31402
3.3116
3.30918
3.30699
3.30455
3.30185
3.29973
3.29746
3.29427
3.2921
3.28999
3.28662
3.28414
3.28207
3.27878
3.27614
3.27408
3.27086
3.26833
3.26637
3.26345
3.26111
3.25931
3.25688
3.2546
3.25274
3.25124
3.24877
3.24643
3.24384
3.24155
3.23958
3.23709
3.23472
3.23228
3.22989
3.22765
3.2255
3.05916
3.06398
3.0687
3.07392
3.0793
3.08419
3.08935
3.09437
3.09947
3.1045
3.10973
3.11528
3.12069
3.1264
3.1324
3.13875
3.14405
3.14968
3.15616
3.16207
3.16702
3.17291
3.17908
3.18456
3.18922
3.19532
3.20072
3.20569
3.21035
3.2151
3.21963
3.224
3.22845
3.23297
3.23749
3.24201
3.24651
3.25094
3.25527
3.25948
3.26357
3.26752
3.27131
3.27496
3.27844
3.28177
3.28494
3.28796
3.29081
3.29349
3.29601
3.29835
3.30053
3.30254
3.30439
3.30606
3.30757
3.30891
3.31008
3.31109
3.31194
3.31262
3.31314
3.31351
3.31371
3.31376
3.31367
3.3134
3.31302
3.31251
3.31186
3.3111
3.31021
3.30922
3.30813
3.30694
3.30566
3.3043
3.30287
3.30136
3.29979
3.29817
3.2965
3.29477
3.29302
3.29124
3.28941
3.28764
3.28592
3.28405
3.28231
3.28072
3.2788
3.27693
3.27546
3.27364
3.27136
3.26992
3.26832
3.26565
3.264
3.26245
3.25972
3.25777
3.25618
3.25352
3.25137
3.24975
3.24735
3.24525
3.24372
3.24165
3.23976
3.23812
3.23689
3.23483
3.23288
3.23076
3.22864
3.22701
3.22505
3.22289
3.22075
3.21861
3.21653
3.21457
3.21262
3.21064
3.01224
3.0184
3.02411
3.03064
3.03746
3.04371
3.05017
3.05649
3.06246
3.06761
3.07344
3.07994
3.08517
3.09115
3.09827
3.10463
3.11002
3.1163
3.12322
3.12901