/*--------------------------------*- C++ -*----------------------------------*\
| =========                 |                                                 |
| \\      /  F ield         | OpenFOAM: The Open Source CFD Toolbox           |
|  \\    /   O peration     | Version:  v1706                                 |
|   \\  /    A nd           | Web:      www.OpenFOAM.com                      |
|    \\/     M anipulation  |                                                 |
\*---------------------------------------------------------------------------*/
FoamFile
{
    version     2.0;
    format      ascii;
    class       volScalarField;
    location    "4e-05";
    object      Tt;
}
// * * * * * * * * * * * * * * * * * * * * * * * * * * * * * * * * * * * * * //

dimensions      [0 0 0 1 0 0 0];


internalField   nonuniform List<scalar> 
29871
(
144.4
144.4
144.4
144.4
144.4
144.4
144.4
144.4
144.4
144.4
144.4
144.4
144.4
144.4
144.4
144.4
144.4
144.4
144.4
144.4
144.4
144.4
144.4
144.4
144.4
144.4
144.4
144.4
144.4
144.4
144.4
144.4
144.4
144.4
144.4
144.4
144.4
144.4
144.4
144.4
144.4
144.4
144.4
144.4
144.4
144.4
144.4
144.4
144.4
144.4
144.4
144.4
144.4
144.4
144.4
144.4
144.4
144.4
144.4
144.4
144.4
144.4
144.4
144.4
144.4
144.4
144.4
144.4
144.4
144.4
144.4
144.4
144.4
144.4
144.4
144.4
144.4
144.4
144.4
144.4
144.4
144.4
144.4
144.4
144.4
144.4
144.4
144.4
144.4
144.4
144.4
144.4
144.4
144.4
144.4
144.4
144.4
144.4
144.4
144.4
144.4
144.4
144.4
144.4
144.4
144.4
144.4
144.4
144.4
144.4
144.4
144.4
144.4
144.4
144.4
144.4
144.4
144.4
144.4
144.4
144.4
144.4
144.4
144.4
144.4
144.4
144.4
144.4
144.4
144.4
144.4
144.4
144.4
144.4
144.4
144.4
144.4
144.4
144.4
144.4
144.4
144.4
144.4
144.4
144.4
144.4
144.4
144.4
144.4
144.4
144.4
144.4
144.4
144.4
144.4
144.4
144.4
144.4
144.4
144.4
144.4
144.4
144.4
144.4
144.4
144.4
144.4
144.4
144.4
144.4
144.4
144.4
144.4
144.4
144.4
144.4
144.4
144.4
144.4
144.4
144.4
144.4
144.4
144.4
144.4
144.4
144.4
144.4
144.4
144.4
144.4
144.4
144.4
144.4
144.4
144.4
144.4
144.4
144.4
144.4
144.4
144.4
144.4
144.4
144.4
144.4
144.4
144.4
144.4
144.4
144.4
144.4
144.4
144.4
144.4
144.4
144.4
144.4
144.4
144.4
144.4
144.4
144.4
144.4
144.4
144.4
144.4
144.4
144.4
144.4
144.4
144.4
144.4
144.4
144.4
144.4
144.4
144.4
144.4
144.4
144.4
144.4
144.4
144.4
144.4
144.4
144.4
144.4
144.4
144.4
144.4
144.4
144.4
144.4
144.4
144.4
144.4
144.4
144.4
144.4
144.4
144.4
144.4
144.4
144.4
144.4
144.4
144.4
144.4
144.4
144.4
144.4
144.4
144.4
144.4
144.4
144.4
144.4
144.4
144.4
144.4
144.4
144.4
144.4
144.4
144.4
144.4
144.4
144.4
144.4
144.4
144.4
144.4
144.4
144.4
144.4
144.4
144.4
144.4
144.4
144.4
144.4
144.4
144.4
144.4
144.4
144.4
144.4
144.4
144.4
144.4
144.4
144.4
144.4
144.4
144.4
144.4
144.4
144.4
144.4
144.4
144.4
144.4
144.4
144.4
144.4
144.4
144.4
144.4
144.4
144.4
144.4
144.4
144.4
144.4
144.4
144.4
144.4
144.4
144.4
144.4
144.4
144.4
144.4
144.4
144.4
144.4
144.4
144.4
144.4
144.4
144.4
144.4
144.4
144.4
144.4
144.4
144.4
144.4
144.4
144.4
144.4
144.4
144.4
144.4
144.4
144.4
144.4
144.4
144.4
144.4
144.4
144.4
144.4
144.4
144.4
144.4
144.4
144.4
144.4
144.4
144.4
144.4
144.4
144.4
144.4
144.4
144.4
144.4
144.4
144.4
144.4
144.4
144.4
144.4
144.4
144.4
144.4
144.4
144.4
144.4
144.4
144.4
144.4
144.4
144.4
144.4
144.4
144.4
144.4
144.4
144.4
144.4
144.4
144.4
144.4
144.4
144.4
144.4
144.4
144.4
144.4
144.4
144.4
144.4
144.4
144.4
144.4
144.4
144.4
144.4
144.4
144.4
144.4
144.4
144.4
144.4
144.4
144.4
144.4
144.4
144.4
144.4
144.4
144.4
144.4
144.4
144.4
144.4
144.4
144.4
144.4
144.4
144.4
144.4
144.4
144.4
144.4
144.4
144.4
144.4
144.4
144.4
144.4
144.4
144.4
144.4
144.4
144.4
144.4
144.4
144.4
144.4
144.4
144.4
144.4
144.4
144.4
144.4
144.4
144.4
144.4
144.4
144.4
144.4
144.4
144.4
144.4
144.4
144.4
144.4
144.4
144.4
144.4
144.4
144.4
144.4
144.4
144.4
144.4
144.4
144.4
144.4
144.4
144.4
144.4
144.4
144.4
144.4
144.4
144.4
144.4
144.4
144.4
144.4
144.4
144.4
144.4
144.4
144.4
144.4
144.4
144.4
144.4
144.4
144.4
144.4
144.4
144.4
144.4
144.4
144.4
144.4
144.4
144.4
144.4
144.4
144.4
144.4
144.4
144.4
144.4
144.4
144.4
144.4
144.4
144.4
144.4
144.4
144.4
144.4
144.4
144.4
144.4
144.4
144.4
144.4
144.4
144.4
144.4
144.4
144.4
144.4
144.4
144.4
144.4
144.4
144.4
144.4
144.4
144.4
144.4
144.4
144.4
144.4
144.4
144.4
144.4
144.4
144.4
144.4
144.4
144.4
144.4
144.4
144.4
144.4
144.4
144.4
144.4
144.4
144.4
144.4
144.4
144.4
144.4
144.4
144.4
144.4
144.4
144.4
144.4
144.4
144.4
144.4
144.4
144.4
144.4
144.4
144.4
144.4
144.4
144.4
144.4
144.4
144.4
144.4
144.4
144.4
144.4
144.4
144.4
144.4
144.4
144.4
144.4
144.4
144.4
144.4
144.4
144.4
144.4
144.4
144.4
144.4
144.4
144.4
144.4
144.4
144.4
144.4
144.4
144.4
144.4
144.4
144.4
144.4
144.4
144.4
144.4
144.4
144.4
144.4
144.4
144.4
144.4
144.4
144.4
144.4
144.4
144.4
144.4
144.4
144.4
144.4
144.4
144.4
144.4
144.4
144.4
144.4
144.4
144.4
144.4
144.4
144.4
144.4
144.4
144.4
144.4
144.4
144.4
144.4
144.4
144.4
144.4
144.4
144.4
144.4
144.4
144.4
144.4
144.4
144.4
144.4
144.4
144.4
144.4
144.4
144.4
144.4
144.4
144.4
144.4
144.4
144.4
144.4
144.4
144.4
144.4
144.4
144.4
144.4
144.4
144.4
144.4
144.4
144.4
144.4
144.4
144.4
144.4
144.4
144.4
144.4
144.4
144.4
144.4
144.4
144.4
144.4
144.4
144.4
144.4
144.4
144.4
144.4
144.4
144.4
144.4
144.4
144.4
144.4
144.4
144.4
144.4
144.4
144.4
144.4
144.4
144.4
144.4
144.4
144.4
144.4
144.4
144.4
144.4
144.4
144.4
144.4
144.4
144.4
144.4
144.4
144.4
144.4
144.4
144.4
144.4
144.4
144.4
144.4
144.4
144.4
144.4
144.4
144.4
144.4
144.4
144.4
144.4
144.4
144.4
144.4
144.4
144.4
144.4
144.4
144.4
144.4
144.4
144.4
144.4
144.4
144.4
144.4
144.4
144.4
144.4
144.4
144.4
144.4
144.4
144.4
144.4
144.4
144.4
144.4
144.4
144.4
144.4
144.4
144.4
144.4
144.4
144.4
144.4
144.4
144.4
144.4
144.4
144.4
144.4
144.4
144.4
144.4
144.4
144.4
144.4
144.4
144.4
144.4
144.4
144.4
144.4
144.4
144.4
144.4
144.4
144.4
144.4
144.4
144.4
144.4
144.4
144.4
144.4
144.4
144.4
144.4
144.4
144.4
144.4
144.4
144.4
144.4
144.4
144.4
144.4
144.4
144.4
144.4
144.4
144.4
144.4
144.4
144.4
144.4
144.4
144.4
144.4
144.4
144.4
144.4
144.4
144.4
144.4
144.4
144.4
144.4
144.4
144.4
144.4
144.4
144.4
144.4
144.4
144.4
144.4
144.4
144.4
144.4
144.4
144.4
144.4
144.4
144.4
144.4
144.4
144.4
144.4
144.4
144.4
144.4
144.4
144.4
144.4
144.4
144.4
144.4
144.4
144.4
144.4
144.4
144.4
144.4
144.4
144.4
144.4
144.4
144.4
144.4
144.4
144.4
144.4
144.4
144.4
144.4
144.4
144.4
144.4
144.4
144.4
144.4
144.4
144.4
144.4
144.4
144.4
144.4
144.4
144.4
144.4
144.4
144.4
144.4
144.4
144.4
144.4
144.4
144.4
144.4
144.4
144.4
144.4
144.4
144.4
144.4
144.4
144.4
144.4
144.4
144.4
144.4
144.4
144.4
144.4
144.4
144.4
144.4
144.4
144.4
144.4
144.4
144.4
144.4
144.4
144.4
144.4
144.4
144.4
144.4
144.4
144.4
144.4
144.4
144.4
144.4
144.4
144.4
144.4
144.4
144.4
144.4
144.4
144.4
144.4
144.4
144.4
144.4
144.4
144.4
144.4
144.4
144.4
144.4
144.4
144.4
144.4
144.4
144.4
144.4
144.4
144.4
144.4
144.4
144.4
144.4
144.4
144.4
144.4
144.4
144.4
144.4
144.4
144.4
144.4
144.4
144.4
144.4
144.4
144.4
144.4
144.4
144.4
144.4
144.4
144.4
144.4
144.4
144.4
144.4
144.4
144.4
144.4
144.4
144.4
144.4
144.4
144.4
144.4
144.4
144.4
144.4
144.4
144.4
144.4
144.4
144.4
144.4
144.4
144.4
144.4
144.4
144.4
144.4
144.4
144.4
144.4
144.4
144.4
144.4
144.4
144.4
144.4
144.4
144.4
144.4
144.4
144.4
144.4
144.4
144.4
144.4
144.4
144.4
144.4
144.4
144.4
144.4
144.4
144.4
144.4
144.4
144.4
144.4
144.4
144.4
144.4
144.4
144.4
144.4
144.4
144.4
144.4
144.4
144.4
144.4
144.4
144.4
144.4
144.4
144.4
144.4
144.4
144.4
144.4
144.4
144.4
144.4
144.4
144.4
144.4
144.4
144.4
144.4
144.4
144.4
144.4
144.4
144.4
144.4
144.4
144.4
144.4
144.4
144.4
144.4
144.4
144.4
144.4
144.4
144.4
144.4
144.4
144.4
144.4
144.4
144.4
144.4
144.4
144.4
144.4
144.4
144.4
144.4
144.4
144.4
144.4
144.4
144.4
144.4
144.4
144.4
144.4
144.4
144.4
144.4
144.4
144.4
144.4
144.4
144.4
144.4
144.4
144.4
144.4
144.4
144.4
144.4
144.4
144.4
144.4
144.4
144.4
144.4
144.4
144.4
144.4
144.4
144.4
144.4
144.4
144.4
144.4
144.4
144.4
144.4
144.4
144.4
144.4
144.4
144.4
144.4
144.4
144.4
144.4
144.4
144.4
144.4
144.4
144.4
144.4
144.4
144.4
144.4
144.4
144.4
144.4
144.4
144.4
144.4
144.4
144.4
144.4
144.4
144.4
144.4
144.4
144.4
144.4
144.4
144.4
144.4
144.4
144.4
144.4
144.4
144.4
144.4
144.4
144.4
144.4
144.4
144.4
144.4
144.4
144.4
144.4
144.4
144.4
144.4
144.4
144.4
144.4
144.4
144.4
144.4
144.4
144.4
144.4
144.4
144.4
144.4
144.4
144.4
144.4
144.4
144.4
144.4
144.4
144.4
144.4
144.4
144.4
144.4
144.4
144.4
144.4
144.4
144.4
144.4
144.4
144.4
144.4
144.4
144.4
144.4
144.4
144.4
144.4
144.4
144.4
144.4
144.4
144.4
144.4
144.4
144.4
144.4
144.4
144.4
144.4
144.4
144.4
144.4
144.4
144.4
144.4
144.4
144.4
144.4
144.4
144.4
144.4
144.4
144.4
144.4
144.4
144.4
144.4
144.4
144.4
144.4
144.4
144.4
144.4
144.4
144.4
144.4
144.4
144.4
144.4
144.4
144.4
144.4
144.4
144.4
144.4
144.4
144.4
144.4
144.4
144.4
144.4
144.4
144.4
144.4
144.4
144.4
144.4
144.4
144.4
144.4
144.4
144.4
144.4
144.4
144.4
144.4
144.4
144.4
144.4
144.4
144.4
144.4
144.4
144.4
144.4
144.4
144.4
144.4
144.4
144.4
144.4
144.4
144.4
144.4
144.4
144.4
144.4
144.4
144.4
144.4
144.4
144.4
144.4
144.4
144.4
144.4
144.4
144.4
144.4
144.4
144.4
144.4
144.4
144.4
144.4
144.4
144.4
144.4
144.4
144.4
144.4
144.4
144.4
144.4
144.4
144.4
144.4
144.4
144.4
144.4
144.4
144.4
144.4
144.4
144.4
144.4
144.4
144.4
144.4
144.4
144.4
144.4
144.4
144.4
144.4
144.4
144.4
144.4
144.4
144.4
144.4
144.4
144.4
144.4
144.4
144.4
144.4
144.4
144.4
144.4
144.4
144.4
144.4
144.4
144.4
144.4
144.4
144.4
144.4
144.4
144.4
144.4
144.4
144.4
144.4
144.4
144.4
144.4
144.4
144.4
144.4
144.4
144.4
144.4
144.4
144.4
144.4
144.4
144.4
144.4
144.4
144.4
144.4
144.4
144.4
144.4
144.4
144.4
144.4
144.4
144.4
144.4
144.4
144.4
144.4
144.4
144.4
144.4
144.4
144.4
144.4
144.4
144.4
144.4
144.4
144.4
144.4
144.4
144.4
144.4
144.4
144.4
144.4
144.4
144.4
144.4
144.4
144.4
144.4
144.4
144.4
144.4
144.4
144.4
144.4
144.4
144.4
144.4
144.4
144.4
144.4
144.4
144.4
144.4
144.4
144.4
144.4
144.4
144.4
144.4
144.4
144.4
144.4
144.4
144.4
144.4
144.4
144.4
144.4
144.4
144.4
144.4
144.4
144.4
144.4
144.4
144.4
144.4
144.4
144.4
144.4
144.4
144.4
144.4
144.4
144.4
144.4
144.4
144.4
144.4
144.4
144.4
144.4
144.4
144.4
144.4
144.4
144.4
144.4
144.4
144.4
144.4
144.4
144.4
144.4
144.4
144.4
144.4
144.4
144.4
144.4
144.4
144.4
144.4
144.4
144.4
144.4
144.4
144.4
144.4
144.4
144.4
144.4
144.4
144.4
144.4
144.4
144.4
144.4
144.4
144.4
144.4
144.4
144.4
144.4
144.4
144.4
144.4
144.4
144.4
144.4
144.4
144.4
144.4
144.401
144.401
144.401
144.401
144.401
144.401
144.401
144.401
144.401
144.401
144.401
144.401
144.401
144.401
144.401
144.401
144.401
144.402
144.402
144.4
144.4
144.4
144.4
144.4
144.4
144.4
144.4
144.4
144.4
144.4
144.4
144.4
144.4
144.4
144.4
144.4
144.4
144.4
144.4
144.401
144.401
144.401
144.401
144.401
144.401
144.401
144.401
144.401
144.401
144.401
144.401
144.401
144.401
144.401
144.401
144.401
144.401
144.401
144.401
144.401
144.401
144.401
144.401
144.401
144.401
144.401
144.401
144.401
144.401
144.401
144.401
144.401
144.401
144.401
144.401
144.401
144.401
144.401
144.401
144.401
144.401
144.401
144.401
144.401
144.401
144.401
144.401
144.401
144.401
144.401
144.401
144.401
144.401
144.401
144.401
144.401
144.401
144.401
144.401
144.401
144.401
144.401
144.401
144.401
144.402
144.402
144.402
144.402
144.402
144.402
144.402
144.402
144.402
144.402
144.402
144.402
144.403
144.403
144.403
144.403
144.403
144.403
144.404
144.404
144.404
144.404
144.405
144.405
144.406
144.406
144.407
144.407
144.408
144.408
144.409
144.4
144.4
144.401
144.401
144.401
144.401
144.401
144.401
144.401
144.401
144.401
144.401
144.401
144.401
144.401
144.401
144.401
144.401
144.401
144.401
144.402
144.402
144.402
144.402
144.402
144.402
144.402
144.402
144.402
144.402
144.402
144.402
144.403
144.403
144.403
144.403
144.403
144.403
144.403
144.403
144.403
144.403
144.403
144.403
144.403
144.403
144.404
144.404
144.404
144.404
144.404
144.404
144.404
144.404
144.404
144.404
144.404
144.404
144.404
144.404
144.404
144.404
144.404
144.404
144.404
144.404
144.404
144.404
144.405
144.405
144.405
144.405
144.405
144.405
144.405
144.405
144.405
144.405
144.405
144.405
144.405
144.405
144.405
144.405
144.406
144.406
144.406
144.406
144.406
144.406
144.406
144.407
144.407
144.407
144.407
144.408
144.408
144.408
144.409
144.409
144.41
144.41
144.411
144.411
144.412
144.413
144.413
144.414
144.415
144.416
144.417
144.418
144.42
144.421
144.423
144.425
144.427
144.43
144.432
144.435
144.438
144.441
144.445
144.402
144.402
144.402
144.402
144.402
144.403
144.403
144.403
144.403
144.403
144.404
144.404
144.404
144.404
144.405
144.405
144.405
144.406
144.406
144.406
144.406
144.407
144.407
144.407
144.408
144.408
144.408
144.409
144.409
144.409
144.41
144.41
144.41
144.411
144.411
144.411
144.412
144.412
144.412
144.412
144.413
144.413
144.413
144.414
144.414
144.414
144.414
144.414
144.415
144.415
144.415
144.415
144.415
144.416
144.416
144.416
144.416
144.416
144.417
144.417
144.417
144.417
144.418
144.418
144.418
144.418
144.418
144.419
144.419
144.419
144.419
144.419
144.42
144.42
144.42
144.421
144.421
144.421
144.421
144.422
144.422
144.423
144.423
144.423
144.424
144.424
144.425
144.425
144.426
144.427
144.428
144.429
144.43
144.431
144.432
144.434
144.435
144.437
144.439
144.441
144.443
144.446
144.448
144.451
144.454
144.457
144.461
144.464
144.469
144.474
144.479
144.485
144.492
144.5
144.509
144.519
144.529
144.54
144.553
144.566
144.58
144.596
144.614
144.408
144.408
144.409
144.409
144.41
144.411
144.412
144.413
144.413
144.414
144.415
144.416
144.417
144.418
144.419
144.42
144.421
144.422
144.424
144.425
144.426
144.427
144.428
144.43
144.431
144.432
144.433
144.435
144.436
144.437
144.439
144.44
144.441
144.443
144.444
144.445
144.446
144.448
144.449
144.45
144.451
144.452
144.453
144.454
144.455
144.456
144.457
144.458
144.459
144.459
144.46
144.461
144.462
144.463
144.464
144.464
144.465
144.466
144.467
144.468
144.469
144.47
144.47
144.471
144.472
144.473
144.474
144.475
144.476
144.477
144.478
144.479
144.48
144.482
144.483
144.484
144.486
144.487
144.488
144.49
144.492
144.494
144.495
144.497
144.5
144.502
144.504
144.507
144.51
144.514
144.518
144.522
144.527
144.533
144.539
144.546
144.554
144.562
144.571
144.581
144.591
144.602
144.614
144.627
144.641
144.656
144.672
144.69
144.71
144.733
144.76
144.79
144.823
144.861
144.902
144.948
144.997
145.051
145.108
145.17
145.239
145.315
145.403
144.43
144.433
144.435
144.438
144.441
144.444
144.447
144.45
144.453
144.457
144.461
144.464
144.468
144.472
144.476
144.48
144.484
144.489
144.493
144.498
144.502
144.507
144.512
144.517
144.521
144.526
144.531
144.536
144.541
144.547
144.552
144.557
144.562
144.566
144.571
144.576
144.581
144.585
144.59
144.594
144.598
144.602
144.606
144.61
144.614
144.617
144.621
144.624
144.628
144.631
144.635
144.638
144.642
144.645
144.649
144.652
144.656
144.659
144.663
144.667
144.671
144.674
144.678
144.682
144.686
144.69
144.694
144.699
144.703
144.708
144.712
144.717
144.722
144.728
144.733
144.739
144.745
144.752
144.759
144.766
144.774
144.782
144.79
144.799
144.809
144.82
144.831
144.844
144.858
144.874
144.892
144.913
144.936
144.962
144.991
145.022
145.056
145.094
145.134
145.178
145.225
145.275
145.329
145.387
145.449
145.516
145.589
145.672
145.766
145.875
145.999
146.14
146.299
146.474
146.667
146.878
147.105
147.351
147.614
147.897
148.208
148.562
148.972
149.453
150.011
144.519
144.529
144.539
144.549
144.56
144.571
144.583
144.596
144.609
144.622
144.636
144.65
144.665
144.679
144.695
144.71
144.726
144.743
144.759
144.777
144.794
144.812
144.83
144.848
144.867
144.886
144.905
144.924
144.943
144.962
144.982
145
145.019
145.038
145.056
145.074
145.091
145.109
145.125
145.141
145.157
145.172
145.187
145.201
145.215
145.229
145.242
145.255
145.269
145.282
145.296
145.31
145.324
145.338
145.352
145.366
145.381
145.396
145.411
145.426
145.441
145.457
145.473
145.489
145.506
145.523
145.54
145.558
145.577
145.596
145.616
145.637
145.659
145.682
145.707
145.732
145.759
145.787
145.817
145.849
145.883
145.918
145.956
145.996
146.039
146.086
146.136
146.192
146.255
146.328
146.41
146.503
146.607
146.723
146.85
146.989
147.141
147.305
147.482
147.674
147.879
148.099
148.335
148.586
148.855
149.145
149.466
149.829
150.249
150.731
151.282
151.903
152.595
153.358
154.191
155.093
156.062
157.1
158.206
159.389
160.686
162.173
163.924
165.976
168.332
144.86
144.895
144.932
144.971
145.013
145.056
145.101
145.147
145.196
145.246
145.297
145.35
145.404
145.459
145.516
145.574
145.633
145.694
145.756
145.819
145.883
145.949
146.016
146.083
146.152
146.221
146.29
146.36
146.43
146.5
146.569
146.638
146.706
146.773
146.839
146.904
146.967
147.029
147.088
147.147
147.203
147.258
147.311
147.363
147.414
147.464
147.515
147.565
147.617
147.669
147.722
147.776
147.831
147.887
147.943
148.001
148.059
148.117
148.177
148.238
148.299
148.362
148.426
148.492
148.559
148.628
148.7
148.774
148.85
148.93
149.014
149.1
149.192
149.287
149.388
149.494
149.606
149.724
149.849
149.982
150.122
150.271
150.429
150.597
150.776
150.969
151.179
151.414
151.682
151.987
152.333
152.722
153.155
153.632
154.155
154.724
155.341
156.008
156.726
157.496
158.32
159.2
160.136
161.131
162.189
163.328
164.591
166.039
167.718
169.647
171.824
174.241
176.887
179.749
182.814
186.071
189.506
193.109
196.873
200.824
205.082
209.975
215.679
222.171
229.347
146.002
146.126
146.257
146.394
146.538
146.688
146.844
147.007
147.175
147.349
147.528
147.711
147.899
148.091
148.287
148.488
148.693
148.903
149.118
149.338
149.563
149.793
150.026
150.263
150.503
150.746
150.99
151.234
151.479
151.723
151.966
152.207
152.445
152.68
152.911
153.137
153.357
153.573
153.783
153.987
154.186
154.378
154.565
154.747
154.925
155.101
155.277
155.455
155.635
155.819
156.007
156.198
156.392
156.589
156.789
156.992
157.198
157.408
157.62
157.836
158.056
158.28
158.509
158.744
158.985
159.233
159.489
159.754
160.028
160.314
160.611
160.922
161.248
161.589
161.948
162.326
162.723
163.143
163.586
164.055
164.551
165.076
165.631
166.22
166.844
167.508
168.218
168.994
169.87
170.874
172.019
173.311
174.747
176.326
178.047
179.908
181.911
184.056
186.345
188.776
191.351
194.07
196.931
199.933
203.077
206.369
209.862
213.713
218.127
223.161
228.777
234.909
241.49
248.454
255.738
263.288
271.047
278.966
287.002
295.131
303.377
311.939
322.203
334.161
347.135
360.561
150.215
150.649
151.106
151.584
152.084
152.605
153.145
153.703
154.278
154.869
155.473
156.089
156.715
157.351
157.999
158.66
159.335
160.024
160.727
161.443
162.171
162.908
163.655
164.408
165.166
165.927
166.688
167.448
168.205
168.955
169.697
170.429
171.148
171.854
172.543
173.217
173.872
174.51
175.129
175.731
176.315
176.883
177.434
177.971
178.499
179.026
179.56
180.108
180.669
181.245
181.833
182.431
183.039
183.655
184.279
184.911
185.551
186.199
186.856
187.524
188.203
188.896
189.604
190.329
191.074
191.84
192.63
193.447
194.294
195.174
196.09
197.044
198.042
199.085
200.178
201.323
202.526
203.79
205.118
206.515
207.984
209.529
211.155
212.866
214.665
216.562
218.576
220.766
223.244
226.065
229.226
232.707
236.488
240.553
244.89
249.487
254.331
259.411
264.716
270.23
275.94
281.833
287.893
294.106
300.456
306.947
313.638
321.014
329.757
339.553
350.009
360.828
371.801
382.764
393.587
404.168
414.429
424.29
433.685
442.611
451.044
458.942
466.12
472.637
478.567
483.959
488.881
493.322
164.281
165.664
167.101
168.59
170.127
171.709
173.332
174.99
176.678
178.391
180.122
181.866
183.621
185.389
187.18
189
190.85
192.73
194.636
196.564
198.508
200.462
202.419
204.374
206.32
208.25
210.16
212.044
213.897
215.715
217.493
219.229
220.918
222.558
224.146
225.683
227.168
228.603
229.99
231.331
232.627
233.883
235.099
236.283
237.449
238.629
239.839
241.077
242.339
243.619
244.914
246.221
247.54
248.869
250.209
251.561
252.925
254.304
255.7
257.115
258.552
260.016
261.51
263.038
264.604
266.214
267.871
269.58
271.347
273.177
275.075
277.046
279.095
281.228
283.449
285.764
288.177
290.693
293.317
296.053
298.906
301.877
304.972
308.194
311.545
315.031
318.679
322.584
327.194
332.486
338.292
344.489
350.994
357.743
364.692
371.802
379.029
386.335
393.683
401.031
408.336
415.566
422.682
429.647
436.441
443.039
449.402
455.477
461.153
466.464
471.453
476.15
480.551
484.643
488.442
491.964
495.188
498.092
500.722
503.121
505.235
507.055
508.686
510.155
511.487
512.77
513.962
515.068
204.049
207.571
211.176
214.85
218.579
222.347
226.14
229.94
233.734
237.505
241.241
244.928
248.569
252.195
255.83
259.475
263.118
266.747
270.349
273.916
277.44
280.912
284.325
287.672
290.948
294.145
297.257
300.279
303.208
306.037
308.763
311.386
313.904
316.316
318.623
320.832
322.947
324.976
326.925
328.799
330.605
332.349
334.035
335.673
337.285
339.006
340.834
342.727
344.654
346.597
348.544
350.488
352.427
354.36
356.29
358.219
360.151
362.089
364.039
366.003
367.988
369.998
372.037
374.111
376.224
378.382
380.588
382.849
385.166
387.546
389.992
392.506
395.092
397.752
400.489
403.302
406.193
409.161
412.206
415.325
418.516
421.775
425.098
428.479
431.913
435.4
438.924
442.474
445.98
449.434
452.845
456.229
459.565
462.843
466.083
469.254
472.326
475.332
478.247
481.031
483.713
486.283
488.707
491.003
493.168
495.193
497.092
498.836
500.448
501.993
503.473
504.884
506.234
507.535
508.772
509.916
510.98
512.012
512.992
513.838
514.594
515.349
516.028
516.569
517.085
517.558
518.007
518.512
288.483
294.632
300.727
306.749
312.677
318.496
324.191
329.747
335.15
340.387
345.448
350.32
355.017
359.705
364.445
369.189
373.889
378.506
383.009
387.377
391.593
395.64
399.505
403.189
406.692
410.01
413.142
416.096
418.881
421.484
423.917
426.189
428.305
430.269
432.092
433.786
435.366
436.842
438.223
439.517
440.732
441.874
442.948
443.962
444.92
445.802
446.617
447.38
448.1
448.784
449.44
450.073
450.688
451.291
451.885
452.474
453.064
453.659
454.262
454.876
455.506
456.154
456.823
457.516
458.235
458.982
459.758
460.566
461.406
462.28
463.189
464.132
465.11
466.124
467.172
468.254
469.367
470.512
471.686
472.886
474.109
475.354
476.616
477.891
479.18
480.476
481.773
483.072
484.364
485.656
486.976
488.299
489.607
490.95
492.281
493.548
494.851
496.153
497.353
498.569
499.795
500.915
502.012
503.104
504.106
505.072
505.996
506.855
507.678
508.418
509.128
509.85
510.549
511.259
511.95
512.614
513.279
513.968
514.61
515.209
515.814
516.423
516.929
517.416
517.902
518.313
518.681
519.102
519.512
414.85
421.649
428.134
434.279
440.07
445.501
450.569
455.274
459.619
463.61
467.242
470.537
473.482
476.092
478.408
480.467
482.293
483.899
485.302
486.524
487.574
488.453
489.177
489.763
490.222
490.55
490.763
490.891
490.878
490.801
490.652
490.438
490.176
489.885
489.581
489.271
488.959
488.644
488.327
488.007
487.686
487.363
487.039
486.715
486.391
486.07
485.757
485.455
485.165
484.889
484.629
484.385
484.158
483.95
483.763
483.597
483.455
483.338
483.249
483.188
483.158
483.162
483.197
483.265
483.369
483.508
483.685
483.897
484.146
484.431
484.752
485.11
485.503
485.931
486.393
486.888
487.415
487.972
488.557
489.169
489.805
490.463
491.141
491.837
492.546
493.272
494.006
494.737
495.484
496.24
496.987
497.779
498.598
499.368
500.185
501.057
501.825
502.617
503.504
504.275
505.028
505.871
506.629
507.344
508.105
508.804
509.473
510.132
510.73
511.335
511.874
512.385
512.939
513.461
513.94
514.47
515.033
515.567
516.074
516.546
517.092
517.612
518.096
518.554
518.985
519.366
519.747
520.14
514.663
517.027
519.051
520.76
522.179
523.333
524.243
524.921
525.369
525.611
525.581
525.452
525.221
524.919
524.569
524.185
523.766
523.31
522.817
522.288
521.729
521.132
520.512
519.857
519.178
518.467
517.711
516.932
516.118
515.251
514.34
513.404
512.451
511.488
510.525
509.572
508.634
507.714
506.815
505.939
505.087
504.261
503.462
502.689
501.942
501.223
500.532
499.872
499.244
498.649
498.088
497.561
497.068
496.608
496.182
495.79
495.432
495.109
494.82
494.567
494.349
494.168
494.023
493.915
493.843
493.807
493.815
493.852
493.926
494.035
494.179
494.357
494.568
494.81
495.084
495.386
495.717
496.075
496.458
496.865
497.293
497.742
498.209
498.691
499.187
499.699
500.216
500.741
501.278
501.807
502.341
502.909
503.466
504.017
504.635
505.233
505.784
506.421
507.06
507.609
508.23
508.889
509.444
510.044
510.676
511.222
511.802
512.374
512.881
513.418
513.907
514.334
514.801
515.246
515.649
516.046
516.533
517.005
517.459
517.867
518.29
518.781
519.256
519.709
520.136
520.53
520.899
521.275
554.949
554.531
554.051
553.508
552.889
552.211
551.483
550.661
549.722
548.636
547.441
546.195
544.945
543.685
542.412
541.148
539.923
538.717
537.451
536.252
535.13
534.001
532.832
531.728
530.694
529.629
528.564
527.573
526.59
525.599
524.619
523.638
522.631
521.602
520.566
519.53
518.501
517.487
516.494
515.526
514.584
513.672
512.789
511.938
511.119
510.33
509.574
508.851
508.163
507.51
506.893
506.313
505.769
505.261
504.791
504.356
503.958
503.596
503.27
502.981
502.727
502.511
502.33
502.184
502.074
502.001
501.959
501.961
501.987
502.045
502.134
502.253
502.401
502.576
502.777
503.003
503.252
503.523
503.814
504.124
504.451
504.794
505.149
505.518
505.898
506.284
506.681
507.085
507.476
507.875
508.297
508.688
509.09
509.554
509.965
510.36
510.855
511.306
511.696
512.188
512.683
513.086
513.568
514.072
514.492
514.969
515.448
515.865
516.32
516.754
517.119
517.516
517.895
518.232
518.54
518.942
519.348
519.74
520.087
520.416
520.819
521.256
521.685
522.087
522.464
522.816
523.167
570.58
569.297
567.956
566.6
565.315
564.07
562.837
561.646
560.517
559.376
558.139
556.827
555.445
554.002
552.551
551.139
549.723
548.242
546.835
545.519
544.184
542.825
541.556
540.364
539.126
537.923
536.804
535.726
534.651
533.605
532.592
531.575
530.544
529.507
528.469
527.431
526.398
525.377
524.377
523.4
522.451
521.533
520.649
519.798
518.983
518.202
517.458
516.75
516.078
515.444
514.848
514.289
513.768
513.284
512.837
512.426
512.052
511.712
511.408
511.138
510.903
510.701
510.532
510.396
510.292
510.218
510.173
510.168
510.183
510.223
510.288
510.379
510.492
510.627
510.782
510.956
511.146
511.353
511.573
511.807
512.052
512.307
512.572
512.843
513.118
513.404
513.692
513.968
514.258
514.55
514.81
515.096
515.418
515.674
515.947
516.309
516.585
516.844
517.215
517.542
517.811
518.174
518.538
518.834
519.195
519.569
519.883
520.232
520.593
520.894
521.21
521.521
521.799
522.035
522.355
522.688
523.012
523.309
523.563
523.862
524.247
524.634
524.997
525.339
525.661
525.978
526.31
526.65
582.021
580.466
578.85
577.2
575.638
574.103
572.561
571.072
569.683
568.331
566.944
565.592
564.176
562.626
561.141
559.703
558.172
556.592
555.124
553.724
552.258
550.804
549.464
548.178
546.838
545.572
544.388
543.225
542.087
541.012
539.992
539.01
538.04
537.08
536.131
535.186
534.244
533.31
532.389
531.485
530.602
529.744
528.915
528.117
527.351
526.617
525.917
525.25
524.617
524.019
523.456
522.927
522.434
521.974
521.55
521.158
520.8
520.475
520.181
519.919
519.687
519.484
519.312
519.167
519.05
518.96
518.895
518.856
518.844
518.853
518.879
518.925
518.989
519.07
519.166
519.277
519.399
519.533
519.677
519.83
519.989
520.156
520.328
520.504
520.682
520.869
521.051
521.228
521.42
521.597
521.753
521.944
522.131
522.269
522.451
522.677
522.813
522.974
523.23
523.403
523.562
523.82
524.048
524.231
524.484
524.758
524.969
525.21
525.499
525.73
525.959
526.206
526.427
526.606
526.861
527.114
527.363
527.613
527.814
528.03
528.348
528.684
529.001
529.296
529.586
529.862
530.15
530.464
590.324
588.658
586.897
585.116
583.439
581.768
580.081
578.455
576.949
575.495
574.063
572.766
571.414
570.015
568.684
567.356
565.882
564.476
563.13
561.747
560.294
558.943
557.654
556.332
555.017
553.776
552.595
551.407
550.267
549.179
548.153
547.178
546.238
545.329
544.448
543.585
542.734
541.893
541.063
540.246
539.444
538.66
537.901
537.167
536.461
535.785
535.138
534.523
533.94
533.388
532.868
532.38
531.923
531.497
531.102
530.738
530.402
530.096
529.817
529.565
529.34
529.139
528.963
528.811
528.681
528.573
528.486
528.418
528.371
528.342
528.328
528.332
528.345
528.371
528.409
528.457
528.514
528.578
528.649
528.726
528.807
528.892
528.981
529.07
529.163
529.26
529.35
529.443
529.545
529.625
529.701
529.805
529.879
529.934
530.04
530.135
530.176
530.264
530.401
530.454
530.529
530.69
530.792
530.88
531.041
531.211
531.323
531.473
531.68
531.831
531.976
532.163
532.317
532.447
532.639
532.812
532.984
533.179
533.336
533.49
533.73
534.011
534.277
534.514
534.76
535.004
535.241
535.504
596.267
594.57
592.926
591.34
589.689
588.022
586.439
584.899
583.345
581.885
580.555
579.175
577.853
576.612
575.306
573.982
572.697
571.467
570.117
568.787
567.502
566.294
565.006
563.756
562.545
561.392
560.257
559.146
558.076
557.06
556.093
555.171
554.291
553.452
552.647
551.868
551.109
550.368
549.64
548.926
548.227
547.547
546.888
546.251
545.64
545.055
544.497
543.968
543.467
542.995
542.552
542.137
541.75
541.39
541.056
540.748
540.464
540.204
539.966
539.75
539.554
539.377
539.219
539.079
538.955
538.847
538.754
538.676
538.611
538.558
538.517
538.485
538.461
538.445
538.436
538.435
538.437
538.443
538.453
538.465
538.48
538.497
538.513
538.532
538.551
538.566
538.587
538.609
538.613
538.623
538.645
538.633
538.629
538.657
538.648
538.625
538.655
538.671
538.644
538.661
538.725
538.719
538.733
538.816
538.881
538.911
538.988
539.11
539.176
539.252
539.378
539.464
539.543
539.669
539.777
539.874
540.011
540.138
540.238
540.405
540.63
540.84
541.026
541.213
541.426
541.626
541.829
604.027
602.416
600.931
599.414
597.8
596.25
594.763
593.224
591.671
590.253
588.869
587.466
586.169
584.936
583.658
582.433
581.241
580.07
578.818
577.588
576.403
575.254
574.084
572.911
571.767
570.667
569.592
568.539
567.519
566.54
565.603
564.708
563.859
563.055
562.294
561.569
560.876
560.21
559.565
558.936
558.324
557.728
557.149
556.59
556.05
555.531
555.035
554.563
554.117
553.695
553.299
552.927