/*--------------------------------*- C++ -*----------------------------------*\
| =========                 |                                                 |
| \\      /  F ield         | OpenFOAM: The Open Source CFD Toolbox           |
|  \\    /   O peration     | Version:  v1706                                 |
|   \\  /    A nd           | Web:      www.OpenFOAM.com                      |
|    \\/     M anipulation  |                                                 |
\*---------------------------------------------------------------------------*/
FoamFile
{
    version     2.0;
    format      ascii;
    class       volScalarField;
    location    "4e-05";
    object      Tv;
}
// * * * * * * * * * * * * * * * * * * * * * * * * * * * * * * * * * * * * * //

dimensions      [0 0 0 1 0 0 0];


internalField   nonuniform List<scalar> 
29871
(
144.4
144.4
144.4
144.4
144.4
144.4
144.4
144.4
144.4
144.4
144.4
144.4
144.4
144.4
144.4
144.4
144.4
144.4
144.4
144.4
144.4
144.4
144.4
144.4
144.4
144.4
144.4
144.4
144.4
144.4
144.4
144.4
144.4
144.4
144.4
144.4
144.4
144.4
144.4
144.4
144.4
144.4
144.4
144.4
144.4
144.4
144.4
144.4
144.4
144.4
144.4
144.4
144.4
144.4
144.4
144.4
144.4
144.4
144.4
144.4
144.4
144.4
144.4
144.4
144.4
144.4
144.4
144.4
144.4
144.4
144.4
144.4
144.4
144.4
144.4
144.4
144.4
144.4
144.4
144.4
144.4
144.4
144.4
144.4
144.4
144.4
144.4
144.4
144.4
144.4
144.4
144.4
144.4
144.4
144.4
144.4
144.4
144.4
144.4
144.4
144.4
144.4
144.4
144.4
144.4
144.4
144.4
144.4
144.4
144.4
144.4
144.4
144.4
144.4
144.4
144.4
144.4
144.4
144.4
144.4
144.4
144.4
144.4
144.4
144.4
144.4
144.4
144.4
144.4
144.4
144.4
144.4
144.4
144.4
144.4
144.4
144.4
144.4
144.4
144.4
144.4
144.4
144.4
144.4
144.4
144.4
144.4
144.4
144.4
144.4
144.4
144.4
144.4
144.4
144.4
144.4
144.4
144.4
144.4
144.4
144.4
144.4
144.4
144.4
144.4
144.4
144.4
144.4
144.4
144.4
144.4
144.4
144.4
144.4
144.4
144.4
144.4
144.4
144.4
144.4
144.4
144.4
144.4
144.4
144.4
144.4
144.4
144.4
144.4
144.4
144.4
144.4
144.4
144.4
144.4
144.4
144.4
144.4
144.4
144.4
144.4
144.4
144.4
144.4
144.4
144.4
144.4
144.4
144.4
144.4
144.4
144.4
144.4
144.4
144.4
144.4
144.4
144.4
144.4
144.4
144.4
144.4
144.4
144.4
144.4
144.4
144.4
144.4
144.4
144.4
144.4
144.4
144.4
144.4
144.4
144.4
144.4
144.4
144.4
144.4
144.4
144.4
144.4
144.4
144.4
144.4
144.4
144.4
144.4
144.4
144.4
144.4
144.4
144.4
144.4
144.4
144.4
144.4
144.4
144.4
144.4
144.4
144.4
144.4
144.4
144.4
144.4
144.4
144.4
144.4
144.4
144.4
144.4
144.4
144.4
144.4
144.4
144.4
144.4
144.4
144.4
144.4
144.4
144.4
144.4
144.4
144.4
144.4
144.4
144.4
144.4
144.4
144.4
144.4
144.4
144.4
144.4
144.4
144.4
144.4
144.4
144.4
144.4
144.4
144.4
144.4
144.4
144.4
144.4
144.4
144.4
144.4
144.4
144.4
144.4
144.4
144.4
144.4
144.4
144.4
144.4
144.4
144.4
144.4
144.4
144.4
144.4
144.4
144.4
144.4
144.4
144.4
144.4
144.4
144.4
144.4
144.4
144.4
144.4
144.4
144.4
144.4
144.4
144.4
144.4
144.4
144.4
144.4
144.4
144.4
144.4
144.4
144.4
144.4
144.4
144.4
144.4
144.4
144.4
144.4
144.4
144.4
144.4
144.4
144.4
144.4
144.4
144.4
144.4
144.4
144.4
144.4
144.4
144.4
144.4
144.4
144.4
144.4
144.4
144.4
144.4
144.4
144.4
144.4
144.4
144.4
144.4
144.4
144.4
144.4
144.4
144.4
144.4
144.4
144.4
144.4
144.4
144.4
144.4
144.4
144.4
144.4
144.4
144.4
144.4
144.4
144.4
144.4
144.4
144.4
144.4
144.4
144.4
144.4
144.4
144.4
144.4
144.4
144.4
144.4
144.4
144.4
144.4
144.4
144.4
144.4
144.4
144.4
144.4
144.4
144.4
144.4
144.4
144.4
144.4
144.4
144.4
144.4
144.4
144.4
144.4
144.4
144.4
144.4
144.4
144.4
144.4
144.4
144.4
144.4
144.4
144.4
144.4
144.4
144.4
144.4
144.4
144.4
144.4
144.4
144.4
144.4
144.4
144.4
144.4
144.4
144.4
144.4
144.4
144.4
144.4
144.4
144.4
144.4
144.4
144.4
144.4
144.4
144.4
144.4
144.4
144.4
144.4
144.4
144.4
144.4
144.4
144.4
144.4
144.4
144.4
144.4
144.4
144.4
144.4
144.4
144.4
144.4
144.4
144.4
144.4
144.4
144.4
144.4
144.4
144.4
144.4
144.4
144.4
144.4
144.4
144.4
144.4
144.4
144.4
144.4
144.4
144.4
144.4
144.4
144.4
144.4
144.4
144.4
144.4
144.4
144.4
144.4
144.4
144.4
144.4
144.4
144.4
144.4
144.4
144.4
144.4
144.4
144.4
144.4
144.4
144.4
144.4
144.4
144.4
144.4
144.4
144.4
144.4
144.4
144.4
144.4
144.4
144.4
144.4
144.4
144.4
144.4
144.4
144.4
144.4
144.4
144.4
144.4
144.4
144.4
144.4
144.4
144.4
144.4
144.4
144.4
144.4
144.4
144.4
144.4
144.4
144.4
144.4
144.4
144.4
144.4
144.4
144.4
144.4
144.4
144.4
144.4
144.4
144.4
144.4
144.4
144.4
144.4
144.4
144.4
144.4
144.4
144.4
144.4
144.4
144.4
144.4
144.4
144.4
144.4
144.4
144.4
144.4
144.4
144.4
144.4
144.4
144.4
144.4
144.4
144.4
144.4
144.4
144.4
144.4
144.4
144.4
144.4
144.4
144.4
144.4
144.4
144.4
144.4
144.4
144.4
144.4
144.4
144.4
144.4
144.4
144.4
144.4
144.4
144.4
144.4
144.4
144.4
144.4
144.4
144.4
144.4
144.4
144.4
144.4
144.4
144.4
144.4
144.4
144.4
144.4
144.4
144.4
144.4
144.4
144.4
144.4
144.4
144.4
144.4
144.4
144.4
144.4
144.4
144.4
144.4
144.4
144.4
144.4
144.4
144.4
144.4
144.4
144.4
144.4
144.4
144.4
144.4
144.4
144.4
144.4
144.4
144.4
144.4
144.4
144.4
144.4
144.4
144.4
144.4
144.4
144.4
144.4
144.4
144.4
144.4
144.4
144.4
144.4
144.4
144.4
144.4
144.4
144.4
144.4
144.4
144.4
144.4
144.4
144.4
144.4
144.4
144.4
144.4
144.4
144.4
144.4
144.4
144.4
144.4
144.4
144.4
144.4
144.4
144.4
144.4
144.4
144.4
144.4
144.4
144.4
144.4
144.4
144.4
144.4
144.4
144.4
144.4
144.4
144.4
144.4
144.4
144.4
144.4
144.4
144.4
144.4
144.4
144.4
144.4
144.4
144.4
144.4
144.4
144.4
144.4
144.4
144.4
144.4
144.4
144.4
144.4
144.4
144.4
144.4
144.4
144.4
144.4
144.4
144.4
144.4
144.4
144.4
144.4
144.4
144.4
144.4
144.4
144.4
144.4
144.4
144.4
144.4
144.4
144.4
144.4
144.4
144.4
144.4
144.4
144.4
144.4
144.4
144.4
144.4
144.4
144.4
144.4
144.4
144.4
144.4
144.4
144.4
144.4
144.4
144.4
144.4
144.4
144.4
144.4
144.4
144.4
144.4
144.4
144.4
144.4
144.4
144.4
144.4
144.4
144.4
144.4
144.4
144.4
144.4
144.4
144.4
144.4
144.4
144.4
144.4
144.4
144.4
144.4
144.4
144.4
144.4
144.4
144.4
144.4
144.4
144.4
144.4
144.4
144.4
144.4
144.4
144.4
144.4
144.4
144.4
144.4
144.4
144.4
144.4
144.4
144.4
144.4
144.4
144.4
144.4
144.4
144.4
144.4
144.4
144.4
144.4
144.4
144.4
144.4
144.4
144.4
144.4
144.4
144.4
144.4
144.4
144.4
144.4
144.4
144.4
144.4
144.4
144.4
144.4
144.4
144.4
144.4
144.4
144.4
144.4
144.4
144.4
144.4
144.4
144.4
144.4
144.4
144.4
144.4
144.4
144.4
144.4
144.4
144.4
144.4
144.4
144.4
144.4
144.4
144.4
144.4
144.4
144.4
144.4
144.4
144.4
144.4
144.4
144.4
144.4
144.4
144.4
144.4
144.4
144.4
144.4
144.4
144.4
144.4
144.4
144.4
144.4
144.4
144.4
144.4
144.4
144.4
144.4
144.4
144.4
144.4
144.4
144.4
144.4
144.4
144.4
144.4
144.4
144.4
144.4
144.4
144.4
144.4
144.4
144.4
144.4
144.4
144.4
144.4
144.4
144.4
144.4
144.4
144.4
144.4
144.4
144.4
144.4
144.4
144.4
144.4
144.4
144.4
144.4
144.4
144.4
144.4
144.4
144.4
144.4
144.4
144.4
144.4
144.4
144.4
144.4
144.4
144.4
144.4
144.4
144.4
144.4
144.4
144.4
144.4
144.4
144.4
144.4
144.4
144.4
144.4
144.4
144.4
144.4
144.4
144.4
144.4
144.4
144.4
144.4
144.4
144.4
144.4
144.4
144.4
144.4
144.4
144.4
144.4
144.4
144.4
144.4
144.4
144.4
144.4
144.4
144.4
144.4
144.4
144.4
144.4
144.4
144.4
144.4
144.4
144.4
144.4
144.4
144.4
144.4
144.4
144.4
144.4
144.4
144.4
144.4
144.4
144.4
144.4
144.4
144.4
144.4
144.4
144.4
144.4
144.4
144.4
144.4
144.4
144.4
144.4
144.4
144.4
144.4
144.4
144.4
144.4
144.4
144.4
144.4
144.4
144.4
144.4
144.4
144.4
144.4
144.4
144.4
144.4
144.4
144.4
144.4
144.4
144.4
144.4
144.4
144.4
144.4
144.4
144.4
144.4
144.4
144.4
144.4
144.4
144.4
144.4
144.4
144.4
144.4
144.4
144.4
144.4
144.4
144.4
144.4
144.4
144.4
144.4
144.4
144.4
144.4
144.4
144.4
144.4
144.4
144.4
144.4
144.4
144.4
144.4
144.4
144.4
144.4
144.4
144.4
144.4
144.4
144.4
144.4
144.4
144.4
144.4
144.4
144.4
144.4
144.4
144.4
144.4
144.4
144.4
144.4
144.4
144.4
144.4
144.4
144.4
144.4
144.4
144.4
144.4
144.4
144.4
144.4
144.4
144.4
144.4
144.4
144.4
144.4
144.4
144.4
144.4
144.4
144.4
144.4
144.4
144.4
144.4
144.4
144.4
144.4
144.4
144.4
144.4
144.4
144.4
144.4
144.4
144.4
144.4
144.4
144.4
144.4
144.4
144.4
144.4
144.4
144.4
144.4
144.4
144.4
144.4
144.4
144.4
144.4
144.4
144.4
144.4
144.4
144.4
144.4
144.4
144.4
144.4
144.4
144.4
144.4
144.4
144.4
144.4
144.4
144.4
144.4
144.4
144.4
144.4
144.4
144.4
144.4
144.4
144.4
144.4
144.4
144.4
144.4
144.4
144.4
144.4
144.4
144.4
144.4
144.4
144.4
144.4
144.4
144.4
144.4
144.4
144.4
144.4
144.4
144.4
144.4
144.4
144.4
144.4
144.4
144.4
144.4
144.4
144.4
144.4
144.4
144.4
144.4
144.4
144.4
144.4
144.4
144.4
144.4
144.4
144.4
144.4
144.4
144.4
144.4
144.4
144.4
144.4
144.4
144.4
144.4
144.4
144.4
144.4
144.4
144.4
144.4
144.4
144.4
144.4
144.4
144.4
144.4
144.4
144.4
144.4
144.4
144.4
144.4
144.4
144.4
144.4
144.4
144.4
144.4
144.4
144.4
144.4
144.4
144.4
144.4
144.4
144.4
144.4
144.4
144.4
144.4
144.4
144.4
144.4
144.4
144.4
144.4
144.4
144.4
144.4
144.4
144.4
144.4
144.4
144.4
144.4
144.4
144.4
144.4
144.4
144.4
144.4
144.4
144.4
144.4
144.4
144.4
144.4
144.4
144.4
144.4
144.4
144.4
144.4
144.4
144.4
144.4
144.4
144.4
144.4
144.4
144.4
144.4
144.4
144.4
144.4
144.4
144.4
144.4
144.4
144.4
144.4
144.4
144.4
144.4
144.4
144.4
144.4
144.4
144.4
144.4
144.4
144.4
144.4
144.4
144.4
144.4
144.4
144.4
144.4
144.4
144.4
144.4
144.4
144.4
144.4
144.4
144.4
144.4
144.4
144.4
144.4
144.4
144.4
144.4
144.4
144.4
144.4
144.4
144.4
144.4
144.4
144.4
144.4
144.4
144.4
144.4
144.4
144.4
144.4
144.4
144.4
144.4
144.4
144.4
144.4
144.4
144.4
144.4
144.4
144.4
144.4
144.4
144.4
144.4
144.4
144.4
144.4
144.4
144.4
144.4
144.4
144.4
144.4
144.4
144.4
144.4
144.4
144.4
144.4
144.4
144.4
144.4
144.4
144.4
144.4
144.4
144.4
144.4
144.4
144.4
144.4
144.4
144.4
144.4
144.4
144.4
144.4
144.4
144.4
144.4
144.4
144.4
144.4
144.4
144.4
144.4
144.4
144.4
144.4
144.4
144.4
144.4
144.4
144.4
144.4
144.4
144.4
144.4
144.4
144.4
144.4
144.4
144.4
144.4
144.4
144.4
144.4
144.4
144.4
144.4
144.4
144.4
144.4
144.4
144.4
144.4
144.4
144.4
144.4
144.4
144.4
144.4
144.4
144.4
144.4
144.4
144.4
144.4
144.4
144.4
144.4
144.4
144.4
144.4
144.4
144.4
144.4
144.4
144.4
144.4
144.4
144.4
144.4
144.4
144.4
144.4
144.4
144.4
144.4
144.4
144.4
144.4
144.4
144.4
144.4
144.4
144.4
144.4
144.4
144.4
144.4
144.4
144.4
144.4
144.4
144.4
144.4
144.4
144.4
144.4
144.4
144.4
144.4
144.4
144.4
144.4
144.4
144.4
144.4
144.4
144.4
144.4
144.4
144.4
144.4
144.4
144.4
144.4
144.4
144.4
144.4
144.4
144.4
144.4
144.4
144.4
144.4
144.4
144.4
144.4
144.4
144.4
144.4
144.4
144.4
144.4
144.4
144.4
144.4
144.4
144.4
144.4
144.4
144.4
144.4
144.4
144.4
144.4
144.4
144.4
144.4
144.4
144.4
144.4
144.4
144.4
144.4
144.4
144.4
144.4
144.4
144.4
144.4
144.4
144.4
144.4
144.4
144.4
144.4
144.4
144.4
144.4
144.4
144.4
144.4
144.4
144.4
144.4
144.4
144.4
144.4
144.4
144.4
144.4
144.4
144.4
144.4
144.4
144.4
144.4
144.4
144.4
144.4
144.4
144.4
144.4
144.4
144.4
144.4
144.4
144.4
144.4
144.4
144.4
144.4
144.4
144.4
144.4
144.4
144.4
144.4
144.4
144.4
144.4
144.4
144.4
144.4
144.4
144.4
144.4
144.4
144.4
144.4
144.4
144.4
144.4
144.4
144.4
144.4
144.4
144.4
144.4
144.4
144.4
144.4
144.4
144.4
144.4
144.4
144.4
144.4
144.4
144.4
144.4
144.4
144.4
144.4
144.4
144.4
144.4
144.4
144.4
144.4
144.4
144.4
144.4
144.4
144.4
144.4
144.4
144.4
144.4
144.4
144.4
144.4
144.4
144.4
144.4
144.4
144.4
144.4
144.4
144.4
144.4
144.4
144.4
144.4
144.4
144.4
144.4
144.4
144.4
144.4
144.4
144.4
144.4
144.4
144.4
144.4
144.4
144.4
144.4
144.4
144.4
144.4
144.4
144.4
144.4
144.4
144.4
144.4
144.4
144.4
144.4
144.4
144.4
144.4
144.4
144.4
144.4
144.4
144.4
144.4
144.4
144.4
144.4
144.4
144.4
144.4
144.4
144.4
144.4
144.4
144.4
144.4
144.4
144.4
144.4
144.4
144.4
144.4
144.4
144.4
144.4
144.4
144.4
144.4
144.4
144.4
144.4
144.4
144.4
144.4
144.4
144.4
144.4
144.4
144.4
144.4
144.4
144.4
144.4
144.4
144.4
144.4
144.4
144.4
144.4
144.4
144.4
144.4
144.4
144.4
144.4
144.4
144.4
144.4
144.4
144.4
144.4
144.4
144.4
144.4
144.4
144.4
144.4
144.4
144.4
144.4
144.4
144.4
144.4
144.4
144.4
144.4
144.4
144.4
144.4
144.4
144.4
144.4
144.4
144.4
144.4
144.4
144.4
144.4
144.4
144.4
144.4
144.4
144.4
144.4
144.4
144.4
144.4
144.4
144.4
144.4
144.4
144.4
144.4
144.4
144.4
144.4
144.4
144.4
144.4
144.4
144.4
144.4
144.4
144.4
144.4
144.4
144.4
144.4
144.4
144.4
144.4
144.4
144.4
144.4
144.4
144.4
144.4
144.4
144.4
144.4
144.4
144.4
144.4
144.4
144.4
144.4
144.4
144.4
144.4
144.4
144.4
144.4
144.4
144.4
144.4
144.4
144.4
144.4
144.4
144.4
144.4
144.4
144.4
144.4
144.4
144.4
144.4
144.4
144.4
144.4
144.4
144.4
144.4
144.4
144.4
144.4
144.4
144.4
144.4
144.4
144.4
144.4
144.4
144.4
144.4
144.4
144.4
144.4
144.4
144.4
144.4
144.4
144.4
144.4
144.4
144.4
144.4
144.4
144.4
144.4
144.4
144.4
144.4
144.4
144.4
144.4
144.4
144.4
144.4
144.4
144.4
144.4
144.4
144.4
144.4
144.4
144.4
144.4
144.4
144.4
144.4
144.4
144.4
144.4
144.4
144.4
144.4
144.4
144.4
144.4
144.4
144.4
144.4
144.4
144.4
144.4
144.4
144.4
144.4
144.4
144.4
144.4
144.4
144.4
144.4
144.4
144.4
144.4
144.4
144.4
144.4
144.4
144.4
144.4
144.4
144.4
144.4
144.4
144.4
144.4
144.4
144.4
144.4
144.4
144.4
144.4
144.4
144.4
144.4
144.4
144.4
144.4
144.4
144.4
144.4
144.4
144.4
144.4
144.4
144.4
144.4
144.4
144.4
144.4
144.4
144.4
144.4
144.4
144.4
144.4
144.4
144.4
144.4
144.4
144.4
144.4
144.4
144.4
144.4
144.4
144.4
144.4
144.4
144.4
144.4
144.4
144.4
144.4
144.4
144.4
144.4
144.4
144.4
144.4
144.4
144.4
144.4
144.4
144.4
144.4
144.4
144.4
144.4
144.4
144.4
144.4
144.4
144.4
144.4
144.4
144.4
144.4
144.4
144.4
144.4
144.4
144.4
144.4
144.4
144.4
144.4
144.4
144.4
144.4
144.4
144.4
144.4
144.4
144.4
144.4
144.4
144.4
144.4
144.4
144.4
144.4
144.4
144.4
144.4
144.4
144.4
144.4
144.4
144.4
144.4
144.4
144.4
144.4
144.4
144.4
144.4
144.4
144.4
144.4
144.4
144.4
144.4
144.4
144.4
144.4
144.4
144.4
144.4
144.4
144.4
144.4
144.4
144.4
144.4
144.4
144.4
144.4
144.4
144.4
144.4
144.4
144.4
144.4
144.4
144.4
144.4
144.4
144.4
144.4
144.4
144.4
144.4
144.4
144.4
144.4
144.4
144.4
144.4
144.4
144.4
144.4
144.4
144.4
144.4
144.4
144.4
144.4
144.4
144.4
144.4
144.4
144.4
144.4
144.4
144.4
144.4
144.4
144.4
144.4
144.4
144.4
144.4
144.4
144.4
144.4
144.4
144.4
144.4
144.4
144.4
144.4
144.4
144.4
144.4
144.4
144.4
144.4
144.4
144.4
144.4
144.4
144.4
144.4
144.4
144.4
144.4
144.4
144.4
144.4
144.4
144.4
144.4
144.4
144.4
144.4
144.4
144.4
144.4
144.4
144.4
144.4
144.4
144.4
144.4
144.4
144.4
144.4
144.4
144.4
144.4
144.4
144.4
144.4
144.4
144.4
144.4
144.4
144.4
144.4
144.4
144.4
144.4
144.4
144.4
144.4
144.4
144.4
144.4
144.4
144.4
144.4
144.4
144.4
144.4
144.4
144.4
144.4
144.4
144.4
144.4
144.4
144.4
144.4
144.4
144.4
144.4
144.4
144.4
144.4
144.4
144.4
144.4
144.4
144.4
144.4
144.4
144.4
144.4
144.4
144.4
144.4
144.4
144.4
144.4
144.4
144.4
144.4
144.4
144.4
144.4
144.4
144.4
144.4
144.4
144.4
144.4
144.4
144.4
144.4
144.4
144.4
144.4
144.4
144.4
144.4
144.4
144.4
144.4
144.4
144.4
144.4
144.4
144.4
144.4
144.4
144.4
144.4
144.4
144.4
144.4
144.4
144.4
144.4
144.4
144.4
144.4
144.4
144.4
144.4
144.4
144.4
144.4
144.4
144.4
144.4
144.4
144.4
144.4
144.4
144.4
144.4
144.4
144.4
144.4
144.4
144.4
144.4
144.4
144.4
144.4
144.4
144.4
144.401
144.401
144.401
144.401
144.401
144.401
144.401
144.401
144.401
144.401
144.4
144.4
144.4
144.4
144.4
144.4
144.4
144.4
144.4
144.4
144.4
144.4
144.4
144.4
144.4
144.4
144.4
144.4
144.4
144.4
144.4
144.4
144.401
144.401
144.401
144.401
144.401
144.401
144.401
144.401
144.401
144.401
144.401
144.401
144.401
144.401
144.401
144.401
144.401
144.401
144.401
144.401
144.401
144.401
144.401
144.401
144.401
144.401
144.401
144.401
144.401
144.401
144.401
144.401
144.401
144.401
144.401
144.401
144.401
144.401
144.401
144.401
144.401
144.401
144.401
144.401
144.401
144.401
144.401
144.401
144.401
144.401
144.401
144.401
144.401
144.401
144.401
144.401
144.401
144.401
144.401
144.401
144.401
144.401
144.401
144.401
144.401
144.401
144.401
144.401
144.401
144.401
144.401
144.401
144.401
144.401
144.401
144.401
144.401
144.401
144.401
144.401
144.401
144.401
144.401
144.401
144.402
144.402
144.402
144.402
144.402
144.402
144.403
144.403
144.403
144.403
144.404
144.404
144.404
144.404
144.405
144.405
144.406
144.406
144.407
144.401
144.401
144.401
144.401
144.401
144.401
144.401
144.401
144.402
144.402
144.402
144.402
144.402
144.402
144.402
144.402
144.402
144.402
144.403
144.403
144.403
144.403
144.403
144.403
144.403
144.403
144.403
144.403
144.403
144.403
144.403
144.403
144.404
144.404
144.404
144.404
144.404
144.404
144.404
144.404
144.404
144.404
144.404
144.404
144.404
144.404
144.404
144.404
144.404
144.404
144.404
144.404
144.403
144.403
144.403
144.403
144.403
144.403
144.403
144.403
144.403
144.403
144.403
144.403
144.403
144.403
144.403
144.403
144.403
144.403
144.403
144.403
144.403
144.403
144.403
144.403
144.403
144.403
144.403
144.403
144.403
144.403
144.403
144.403
144.403
144.403
144.404
144.404
144.404
144.404
144.404
144.404
144.404
144.404
144.405
144.405
144.405
144.405
144.406
144.406
144.406
144.406
144.407
144.407
144.408
144.408
144.408
144.409
144.41
144.41
144.411
144.412
144.413
144.414
144.414
144.416
144.417
144.418
144.419
144.42
144.422
144.423
144.425
144.426
144.428
144.43
144.405
144.406
144.406
144.407
144.407
144.407
144.408
144.408
144.409
144.409
144.41
144.41
144.411
144.411
144.412
144.412
144.413
144.413
144.414
144.414
144.415
144.415
144.415
144.416
144.416
144.417
144.417
144.417
144.418
144.418
144.418
144.418
144.419
144.419
144.419
144.419
144.419
144.419
144.419
144.419
144.419
144.419
144.419
144.419
144.419
144.419
144.419
144.419
144.418
144.418
144.418
144.418
144.418
144.418
144.418
144.418
144.417
144.417
144.417
144.417
144.417
144.417
144.417
144.417
144.417
144.416
144.416
144.416
144.416
144.416
144.416
144.416
144.416
144.416
144.416
144.416
144.416
144.416
144.416
144.416
144.417
144.417
144.417
144.417
144.417
144.418
144.418
144.418
144.419
144.419
144.42
144.42
144.421
144.422
144.422
144.423
144.424
144.425
144.426
144.428
144.429
144.43
144.431
144.433
144.434
144.436
144.438
144.439
144.441
144.444
144.446
144.449
144.451
144.454
144.457
144.46
144.464
144.467
144.471
144.474
144.478
144.482
144.487
144.491
144.496
144.501
144.507
144.512
144.429
144.431
144.433
144.435
144.437
144.439
144.442
144.444
144.446
144.448
144.451
144.453
144.455
144.457
144.459
144.461
144.463
144.465
144.467
144.469
144.47
144.472
144.474
144.475
144.476
144.478
144.479
144.48
144.481
144.482
144.483
144.483
144.484
144.484
144.485
144.485
144.485
144.485
144.485
144.485
144.484
144.484
144.483
144.483
144.482
144.482
144.481
144.481
144.48
144.479
144.479
144.478
144.477
144.477
144.476
144.475
144.475
144.474
144.473
144.473
144.472
144.471
144.471
144.47
144.47
144.469
144.469
144.468
144.468
144.467
144.467
144.467
144.467
144.467
144.466
144.466
144.467
144.467
144.467
144.467
144.468
144.468
144.469
144.469
144.47
144.471
144.472
144.473
144.474
144.475
144.477
144.479
144.481
144.483
144.485
144.488
144.49
144.493
144.496
144.499
144.503
144.506
144.51
144.514
144.518
144.522
144.527
144.532
144.537
144.542
144.548
144.554
144.561
144.568
144.575
144.583
144.591
144.599
144.608
144.616
144.626
144.635
144.645
144.656
144.667
144.679
144.691
144.704
144.536
144.544
144.552
144.56
144.568
144.576
144.584
144.592
144.6
144.608
144.615
144.622
144.629
144.635
144.641
144.647
144.653
144.659
144.664
144.669
144.673
144.678
144.682
144.685
144.688
144.691
144.694
144.696
144.698
144.699
144.7
144.701
144.701
144.701
144.701
144.7
144.699
144.698
144.696
144.694
144.692
144.69
144.688
144.685
144.682
144.68
144.677
144.674
144.672
144.669
144.666
144.663
144.66
144.657
144.655
144.652
144.649
144.646
144.643
144.641
144.638
144.636
144.633
144.631
144.629
144.627
144.625
144.623
144.621
144.62
144.618
144.617
144.616
144.615
144.614
144.614
144.614
144.614
144.614
144.614
144.615
144.616
144.617
144.618
144.62
144.622
144.624
144.626
144.629
144.632
144.636
144.64
144.644
144.649
144.654
144.659
144.665
144.672
144.678
144.685
144.693
144.701
144.71
144.719
144.728
144.738
144.749
144.76
144.771
144.783
144.796
144.81
144.824
144.839
144.855
144.872
144.889
144.907
144.926
144.945
144.966
144.986
145.008
145.031
145.054
145.078
145.104
145.13
144.91
144.932
144.953
144.975
144.995
145.015
145.035
145.054
145.072
145.089
145.105
145.12
145.134
145.147
145.159
145.171
145.182
145.192
145.201
145.209
145.216
145.223
145.228
145.233
145.237
145.24
145.242
145.243
145.243
145.243
145.242
145.24
145.237
145.234
145.229
145.225
145.22
145.214
145.207
145.201
145.194
145.186
145.179
145.171
145.162
145.154
145.146
145.137
145.129
145.12
145.112
145.103
145.095
145.086
145.078
145.069
145.061
145.053
145.045
145.038
145.03
145.023
145.016
145.01
145.003
144.997
144.992
144.986
144.982
144.977
144.973
144.969
144.966
144.963
144.961
144.959
144.958
144.957
144.957
144.957
144.958
144.96
144.961
144.964
144.967
144.971
144.975
144.98
144.986
144.993
145
145.008
145.017
145.027
145.038
145.05
145.062
145.076
145.09
145.105
145.122
145.139
145.157
145.176
145.197
145.218
145.24
145.263
145.287
145.313
145.339
145.367
145.396
145.427
145.459
145.492
145.526
145.562
145.6
145.638
145.678
145.72
145.762
145.806
145.852
145.899
145.947
145.998
146.05
145.877
145.916
145.954
145.989
146.023
146.056
146.086
146.114
146.141
146.165
146.187
146.207
146.226
146.242
146.257
146.27
146.281
146.291
146.299
146.305
146.31
146.313
146.315
146.315
146.314
146.311
146.307
146.302
146.296
146.288
146.279
146.269
146.258
146.245
146.232
146.218
146.203
146.188
146.171
146.155
146.137
146.12
146.102
146.083
146.065
146.046
146.028
146.009
145.99
145.972
145.953
145.935
145.917
145.899
145.881
145.864
145.847
145.831
145.815
145.8
145.785
145.771
145.757
145.744
145.732
145.721
145.71
145.7
145.691
145.683
145.676
145.67
145.665
145.66
145.657
145.655
145.654
145.654
145.656
145.658
145.661
145.666
145.671
145.678
145.687
145.696
145.707
145.719
145.733
145.748
145.765
145.783
145.803
145.825
145.848
145.873
145.899
145.927
145.957
145.989
146.023
146.058
146.095
146.134
146.175
146.217
146.261
146.307
146.355
146.404
146.456
146.509
146.565
146.623
146.683
146.745
146.809
146.875
146.944
147.014
147.086
147.16
147.236
147.315
147.395
147.478
147.563
147.651
147.565
147.617
147.666
147.712
147.756
147.796
147.833
147.868
147.899
147.927
147.952
147.974
147.992
148.008
148.021
148.031
148.039
148.045
148.048
148.05
148.049
148.046
148.041
148.034
148.025
148.014
148.001
147.987
147.971
147.953
147.933
147.912
147.89
147.866
147.841
147.814
147.787
147.759
147.731
147.702
147.672
147.641
147.611
147.579
147.548
147.517
147.485
147.453
147.422
147.391
147.36
147.33
147.3
147.27
147.242
147.214
147.186
147.16
147.134
147.11
147.086
147.064
147.043
147.023
147.004
146.987
146.971
146.957
146.944
146.933
146.923
146.915
146.909
146.905
146.902
146.902
146.903
146.906
146.911
146.918
146.927
146.938
146.952
146.967
146.985
147.005
147.027
147.051
147.078
147.107
147.138
147.172
147.209
147.248
147.289
147.334
147.381
147.43
147.483
147.538
147.596
147.656
147.72
147.785
147.853
147.924
147.998
148.074
148.152
148.233
148.316
148.402
148.491
148.582
148.676
148.773
148.872
148.974
149.079
149.186
149.296
149.408
149.522
149.638
149.757
149.879
150.004
150.132
150.022
150.076
150.125
150.171
150.213
150.251
150.286
150.316
150.343
150.365
150.382
150.396
150.406
150.413
150.417
150.418
150.417
150.413
150.406
150.397
150.385
150.371
150.355
150.337
150.316
150.293
150.269
150.243
150.214
150.184
150.152
150.118
150.082
150.045
150.007
149.968
149.928
149.888
149.846
149.805
149.763
149.72
149.678
149.635
149.592
149.55
149.508
149.466
149.424
149.383
149.343
149.303
149.265
149.227
149.191
149.156
149.122
149.09
149.059
149.03
149.002
148.977
148.953
148.932
148.912
148.895
148.88
148.867
148.857
148.85
148.844
148.842
148.843
148.845
148.851
148.859
148.871
148.885
148.903
148.924
148.947
148.974
149.004
149.037
149.073
149.113
149.155
149.201
149.25
149.303
149.358
149.418
149.48
149.546
149.616
149.688
149.764
149.844
149.927
150.013
150.103
150.197
150.292
150.392
150.495
150.6
150.708
150.82
150.934
151.051
151.17
151.293
151.418
151.546
151.677
151.811
151.947
152.087
152.229
152.374
152.52
152.669
152.819
152.973
153.13
153.29
153.452
152.982
153.029
153.071
153.108
153.142
153.172
153.198
153.22
153.236
153.248
153.254
153.257
153.257
153.253
153.246
153.236
153.224
153.209
153.191
153.171
153.149
153.125
153.098
153.07
153.039
153.007
152.973
152.937
152.899
152.859
152.818
152.775
152.73
152.684
152.638
152.59
152.542
152.493
152.444
152.394
152.345
152.296
152.247
152.198
152.15
152.102
152.055
152.009
151.964
151.92
151.877
151.835
151.795
151.757
151.72
151.685
151.653
151.622
151.594
151.568
151.545
151.524
151.506
151.491
151.479
151.471
151.464
151.462
151.464
151.468
151.475
151.486
151.501
151.52
151.542
151.568
151.598
151.632
151.669
151.711
151.756
151.806
151.859
151.916
151.977
152.042
152.111
152.183
152.259
152.339
152.424
152.511
152.603
152.699
152.797
152.9
153.008
153.118
153.231
153.349
153.47
153.594
153.722
153.853
153.986
154.123
154.263
154.406
154.55
154.698
154.849
155.002
155.158
155.316
155.477
155.641
155.807
155.976
156.148
156.322
156.497
156.673
156.852
157.035
157.22
157.408
157.597
157.789
156.161
156.2
156.235
156.265
156.291
156.315
156.335
156.35
156.361
156.369
156.37
156.368
156.362
156.352
156.339
156.323
156.304
156.283
156.259
156.233
156.205
156.176
156.144
156.11
156.075
156.038
156
155.96
155.919
155.876
155.832
155.787
155.74
155.692
155.643
155.594
155.544
155.493
155.443
155.393
155.343
155.293
155.244
155.196
155.149
155.102
155.057
155.013
154.971
154.93
154.891
154.854
154.818
154.785
154.755
154.726
154.701
154.678
154.658
154.641
154.627
154.617
154.609
154.606
154.607
154.611
154.618
154.629
154.645
154.665
154.688
154.716
154.748
154.785
154.826
154.871
154.92
154.974
155.032
155.094
155.161
155.232
155.307
155.387
155.47
155.558
155.649
155.745
155.844
155.948
156.056
156.167
156.282
156.402
156.523
156.65
156.781
156.913
157.05
157.191
157.335
157.481
157.631
157.785
157.94
158.099
158.261
158.424
158.59
158.759
158.93
159.104
159.28
159.458
159.638
159.821
160.006
160.194
160.385
160.577
160.77
160.965
161.162
161.362
161.565
161.769
161.975
162.183
159.451
159.483
159.511
159.534
159.554
159.57
159.584
159.593
159.6
159.603
159.601
159.596
159.587
159.575
159.559
159.54
159.519
159.495
159.468
159.44
159.41
159.378
159.344
159.309
159.273
159.236
159.197
159.157
159.116
159.075
159.033
158.989
158.945
158.901
158.855
158.809
158.763
158.717
158.671
158.626
158.581
158.537
158.493
158.452
158.411
158.372
158.335
158.299
158.266
158.234
158.205
158.179
158.154
158.133
158.114
158.099
158.087
158.077
158.07
158.069
158.072
158.076
158.085
158.098
158.115
158.137
158.163
158.192
158.227
158.266
158.309
158.357
158.409
158.466
158.527
158.593
158.664
158.739
158.818
158.902
158.99
159.083
159.18
159.281
159.386
159.495
159.608
159.724
159.845
159.97
160.098
160.229
160.365
160.504
160.645
160.791
160.941
161.092
161.248
161.407
161.568
161.732
161.9
162.07
162.241
162.417
162.595
162.774
162.955
163.14
163.325
163.513
163.703
163.895
164.089
164.285
164.484
164.685
164.888
165.094
165.299
165.506
165.716
165.928
166.143
166.358
166.575
166.794
162.785
162.808
162.827
162.842
162.855
162.863
162.869
162.872
162.872
162.868
162.862
162.853
162.84
162.825
162.806
162.785
162.762
162.736
162.708
162.68
162.649
162.617
162.583
162.549
162.515
162.479
162.442
162.406
162.369
162.332
162.294
162.256
162.218
162.181
162.143
162.105
162.067
162.031
161.994
161.959
161.925
161.893
161.862
161.833
161.806
161.781
161.758
161.738
161.721
161.706
161.694
161.685
161.679
161.678
161.68
161.684
161.692
161.704
161.72
161.741
161.765
161.794
161.826
161.864
161.905
161.951
162.002
162.057
162.117
162.181
162.25
162.323
162.401
162.484
162.571
162.663
162.759
162.859
162.964
163.072
163.185
163.302
163.423
163.548
163.676
163.808
163.944
164.083
164.226
164.371
164.52
164.673
164.829
164.987
165.149
165.314
165.481
165.651
165.825
166
166.178
166.36
166.542
166.727
166.915
167.105
167.296
167.489
167.685
167.882
168.08
168.281
168.483
168.687
168.893
169.101
169.312
169.525
169.739
169.954
170.17
170.389
170.609
170.832
171.057
171.281
171.508
166.061
166.081
166.097
166.111
166.121
166.128
166.131
166.133
166.132
166.128
166.122
166.114
166.103
166.089
166.074
166.056
166.036
166.013
165.989
165.965
165.938
165.91
165.882
165.853
165.824
165.794
165.764
165.734
165.704
165.675
165.645
165.617
165.588
165.561
165.534
165.507
165.482
165.458
165.434
165.412
165.392
165.373
165.356
165.342
165.33
165.32
165.313
165.309
165.31
165.313
165.318
165.327
165.34
165.357
165.377
165.402
165.43
165.462
165.499
165.54
165.585
165.634
165.688
165.746
165.809
165.876
165.948
166.025
166.105
166.191
166.281
166.375
166.474
166.577
166.685
166.796
166.912
167.032
167.156
167.284
167.416
167.551
167.69
167.832
167.978
168.127
168.28
168.435
168.594
168.755
168.92
169.087
169.257
169.429
169.605
169.783
169.963
170.146
170.332
170.518
170.708
170.901
171.094
171.289
171.488
171.688
171.888
172.091
172.296
172.501
172.708
172.917
173.127
173.339
173.553
173.769
173.987
174.206
174.428
174.649
174.873
175.099
175.326
175.555
175.786
176.017
176.249
176.485
176.722
169.287
169.306
169.322
169.336
169.346
169.353
169.357
169.36
169.359
169.357
169.353
169.347
169.339
169.329
169.318
169.305
169.29
169.273
169.256
169.237
169.217
169.196
169.175
169.154
169.133
169.111
169.089
169.068
169.048
169.029
169.01
168.992
168.975
168.96
168.946
168.933
168.922
168.912
168.903
168.897
168.892
168.89
168.89
168.893
168.897
168.905
168.916
168.931
168.949
168.97
168.995
169.024
169.057
169.094
169.134
169.179
169.228
169.282
169.339
169.401
169.467
169.538
169.613
169.693
169.776
169.865
169.957
170.055
170.156
170.262
170.372
170.486
170.605
170.728
170.854
170.985
171.119
171.258
171.4
171.545
171.694
171.846
172.001
172.16
172.321
172.486
172.653
172.823
172.996
173.171
173.349
173.529
173.711
173.897
174.084
174.273
174.465
174.659
174.854
175.051