/*--------------------------------*- C++ -*----------------------------------*\
| =========                 |                                                 |
| \\      /  F ield         | OpenFOAM: The Open Source CFD Toolbox           |
|  \\    /   O peration     | Version:  v1706                                 |
|   \\  /    A nd           | Web:      www.OpenFOAM.com                      |
|    \\/     M anipulation  |                                                 |
\*---------------------------------------------------------------------------*/
FoamFile
{
    version     2.0;
    format      ascii;
    class       volScalarField;
    location    "4e-05";
    object      wallHeatFlux;
}
// * * * * * * * * * * * * * * * * * * * * * * * * * * * * * * * * * * * * * //

dimensions      [1 0 -3 0 0 0 0];


internalField   uniform 0;

boundaryField
{
    cone
    {
        type            calculated;
        value           nonuniform List<scalar> 
181
(
38849.8
38540.6
38231.3
37921.9
37612.3
37302.5
36992.5
36682.4
36372.2
36062
35751.9
35441.8
35131.8
34822
34512.5
34203.2
33894.3
33585.8
33277.7
32970.1
32663.1
32356.6
32050.8
31745.6
31441.2
31137.6
30834.8
30533
30232.1
29932.2
29633.4
29335.8
29039.4
28744.3
28450.6
28158.4
27867.7
27578.6
27291.2
27005.6
26722
26440.3
26160.7
25883.3
25608.2
25335.4
25065.1
24797.4
24532.3
24270.1
24010.6
23754.2
23500.7
23250.5
23003.5
22759.8
22519.5
22282.7
22049.5
21820
21594.2
21372.2
21154
20939.7
20729.4
20523.1
20320.8
20122.5
19928.3
19738.2
19552.2
19370.2
19192.3
19018.4
18848.6
18682.8
18521.1
18363.2
18209.3
18059.3
17913.1
17770.7
17631.9
17496.7
17365.1
17236.9
17112.1
16990.7
16872.8
16758.5
16647.9
16541.4
16439.2
16341.9
16249.9
16163.5
16083.1
16009
15940.9
15878.6
15821.2
15767.4
15715.5
15663.3
15608.3
15547.3
15477
15394.7
15299
15187.6
15058.8
14912.9
14751.3
14577.3
14396.5
14217.9
14051.1
13905
13787
13703.7
13663
13674
13746.7
13889.2
14107.3
14400.8
14765.5
15192.3
15666.7
16169
16674.3
17155.1
17577.4
17910.1
18116.9
18162.9
18031.8
17708.8
17191.5
16497.4
15653
14693.8
13662.3
12603.8
11562.5
10577.1
9677.53
8884.21
8208.9
7659.54
7235.89
6942.33
6781.27
6749.13
6849.1
7085.81
7462.24
7979.61
8639.03
9438.44
10371.7
11427.3
12587.3
13826.7
15113.2
16408.8
17671.4
18858.5
19932.4
20864.5
21629.9
22216
22613.3
22817.7
22831.9
22657.3
22293.1
21744.9
21023.3
20144.6
19130.2
)
;
    }
    inlet
    {
        type            calculated;
        value           uniform 0;
    }
    rWedge
    {
        type            wedge;
    }
    lWedge
    {
        type            wedge;
    }
    outlet
    {
        type            calculated;
        value           nonuniform 0();
    }
    procBoundary1to0
    {
        type            processor;
        value           uniform 0;
    }
    procBoundary1to2
    {
        type            processor;
        value           uniform 0;
    }
}


// ************************************************************************* //
