/*--------------------------------*- C++ -*----------------------------------*\
| =========                 |                                                 |
| \\      /  F ield         | OpenFOAM: The Open Source CFD Toolbox           |
|  \\    /   O peration     | Version:  v1706                                 |
|   \\  /    A nd           | Web:      www.OpenFOAM.com                      |
|    \\/     M anipulation  |                                                 |
\*---------------------------------------------------------------------------*/
FoamFile
{
    version     2.0;
    format      ascii;
    class       volScalarField;
    location    "3.5e-05";
    object      alpha;
}
// * * * * * * * * * * * * * * * * * * * * * * * * * * * * * * * * * * * * * //

dimensions      [1 -1 -1 0 0 0 0];


internalField   nonuniform List<scalar> 
30038
(
1.40478e-05
1.40478e-05
1.40478e-05
1.40478e-05
1.40478e-05
1.40478e-05
1.40478e-05
1.40478e-05
1.40478e-05
1.40478e-05
1.40478e-05
1.40478e-05
1.40478e-05
1.40478e-05
1.40478e-05
1.40478e-05
1.40478e-05
1.40478e-05
1.40478e-05
1.40478e-05
1.40478e-05
1.40478e-05
1.40478e-05
1.40478e-05
1.40478e-05
1.40478e-05
1.40478e-05
1.40478e-05
1.40478e-05
1.40478e-05
1.40478e-05
1.40478e-05
1.40478e-05
1.40478e-05
1.40478e-05
1.40478e-05
1.40478e-05
1.40478e-05
1.40478e-05
1.40478e-05
1.40478e-05
1.40478e-05
1.40478e-05
1.40478e-05
1.40478e-05
1.40478e-05
1.40478e-05
1.40478e-05
1.40478e-05
1.40478e-05
1.40478e-05
1.40478e-05
1.40478e-05
1.40478e-05
1.40478e-05
1.40478e-05
1.40478e-05
1.40478e-05
1.40478e-05
1.40478e-05
1.40478e-05
1.40478e-05
1.40478e-05
1.40478e-05
1.40478e-05
1.40478e-05
1.40478e-05
1.40478e-05
1.40478e-05
1.40478e-05
1.40478e-05
1.40478e-05
1.40478e-05
1.40478e-05
1.40478e-05
1.40478e-05
1.40478e-05
1.40478e-05
1.40478e-05
1.40478e-05
1.40478e-05
1.40478e-05
1.40478e-05
1.40478e-05
1.40478e-05
1.40478e-05
1.40478e-05
1.40478e-05
1.40478e-05
1.40478e-05
1.40478e-05
1.40478e-05
1.40478e-05
1.40478e-05
1.40478e-05
1.40478e-05
1.40478e-05
1.40478e-05
1.40478e-05
1.40478e-05
1.40478e-05
1.40478e-05
1.40478e-05
1.40478e-05
1.40478e-05
1.40478e-05
1.40478e-05
1.40478e-05
1.40478e-05
1.40478e-05
1.40478e-05
1.40478e-05
1.40478e-05
1.40478e-05
1.40478e-05
1.40478e-05
1.40478e-05
1.40478e-05
1.40478e-05
1.40478e-05
1.40478e-05
1.40478e-05
1.40478e-05
1.40478e-05
1.40478e-05
1.40478e-05
1.40478e-05
1.40478e-05
1.40478e-05
1.40478e-05
1.40478e-05
1.40478e-05
1.40478e-05
1.40478e-05
1.40478e-05
1.40478e-05
1.40478e-05
1.40478e-05
1.40478e-05
1.40478e-05
1.40478e-05
1.40478e-05
1.40478e-05
1.40478e-05
1.40478e-05
1.40478e-05
1.40478e-05
1.40478e-05
1.40478e-05
1.40478e-05
1.40478e-05
1.40478e-05
1.40478e-05
1.40478e-05
1.40478e-05
1.40478e-05
1.40478e-05
1.40478e-05
1.40478e-05
1.40478e-05
1.40478e-05
1.40478e-05
1.40478e-05
1.40478e-05
1.40478e-05
1.40478e-05
1.40478e-05
1.40478e-05
1.40478e-05
1.40478e-05
1.40478e-05
1.40478e-05
1.40478e-05
1.40478e-05
1.40478e-05
1.40478e-05
1.40478e-05
1.40478e-05
1.40478e-05
1.40478e-05
1.40478e-05
1.40478e-05
1.40478e-05
1.40478e-05
1.40478e-05
1.40478e-05
1.40478e-05
1.40478e-05
1.40478e-05
1.40478e-05
1.40478e-05
1.40478e-05
1.40478e-05
1.40478e-05
1.40478e-05
1.40478e-05
1.40478e-05
1.40478e-05
1.40478e-05
1.40478e-05
1.40478e-05
1.40478e-05
1.40478e-05
1.40478e-05
1.40478e-05
1.40478e-05
1.40478e-05
1.40478e-05
1.40478e-05
1.40478e-05
1.40478e-05
1.40478e-05
1.40478e-05
1.40478e-05
1.40478e-05
1.40478e-05
1.40478e-05
1.40478e-05
1.40478e-05
1.40478e-05
1.40478e-05
1.40478e-05
1.40478e-05
1.40478e-05
1.40478e-05
1.40478e-05
1.40478e-05
1.40478e-05
1.40478e-05
1.40478e-05
1.40478e-05
1.40478e-05
1.40478e-05
1.40478e-05
1.40478e-05
1.40478e-05
1.40478e-05
1.40478e-05
1.40478e-05
1.40478e-05
1.40478e-05
1.40478e-05
1.40478e-05
1.40478e-05
1.40478e-05
1.40478e-05
1.40478e-05
1.40478e-05
1.40478e-05
1.40478e-05
1.40478e-05
1.40478e-05
1.40478e-05
1.40478e-05
1.40478e-05
1.40478e-05
1.40478e-05
1.40478e-05
1.40478e-05
1.40478e-05
1.40478e-05
1.40478e-05
1.40478e-05
1.40478e-05
1.40478e-05
1.40478e-05
1.40478e-05
1.40478e-05
1.40478e-05
1.40478e-05
1.40478e-05
1.40478e-05
1.40478e-05
1.40478e-05
1.40478e-05
1.40478e-05
1.40478e-05
1.40478e-05
1.40478e-05
1.40478e-05
1.40478e-05
1.40478e-05
1.40478e-05
1.40478e-05
1.40478e-05
1.40478e-05
1.40478e-05
1.40478e-05
1.40478e-05
1.40478e-05
1.40478e-05
1.40478e-05
1.40478e-05
1.40478e-05
1.40478e-05
1.40478e-05
1.40478e-05
1.40478e-05
1.40478e-05
1.40478e-05
1.40478e-05
1.40478e-05
1.40478e-05
1.40478e-05
1.40478e-05
1.40478e-05
1.40478e-05
1.40478e-05
1.40478e-05
1.40478e-05
1.40478e-05
1.40478e-05
1.40478e-05
1.40478e-05
1.40478e-05
1.40478e-05
1.40478e-05
1.40478e-05
1.40478e-05
1.40478e-05
1.40478e-05
1.40478e-05
1.40478e-05
1.40478e-05
1.40478e-05
1.40478e-05
1.40478e-05
1.40478e-05
1.40478e-05
1.40478e-05
1.40478e-05
1.40478e-05
1.40478e-05
1.40478e-05
1.40478e-05
1.40478e-05
1.40478e-05
1.40478e-05
1.40478e-05
1.40478e-05
1.40478e-05
1.40478e-05
1.40478e-05
1.40478e-05
1.40478e-05
1.40478e-05
1.40478e-05
1.40478e-05
1.40478e-05
1.40478e-05
1.40478e-05
1.40478e-05
1.40478e-05
1.40478e-05
1.40478e-05
1.40478e-05
1.40478e-05
1.40478e-05
1.40478e-05
1.40478e-05
1.40478e-05
1.40478e-05
1.40478e-05
1.40478e-05
1.40478e-05
1.40478e-05
1.40478e-05
1.40478e-05
1.40478e-05
1.40478e-05
1.40478e-05
1.40478e-05
1.40478e-05
1.40478e-05
1.40478e-05
1.40478e-05
1.40478e-05
1.40478e-05
1.40478e-05
1.40478e-05
1.40478e-05
1.40478e-05
1.40478e-05
1.40478e-05
1.40478e-05
1.40478e-05
1.40478e-05
1.40478e-05
1.40478e-05
1.40478e-05
1.40478e-05
1.40478e-05
1.40478e-05
1.40478e-05
1.40478e-05
1.40478e-05
1.40478e-05
1.40478e-05
1.40478e-05
1.40478e-05
1.40478e-05
1.40478e-05
1.40478e-05
1.40478e-05
1.40478e-05
1.40478e-05
1.40478e-05
1.40478e-05
1.40478e-05
1.40478e-05
1.40478e-05
1.40478e-05
1.40478e-05
1.40478e-05
1.40478e-05
1.40478e-05
1.40478e-05
1.40478e-05
1.40478e-05
1.40478e-05
1.40478e-05
1.40478e-05
1.40478e-05
1.40478e-05
1.40478e-05
1.40478e-05
1.40478e-05
1.40478e-05
1.40478e-05
1.40478e-05
1.40478e-05
1.40478e-05
1.40478e-05
1.40478e-05
1.40478e-05
1.40478e-05
1.40478e-05
1.40478e-05
1.40478e-05
1.40478e-05
1.40478e-05
1.40478e-05
1.40478e-05
1.40478e-05
1.40478e-05
1.40478e-05
1.40478e-05
1.40478e-05
1.40478e-05
1.40478e-05
1.40478e-05
1.40478e-05
1.40478e-05
1.40478e-05
1.40478e-05
1.40478e-05
1.40478e-05
1.40478e-05
1.40478e-05
1.40478e-05
1.40478e-05
1.40478e-05
1.40478e-05
1.40478e-05
1.40478e-05
1.40478e-05
1.40478e-05
1.40478e-05
1.40478e-05
1.40478e-05
1.40478e-05
1.40478e-05
1.40478e-05
1.40478e-05
1.40478e-05
1.40478e-05
1.40478e-05
1.40478e-05
1.40478e-05
1.40478e-05
1.40478e-05
1.40478e-05
1.40478e-05
1.40478e-05
1.40478e-05
1.40478e-05
1.40478e-05
1.40478e-05
1.40478e-05
1.40478e-05
1.40478e-05
1.40478e-05
1.40478e-05
1.40478e-05
1.40478e-05
1.40478e-05
1.40478e-05
1.40478e-05
1.40478e-05
1.40478e-05
1.40478e-05
1.40478e-05
1.40478e-05
1.40478e-05
1.40478e-05
1.40478e-05
1.40478e-05
1.40478e-05
1.40478e-05
1.40478e-05
1.40478e-05
1.40478e-05
1.40478e-05
1.40478e-05
1.40478e-05
1.40478e-05
1.40478e-05
1.40478e-05
1.40478e-05
1.40478e-05
1.40478e-05
1.40478e-05
1.40478e-05
1.40478e-05
1.40478e-05
1.40478e-05
1.40478e-05
1.40478e-05
1.40478e-05
1.40478e-05
1.40478e-05
1.40478e-05
1.40478e-05
1.40478e-05
1.40478e-05
1.40478e-05
1.40478e-05
1.40478e-05
1.40478e-05
1.40478e-05
1.40478e-05
1.40478e-05
1.40478e-05
1.40478e-05
1.40478e-05
1.40478e-05
1.40478e-05
1.40478e-05
1.40478e-05
1.40478e-05
1.40478e-05
1.40478e-05
1.40478e-05
1.40478e-05
1.40478e-05
1.40478e-05
1.40478e-05
1.40478e-05
1.40478e-05
1.40478e-05
1.40478e-05
1.40478e-05
1.40478e-05
1.40478e-05
1.40478e-05
1.40478e-05
1.40478e-05
1.40478e-05
1.40478e-05
1.40478e-05
1.40478e-05
1.40478e-05
1.40478e-05
1.40478e-05
1.40478e-05
1.40478e-05
1.40478e-05
1.40478e-05
1.40478e-05
1.40478e-05
1.40478e-05
1.40478e-05
1.40478e-05
1.40478e-05
1.40478e-05
1.40478e-05
1.40478e-05
1.40478e-05
1.40478e-05
1.40478e-05
1.40478e-05
1.40478e-05
1.40478e-05
1.40478e-05
1.40478e-05
1.40478e-05
1.40478e-05
1.40478e-05
1.40478e-05
1.40478e-05
1.40478e-05
1.40478e-05
1.40478e-05
1.40478e-05
1.40478e-05
1.40478e-05
1.40478e-05
1.40478e-05
1.40478e-05
1.40478e-05
1.40478e-05
1.40478e-05
1.40478e-05
1.40478e-05
1.40478e-05
1.40478e-05
1.40478e-05
1.40478e-05
1.40478e-05
1.40478e-05
1.40478e-05
1.40478e-05
1.40478e-05
1.40478e-05
1.40478e-05
1.40478e-05
1.40478e-05
1.40478e-05
1.40478e-05
1.40478e-05
1.40478e-05
1.40478e-05
1.40478e-05
1.40478e-05
1.40478e-05
1.40478e-05
1.40478e-05
1.40478e-05
1.40478e-05
1.40478e-05
1.40478e-05
1.40478e-05
1.40478e-05
1.40478e-05
1.40478e-05
1.40478e-05
1.40478e-05
1.40478e-05
1.40478e-05
1.40478e-05
1.40478e-05
1.40478e-05
1.40478e-05
1.40478e-05
1.40478e-05
1.40478e-05
1.40478e-05
1.40478e-05
1.40478e-05
1.40478e-05
1.40478e-05
1.40478e-05
1.40478e-05
1.40478e-05
1.40478e-05
1.40478e-05
1.40478e-05
1.40478e-05
1.40478e-05
1.40478e-05
1.40478e-05
1.40478e-05
1.40478e-05
1.40478e-05
1.40478e-05
1.40478e-05
1.40478e-05
1.40478e-05
1.40478e-05
1.40478e-05
1.40478e-05
1.40478e-05
1.40478e-05
1.40478e-05
1.40478e-05
1.40478e-05
1.40478e-05
1.40478e-05
1.40478e-05
1.40478e-05
1.40478e-05
1.40478e-05
1.40478e-05
1.40478e-05
1.40478e-05
1.40478e-05
1.40478e-05
1.40478e-05
1.40478e-05
1.40478e-05
1.40478e-05
1.40478e-05
1.40478e-05
1.40478e-05
1.40478e-05
1.40478e-05
1.40478e-05
1.40478e-05
1.40478e-05
1.40478e-05
1.40478e-05
1.40478e-05
1.40478e-05
1.40478e-05
1.40478e-05
1.40478e-05
1.40478e-05
1.40478e-05
1.40478e-05
1.40478e-05
1.40478e-05
1.40478e-05
1.40478e-05
1.40478e-05
1.40478e-05
1.40478e-05
1.40478e-05
1.40478e-05
1.40478e-05
1.40478e-05
1.40478e-05
1.40478e-05
1.40478e-05
1.40478e-05
1.40478e-05
1.40478e-05
1.40478e-05
1.40478e-05
1.40478e-05
1.40478e-05
1.40478e-05
1.40478e-05
1.40478e-05
1.40478e-05
1.40478e-05
1.40478e-05
1.40478e-05
1.40478e-05
1.40478e-05
1.40478e-05
1.40478e-05
1.40478e-05
1.40478e-05
1.40478e-05
1.40478e-05
1.40478e-05
1.40478e-05
1.40478e-05
1.40478e-05
1.40478e-05
1.40478e-05
1.40478e-05
1.40478e-05
1.40478e-05
1.40478e-05
1.40478e-05
1.40478e-05
1.40478e-05
1.40478e-05
1.40478e-05
1.40478e-05
1.40478e-05
1.40478e-05
1.40478e-05
1.40478e-05
1.40478e-05
1.40478e-05
1.40478e-05
1.40478e-05
1.40478e-05
1.40478e-05
1.40478e-05
1.40478e-05
1.40478e-05
1.40478e-05
1.40478e-05
1.40478e-05
1.40478e-05
1.40478e-05
1.40478e-05
1.40478e-05
1.40478e-05
1.40478e-05
1.40478e-05
1.40478e-05
1.40478e-05
1.40478e-05
1.40478e-05
1.40478e-05
1.40478e-05
1.40478e-05
1.40478e-05
1.40478e-05
1.40478e-05
1.40478e-05
1.40478e-05
1.40478e-05
1.40478e-05
1.40478e-05
1.40478e-05
1.40478e-05
1.40478e-05
1.40478e-05
1.40478e-05
1.40478e-05
1.40478e-05
1.40478e-05
1.40478e-05
1.40478e-05
1.40478e-05
1.40478e-05
1.40478e-05
1.40478e-05
1.40478e-05
1.40478e-05
1.40478e-05
1.40478e-05
1.40478e-05
1.40478e-05
1.40478e-05
1.40478e-05
1.40478e-05
1.40478e-05
1.40478e-05
1.40478e-05
1.40478e-05
1.40478e-05
1.40478e-05
1.40478e-05
1.40478e-05
1.40478e-05
1.40478e-05
1.40478e-05
1.40478e-05
1.40478e-05
1.40478e-05
1.40478e-05
1.40478e-05
1.40478e-05
1.40478e-05
1.40478e-05
1.40478e-05
1.40478e-05
1.40478e-05
1.40478e-05
1.40478e-05
1.40478e-05
1.40478e-05
1.40478e-05
1.40478e-05
1.40478e-05
1.40478e-05
1.40478e-05
1.40478e-05
1.40478e-05
1.40478e-05
1.40478e-05
1.40478e-05
1.40478e-05
1.40478e-05
1.40478e-05
1.40478e-05
1.40478e-05
1.40478e-05
1.40478e-05
1.40478e-05
1.40478e-05
1.40478e-05
1.40478e-05
1.40478e-05
1.40478e-05
1.40478e-05
1.40478e-05
1.40478e-05
1.40478e-05
1.40478e-05
1.40478e-05
1.40478e-05
1.40478e-05
1.40478e-05
1.40478e-05
1.40478e-05
1.40478e-05
1.40478e-05
1.40478e-05
1.40478e-05
1.40478e-05
1.40478e-05
1.40478e-05
1.40478e-05
1.40478e-05
1.40478e-05
1.40478e-05
1.40478e-05
1.40478e-05
1.40478e-05
1.40478e-05
1.40478e-05
1.40478e-05
1.40478e-05
1.40478e-05
1.40478e-05
1.40478e-05
1.40478e-05
1.40478e-05
1.40478e-05
1.40478e-05
1.40478e-05
1.40478e-05
1.40478e-05
1.40478e-05
1.40478e-05
1.40478e-05
1.40478e-05
1.40478e-05
1.40478e-05
1.40478e-05
1.40478e-05
1.40478e-05
1.40478e-05
1.40478e-05
1.40478e-05
1.40478e-05
1.40478e-05
1.40478e-05
1.40478e-05
1.40478e-05
1.40478e-05
1.40478e-05
1.40478e-05
1.40478e-05
1.40478e-05
1.40478e-05
1.40478e-05
1.40478e-05
1.40478e-05
1.40478e-05
1.40478e-05
1.40478e-05
1.40478e-05
1.40478e-05
1.40478e-05
1.40478e-05
1.40478e-05
1.40478e-05
1.40478e-05
1.40478e-05
1.40478e-05
1.40478e-05
1.40478e-05
1.40478e-05
1.40478e-05
1.40478e-05
1.40478e-05
1.40478e-05
1.40478e-05
1.40478e-05
1.40478e-05
1.40478e-05
1.40478e-05
1.40478e-05
1.40478e-05
1.40478e-05
1.40478e-05
1.40478e-05
1.40478e-05
1.40478e-05
1.40478e-05
1.40478e-05
1.40478e-05
1.40478e-05
1.40478e-05
1.40478e-05
1.40478e-05
1.40478e-05
1.40478e-05
1.40478e-05
1.40478e-05
1.40478e-05
1.40478e-05
1.40478e-05
1.40478e-05
1.40478e-05
1.40478e-05
1.40478e-05
1.40478e-05
1.40478e-05
1.40478e-05
1.40478e-05
1.40478e-05
1.40478e-05
1.40478e-05
1.40478e-05
1.40478e-05
1.40478e-05
1.40478e-05
1.40478e-05
1.40478e-05
1.40478e-05
1.40478e-05
1.40478e-05
1.40478e-05
1.40478e-05
1.40478e-05
1.40478e-05
1.40478e-05
1.40478e-05
1.40478e-05
1.40478e-05
1.40478e-05
1.40478e-05
1.40478e-05
1.40478e-05
1.40478e-05
1.40478e-05
1.40478e-05
1.40478e-05
1.40478e-05
1.40478e-05
1.40478e-05
1.40478e-05
1.40478e-05
1.40478e-05
1.40478e-05
1.40478e-05
1.40478e-05
1.40478e-05
1.40478e-05
1.40478e-05
1.40478e-05
1.40478e-05
1.40478e-05
1.40478e-05
1.40478e-05
1.40478e-05
1.40478e-05
1.40478e-05
1.40478e-05
1.40478e-05
1.40478e-05
1.40478e-05
1.40478e-05
1.40478e-05
1.40478e-05
1.40478e-05
1.40478e-05
1.40478e-05
1.40478e-05
1.40478e-05
1.40478e-05
1.40478e-05
1.40478e-05
1.40478e-05
1.40478e-05
1.40478e-05
1.40478e-05
1.40478e-05
1.40478e-05
1.40478e-05
1.40478e-05
1.40478e-05
1.40478e-05
1.40478e-05
1.40478e-05
1.40478e-05
1.40478e-05
1.40478e-05
1.40478e-05
1.40478e-05
1.40478e-05
1.40478e-05
1.40478e-05
1.40478e-05
1.40478e-05
1.40478e-05
1.40478e-05
1.40478e-05
1.40478e-05
1.40478e-05
1.40478e-05
1.40478e-05
1.40478e-05
1.40478e-05
1.40478e-05
1.40478e-05
1.40478e-05
1.40478e-05
1.40478e-05
1.40478e-05
1.40478e-05
1.40478e-05
1.40478e-05
1.40478e-05
1.40478e-05
1.40478e-05
1.40478e-05
1.40478e-05
1.40478e-05
1.40478e-05
1.40478e-05
1.40478e-05
1.40478e-05
1.40478e-05
1.40478e-05
1.40478e-05
1.40478e-05
1.40478e-05
1.40478e-05
1.40478e-05
1.40478e-05
1.40478e-05
1.40478e-05
1.40478e-05
1.40478e-05
1.40478e-05
1.40478e-05
1.40478e-05
1.40478e-05
1.40478e-05
1.40478e-05
1.40478e-05
1.40478e-05
1.40478e-05
1.40478e-05
1.40478e-05
1.40478e-05
1.40478e-05
1.40478e-05
1.40478e-05
1.40478e-05
1.40478e-05
1.40478e-05
1.40478e-05
1.40478e-05
1.40478e-05
1.40478e-05
1.40478e-05
1.40478e-05
1.40478e-05
1.40478e-05
1.40478e-05
1.40478e-05
1.40478e-05
1.40478e-05
1.40478e-05
1.40478e-05
1.40478e-05
1.40478e-05
1.40478e-05
1.40478e-05
1.40478e-05
1.40478e-05
1.40478e-05
1.40478e-05
1.40478e-05
1.40478e-05
1.40478e-05
1.40478e-05
1.40478e-05
1.40478e-05
1.40478e-05
1.40478e-05
1.40478e-05
1.40478e-05
1.40478e-05
1.40478e-05
1.40478e-05
1.40478e-05
1.40478e-05
1.40478e-05
1.40478e-05
1.40478e-05
1.40478e-05
1.40478e-05
1.40478e-05
1.40478e-05
1.40478e-05
1.40478e-05
1.40478e-05
1.40478e-05
1.40478e-05
1.40478e-05
1.40478e-05
1.40478e-05
1.40478e-05
1.40478e-05
1.40478e-05
1.40478e-05
1.40478e-05
1.40478e-05
1.40478e-05
1.40478e-05
1.40478e-05
1.40478e-05
1.40478e-05
1.40478e-05
1.40478e-05
1.40478e-05
1.40478e-05
1.40478e-05
1.40478e-05
1.40478e-05
1.40478e-05
1.40478e-05
1.40478e-05
1.40478e-05
1.40478e-05
1.40478e-05
1.40478e-05
1.40478e-05
1.40478e-05
1.40478e-05
1.40478e-05
1.40478e-05
1.40478e-05
1.40478e-05
1.40478e-05
1.40478e-05
1.40478e-05
1.40478e-05
1.40478e-05
1.40478e-05
1.40478e-05
1.40478e-05
1.40478e-05
1.40478e-05
1.40478e-05
1.40478e-05
1.40478e-05
1.40478e-05
1.40479e-05
1.40479e-05
1.40478e-05
1.40478e-05
1.40478e-05
1.40478e-05
1.40478e-05
1.40478e-05
1.40478e-05
1.40478e-05
1.40478e-05
1.40478e-05
1.40478e-05
1.40478e-05
1.40478e-05
1.40478e-05
1.40478e-05
1.40478e-05
1.40478e-05
1.40478e-05
1.40478e-05
1.40478e-05
1.40478e-05
1.40478e-05
1.40478e-05
1.40478e-05
1.40478e-05
1.40478e-05
1.40478e-05
1.40478e-05
1.40478e-05
1.40478e-05
1.40478e-05
1.40478e-05
1.40478e-05
1.40478e-05
1.40478e-05
1.40478e-05
1.40478e-05
1.40478e-05
1.40478e-05
1.40478e-05
1.40478e-05
1.40478e-05
1.40478e-05
1.40478e-05
1.40479e-05
1.40479e-05
1.40479e-05
1.4048e-05
1.40481e-05
1.40483e-05
1.40478e-05
1.40478e-05
1.40478e-05
1.40478e-05
1.40478e-05
1.40478e-05
1.40478e-05
1.40478e-05
1.40478e-05
1.40478e-05
1.40478e-05
1.40478e-05
1.40478e-05
1.40478e-05
1.40478e-05
1.40478e-05
1.40478e-05
1.40478e-05
1.40478e-05
1.40478e-05
1.40478e-05
1.40478e-05
1.40478e-05
1.40478e-05
1.40478e-05
1.40478e-05
1.40478e-05
1.40478e-05
1.40478e-05
1.40478e-05
1.40478e-05
1.40478e-05
1.40478e-05
1.40478e-05
1.40478e-05
1.40478e-05
1.40478e-05
1.40478e-05
1.40478e-05
1.40478e-05
1.40478e-05
1.40479e-05
1.40479e-05
1.40479e-05
1.4048e-05
1.40481e-05
1.40483e-05
1.40486e-05
1.4049e-05
1.40497e-05
1.40478e-05
1.40478e-05
1.40478e-05
1.40478e-05
1.40478e-05
1.40478e-05
1.40478e-05
1.40478e-05
1.40478e-05
1.40478e-05
1.40478e-05
1.40478e-05
1.40478e-05
1.40478e-05
1.40478e-05
1.40478e-05
1.40478e-05
1.40478e-05
1.40478e-05
1.40478e-05
1.40478e-05
1.40478e-05
1.40478e-05
1.40478e-05
1.40478e-05
1.40478e-05
1.40478e-05
1.40478e-05
1.40478e-05
1.40478e-05
1.40478e-05
1.40478e-05
1.40478e-05
1.40478e-05
1.40478e-05
1.40478e-05
1.40478e-05
1.40478e-05
1.40479e-05
1.40479e-05
1.4048e-05
1.4048e-05
1.40482e-05
1.40483e-05
1.40486e-05
1.4049e-05
1.40497e-05
1.40507e-05
1.40522e-05
1.40546e-05
1.40478e-05
1.40478e-05
1.40478e-05
1.40478e-05
1.40478e-05
1.40478e-05
1.40478e-05
1.40478e-05
1.40478e-05
1.40478e-05
1.40478e-05
1.40478e-05
1.40478e-05
1.40478e-05
1.40478e-05
1.40478e-05
1.40478e-05
1.40478e-05
1.40478e-05
1.40478e-05
1.40478e-05
1.40478e-05
1.40478e-05
1.40478e-05
1.40478e-05
1.40478e-05
1.40478e-05
1.40478e-05
1.40478e-05
1.40478e-05
1.40478e-05
1.40478e-05
1.40478e-05
1.40478e-05
1.40478e-05
1.40479e-05
1.40479e-05
1.4048e-05
1.40481e-05
1.40482e-05
1.40484e-05
1.40487e-05
1.40491e-05
1.40498e-05
1.40507e-05
1.40522e-05
1.40545e-05
1.4058e-05
1.40633e-05
1.40716e-05
1.40478e-05
1.40478e-05
1.40478e-05
1.40478e-05
1.40478e-05
1.40478e-05
1.40478e-05
1.40478e-05
1.40478e-05
1.40478e-05
1.40478e-05
1.40478e-05
1.40478e-05
1.40478e-05
1.40478e-05
1.40478e-05
1.40478e-05
1.40478e-05
1.40478e-05
1.40478e-05
1.40478e-05
1.40478e-05
1.40478e-05
1.40478e-05
1.40478e-05
1.40478e-05
1.40478e-05
1.40478e-05
1.40478e-05
1.40478e-05
1.40478e-05
1.40479e-05
1.40479e-05
1.40479e-05
1.4048e-05
1.40481e-05
1.40482e-05
1.40484e-05
1.40487e-05
1.40492e-05
1.40499e-05
1.40509e-05
1.40524e-05
1.40547e-05
1.40581e-05
1.40633e-05
1.4071e-05
1.40828e-05
1.41008e-05
1.4129e-05
1.40478e-05
1.40478e-05
1.40478e-05
1.40478e-05
1.40478e-05
1.40478e-05
1.40478e-05
1.40478e-05
1.40478e-05
1.40478e-05
1.40478e-05
1.40478e-05
1.40478e-05
1.40478e-05
1.40478e-05
1.40478e-05
1.40478e-05
1.40478e-05
1.40478e-05
1.40478e-05
1.40478e-05
1.40478e-05
1.40478e-05
1.40478e-05
1.40478e-05
1.40478e-05
1.40478e-05
1.40478e-05
1.40479e-05
1.40479e-05
1.40479e-05
1.4048e-05
1.40481e-05
1.40483e-05
1.40485e-05
1.40488e-05
1.40493e-05
1.405e-05
1.40511e-05
1.40527e-05
1.4055e-05
1.40585e-05
1.40637e-05
1.40715e-05
1.40831e-05
1.41005e-05
1.41265e-05
1.41657e-05
1.4225e-05
1.43164e-05
1.40478e-05
1.40478e-05
1.40478e-05
1.40478e-05
1.40478e-05
1.40478e-05
1.40478e-05
1.40478e-05
1.40478e-05
1.40478e-05
1.40478e-05
1.40478e-05
1.40478e-05
1.40478e-05
1.40478e-05
1.40478e-05
1.40478e-05
1.40478e-05
1.40478e-05
1.40478e-05
1.40478e-05
1.40478e-05
1.40478e-05
1.40478e-05
1.40479e-05
1.40479e-05
1.40479e-05
1.4048e-05
1.40481e-05
1.40482e-05
1.40483e-05
1.40486e-05
1.40489e-05
1.40495e-05
1.40503e-05
1.40514e-05
1.40531e-05
1.40555e-05
1.40591e-05
1.40645e-05
1.40724e-05
1.40841e-05
1.41015e-05
1.41273e-05
1.41657e-05
1.42226e-05
1.43071e-05
1.44324e-05
1.46184e-05
1.48959e-05
1.40478e-05
1.40478e-05
1.40478e-05
1.40478e-05
1.40478e-05
1.40478e-05
1.40478e-05
1.40478e-05
1.40478e-05
1.40478e-05
1.40478e-05
1.40478e-05
1.40478e-05
1.40478e-05
1.40478e-05
1.40478e-05
1.40478e-05
1.40478e-05
1.40478e-05
1.40478e-05
1.40478e-05
1.40479e-05
1.40479e-05
1.40479e-05
1.4048e-05
1.40481e-05
1.40482e-05
1.40484e-05
1.40487e-05
1.40491e-05
1.40497e-05
1.40505e-05
1.40518e-05
1.40536e-05
1.40562e-05
1.406e-05
1.40656e-05
1.40738e-05
1.40859e-05
1.41036e-05
1.41297e-05
1.41681e-05
1.42246e-05
1.43077e-05
1.44294e-05
1.4607e-05
1.48643e-05
1.52337e-05
1.57576e-05
1.64914e-05
1.40478e-05
1.40478e-05
1.40478e-05
1.40478e-05
1.40478e-05
1.40478e-05
1.40478e-05
1.40478e-05
1.40478e-05
1.40478e-05
1.40478e-05
1.40478e-05
1.40478e-05
1.40478e-05
1.40478e-05
1.40478e-05
1.40478e-05
1.40479e-05
1.40479e-05
1.40479e-05
1.4048e-05
1.40481e-05
1.40482e-05
1.40483e-05
1.40485e-05
1.40489e-05
1.40493e-05
1.405e-05
1.40509e-05
1.40523e-05
1.40542e-05
1.40571e-05
1.40612e-05
1.40672e-05
1.40759e-05
1.40885e-05
1.41069e-05
1.41338e-05
1.4173e-05
1.42301e-05
1.43133e-05
1.44342e-05
1.46089e-05
1.48599e-05
1.52164e-05
1.57154e-05
1.64004e-05
1.73181e-05
1.8514e-05
2.00241e-05
1.40478e-05
1.40478e-05
1.40478e-05
1.40478e-05
1.40478e-05
1.40478e-05
1.40478e-05
1.40478e-05
1.40478e-05
1.40478e-05
1.40478e-05
1.40478e-05
1.40478e-05
1.40478e-05
1.40479e-05
1.40479e-05
1.4048e-05
1.4048e-05
1.40481e-05
1.40482e-05
1.40484e-05
1.40487e-05
1.40491e-05
1.40496e-05
1.40503e-05
1.40514e-05
1.40529e-05
1.40551e-05
1.40583e-05
1.40628e-05
1.40693e-05
1.40786e-05
1.40921e-05
1.41116e-05
1.41397e-05
1.41804e-05
1.42392e-05
1.4324e-05
1.44462e-05
1.46213e-05
1.48705e-05
1.52216e-05
1.57091e-05
1.63733e-05
1.72565e-05
1.83971e-05
1.98229e-05
2.15444e-05
2.35539e-05
2.58201e-05
1.40478e-05
1.40478e-05
1.40478e-05
1.40478e-05
1.40478e-05
1.40478e-05
1.40478e-05
1.40478e-05
1.40478e-05
1.40478e-05
1.40479e-05
1.40479e-05
1.40479e-05
1.4048e-05
1.40481e-05
1.40482e-05
1.40484e-05
1.40486e-05
1.40489e-05
1.40493e-05
1.405e-05
1.40508e-05
1.40521e-05
1.40538e-05
1.40563e-05
1.40598e-05
1.40649e-05
1.4072e-05
1.40823e-05
1.40969e-05
1.41178e-05
1.41478e-05
1.41908e-05
1.42524e-05
1.43404e-05
1.4466e-05
1.46444e-05
1.4896e-05
1.52473e-05
1.5731e-05
1.6385e-05
1.72488e-05
1.83582e-05
1.97388e-05
2.13997e-05
2.33296e-05
2.5498e-05
2.78597e-05
3.03646e-05
3.29509e-05
1.40478e-05
1.40478e-05
1.40478e-05
1.40478e-05
1.40478e-05
1.40478e-05
1.40479e-05
1.40479e-05
1.40479e-05
1.4048e-05
1.40481e-05
1.40482e-05
1.40483e-05
1.40485e-05
1.40488e-05
1.40492e-05
1.40497e-05
1.40504e-05
1.40515e-05
1.40529e-05
1.4055e-05
1.40578e-05
1.40619e-05
1.40676e-05
1.40756e-05
1.4087e-05
1.41032e-05
1.41261e-05
1.41586e-05
1.42048e-05
1.42704e-05
1.43633e-05
1.44946e-05
1.46794e-05
1.49375e-05
1.52944e-05
1.57815e-05
1.64343e-05
1.72897e-05
1.83811e-05
1.97321e-05
2.13514e-05
2.3229e-05
2.53365e-05
2.76311e-05
3.00601e-05
3.2567e-05
3.50918e-05
3.75789e-05
3.99842e-05
1.40478e-05
1.40478e-05
1.40479e-05
1.40479e-05
1.40479e-05
1.4048e-05
1.40481e-05
1.40482e-05
1.40483e-05
1.40485e-05
1.40487e-05
1.40491e-05
1.40495e-05
1.40502e-05
1.40511e-05
1.40523e-05
1.40541e-05
1.40565e-05
1.40598e-05
1.40645e-05
1.40711e-05
1.40803e-05
1.40932e-05
1.41114e-05
1.41369e-05
1.41728e-05
1.42233e-05
1.42943e-05
1.4394e-05
1.45336e-05
1.4728e-05
1.49969e-05
1.53651e-05
1.58625e-05
1.65227e-05
1.73801e-05
1.84652e-05
1.97995e-05
2.13903e-05
2.32284e-05
2.52877e-05
2.75288e-05
2.9903e-05
3.23577e-05
3.48367e-05
3.72827e-05
3.96446e-05
4.18748e-05
4.39169e-05
4.57254e-05
1.40479e-05
1.40479e-05
1.4048e-05
1.40481e-05
1.40482e-05
1.40483e-05
1.40484e-05
1.40487e-05
1.4049e-05
1.40494e-05
1.405e-05
1.40508e-05
1.40519e-05
1.40535e-05
1.40556e-05
1.40585e-05
1.40625e-05
1.40681e-05
1.40758e-05
1.40865e-05
1.41014e-05
1.41221e-05
1.4151e-05
1.41912e-05
1.42474e-05
1.43256e-05
1.44343e-05
1.45849e-05
1.47927e-05
1.50771e-05
1.54623e-05
1.59772e-05
1.66534e-05
1.75226e-05
1.86126e-05
1.99418e-05
2.15161e-05
2.33259e-05
2.53467e-05
2.75419e-05
2.98667e-05
3.22725e-05
3.47087e-05
3.71217e-05
3.94625e-05
4.1686e-05
4.37431e-05
4.55757e-05
4.71332e-05
4.83859e-05
4.93601e-05
1.40482e-05
1.40483e-05
1.40485e-05
1.40487e-05
1.4049e-05
1.40494e-05
1.405e-05
1.40507e-05
1.40517e-05
1.40531e-05
1.4055e-05
1.40576e-05
1.40612e-05
1.40661e-05
1.40727e-05
1.40819e-05
1.40946e-05
1.4112e-05
1.41361e-05
1.41693e-05
1.42152e-05
1.42786e-05
1.43661e-05
1.44865e-05
1.46517e-05
1.4877e-05
1.5182e-05
1.55906e-05
1.61304e-05
1.68311e-05
1.77218e-05
1.88269e-05
2.0162e-05
2.17305e-05
2.35222e-05
2.55134e-05
2.76698e-05
2.99499e-05
3.23087e-05
3.47006e-05
3.70767e-05
3.93902e-05
4.15996e-05
4.36625e-05
4.55279e-05
4.71431e-05
4.84724e-05
4.95099e-05
5.02834e-05
5.08317e-05
5.12183e-05
1.40487e-05
1.4049e-05
1.40494e-05
1.405e-05
1.40507e-05
1.40517e-05
1.4053e-05
1.40548e-05
1.40572e-05
1.40604e-05
1.40648e-05
1.40708e-05
1.4079e-05
1.40901e-05
1.41053e-05
1.41261e-05
1.41545e-05
1.41933e-05
1.42465e-05
1.43192e-05
1.44186e-05
1.4554e-05
1.47377e-05
1.49855e-05
1.53172e-05
1.5756e-05
1.63285e-05
1.70624e-05
1.79839e-05
1.91139e-05
2.04648e-05
2.20372e-05
2.38197e-05
2.57891e-05
2.7913e-05
3.01527e-05
3.24669e-05
3.48136e-05
3.71492e-05
3.94296e-05
4.16158e-05
4.36704e-05
4.55497e-05
4.72044e-05
4.85944e-05
4.97038e-05
5.05461e-05
5.1157e-05
5.15815e-05
5.18684e-05
5.20526e-05
5.21734e-05
1.40508e-05
1.40517e-05
1.4053e-05
1.40548e-05
1.40571e-05
1.40601e-05
1.40643e-05
1.40699e-05
1.40774e-05
1.40875e-05
1.41012e-05
1.41197e-05
1.41448e-05
1.41789e-05
1.4225e-05
1.42875e-05
1.43722e-05
1.44867e-05
1.46411e-05
1.48483e-05
1.51245e-05
1.54894e-05
1.59661e-05
1.65797e-05
1.73557e-05
1.83171e-05
1.94811e-05
2.08565e-05
2.24411e-05
2.4222e-05
2.61761e-05
2.82727e-05
3.04758e-05
3.27471e-05
3.50484e-05
3.73405e-05
3.95827e-05
4.17383e-05
4.37735e-05
4.5651e-05
4.73263e-05
4.87582e-05
4.99238e-05
5.08267e-05
5.14949e-05
5.19679e-05
5.22893e-05
5.25e-05
5.2632e-05
5.27119e-05
5.27543e-05
5.27696e-05
1.40573e-05
1.40603e-05
1.40643e-05
1.40697e-05
1.40768e-05
1.40864e-05
1.40992e-05
1.41163e-05
1.41392e-05
1.417e-05
1.42114e-05
1.4267e-05
1.43416e-05
1.44416e-05
1.45755e-05
1.47539e-05
1.49904e-05
1.53018e-05
1.57079e-05
1.62309e-05
1.68945e-05
1.77215e-05
1.87314e-05
1.99377e-05
2.13451e-05
2.29487e-05
2.47339e-05
2.66779e-05
2.87512e-05
3.09203e-05
3.31502e-05
3.54057e-05
3.76519e-05
3.98515e-05
4.19701e-05
4.39769e-05
4.58395e-05
4.75188e-05
4.89747e-05
5.01805e-05
5.1132e-05
5.18488e-05
5.23653e-05
5.27217e-05
5.29592e-05
5.31087e-05
5.31977e-05
5.32472e-05
5.32649e-05
5.32622e-05
5.32578e-05
5.3244e-05
1.40773e-05
1.40866e-05
1.40989e-05
1.41153e-05
1.4137e-05
1.41658e-05
1.42042e-05
1.42553e-05
1.43232e-05
1.44134e-05
1.45332e-05
1.46916e-05
1.49002e-05
1.51734e-05
1.55281e-05
1.59841e-05
1.65626e-05
1.72854e-05
1.81721e-05
1.92387e-05
2.04942e-05
2.19397e-05
2.35673e-05
2.53611e-05
2.72983e-05
2.93509e-05
3.14877e-05
3.36767e-05
3.58858e-05
3.80837e-05
4.02367e-05
4.23126e-05
4.42835e-05
4.61205e-05
4.77896e-05
4.92534e-05
5.04835e-05
5.147e-05
5.22256e-05
5.27795e-05
5.31676e-05
5.34289e-05
5.35964e-05
5.36962e-05
5.37531e-05
5.3775e-05
5.37702e-05
5.37613e-05
5.37457e-05
5.37127e-05
5.36672e-05
5.3616e-05
1.41378e-05
1.41657e-05
1.42025e-05
1.4251e-05
1.43149e-05
1.4399e-05
1.45096e-05
1.46546e-05
1.48442e-05
1.50908e-05
1.54092e-05
1.58167e-05
1.63324e-05
1.69763e-05
1.77675e-05
1.87223e-05
1.98523e-05
2.11625e-05
2.26502e-05
2.4305e-05
2.61097e-05
2.80416e-05
3.00746e-05
3.21796e-05
3.43273e-05
3.64889e-05
3.8636e-05
4.07385e-05
4.27667e-05
4.46947e-05
4.64971e-05
4.8144e-05
4.96016e-05
5.0841e-05
5.18488e-05
5.26322e-05
5.32154e-05
5.36301e-05
5.39126e-05
5.40968e-05
5.4207e-05
5.42692e-05
5.42966e-05
5.42928e-05
5.42794e-05
5.42608e-05
5.42304e-05
5.41847e-05
5.413e-05
5.40677e-05
5.40018e-05
5.39366e-05
1.43157e-05
1.43966e-05
1.4502e-05
1.4639e-05
1.48166e-05
1.50457e-05
1.53395e-05
1.57134e-05
1.61844e-05
1.67705e-05
1.74898e-05
1.83582e-05
1.93882e-05
2.0587e-05
2.19554e-05
2.34873e-05
2.517e-05
2.69857e-05
2.89122e-05
3.09249e-05
3.29972e-05
3.51025e-05
3.72146e-05
3.93083e-05
4.13565e-05
4.3332e-05
4.5211e-05
4.69709e-05
4.85854e-05
5.0024e-05
5.12588e-05
5.22748e-05
5.3075e-05
5.36783e-05
5.41131e-05
5.44131e-05
5.46111e-05
5.47306e-05
5.4798e-05
5.483e-05
5.48272e-05
5.48103e-05
5.47875e-05
5.47572e-05
5.47114e-05
5.46552e-05
5.45932e-05
5.45238e-05
5.44529e-05
5.43824e-05
5.43135e-05
5.42459e-05
1.48143e-05
1.50336e-05
1.53124e-05
1.56647e-05
1.61057e-05
1.66517e-05
1.73193e-05
1.81235e-05
1.90767e-05
2.01872e-05
2.14579e-05
2.28854e-05
2.4461e-05
2.61702e-05
2.79948e-05
2.99138e-05
3.1904e-05
3.39414e-05
3.60019e-05
3.80621e-05
4.00994e-05
4.20894e-05
4.40074e-05
4.58318e-05
4.75421e-05
4.91153e-05
5.05237e-05
5.17415e-05
5.2753e-05
5.35581e-05
5.41723e-05
5.46205e-05
5.49335e-05
5.51413e-05
5.52686e-05
5.53405e-05
5.53746e-05
5.53729e-05
5.53551e-05
5.53274e-05
5.5294e-05
5.52491e-05
5.51919e-05
5.51277e-05
5.50565e-05
5.49815e-05
5.49065e-05
5.48325e-05
5.47592e-05
5.46862e-05
5.46145e-05
5.45439e-05
1.66102e-05
1.72433e-05
1.80027e-05
1.89e-05
1.99436e-05
2.11373e-05
2.24799e-05
2.39647e-05
2.55806e-05
2.73124e-05
2.91419e-05
3.10493e-05
3.30135e-05
3.50126e-05
3.7025e-05
3.903e-05
4.10073e-05
4.2935e-05
4.47909e-05
4.65551e-05
4.82095e-05
4.97334e-05
5.11021e-05
5.22917e-05
5.32868e-05
5.40858e-05
5.47014e-05
5.51553e-05
5.54752e-05
5.56896e-05
5.58223e-05
5.58973e-05
5.59318e-05
5.59311e-05
5.59122e-05
5.58792e-05
5.58412e-05
5.5797e-05
5.5738e-05
5.56712e-05
5.55994e-05
5.55213e-05
5.54421e-05
5.53634e-05
5.52855e-05
5.52077e-05
5.51307e-05
5.50544e-05
5.49784e-05
5.49032e-05
5.48288e-05
1.98429e-05
2.09792e-05
2.22553e-05
2.36665e-05
2.52036e-05
2.68539e-05
2.86018e-05
3.04301e-05
3.23204e-05
3.42534e-05
3.62096e-05
3.81699e-05
4.01157e-05
4.20292e-05
4.38904e-05
4.56793e-05
4.73782e-05
4.89706e-05
5.04381e-05
5.17585e-05
5.291e-05
5.38781e-05
5.46606e-05
5.52682e-05
5.57198e-05
5.60408e-05
5.62575e-05
5.63925e-05
5.64684e-05