/*--------------------------------*- C++ -*----------------------------------*\
| =========                 |                                                 |
| \\      /  F ield         | OpenFOAM: The Open Source CFD Toolbox           |
|  \\    /   O peration     | Version:  v1706                                 |
|   \\  /    A nd           | Web:      www.OpenFOAM.com                      |
|    \\/     M anipulation  |                                                 |
\*---------------------------------------------------------------------------*/
FoamFile
{
    version     2.0;
    format      ascii;
    class       volScalarField;
    location    "3.5e-05";
    object      kappave;
}
// * * * * * * * * * * * * * * * * * * * * * * * * * * * * * * * * * * * * * //

dimensions      [1 1 -3 -1 0 0 0];


internalField   nonuniform List<scalar> 
30038
(
1.46038e-10
1.46038e-10
1.46038e-10
1.46038e-10
1.46038e-10
1.46038e-10
1.46038e-10
1.46038e-10
1.46038e-10
1.46038e-10
1.46038e-10
1.46038e-10
1.46038e-10
1.46038e-10
1.46038e-10
1.46038e-10
1.46038e-10
1.46038e-10
1.46038e-10
1.46038e-10
1.46038e-10
1.46038e-10
1.46038e-10
1.46038e-10
1.46038e-10
1.46038e-10
1.46038e-10
1.46038e-10
1.46038e-10
1.46038e-10
1.46038e-10
1.46038e-10
1.46038e-10
1.46038e-10
1.46038e-10
1.46038e-10
1.46038e-10
1.46038e-10
1.46038e-10
1.46038e-10
1.46038e-10
1.46038e-10
1.46038e-10
1.46038e-10
1.46038e-10
1.46038e-10
1.46038e-10
1.46038e-10
1.46038e-10
1.46038e-10
1.46038e-10
1.46038e-10
1.46038e-10
1.46038e-10
1.46038e-10
1.46038e-10
1.46038e-10
1.46038e-10
1.46038e-10
1.46038e-10
1.46038e-10
1.46038e-10
1.46038e-10
1.46038e-10
1.46038e-10
1.46038e-10
1.46038e-10
1.46038e-10
1.46038e-10
1.46038e-10
1.46038e-10
1.46038e-10
1.46038e-10
1.46038e-10
1.46038e-10
1.46038e-10
1.46038e-10
1.46038e-10
1.46038e-10
1.46038e-10
1.46038e-10
1.46038e-10
1.46038e-10
1.46038e-10
1.46038e-10
1.46038e-10
1.46038e-10
1.46038e-10
1.46038e-10
1.46038e-10
1.46038e-10
1.46038e-10
1.46038e-10
1.46038e-10
1.46038e-10
1.46038e-10
1.46038e-10
1.46038e-10
1.46038e-10
1.46038e-10
1.46038e-10
1.46038e-10
1.46038e-10
1.46038e-10
1.46038e-10
1.46038e-10
1.46038e-10
1.46038e-10
1.46038e-10
1.46038e-10
1.46038e-10
1.46038e-10
1.46038e-10
1.46038e-10
1.46038e-10
1.46038e-10
1.46038e-10
1.46038e-10
1.46038e-10
1.46038e-10
1.46038e-10
1.46038e-10
1.46038e-10
1.46038e-10
1.46038e-10
1.46038e-10
1.46038e-10
1.46038e-10
1.46038e-10
1.46038e-10
1.46038e-10
1.46038e-10
1.46038e-10
1.46038e-10
1.46038e-10
1.46038e-10
1.46038e-10
1.46038e-10
1.46038e-10
1.46038e-10
1.46038e-10
1.46038e-10
1.46038e-10
1.46038e-10
1.46038e-10
1.46038e-10
1.46038e-10
1.46038e-10
1.46038e-10
1.46038e-10
1.46038e-10
1.46038e-10
1.46038e-10
1.46038e-10
1.46038e-10
1.46038e-10
1.46038e-10
1.46038e-10
1.46038e-10
1.46038e-10
1.46038e-10
1.46038e-10
1.46038e-10
1.46038e-10
1.46038e-10
1.46038e-10
1.46038e-10
1.46038e-10
1.46038e-10
1.46038e-10
1.46038e-10
1.46038e-10
1.46038e-10
1.46038e-10
1.46038e-10
1.46038e-10
1.46038e-10
1.46038e-10
1.46038e-10
1.46038e-10
1.46038e-10
1.46038e-10
1.46038e-10
1.46038e-10
1.46038e-10
1.46038e-10
1.46038e-10
1.46038e-10
1.46038e-10
1.46038e-10
1.46038e-10
1.46038e-10
1.46038e-10
1.46038e-10
1.46038e-10
1.46038e-10
1.46038e-10
1.46038e-10
1.46038e-10
1.46038e-10
1.46038e-10
1.46038e-10
1.46038e-10
1.46038e-10
1.46038e-10
1.46038e-10
1.46038e-10
1.46038e-10
1.46038e-10
1.46038e-10
1.46038e-10
1.46038e-10
1.46038e-10
1.46038e-10
1.46038e-10
1.46038e-10
1.46038e-10
1.46038e-10
1.46038e-10
1.46038e-10
1.46038e-10
1.46038e-10
1.46038e-10
1.46038e-10
1.46038e-10
1.46038e-10
1.46038e-10
1.46038e-10
1.46038e-10
1.46038e-10
1.46038e-10
1.46038e-10
1.46038e-10
1.46038e-10
1.46038e-10
1.46038e-10
1.46038e-10
1.46038e-10
1.46038e-10
1.46038e-10
1.46038e-10
1.46038e-10
1.46038e-10
1.46038e-10
1.46038e-10
1.46038e-10
1.46038e-10
1.46038e-10
1.46038e-10
1.46038e-10
1.46038e-10
1.46038e-10
1.46038e-10
1.46038e-10
1.46038e-10
1.46038e-10
1.46038e-10
1.46038e-10
1.46038e-10
1.46038e-10
1.46038e-10
1.46038e-10
1.46038e-10
1.46038e-10
1.46038e-10
1.46038e-10
1.46038e-10
1.46038e-10
1.46038e-10
1.46038e-10
1.46038e-10
1.46038e-10
1.46038e-10
1.46038e-10
1.46038e-10
1.46038e-10
1.46038e-10
1.46038e-10
1.46038e-10
1.46038e-10
1.46038e-10
1.46038e-10
1.46038e-10
1.46038e-10
1.46038e-10
1.46038e-10
1.46038e-10
1.46038e-10
1.46038e-10
1.46038e-10
1.46038e-10
1.46038e-10
1.46038e-10
1.46038e-10
1.46038e-10
1.46038e-10
1.46038e-10
1.46038e-10
1.46038e-10
1.46038e-10
1.46038e-10
1.46038e-10
1.46038e-10
1.46038e-10
1.46038e-10
1.46038e-10
1.46038e-10
1.46038e-10
1.46038e-10
1.46038e-10
1.46038e-10
1.46038e-10
1.46038e-10
1.46038e-10
1.46038e-10
1.46038e-10
1.46038e-10
1.46038e-10
1.46038e-10
1.46038e-10
1.46038e-10
1.46038e-10
1.46038e-10
1.46038e-10
1.46038e-10
1.46038e-10
1.46038e-10
1.46038e-10
1.46038e-10
1.46038e-10
1.46038e-10
1.46038e-10
1.46038e-10
1.46038e-10
1.46038e-10
1.46038e-10
1.46038e-10
1.46038e-10
1.46038e-10
1.46038e-10
1.46038e-10
1.46038e-10
1.46038e-10
1.46038e-10
1.46038e-10
1.46038e-10
1.46038e-10
1.46038e-10
1.46038e-10
1.46038e-10
1.46038e-10
1.46038e-10
1.46038e-10
1.46038e-10
1.46038e-10
1.46038e-10
1.46038e-10
1.46038e-10
1.46038e-10
1.46038e-10
1.46038e-10
1.46038e-10
1.46038e-10
1.46038e-10
1.46038e-10
1.46038e-10
1.46038e-10
1.46038e-10
1.46038e-10
1.46038e-10
1.46038e-10
1.46038e-10
1.46038e-10
1.46038e-10
1.46038e-10
1.46038e-10
1.46038e-10
1.46038e-10
1.46038e-10
1.46038e-10
1.46038e-10
1.46038e-10
1.46038e-10
1.46038e-10
1.46038e-10
1.46038e-10
1.46038e-10
1.46038e-10
1.46038e-10
1.46038e-10
1.46038e-10
1.46038e-10
1.46038e-10
1.46038e-10
1.46038e-10
1.46038e-10
1.46038e-10
1.46038e-10
1.46038e-10
1.46038e-10
1.46038e-10
1.46038e-10
1.46038e-10
1.46038e-10
1.46038e-10
1.46038e-10
1.46038e-10
1.46038e-10
1.46038e-10
1.46038e-10
1.46038e-10
1.46038e-10
1.46038e-10
1.46038e-10
1.46038e-10
1.46038e-10
1.46038e-10
1.46038e-10
1.46038e-10
1.46038e-10
1.46038e-10
1.46038e-10
1.46038e-10
1.46038e-10
1.46038e-10
1.46038e-10
1.46038e-10
1.46038e-10
1.46038e-10
1.46038e-10
1.46038e-10
1.46038e-10
1.46038e-10
1.46038e-10
1.46038e-10
1.46038e-10
1.46038e-10
1.46038e-10
1.46038e-10
1.46038e-10
1.46038e-10
1.46038e-10
1.46038e-10
1.46038e-10
1.46038e-10
1.46038e-10
1.46038e-10
1.46038e-10
1.46038e-10
1.46038e-10
1.46038e-10
1.46038e-10
1.46038e-10
1.46038e-10
1.46038e-10
1.46038e-10
1.46038e-10
1.46038e-10
1.46038e-10
1.46038e-10
1.46038e-10
1.46038e-10
1.46038e-10
1.46038e-10
1.46038e-10
1.46038e-10
1.46038e-10
1.46038e-10
1.46038e-10
1.46038e-10
1.46038e-10
1.46038e-10
1.46038e-10
1.46038e-10
1.46038e-10
1.46038e-10
1.46038e-10
1.46038e-10
1.46038e-10
1.46038e-10
1.46038e-10
1.46038e-10
1.46038e-10
1.46038e-10
1.46038e-10
1.46038e-10
1.46038e-10
1.46038e-10
1.46038e-10
1.46038e-10
1.46038e-10
1.46038e-10
1.46038e-10
1.46038e-10
1.46038e-10
1.46038e-10
1.46038e-10
1.46038e-10
1.46038e-10
1.46038e-10
1.46038e-10
1.46038e-10
1.46038e-10
1.46038e-10
1.46038e-10
1.46038e-10
1.46038e-10
1.46038e-10
1.46038e-10
1.46038e-10
1.46038e-10
1.46038e-10
1.46038e-10
1.46038e-10
1.46038e-10
1.46038e-10
1.46038e-10
1.46038e-10
1.46038e-10
1.46038e-10
1.46038e-10
1.46038e-10
1.46038e-10
1.46038e-10
1.46038e-10
1.46038e-10
1.46038e-10
1.46038e-10
1.46038e-10
1.46038e-10
1.46038e-10
1.46038e-10
1.46038e-10
1.46038e-10
1.46038e-10
1.46038e-10
1.46038e-10
1.46038e-10
1.46038e-10
1.46038e-10
1.46038e-10
1.46038e-10
1.46038e-10
1.46038e-10
1.46038e-10
1.46038e-10
1.46038e-10
1.46038e-10
1.46038e-10
1.46038e-10
1.46038e-10
1.46038e-10
1.46038e-10
1.46038e-10
1.46038e-10
1.46038e-10
1.46038e-10
1.46038e-10
1.46038e-10
1.46038e-10
1.46038e-10
1.46038e-10
1.46038e-10
1.46038e-10
1.46038e-10
1.46038e-10
1.46038e-10
1.46038e-10
1.46038e-10
1.46038e-10
1.46038e-10
1.46038e-10
1.46038e-10
1.46038e-10
1.46038e-10
1.46038e-10
1.46038e-10
1.46038e-10
1.46038e-10
1.46038e-10
1.46038e-10
1.46038e-10
1.46038e-10
1.46038e-10
1.46038e-10
1.46038e-10
1.46038e-10
1.46038e-10
1.46038e-10
1.46038e-10
1.46038e-10
1.46038e-10
1.46038e-10
1.46038e-10
1.46038e-10
1.46038e-10
1.46038e-10
1.46038e-10
1.46038e-10
1.46038e-10
1.46038e-10
1.46038e-10
1.46038e-10
1.46038e-10
1.46038e-10
1.46038e-10
1.46038e-10
1.46038e-10
1.46038e-10
1.46038e-10
1.46038e-10
1.46038e-10
1.46038e-10
1.46038e-10
1.46038e-10
1.46038e-10
1.46038e-10
1.46038e-10
1.46038e-10
1.46038e-10
1.46038e-10
1.46038e-10
1.46038e-10
1.46038e-10
1.46038e-10
1.46038e-10
1.46038e-10
1.46038e-10
1.46038e-10
1.46038e-10
1.46038e-10
1.46038e-10
1.46038e-10
1.46038e-10
1.46038e-10
1.46038e-10
1.46038e-10
1.46038e-10
1.46038e-10
1.46038e-10
1.46038e-10
1.46038e-10
1.46038e-10
1.46038e-10
1.46038e-10
1.46038e-10
1.46038e-10
1.46038e-10
1.46038e-10
1.46038e-10
1.46038e-10
1.46038e-10
1.46038e-10
1.46038e-10
1.46038e-10
1.46038e-10
1.46038e-10
1.46038e-10
1.46038e-10
1.46038e-10
1.46038e-10
1.46038e-10
1.46038e-10
1.46038e-10
1.46038e-10
1.46038e-10
1.46038e-10
1.46038e-10
1.46038e-10
1.46038e-10
1.46038e-10
1.46038e-10
1.46038e-10
1.46038e-10
1.46038e-10
1.46038e-10
1.46038e-10
1.46038e-10
1.46038e-10
1.46038e-10
1.46038e-10
1.46038e-10
1.46038e-10
1.46038e-10
1.46038e-10
1.46038e-10
1.46038e-10
1.46038e-10
1.46038e-10
1.46038e-10
1.46038e-10
1.46038e-10
1.46038e-10
1.46038e-10
1.46038e-10
1.46038e-10
1.46038e-10
1.46038e-10
1.46038e-10
1.46038e-10
1.46038e-10
1.46038e-10
1.46038e-10
1.46038e-10
1.46038e-10
1.46038e-10
1.46038e-10
1.46038e-10
1.46038e-10
1.46038e-10
1.46038e-10
1.46038e-10
1.46038e-10
1.46038e-10
1.46038e-10
1.46038e-10
1.46038e-10
1.46038e-10
1.46038e-10
1.46038e-10
1.46038e-10
1.46038e-10
1.46038e-10
1.46038e-10
1.46038e-10
1.46038e-10
1.46038e-10
1.46038e-10
1.46038e-10
1.46038e-10
1.46038e-10
1.46038e-10
1.46038e-10
1.46038e-10
1.46038e-10
1.46038e-10
1.46038e-10
1.46038e-10
1.46038e-10
1.46038e-10
1.46038e-10
1.46038e-10
1.46038e-10
1.46038e-10
1.46038e-10
1.46038e-10
1.46038e-10
1.46038e-10
1.46038e-10
1.46038e-10
1.46038e-10
1.46038e-10
1.46038e-10
1.46038e-10
1.46038e-10
1.46038e-10
1.46038e-10
1.46038e-10
1.46038e-10
1.46038e-10
1.46038e-10
1.46038e-10
1.46038e-10
1.46038e-10
1.46038e-10
1.46038e-10
1.46038e-10
1.46038e-10
1.46038e-10
1.46038e-10
1.46038e-10
1.46038e-10
1.46038e-10
1.46038e-10
1.46038e-10
1.46038e-10
1.46038e-10
1.46038e-10
1.46038e-10
1.46038e-10
1.46038e-10
1.46038e-10
1.46038e-10
1.46038e-10
1.46038e-10
1.46038e-10
1.46038e-10
1.46038e-10
1.46038e-10
1.46038e-10
1.46038e-10
1.46038e-10
1.46038e-10
1.46038e-10
1.46038e-10
1.46038e-10
1.46038e-10
1.46038e-10
1.46038e-10
1.46038e-10
1.46038e-10
1.46038e-10
1.46038e-10
1.46038e-10
1.46038e-10
1.46038e-10
1.46038e-10
1.46038e-10
1.46038e-10
1.46038e-10
1.46038e-10
1.46038e-10
1.46038e-10
1.46038e-10
1.46038e-10
1.46038e-10
1.46038e-10
1.46038e-10
1.46038e-10
1.46038e-10
1.46038e-10
1.46038e-10
1.46038e-10
1.46038e-10
1.46038e-10
1.46038e-10
1.46038e-10
1.46038e-10
1.46038e-10
1.46038e-10
1.46038e-10
1.46038e-10
1.46038e-10
1.46038e-10
1.46038e-10
1.46038e-10
1.46038e-10
1.46038e-10
1.46038e-10
1.46038e-10
1.46038e-10
1.46038e-10
1.46038e-10
1.46038e-10
1.46038e-10
1.46038e-10
1.46038e-10
1.46038e-10
1.46038e-10
1.46038e-10
1.46038e-10
1.46038e-10
1.46038e-10
1.46038e-10
1.46038e-10
1.46038e-10
1.46038e-10
1.46038e-10
1.46038e-10
1.46038e-10
1.46038e-10
1.46038e-10
1.46038e-10
1.46038e-10
1.46038e-10
1.46038e-10
1.46038e-10
1.46038e-10
1.46038e-10
1.46038e-10
1.46038e-10
1.46038e-10
1.46038e-10
1.46038e-10
1.46038e-10
1.46038e-10
1.46038e-10
1.46038e-10
1.46038e-10
1.46038e-10
1.46038e-10
1.46038e-10
1.46038e-10
1.46038e-10
1.46038e-10
1.46038e-10
1.46038e-10
1.46038e-10
1.46038e-10
1.46038e-10
1.46038e-10
1.46038e-10
1.46038e-10
1.46038e-10
1.46038e-10
1.46038e-10
1.46038e-10
1.46038e-10
1.46038e-10
1.46038e-10
1.46038e-10
1.46038e-10
1.46038e-10
1.46038e-10
1.46038e-10
1.46038e-10
1.46038e-10
1.46038e-10
1.46038e-10
1.46038e-10
1.46038e-10
1.46038e-10
1.46038e-10
1.46038e-10
1.46038e-10
1.46038e-10
1.46038e-10
1.46038e-10
1.46038e-10
1.46038e-10
1.46038e-10
1.46038e-10
1.46038e-10
1.46038e-10
1.46038e-10
1.46038e-10
1.46038e-10
1.46038e-10
1.46038e-10
1.46038e-10
1.46038e-10
1.46038e-10
1.46038e-10
1.46038e-10
1.46038e-10
1.46038e-10
1.46038e-10
1.46038e-10
1.46038e-10
1.46038e-10
1.46038e-10
1.46038e-10
1.46038e-10
1.46038e-10
1.46038e-10
1.46038e-10
1.46038e-10
1.46038e-10
1.46038e-10
1.46038e-10
1.46038e-10
1.46038e-10
1.46038e-10
1.46038e-10
1.46038e-10
1.46038e-10
1.46038e-10
1.46038e-10
1.46038e-10
1.46038e-10
1.46038e-10
1.46038e-10
1.46038e-10
1.46038e-10
1.46038e-10
1.46038e-10
1.46038e-10
1.46038e-10
1.46038e-10
1.46038e-10
1.46038e-10
1.46038e-10
1.46038e-10
1.46038e-10
1.46038e-10
1.46038e-10
1.46038e-10
1.46038e-10
1.46038e-10
1.46038e-10
1.46038e-10
1.46038e-10
1.46038e-10
1.46038e-10
1.46038e-10
1.46038e-10
1.46038e-10
1.46038e-10
1.46038e-10
1.46038e-10
1.46038e-10
1.46038e-10
1.46038e-10
1.46038e-10
1.46038e-10
1.46038e-10
1.46038e-10
1.46038e-10
1.46038e-10
1.46038e-10
1.46038e-10
1.46038e-10
1.46038e-10
1.46038e-10
1.46038e-10
1.46038e-10
1.46038e-10
1.46038e-10
1.46038e-10
1.46038e-10
1.46038e-10
1.46038e-10
1.46038e-10
1.46038e-10
1.46038e-10
1.46038e-10
1.46038e-10
1.46038e-10
1.46038e-10
1.46038e-10
1.46038e-10
1.46038e-10
1.46038e-10
1.46038e-10
1.46038e-10
1.46038e-10
1.46038e-10
1.46038e-10
1.46038e-10
1.46038e-10
1.46038e-10
1.46038e-10
1.46038e-10
1.46038e-10
1.46038e-10
1.46038e-10
1.46038e-10
1.46038e-10
1.46038e-10
1.46038e-10
1.46038e-10
1.46038e-10
1.46038e-10
1.46038e-10
1.46038e-10
1.46038e-10
1.46038e-10
1.46038e-10
1.46038e-10
1.46038e-10
1.46038e-10
1.46038e-10
1.46038e-10
1.46038e-10
1.46038e-10
1.46038e-10
1.46038e-10
1.46038e-10
1.46038e-10
1.46038e-10
1.46038e-10
1.46038e-10
1.46038e-10
1.46038e-10
1.46038e-10
1.46038e-10
1.46038e-10
1.46038e-10
1.46038e-10
1.46038e-10
1.46038e-10
1.46038e-10
1.46038e-10
1.46038e-10
1.46038e-10
1.46038e-10
1.46038e-10
1.46038e-10
1.46038e-10
1.46038e-10
1.46038e-10
1.46038e-10
1.46038e-10
1.46038e-10
1.46038e-10
1.46038e-10
1.46038e-10
1.46038e-10
1.46038e-10
1.46038e-10
1.46038e-10
1.46038e-10
1.46038e-10
1.46038e-10
1.46038e-10
1.46038e-10
1.46038e-10
1.46038e-10
1.46038e-10
1.46038e-10
1.46038e-10
1.46038e-10
1.46038e-10
1.46038e-10
1.46038e-10
1.46038e-10
1.46038e-10
1.46038e-10
1.46038e-10
1.46038e-10
1.46038e-10
1.46038e-10
1.46038e-10
1.46038e-10
1.46038e-10
1.46038e-10
1.46038e-10
1.46038e-10
1.46038e-10
1.46038e-10
1.46038e-10
1.46038e-10
1.46038e-10
1.46038e-10
1.46038e-10
1.46038e-10
1.46038e-10
1.46038e-10
1.46038e-10
1.46038e-10
1.46038e-10
1.46038e-10
1.46038e-10
1.46038e-10
1.46038e-10
1.46038e-10
1.46038e-10
1.46038e-10
1.46038e-10
1.46038e-10
1.46038e-10
1.46038e-10
1.46038e-10
1.46038e-10
1.46038e-10
1.46038e-10
1.46038e-10
1.46038e-10
1.46038e-10
1.46038e-10
1.46038e-10
1.46038e-10
1.46038e-10
1.46038e-10
1.46038e-10
1.46038e-10
1.46038e-10
1.46038e-10
1.46038e-10
1.46038e-10
1.46038e-10
1.46038e-10
1.46038e-10
1.46038e-10
1.46038e-10
1.46038e-10
1.46038e-10
1.46038e-10
1.46038e-10
1.46038e-10
1.46038e-10
1.46038e-10
1.46038e-10
1.46038e-10
1.46038e-10
1.46038e-10
1.46038e-10
1.46038e-10
1.46038e-10
1.46038e-10
1.46038e-10
1.46038e-10
1.46038e-10
1.46038e-10
1.46038e-10
1.46038e-10
1.46038e-10
1.46038e-10
1.46038e-10
1.46038e-10
1.46038e-10
1.46038e-10
1.46038e-10
1.46038e-10
1.46038e-10
1.46038e-10
1.46038e-10
1.46038e-10
1.46038e-10
1.46038e-10
1.46038e-10
1.46038e-10
1.46038e-10
1.46038e-10
1.46038e-10
1.46038e-10
1.46038e-10
1.46038e-10
1.46038e-10
1.46038e-10
1.46038e-10
1.46038e-10
1.46038e-10
1.46038e-10
1.46038e-10
1.46038e-10
1.46038e-10
1.46038e-10
1.46038e-10
1.46038e-10
1.46038e-10
1.46038e-10
1.46038e-10
1.46038e-10
1.46038e-10
1.46038e-10
1.46038e-10
1.46038e-10
1.46038e-10
1.46038e-10
1.46038e-10
1.46038e-10
1.46038e-10
1.46038e-10
1.46038e-10
1.46038e-10
1.46038e-10
1.46038e-10
1.46038e-10
1.46038e-10
1.46039e-10
1.46039e-10
1.46038e-10
1.46038e-10
1.46038e-10
1.46038e-10
1.46038e-10
1.46038e-10
1.46038e-10
1.46038e-10
1.46038e-10
1.46038e-10
1.46038e-10
1.46038e-10
1.46038e-10
1.46038e-10
1.46038e-10
1.46038e-10
1.46038e-10
1.46038e-10
1.46038e-10
1.46038e-10
1.46038e-10
1.46038e-10
1.46038e-10
1.46038e-10
1.46038e-10
1.46038e-10
1.46038e-10
1.46038e-10
1.46038e-10
1.46038e-10
1.46038e-10
1.46038e-10
1.46038e-10
1.46038e-10
1.46038e-10
1.46038e-10
1.46038e-10
1.46038e-10
1.46038e-10
1.46038e-10
1.46038e-10
1.46038e-10
1.46038e-10
1.46038e-10
1.46038e-10
1.46039e-10
1.46039e-10
1.4604e-10
1.46041e-10
1.46043e-10
1.46038e-10
1.46038e-10
1.46038e-10
1.46038e-10
1.46038e-10
1.46038e-10
1.46038e-10
1.46038e-10
1.46038e-10
1.46038e-10
1.46038e-10
1.46038e-10
1.46038e-10
1.46038e-10
1.46038e-10
1.46038e-10
1.46038e-10
1.46038e-10
1.46038e-10
1.46038e-10
1.46038e-10
1.46038e-10
1.46038e-10
1.46038e-10
1.46038e-10
1.46038e-10
1.46038e-10
1.46038e-10
1.46038e-10
1.46038e-10
1.46038e-10
1.46038e-10
1.46038e-10
1.46038e-10
1.46038e-10
1.46038e-10
1.46038e-10
1.46038e-10
1.46038e-10
1.46038e-10
1.46038e-10
1.46038e-10
1.46039e-10
1.46039e-10
1.4604e-10
1.46041e-10
1.46043e-10
1.46046e-10
1.46051e-10
1.46058e-10
1.46038e-10
1.46038e-10
1.46038e-10
1.46038e-10
1.46038e-10
1.46038e-10
1.46038e-10
1.46038e-10
1.46038e-10
1.46038e-10
1.46038e-10
1.46038e-10
1.46038e-10
1.46038e-10
1.46038e-10
1.46038e-10
1.46038e-10
1.46038e-10
1.46038e-10
1.46038e-10
1.46038e-10
1.46038e-10
1.46038e-10
1.46038e-10
1.46038e-10
1.46038e-10
1.46038e-10
1.46038e-10
1.46038e-10
1.46038e-10
1.46038e-10
1.46038e-10
1.46038e-10
1.46038e-10
1.46038e-10
1.46038e-10
1.46038e-10
1.46038e-10
1.46038e-10
1.46039e-10
1.46039e-10
1.4604e-10
1.46042e-10
1.46044e-10
1.46047e-10
1.46051e-10
1.46058e-10
1.46069e-10
1.46085e-10
1.46112e-10
1.46038e-10
1.46038e-10
1.46038e-10
1.46038e-10
1.46038e-10
1.46038e-10
1.46038e-10
1.46038e-10
1.46038e-10
1.46038e-10
1.46038e-10
1.46038e-10
1.46038e-10
1.46038e-10
1.46038e-10
1.46038e-10
1.46038e-10
1.46038e-10
1.46038e-10
1.46038e-10
1.46038e-10
1.46038e-10
1.46038e-10
1.46038e-10
1.46038e-10
1.46038e-10
1.46038e-10
1.46038e-10
1.46038e-10
1.46038e-10
1.46038e-10
1.46038e-10
1.46038e-10
1.46038e-10
1.46038e-10
1.46039e-10
1.46039e-10
1.4604e-10
1.4604e-10
1.46042e-10
1.46044e-10
1.46047e-10
1.46052e-10
1.46059e-10
1.46069e-10
1.46086e-10
1.46111e-10
1.46148e-10
1.46207e-10
1.46302e-10
1.46038e-10
1.46038e-10
1.46038e-10
1.46038e-10
1.46038e-10
1.46038e-10
1.46038e-10
1.46038e-10
1.46038e-10
1.46038e-10
1.46038e-10
1.46038e-10
1.46038e-10
1.46038e-10
1.46038e-10
1.46038e-10
1.46038e-10
1.46038e-10
1.46038e-10
1.46038e-10
1.46038e-10
1.46038e-10
1.46038e-10
1.46038e-10
1.46038e-10
1.46038e-10
1.46038e-10
1.46038e-10
1.46038e-10
1.46038e-10
1.46038e-10
1.46038e-10
1.46039e-10
1.46039e-10
1.4604e-10
1.46041e-10
1.46042e-10
1.46044e-10
1.46048e-10
1.46053e-10
1.4606e-10
1.46071e-10
1.46088e-10
1.46113e-10
1.46151e-10
1.46208e-10
1.46296e-10
1.4643e-10
1.46638e-10
1.4697e-10
1.46038e-10
1.46038e-10
1.46038e-10
1.46038e-10
1.46038e-10
1.46038e-10
1.46038e-10
1.46038e-10
1.46038e-10
1.46038e-10
1.46038e-10
1.46038e-10
1.46038e-10
1.46038e-10
1.46038e-10
1.46038e-10
1.46038e-10
1.46038e-10
1.46038e-10
1.46038e-10
1.46038e-10
1.46038e-10
1.46038e-10
1.46038e-10
1.46038e-10
1.46038e-10
1.46038e-10
1.46038e-10
1.46038e-10
1.46039e-10
1.46039e-10
1.4604e-10
1.46041e-10
1.46043e-10
1.46045e-10
1.46049e-10
1.46054e-10
1.46062e-10
1.46073e-10
1.46091e-10
1.46117e-10
1.46156e-10
1.46214e-10
1.46302e-10
1.46436e-10
1.46638e-10
1.46946e-10
1.47417e-10
1.48145e-10
1.49302e-10
1.46038e-10
1.46038e-10
1.46038e-10
1.46038e-10
1.46038e-10
1.46038e-10
1.46038e-10
1.46038e-10
1.46038e-10
1.46038e-10
1.46038e-10
1.46038e-10
1.46038e-10
1.46038e-10
1.46038e-10
1.46038e-10
1.46038e-10
1.46038e-10
1.46038e-10
1.46038e-10
1.46038e-10
1.46038e-10
1.46038e-10
1.46038e-10
1.46038e-10
1.46039e-10
1.46039e-10
1.4604e-10
1.4604e-10
1.46042e-10
1.46044e-10
1.46046e-10
1.4605e-10
1.46056e-10
1.46064e-10
1.46077e-10
1.46095e-10
1.46123e-10
1.46163e-10
1.46224e-10
1.46315e-10
1.46451e-10
1.46655e-10
1.46964e-10
1.47431e-10
1.48138e-10
1.49213e-10
1.50853e-10
1.53372e-10
1.57325e-10
1.46038e-10
1.46038e-10
1.46038e-10
1.46038e-10
1.46038e-10
1.46038e-10
1.46038e-10
1.46038e-10
1.46038e-10
1.46038e-10
1.46038e-10
1.46038e-10
1.46038e-10
1.46038e-10
1.46038e-10
1.46038e-10
1.46038e-10
1.46038e-10
1.46038e-10
1.46038e-10
1.46038e-10
1.46038e-10
1.46039e-10
1.46039e-10
1.4604e-10
1.46041e-10
1.46042e-10
1.46045e-10
1.46048e-10
1.46052e-10
1.46058e-10
1.46068e-10
1.46081e-10
1.46101e-10
1.46131e-10
1.46174e-10
1.46238e-10
1.46333e-10
1.46475e-10
1.46686e-10
1.47002e-10
1.47476e-10
1.48189e-10
1.49264e-10
1.50885e-10
1.53333e-10
1.57031e-10
1.62615e-10
1.71066e-10
1.8402e-10
1.46038e-10
1.46038e-10
1.46038e-10
1.46038e-10
1.46038e-10
1.46038e-10
1.46038e-10
1.46038e-10
1.46038e-10
1.46038e-10
1.46038e-10
1.46038e-10
1.46038e-10
1.46038e-10
1.46038e-10
1.46038e-10
1.46038e-10
1.46038e-10
1.46039e-10
1.46039e-10
1.4604e-10
1.46041e-10
1.46042e-10
1.46043e-10
1.46046e-10
1.46049e-10
1.46054e-10
1.46062e-10
1.46072e-10
1.46087e-10
1.46109e-10
1.46142e-10
1.46189e-10
1.46258e-10
1.4636e-10
1.4651e-10
1.46733e-10
1.47063e-10
1.47555e-10
1.48289e-10
1.49386e-10
1.5103e-10
1.53494e-10
1.57187e-10
1.62714e-10
1.70962e-10
1.8322e-10
2.01355e-10
2.28109e-10
2.67715e-10
1.46038e-10
1.46038e-10
1.46038e-10
1.46038e-10
1.46038e-10
1.46038e-10
1.46038e-10
1.46038e-10
1.46038e-10
1.46038e-10
1.46038e-10
1.46038e-10
1.46038e-10
1.46038e-10
1.46039e-10
1.46039e-10
1.46039e-10
1.4604e-10
1.46041e-10
1.46043e-10
1.46045e-10
1.46047e-10
1.46052e-10
1.46057e-10
1.46066e-10
1.46078e-10
1.46095e-10
1.4612e-10
1.46156e-10
1.46208e-10
1.46284e-10
1.46396e-10
1.46558e-10
1.46798e-10
1.4715e-10
1.47671e-10
1.48442e-10
1.49586e-10
1.51288e-10
1.53822e-10
1.57593e-10
1.63201e-10
1.71519e-10
1.83808e-10
2.01864e-10
2.28202e-10
2.66273e-10
3.2071e-10
3.97733e-10
5.05787e-10
1.46038e-10
1.46038e-10
1.46038e-10
1.46038e-10
1.46038e-10
1.46038e-10
1.46038e-10
1.46038e-10
1.46038e-10
1.46038e-10
1.46039e-10
1.46039e-10
1.46039e-10
1.4604e-10
1.46041e-10
1.46042e-10
1.46044e-10
1.46046e-10
1.4605e-10
1.46055e-10
1.46062e-10
1.46071e-10
1.46085e-10
1.46105e-10
1.46134e-10
1.46175e-10
1.46234e-10
1.4632e-10
1.46443e-10
1.46624e-10
1.46886e-10
1.4727e-10
1.47832e-10
1.4866e-10
1.49879e-10
1.51678e-10
1.54338e-10
1.58272e-10
1.64083e-10
1.72651e-10
1.85242e-10
2.03652e-10
2.30387e-10
2.6886e-10
3.23571e-10
4.00206e-10
5.05652e-10
6.47936e-10
8.36685e-10
1.08364e-09
1.46038e-10
1.46038e-10
1.46038e-10
1.46038e-10
1.46038e-10
1.46038e-10
1.46039e-10
1.46039e-10
1.46039e-10
1.4604e-10
1.46041e-10
1.46042e-10
1.46043e-10
1.46046e-10
1.46049e-10
1.46053e-10
1.46059e-10
1.46067e-10
1.46079e-10
1.46095e-10
1.46119e-10
1.46153e-10
1.462e-10
1.46269e-10
1.46366e-10
1.46507e-10
1.4671e-10
1.47004e-10
1.47431e-10
1.48052e-10
1.48958e-10
1.50284e-10
1.52228e-10
1.55081e-10
1.59272e-10
1.65423e-10
1.74436e-10
1.87606e-10
2.06762e-10
2.34449e-10
2.74118e-10
3.30297e-10
4.08683e-10
5.16095e-10
6.60324e-10
8.49801e-10
1.0934e-09
1.40008e-09
1.7801e-09
2.24685e-09
1.46038e-10
1.46038e-10
1.46039e-10
1.46039e-10
1.46039e-10
1.4604e-10
1.46041e-10
1.46042e-10
1.46043e-10
1.46045e-10
1.46048e-10
1.46052e-10
1.46057e-10
1.46064e-10
1.46075e-10
1.46089e-10
1.46109e-10
1.46137e-10
1.46177e-10
1.46234e-10
1.46314e-10
1.46429e-10
1.46592e-10
1.46826e-10
1.47162e-10
1.47646e-10
1.48346e-10
1.49361e-10
1.50835e-10
1.5298e-10
1.56108e-10
1.60669e-10
1.67321e-10
1.77008e-10
1.91076e-10
2.11424e-10
2.40674e-10
2.82365e-10
3.4111e-10
4.22684e-10
5.33965e-10
6.82775e-10
8.77562e-10
1.12707e-09
1.44003e-09
1.82438e-09
2.28762e-09
2.83647e-09
3.47871e-09
4.22895e-09
1.46039e-10
1.46039e-10
1.4604e-10
1.46041e-10
1.46042e-10
1.46043e-10
1.46045e-10
1.46048e-10
1.46051e-10
1.46056e-10
1.46063e-10
1.46072e-10
1.46085e-10
1.46103e-10
1.46128e-10
1.46163e-10
1.46211e-10
1.4628e-10
1.46376e-10
1.46513e-10
1.46706e-10
1.46981e-10
1.47374e-10
1.47935e-10
1.48742e-10
1.49902e-10
1.51576e-10
1.53996e-10
1.575e-10
1.62576e-10
1.69929e-10
1.80567e-10
1.95919e-10
2.17988e-10
2.49521e-10
2.94194e-10
3.56758e-10
4.43113e-10
5.60242e-10
7.16028e-10
9.18991e-10
1.17791e-09
1.50158e-09
1.89809e-09
2.37489e-09
2.93827e-09
3.59294e-09
4.34077e-09
5.18142e-09
6.11785e-09
7.17647e-09
1.46042e-10
1.46043e-10
1.46045e-10
1.46048e-10
1.46051e-10
1.46056e-10
1.46062e-10
1.46071e-10
1.46083e-10
1.46099e-10
1.46122e-10
1.46154e-10
1.46197e-10
1.46258e-10
1.46342e-10
1.46461e-10
1.46627e-10
1.46861e-10
1.47191e-10
1.4766e-10
1.48326e-10
1.49275e-10
1.50632e-10
1.52576e-10
1.55368e-10
1.59381e-10
1.65157e-10
1.73466e-10
1.85407e-10
2.02527e-10
2.26972e-10
2.61664e-10
3.1047e-10
3.78334e-10
4.7133e-10
5.96581e-10
7.62065e-10
9.76367e-10
1.24831e-09
1.58666e-09
1.99977e-09
2.49501e-09
3.07898e-09
3.75675e-09
4.53088e-09
5.40077e-09
6.36424e-09
7.41972e-09
8.56872e-09
9.81905e-09
1.12184e-08
1.46048e-10
1.46052e-10
1.46056e-10
1.46062e-10
1.46071e-10
1.46083e-10
1.46098e-10
1.4612e-10
1.46149e-10
1.4619e-10
1.46246e-10
1.46323e-10
1.46429e-10
1.46577e-10
1.46784e-10
1.47074e-10
1.47479e-10
1.48051e-10
1.48858e-10
1.50001e-10
1.51623e-10
1.53933e-10
1.57227e-10
1.6193e-10
1.68651e-10
1.78254e-10
1.91959e-10
2.11468e-10
2.39123e-10
2.78072e-10
3.3243e-10
4.07388e-10
5.09241e-10
6.45288e-10
8.23626e-10
1.05289e-09
1.34194e-09
1.69954e-09
2.13412e-09
2.65307e-09
3.2631e-09
3.96948e-09
4.77545e-09
5.68104e-09
6.68404e-09
7.78186e-09
8.97369e-09
1.02613e-08
1.16484e-08
1.3142e-08
1.47531e-08
1.65465e-08
1.46072e-10
1.46084e-10
1.461e-10
1.46121e-10
1.46149e-10
1.46188e-10
1.46242e-10
1.46314e-10
1.46414e-10
1.46552e-10
1.46742e-10
1.47005e-10
1.4737e-10
1.4788e-10
1.48594e-10
1.49594e-10
1.51002e-10
1.52988e-10
1.55795e-10
1.59771e-10
1.6541e-10
1.73412e-10
1.84764e-10
2.00847e-10
2.23567e-10
2.55516e-10
3.00127e-10
3.61822e-10
4.46091e-10
5.59488e-10
7.09516e-10
9.04404e-10
1.15284e-09
1.4637e-09
1.84573e-09
2.3073e-09
2.85588e-09
3.49811e-09
4.23942e-09
5.08346e-09
6.0309e-09
7.07959e-09
8.22638e-09
9.46917e-09
1.08087e-08
1.22472e-08
1.37893e-08
1.5441e-08
1.72087e-08
1.91017e-08
2.11332e-08
2.33802e-08
1.46154e-10
1.46193e-10
1.46245e-10
1.46317e-10
1.46414e-10
1.46547e-10
1.46728e-10
1.46976e-10
1.47319e-10
1.47792e-10
1.48447e-10
1.49358e-10
1.50628e-10
1.52403e-10
1.54891e-10
1.58383e-10
1.63297e-10
1.70216e-10
1.79965e-10
1.93692e-10
2.12988e-10
2.40022e-10
2.77695e-10
3.29792e-10
4.011e-10
4.97454e-10
6.25698e-10
7.93555e-10
1.00938e-09
1.28191e-09
1.62001e-09
2.03237e-09
2.52726e-09
3.11218e-09
3.79358e-09
4.577e-09
5.46627e-09
6.46253e-09
7.56386e-09
8.7668e-09
1.00683e-08
1.14675e-08
1.29658e-08
1.45663e-08
1.62752e-08
1.80972e-08
2.00392e-08
2.21107e-08
2.43161e-08
2.66679e-08
2.91883e-08
3.19648e-08
1.46429e-10
1.46561e-10
1.46741e-10
1.46985e-10
1.47319e-10
1.47775e-10
1.48402e-10
1.49264e-10
1.50456e-10
1.52106e-10
1.54399e-10
1.57589e-10
1.6204e-10
1.68256e-10
1.76948e-10
1.89102e-10
2.06079e-10
2.29739e-10
2.62582e-10
3.07889e-10
3.69863e-10
4.53706e-10
5.65636e-10
7.12811e-10
9.0317e-10
1.14519e-09
1.44762e-09
1.81928e-09
2.26876e-09
2.80419e-09
3.43302e-09
4.16151e-09
4.99516e-09
5.9378e-09
6.99088e-09
8.15277e-09
9.4198e-09
1.0788e-08
1.22554e-08
1.38224e-08
1.5491e-08
1.72658e-08
1.91518e-08
2.11544e-08
2.32837e-08
2.55437e-08
2.79407e-08
3.04947e-08
3.32086e-08
3.60873e-08
3.91505e-08
4.25115e-08
1.47371e-10
1.47829e-10
1.48451e-10
1.49301e-10
1.50465e-10
1.52062e-10
1.5426e-10
1.57292e-10
1.61485e-10
1.67293e-10
1.75348e-10
1.86523e-10
2.02023e-10
2.23486e-10
2.53115e-10
2.93814e-10
3.49322e-10
4.24316e-10
5.24463e-10
6.56383e-10
8.27548e-10
1.0461e-09
1.3206e-09
1.65979e-09
2.0724e-09
2.56685e-09
3.15112e-09
3.83246e-09
4.61695e-09
5.50993e-09
6.51507e-09
7.63409e-09
8.86556e-09
1.02055e-08
1.16494e-08
1.31941e-08
1.48391e-08
1.65852e-08
1.84357e-08
2.03959e-08
2.24697e-08
2.46657e-08
2.69906e-08
2.94471e-08
3.20539e-08
3.48183e-08
3.77424e-08
4.08348e-08
4.41071e-08
4.75717e-08
5.12528e-08
5.52811e-08
1.50658e-10
1.52266e-10
1.5446e-10
1.5746e-10
1.61572e-10
1.67218e-10
1.74982e-10
1.85665e-10
2.00367e-10
2.20576e-10
2.48288e-10
2.86131e-10
3.37499e-10
4.06657e-10
4.98814e-10
6.2012e-10
7.77601e-10
9.79021e-10
1.23269e-09
1.54721e-09
1.93126e-09
2.39342e-09
2.94192e-09
3.58449e-09
4.32813e-09
5.17866e-09
6.14114e-09
7.21915e-09
8.41434e-09
9.72536e-09
1.11481e-08
1.26774e-08
1.43094e-08
1.60424e-08
1.78759e-08
1.98126e-08
2.1857e-08
2.40121e-08
2.62856e-08
2.86858e-08
3.12132e-08
3.38826e-08
3.67067e-08
3.96886e-08
4.28329e-08
4.61501e-08
4.96531e-08
5.33503e-08
5.7258e-08
6.13929e-08
6.57827e-08
7.05704e-08
1.62318e-10
1.68032e-10
1.7582e-10
1.86446e-10
2.00946e-10
2.20716e-10
2.4762e-10
2.84101e-10
3.33308e-10
3.99205e-10
4.86643e-10
6.0139e-10
7.50085e-10
9.40132e-10
1.17954e-09
1.47672e-09
1.84027e-09
2.27873e-09
2.80046e-09
3.41345e-09
4.12513e-09
4.94218e-09
5.87007e-09
6.91353e-09
8.07592e-09
9.35867e-09
1.07603e-08
1.22766e-08
1.39021e-08
1.56319e-08
1.74632e-08
1.9395e-08
2.1429e-08
2.35681e-08
2.58152e-08
2.81773e-08
3.06625e-08
3.32709e-08
3.60159e-08
3.89097e-08
4.19588e-08
4.51655e-08
4.85393e-08
5.20919e-08
5.58326e-08
5.97739e-08
6.39323e-08
6.83213e-08
7.29536e-08
7.78455e-08
8.30294e-08
8.8665e-08
2.23971e-10
2.51104e-10
2.876e-10
3.36454e-10
4.01426e-10
4.87118e-10
5.99003e-10
7.43408e-10
9.27425e-10
1.15878e-09
1.44564e-09
1.79647e-09
2.21974e-09
2.72381e-09
3.31675e-09
4.00624e-09
4.79933e-09
5.7023e-09
6.72024e-09
7.85747e-09
9.11703e-09
1.05e-08
1.20047e-08
1.36266e-08
1.53598e-08
1.71986e-08
1.91395e-08
2.11809e-08
2.33228e-08
2.55676e-08
2.79182e-08
3.03805e-08
3.29605e-08
3.5661e-08
3.84932e-08
4.14661e-08
4.45912e-08
4.78722e-08
5.1313e-08
5.49258e-08
5.87218e-08
6.27094e-08
6.69051e-08
7.13231e-08
7.59757e-08
8.08761e-08
8.60392e-08
9.14796e-08
9.72148e-08
1.03281e-07
1.09856e-07
4.13779e-10
5.00613e-10
6.13211e-10
7.57668e-10
9.40825e-10
1.17016e-09
1.45361e-09
1.79943e-09
2.21601e-09
2.71163e-09
3.29436e-09
3.97194e-09
4.75163e-09
5.64008e-09
6.64307e-09
7.76522e-09
9.01041e-09
1.03812e-08
1.18782e-08
1.34995e-08
1.52402e-08
1.70936e-08
1.90537e-08
2.11163e-08
2.32784e-08
2.55398e-08