/*--------------------------------*- C++ -*----------------------------------*\
| =========                 |                                                 |
| \\      /  F ield         | OpenFOAM: The Open Source CFD Toolbox           |
|  \\    /   O peration     | Version:  v1706                                 |
|   \\  /    A nd           | Web:      www.OpenFOAM.com                      |
|    \\/     M anipulation  |                                                 |
\*---------------------------------------------------------------------------*/
FoamFile
{
    version     2.0;
    format      ascii;
    class       volScalarField;
    location    "3.5e-05";
    object      Mach;
}
// * * * * * * * * * * * * * * * * * * * * * * * * * * * * * * * * * * * * * //

dimensions      [0 0 0 0 0 0 0];


internalField   nonuniform List<scalar> 
30038
(
7.18506
7.18506
7.18506
7.18506
7.18506
7.18506
7.18506
7.18506
7.18506
7.18506
7.18506
7.18506
7.18506
7.18506
7.18506
7.18506
7.18506
7.18506
7.18506
7.18506
7.18506
7.18506
7.18506
7.18506
7.18506
7.18506
7.18506
7.18506
7.18506
7.18506
7.18506
7.18506
7.18506
7.18506
7.18506
7.18506
7.18506
7.18506
7.18506
7.18506
7.18506
7.18506
7.18506
7.18506
7.18506
7.18506
7.18506
7.18506
7.18506
7.18506
7.18506
7.18506
7.18506
7.18506
7.18506
7.18506
7.18506
7.18506
7.18506
7.18506
7.18506
7.18506
7.18506
7.18506
7.18506
7.18506
7.18506
7.18506
7.18506
7.18506
7.18506
7.18506
7.18506
7.18506
7.18506
7.18506
7.18506
7.18506
7.18506
7.18506
7.18506
7.18506
7.18506
7.18506
7.18506
7.18506
7.18506
7.18506
7.18506
7.18506
7.18506
7.18506
7.18506
7.18506
7.18506
7.18506
7.18506
7.18506
7.18506
7.18506
7.18506
7.18506
7.18506
7.18506
7.18506
7.18506
7.18506
7.18506
7.18506
7.18506
7.18506
7.18506
7.18506
7.18506
7.18506
7.18506
7.18506
7.18506
7.18506
7.18506
7.18506
7.18506
7.18506
7.18506
7.18506
7.18506
7.18506
7.18506
7.18506
7.18506
7.18506
7.18506
7.18506
7.18506
7.18506
7.18506
7.18506
7.18506
7.18506
7.18506
7.18506
7.18506
7.18506
7.18506
7.18506
7.18506
7.18506
7.18506
7.18506
7.18506
7.18506
7.18506
7.18506
7.18506
7.18506
7.18506
7.18506
7.18506
7.18506
7.18506
7.18506
7.18506
7.18506
7.18506
7.18506
7.18506
7.18506
7.18506
7.18506
7.18506
7.18506
7.18506
7.18506
7.18506
7.18506
7.18506
7.18506
7.18506
7.18506
7.18506
7.18506
7.18506
7.18506
7.18506
7.18506
7.18506
7.18506
7.18506
7.18506
7.18506
7.18506
7.18506
7.18506
7.18506
7.18506
7.18506
7.18506
7.18506
7.18506
7.18506
7.18506
7.18506
7.18506
7.18506
7.18506
7.18506
7.18506
7.18506
7.18506
7.18506
7.18506
7.18506
7.18506
7.18506
7.18506
7.18506
7.18506
7.18506
7.18506
7.18506
7.18506
7.18506
7.18506
7.18506
7.18506
7.18506
7.18506
7.18506
7.18506
7.18506
7.18506
7.18506
7.18506
7.18506
7.18506
7.18506
7.18506
7.18506
7.18506
7.18506
7.18506
7.18506
7.18506
7.18506
7.18506
7.18506
7.18506
7.18506
7.18506
7.18506
7.18506
7.18506
7.18506
7.18506
7.18506
7.18506
7.18506
7.18506
7.18506
7.18506
7.18506
7.18506
7.18506
7.18506
7.18506
7.18506
7.18506
7.18506
7.18506
7.18506
7.18506
7.18506
7.18506
7.18506
7.18506
7.18506
7.18506
7.18506
7.18506
7.18506
7.18506
7.18506
7.18506
7.18506
7.18506
7.18506
7.18506
7.18506
7.18506
7.18506
7.18506
7.18506
7.18506
7.18506
7.18506
7.18506
7.18506
7.18506
7.18506
7.18506
7.18506
7.18506
7.18506
7.18506
7.18506
7.18506
7.18506
7.18506
7.18506
7.18506
7.18506
7.18506
7.18506
7.18506
7.18506
7.18506
7.18506
7.18506
7.18506
7.18506
7.18506
7.18506
7.18506
7.18506
7.18506
7.18506
7.18506
7.18506
7.18506
7.18506
7.18506
7.18506
7.18506
7.18506
7.18506
7.18506
7.18506
7.18506
7.18506
7.18506
7.18506
7.18506
7.18506
7.18506
7.18506
7.18506
7.18506
7.18506
7.18506
7.18506
7.18506
7.18506
7.18506
7.18506
7.18506
7.18506
7.18506
7.18506
7.18506
7.18506
7.18506
7.18506
7.18506
7.18506
7.18506
7.18506
7.18506
7.18506
7.18506
7.18506
7.18506
7.18506
7.18506
7.18506
7.18506
7.18506
7.18506
7.18506
7.18506
7.18506
7.18506
7.18506
7.18506
7.18506
7.18506
7.18506
7.18506
7.18506
7.18506
7.18506
7.18506
7.18506
7.18506
7.18506
7.18506
7.18506
7.18506
7.18506
7.18506
7.18506
7.18506
7.18506
7.18506
7.18506
7.18506
7.18506
7.18506
7.18506
7.18506
7.18506
7.18506
7.18506
7.18506
7.18506
7.18506
7.18506
7.18506
7.18506
7.18506
7.18506
7.18506
7.18506
7.18506
7.18506
7.18506
7.18506
7.18506
7.18506
7.18506
7.18506
7.18506
7.18506
7.18506
7.18506
7.18506
7.18506
7.18506
7.18506
7.18506
7.18506
7.18506
7.18506
7.18506
7.18506
7.18506
7.18506
7.18506
7.18506
7.18506
7.18506
7.18506
7.18506
7.18506
7.18506
7.18506
7.18506
7.18506
7.18506
7.18506
7.18506
7.18506
7.18506
7.18506
7.18506
7.18506
7.18506
7.18506
7.18506
7.18506
7.18506
7.18506
7.18506
7.18506
7.18506
7.18506
7.18506
7.18506
7.18506
7.18506
7.18506
7.18506
7.18506
7.18506
7.18506
7.18506
7.18506
7.18506
7.18506
7.18506
7.18506
7.18506
7.18506
7.18506
7.18506
7.18506
7.18506
7.18506
7.18506
7.18506
7.18506
7.18506
7.18506
7.18506
7.18506
7.18506
7.18506
7.18506
7.18506
7.18506
7.18506
7.18506
7.18506
7.18506
7.18506
7.18506
7.18506
7.18506
7.18506
7.18506
7.18506
7.18506
7.18506
7.18506
7.18506
7.18506
7.18506
7.18506
7.18506
7.18506
7.18506
7.18506
7.18506
7.18506
7.18506
7.18506
7.18506
7.18506
7.18506
7.18506
7.18506
7.18506
7.18506
7.18506
7.18506
7.18506
7.18506
7.18506
7.18506
7.18506
7.18506
7.18506
7.18506
7.18506
7.18506
7.18506
7.18506
7.18506
7.18506
7.18506
7.18506
7.18506
7.18506
7.18506
7.18506
7.18506
7.18506
7.18506
7.18506
7.18506
7.18506
7.18506
7.18506
7.18506
7.18506
7.18506
7.18506
7.18506
7.18506
7.18506
7.18506
7.18506
7.18506
7.18506
7.18506
7.18506
7.18506
7.18506
7.18506
7.18506
7.18506
7.18506
7.18506
7.18506
7.18506
7.18506
7.18506
7.18506
7.18506
7.18506
7.18506
7.18506
7.18506
7.18506
7.18506
7.18506
7.18506
7.18506
7.18506
7.18506
7.18506
7.18506
7.18506
7.18506
7.18506
7.18506
7.18506
7.18506
7.18506
7.18506
7.18506
7.18506
7.18506
7.18506
7.18506
7.18506
7.18506
7.18506
7.18506
7.18506
7.18506
7.18506
7.18506
7.18506
7.18506
7.18506
7.18506
7.18506
7.18506
7.18506
7.18506
7.18506
7.18506
7.18506
7.18506
7.18506
7.18506
7.18506
7.18506
7.18506
7.18506
7.18506
7.18506
7.18506
7.18506
7.18506
7.18506
7.18506
7.18506
7.18506
7.18506
7.18506
7.18506
7.18506
7.18506
7.18506
7.18506
7.18506
7.18506
7.18506
7.18506
7.18506
7.18506
7.18506
7.18506
7.18506
7.18506
7.18506
7.18506
7.18506
7.18506
7.18506
7.18506
7.18506
7.18506
7.18506
7.18506
7.18506
7.18506
7.18506
7.18506
7.18506
7.18506
7.18506
7.18506
7.18506
7.18506
7.18506
7.18506
7.18506
7.18506
7.18506
7.18506
7.18506
7.18506
7.18506
7.18506
7.18506
7.18506
7.18506
7.18506
7.18506
7.18506
7.18506
7.18506
7.18506
7.18506
7.18506
7.18506
7.18506
7.18506
7.18506
7.18506
7.18506
7.18506
7.18506
7.18506
7.18506
7.18506
7.18506
7.18506
7.18506
7.18506
7.18506
7.18506
7.18506
7.18506
7.18506
7.18506
7.18506
7.18506
7.18506
7.18506
7.18506
7.18506
7.18506
7.18506
7.18506
7.18506
7.18506
7.18506
7.18506
7.18506
7.18506
7.18506
7.18506
7.18506
7.18506
7.18506
7.18506
7.18506
7.18506
7.18506
7.18506
7.18506
7.18506
7.18506
7.18506
7.18506
7.18506
7.18506
7.18506
7.18506
7.18506
7.18506
7.18506
7.18506
7.18506
7.18506
7.18506
7.18506
7.18506
7.18506
7.18506
7.18506
7.18506
7.18506
7.18506
7.18506
7.18506
7.18506
7.18506
7.18506
7.18506
7.18506
7.18506
7.18506
7.18506
7.18506
7.18506
7.18506
7.18506
7.18506
7.18506
7.18506
7.18506
7.18506
7.18506
7.18506
7.18506
7.18506
7.18506
7.18506
7.18506
7.18506
7.18506
7.18506
7.18506
7.18506
7.18506
7.18506
7.18506
7.18506
7.18506
7.18506
7.18506
7.18506
7.18506
7.18506
7.18506
7.18506
7.18506
7.18506
7.18506
7.18506
7.18506
7.18506
7.18506
7.18506
7.18506
7.18506
7.18506
7.18506
7.18506
7.18506
7.18506
7.18506
7.18506
7.18506
7.18506
7.18506
7.18506
7.18506
7.18506
7.18506
7.18506
7.18506
7.18506
7.18506
7.18506
7.18506
7.18506
7.18506
7.18506
7.18506
7.18506
7.18506
7.18506
7.18506
7.18506
7.18506
7.18506
7.18506
7.18506
7.18506
7.18506
7.18506
7.18506
7.18506
7.18506
7.18506
7.18506
7.18506
7.18506
7.18506
7.18506
7.18506
7.18506
7.18506
7.18506
7.18506
7.18506
7.18506
7.18506
7.18506
7.18506
7.18506
7.18506
7.18506
7.18506
7.18506
7.18506
7.18506
7.18506
7.18506
7.18506
7.18506
7.18506
7.18506
7.18506
7.18506
7.18506
7.18506
7.18506
7.18506
7.18506
7.18506
7.18506
7.18506
7.18506
7.18506
7.18506
7.18506
7.18506
7.18506
7.18506
7.18506
7.18506
7.18506
7.18506
7.18506
7.18506
7.18506
7.18506
7.18506
7.18506
7.18506
7.18506
7.18506
7.18506
7.18506
7.18506
7.18506
7.18506
7.18506
7.18506
7.18506
7.18506
7.18506
7.18506
7.18506
7.18506
7.18506
7.18506
7.18506
7.18506
7.18506
7.18506
7.18506
7.18506
7.18506
7.18506
7.18506
7.18506
7.18506
7.18506
7.18506
7.18506
7.18506
7.18506
7.18506
7.18506
7.18506
7.18506
7.18506
7.18506
7.18506
7.18506
7.18506
7.18506
7.18506
7.18506
7.18506
7.18506
7.18506
7.18506
7.18506
7.18506
7.18506
7.18506
7.18506
7.18506
7.18506
7.18506
7.18506
7.18506
7.18506
7.18506
7.18506
7.18506
7.18506
7.18506
7.18506
7.18506
7.18506
7.18506
7.18506
7.18506
7.18506
7.18506
7.18506
7.18506
7.18506
7.18506
7.18506
7.18506
7.18506
7.18506
7.18506
7.18506
7.18506
7.18506
7.18506
7.18506
7.18506
7.18506
7.18506
7.18506
7.18506
7.18506
7.18506
7.18506
7.18506
7.18506
7.18506
7.18506
7.18506
7.18506
7.18506
7.18506
7.18506
7.18506
7.18506
7.18506
7.18506
7.18506
7.18506
7.18506
7.18506
7.18506
7.18506
7.18506
7.18506
7.18506
7.18506
7.18506
7.18506
7.18506
7.18506
7.18506
7.18506
7.18506
7.18506
7.18506
7.18506
7.18506
7.18506
7.18506
7.18506
7.18506
7.18506
7.18506
7.18506
7.18506
7.18506
7.18506
7.18506
7.18506
7.18506
7.18506
7.18506
7.18506
7.18506
7.18506
7.18506
7.18506
7.18506
7.18506
7.18506
7.18506
7.18506
7.18506
7.18506
7.18506
7.18506
7.18506
7.18506
7.18506
7.18506
7.18506
7.18506
7.18506
7.18506
7.18506
7.18506
7.18506
7.18506
7.18506
7.18506
7.18506
7.18506
7.18506
7.18506
7.18506
7.18506
7.18506
7.18506
7.18506
7.18506
7.18506
7.18506
7.18506
7.18506
7.18506
7.18506
7.18506
7.18506
7.18506
7.18506
7.18506
7.18506
7.18506
7.18506
7.18506
7.18506
7.18506
7.18506
7.18506
7.18506
7.18506
7.18506
7.18506
7.18506
7.18506
7.18506
7.18506
7.18506
7.18506
7.18506
7.18506
7.18506
7.18506
7.18506
7.18506
7.18506
7.18506
7.18506
7.18506
7.18506
7.18506
7.18506
7.18506
7.18506
7.18506
7.18506
7.18506
7.18506
7.18506
7.18506
7.18506
7.18506
7.18506
7.18506
7.18506
7.18506
7.18506
7.18506
7.18506
7.18506
7.18506
7.18506
7.18506
7.18506
7.18506
7.18506
7.18506
7.18506
7.18506
7.18506
7.18506
7.18506
7.18506
7.18505
7.18506
7.18506
7.18506
7.18506
7.18506
7.18506
7.18506
7.18506
7.18506
7.18506
7.18506
7.18506
7.18506
7.18506
7.18506
7.18506
7.18506
7.18506
7.18506
7.18506
7.18506
7.18506
7.18506
7.18506
7.18506
7.18506
7.18506
7.18506
7.18506
7.18506
7.18506
7.18506
7.18506
7.18506
7.18506
7.18506
7.18506
7.18506
7.18506
7.18506
7.18506
7.18506
7.18506
7.18506
7.18506
7.18505
7.18505
7.18504
7.18503
7.18501
7.18506
7.18506
7.18506
7.18506
7.18506
7.18506
7.18506
7.18506
7.18506
7.18506
7.18506
7.18506
7.18506
7.18506
7.18506
7.18506
7.18506
7.18506
7.18506
7.18506
7.18506
7.18506
7.18506
7.18506
7.18506
7.18506
7.18506
7.18506
7.18506
7.18506
7.18506
7.18506
7.18506
7.18506
7.18506
7.18506
7.18506
7.18506
7.18506
7.18506
7.18506
7.18506
7.18505
7.18505
7.18504
7.18503
7.18501
7.18498
7.18493
7.18486
7.18506
7.18506
7.18506
7.18506
7.18506
7.18506
7.18506
7.18506
7.18506
7.18506
7.18506
7.18506
7.18506
7.18506
7.18506
7.18506
7.18506
7.18506
7.18506
7.18506
7.18506
7.18506
7.18506
7.18506
7.18506
7.18506
7.18506
7.18506
7.18506
7.18506
7.18506
7.18506
7.18506
7.18506
7.18506
7.18506
7.18506
7.18506
7.18506
7.18505
7.18505
7.18504
7.18503
7.18501
7.18498
7.18493
7.18486
7.18476
7.18459
7.18432
7.18506
7.18506
7.18506
7.18506
7.18506
7.18506
7.18506
7.18506
7.18506
7.18506
7.18506
7.18506
7.18506
7.18506
7.18506
7.18506
7.18506
7.18506
7.18506
7.18506
7.18506
7.18506
7.18506
7.18506
7.18506
7.18506
7.18506
7.18506
7.18506
7.18506
7.18506
7.18506
7.18506
7.18506
7.18506
7.18506
7.18505
7.18505
7.18504
7.18502
7.185
7.18497
7.18492
7.18485
7.18475
7.18458
7.18434
7.18396
7.18337
7.18244
7.18506
7.18506
7.18506
7.18506
7.18506
7.18506
7.18506
7.18506
7.18506
7.18506
7.18506
7.18506
7.18506
7.18506
7.18506
7.18506
7.18506
7.18506
7.18506
7.18506
7.18506
7.18506
7.18506
7.18506
7.18506
7.18506
7.18506
7.18506
7.18506
7.18506
7.18506
7.18506
7.18505
7.18505
7.18504
7.18503
7.18502
7.185
7.18496
7.18491
7.18484
7.18473
7.18456
7.18431
7.18393
7.18336
7.18249
7.18118
7.17915
7.17596
7.18506
7.18506
7.18506
7.18506
7.18506
7.18506
7.18506
7.18506
7.18506
7.18506
7.18506
7.18506
7.18506
7.18506
7.18506
7.18506
7.18506
7.18506
7.18506
7.18506
7.18506
7.18506
7.18506
7.18506
7.18506
7.18506
7.18506
7.18506
7.18506
7.18505
7.18505
7.18504
7.18503
7.18501
7.18499
7.18495
7.1849
7.18482
7.1847
7.18453
7.18427
7.18388
7.1833
7.18242
7.18112
7.17915
7.17619
7.17171
7.16487
7.15424
7.18506
7.18506
7.18506
7.18506
7.18506
7.18506
7.18506
7.18506
7.18506
7.18506
7.18506
7.18506
7.18506
7.18506
7.18506
7.18506
7.18506
7.18506
7.18506
7.18506
7.18506
7.18506
7.18506
7.18506
7.18506
7.18506
7.18505
7.18504
7.18504
7.18502
7.185
7.18498
7.18494
7.18488
7.18479
7.18467
7.18448
7.1842
7.1838
7.18319
7.1823
7.18097
7.17898
7.17603
7.17161
7.16502
7.15515
7.14039
7.11813
7.08429
7.18506
7.18506
7.18506
7.18506
7.18506
7.18506
7.18506
7.18506
7.18506
7.18506
7.18506
7.18506
7.18506
7.18506
7.18506
7.18506
7.18506
7.18506
7.18506
7.18506
7.18506
7.18506
7.18505
7.18505
7.18504
7.18503
7.18502
7.18499
7.18496
7.18492
7.18485
7.18476
7.18462
7.18442
7.18412
7.18369
7.18305
7.18211
7.18073
7.17869
7.17567
7.17122
7.16462
7.15485
7.1404
7.11907
7.08766
7.0417
6.97456
6.87725
7.18506
7.18506
7.18506
7.18506
7.18506
7.18506
7.18506
7.18506
7.18506
7.18506
7.18506
7.18506
7.18506
7.18506
7.18506
7.18506
7.18506
7.18506
7.18505
7.18505
7.18504
7.18504
7.18502
7.18501
7.18498
7.18495
7.18489
7.18482
7.18471
7.18456
7.18433
7.18401
7.18354
7.18285
7.18185
7.18039
7.17826
7.17513
7.17054
7.16381
7.15394
7.13947
7.11831
7.08747
7.0428
6.97872
6.88807
6.76241
6.59197
6.36886
7.18506
7.18506
7.18506
7.18506
7.18506
7.18506
7.18506
7.18506
7.18506
7.18506
7.18506
7.18506
7.18506
7.18506
7.18506
7.18505
7.18505
7.18504
7.18503
7.18501
7.18499
7.18496
7.18492
7.18486
7.18478
7.18465
7.18448
7.18423
7.18387
7.18334
7.18259
7.18151
7.17994
7.17766
7.17435
7.16955
7.16256
7.15241
7.13766
7.11628
7.0854
7.04107
6.97803
6.88965
6.76816
6.60561
6.39551
6.13525
5.82653
5.48048
7.18506
7.18506
7.18506
7.18506
7.18506
7.18506
7.18506
7.18506
7.18506
7.18506
7.18506
7.18505
7.18505
7.18504
7.18503
7.18502
7.185
7.18498
7.18494
7.18489
7.18482
7.18472
7.18458
7.18437
7.18409
7.18368
7.18309
7.18225
7.18105
7.17933
7.17686
7.1733
7.16818
7.1608
7.15018
7.13488
7.1129
7.08144
7.0367
6.97364
6.88599
6.76646
6.60767
6.40365
6.152
5.85579
5.52395
5.17036
4.80823
4.45479
7.18506
7.18506
7.18506
7.18506
7.18506
7.18506
7.18506
7.18505
7.18505
7.18504
7.18503
7.18502
7.18501
7.18498
7.18495
7.18491
7.18485
7.18476
7.18464
7.18447
7.18423
7.1839
7.18343
7.18276
7.18181
7.18046
7.17854
7.17581
7.17192
7.16636
7.15843
7.14711
7.13097
7.10799
7.07541
7.02951
6.96543
6.87718
6.75792
6.60076
6.40024
6.15422
5.86555
5.54266
5.19833
4.84704
4.50195
4.17365
3.86684
3.58853
7.18506
7.18506
7.18506
7.18505
7.18505
7.18504
7.18503
7.18502
7.18501
7.18499
7.18496
7.18492
7.18486
7.18479
7.18468
7.18454
7.18433
7.18405
7.18365
7.1831
7.18232
7.18122
7.17968
7.17751
7.17444
7.17011
7.16398
7.15531
7.14305
7.12572
7.10129
7.06699
7.01915
6.95303
6.86289
6.74229
6.58487
6.38573
6.14314
5.86001
5.54429
5.2079
4.86438
4.52629
4.20351
3.90278
3.62758
3.37975
3.15698
2.96178
7.18505
7.18504
7.18503
7.18502
7.18501
7.18499
7.18496
7.18492
7.18487
7.1848
7.18471
7.18458
7.1844
7.18415
7.18381
7.18333
7.18267
7.18174
7.18046
7.17867
7.17616
7.17266
7.16775
7.16088
7.15124
7.13773
7.11882
7.09243
7.05575
7.00511
6.93588
6.84253
6.71901
6.55951
6.3598
6.11872
5.83942
5.52959
5.20047
4.86465
4.53382
4.21724
3.92126
3.64953
3.40347
3.1833
2.98819
2.81799
2.67109
2.54909
7.18502
7.18501
7.18499
7.18496
7.18493
7.18488
7.18481
7.18472
7.1846
7.18443
7.18421
7.1839
7.18347
7.18289
7.18209
7.18098
7.17944
7.17733
7.17439
7.17032
7.16468
7.15683
7.14594
7.13081
7.10986
7.0809
7.04107
6.98668
6.91318
6.81525
6.68722
6.52393
6.32187
6.08058
5.80363
5.49864
5.17625
4.84815
4.52513
4.2157
3.9257
3.65854
3.41569
3.19734
3.0029
2.83176
2.68366
2.55877
2.45761
2.37856
2.31938
7.18492
7.18487
7.18481
7.18472
7.1846
7.18445
7.18423
7.18395
7.18355
7.18302
7.18229
7.1813
7.17995
7.17809
7.17555
7.17205
7.16725
7.16064
7.15155
7.13904
7.12185
7.09826
7.066
7.02212
6.96291
6.88385
6.77987
6.64576
6.47702
6.271
6.02806
5.75229
5.45134
5.13533
4.81507
4.5004
4.199
3.91612
3.65484
3.41654
3.20139
3.00888
2.83834
2.68934
2.562
2.4567
2.37325
2.31
2.26422
2.23212
2.2098
7.18471
7.18459
7.18444
7.18423
7.18395
7.18358
7.18307
7.18239
7.18148
7.18024
7.17855
7.17627
7.17316
7.16893
7.16317
7.15532
7.14462
7.13004
7.11019
7.08324
7.0468
6.99781
6.93251
6.84649
6.73493
6.59314
6.41742
6.20607
5.96035
5.68495
5.38758
5.07785
4.76569
4.45994
4.1674
3.89268
3.63846
3.40594
3.19525
3.00595
2.83731
2.68887
2.56056
2.45276
2.36559
2.29814
2.24824
2.21279
2.18849
2.17221
2.16161
2.15445
7.18392
7.18355
7.18306
7.1824
7.18152
7.18034
7.17876
7.17664
7.17378
7.16993
7.16474
7.15772
7.14825
7.13547
7.11821
7.09498
7.06377
7.02206
6.96669
6.89387
6.7993
6.67854
6.52753
6.34347
6.1257
5.87647
5.60105
5.30719
5.00394
4.70033
4.40414
4.1213
3.85569
3.6096
3.38397
3.17889
2.99393
2.8284
2.68178
2.55388
2.44499
2.35543
2.28477
2.23146
2.19285
2.16596
2.14782
2.13592
2.1285
2.1237
2.12135
2.12015
7.18144
7.18029
7.17875
7.17671
7.17399
7.17036
7.16552
7.15904
7.15037
7.13878
7.12328
7.10259
7.07502
7.03843
6.99013
6.92686
6.84487
6.74006
6.60847
6.44681
6.25331
6.02847
5.77547
5.50013
5.21013
4.9139
4.61947
4.3336
4.06126
3.80567
3.56864
3.35089
3.15244
2.97284
2.81146
2.66775
2.54145
2.43277
2.34209
2.26931
2.21335
2.17212
2.14294
2.12304
2.10982
2.10134
2.09622
2.09345
2.0926
2.0923
2.09406
2.09494
7.17382
7.17028
7.16561
7.15942
7.15122
7.14036
7.12598
7.10695
7.08181
7.04871
7.00532
6.94883
6.87591
6.78291
6.66609
6.5221
6.34861
6.145
5.91293
5.6565
5.3819
5.09656
4.80819
4.52379
4.24903
3.98801
3.74325
3.51613
3.30714
3.1162
2.94286
2.78654
2.64668
2.52303
2.41569
2.32504
2.2512
2.19348
2.15024
2.11914
2.09762
2.08321
2.07396
2.0684
2.06512
2.06377
2.06379
2.06508
2.0667
2.0684
2.071
2.0737
7.15091
7.1404
7.12661
7.10854
7.08488
7.054
7.01385
6.96194
6.89534
6.81077
6.70481
6.57424
6.41653
6.23046
6.01666
5.7779
5.51901
5.24634
4.96691
4.68753
4.41415
4.15138
3.90245
3.66927
3.45279
3.25329
3.07061
2.9043
2.75382
2.61864
2.49852
2.39349
2.3039
2.23
2.17141
2.12684
2.09428
2.07146
2.05605
2.04604
2.0399
2.03638
2.0349
2.035
2.03564
2.03791
2.03963
2.0421
2.0451
2.04826
2.05131
2.05458
7.08459
7.05488
7.0166
6.9675
6.90498
6.82609
6.72772
6.60687
6.46104
6.28877
6.09005
5.86674
5.6226
5.36292
5.09392
4.82199
4.55296
4.29168
4.04178
3.80566
3.58468
3.37944
3.19005
3.01625
2.8576
2.71362
2.58383
2.46797
2.36608
2.27847
2.20544
2.14681
2.10159
2.06812
2.04437
2.02815
2.0175
2.01096
2.00728
2.00557
2.00546
2.00616
2.00825
2.01051
2.01279
2.01597
2.01927
2.02263
2.02608
2.02973
2.03334
2.03682
6.90579
6.83026
6.7367
6.62239
6.48498
6.32296
6.13605
5.92553
5.69434
5.44694
5.18877
4.92563
4.66305
4.40582
4.15774
3.92151
3.69883
3.49058
3.29707
3.11825
2.95381
2.80334
2.66639
2.54255
2.43159
2.33353
2.24867
2.17733
2.11945
2.07429
2.04047
2.01615
1.99936
1.9883
1.98147
1.97761
1.97573
1.9756
1.97655
1.97828
1.98099
1.98329
1.98638
1.98992
1.9935
1.99694
2.00082
2.00471
2.00854
2.01236
2.01618
2.01983
6.33505
6.15681
5.9563
5.73593
5.49949
5.25174
4.9979
4.74306
4.49178
4.2478
4.01392
3.79206
3.58332
3.38818
3.20672
3.0388
2.88407
2.74216
2.61267
2.49523
2.38967
2.29602
2.21455
2.1456
2.08919
2.04475
2.01111
1.98667
1.96966
1.95837
1.95133
1.9473
1.94551
1.94539
1.94637
1.94794
1.95079
1.95365
1.95655
1.96027
1.96399
1.96772
1.97162
1.97571
1.97969
1.98373
1.98777
1.99179
1.99575
1.99973
2.00354
5.52159
5.28344
5.03884
4.79242
4.54838
4.31027
4.08082
3.862
3.65503
3.46054
3.27872
3.10951
2.95268
2.80789
2.6748
2.55306
2.44237
2.34261
2.25383
2.17629
2.11033
2.05601
2.01289
1.97996
1.95583
1.93891
1.92759
1.92052
1.91654
1.91481
1.91469
1.91565
1.9175
1.92028
1.92346
1.92638
1.93015
1.93417
1.93813
1.94205
1.94632
1.95057
1.95479
1.95902
1.96322
1.96741
1.97158
1.97573
1.97985
1.98398
1.98797
4.57513
4.34424
4.12091
3.90703
3.70384
3.51207
3.33197
3.16353
3.0066
2.86091
2.72615
2.60202
2.48822
2.38453
2.29087
2.20732
2.13416
2.07169
2.01999
1.97871
1.94697
1.92356
1.90703
1.89593
1.88901
1.88517
1.88353
1.88353
1.88468
1.88672
1.8894
1.89284
1.89608
1.89982
1.90403
1.90816
1.91224
1.91663
1.92111
1.92549
1.92992
1.93434
1.93872
1.94309
1.94743
1.95176
1.95607
1.96037
1.96465
1.96893
1.97308
3.54138
3.36485
3.19907
3.04389
2.89913
2.76451
2.63977
2.52463
2.41887
2.32233
2.23498
2.15694
2.08848
2.02991
1.98128
1.94229
1.91218
1.88985
1.87403
1.86339
1.85677
1.85317
1.85171
1.85192
1.85327
1.85547
1.85823
1.86174
1.86549
1.86914
1.87354
1.87789
1.88221
1.88665
1.89131
1.8959
1.9005
1.90513
1.9097
1.91426
1.9188
1.92332
1.92782
1.93231
1.93678
1.94124
1.94569
1.95012
1.95455
1.95887
2.92108
2.78825
2.66451
2.54965
2.44344
2.34572
2.2564
2.17549
2.10315
2.03966
1.9853
1.9401
1.90378
1.87567
1.85476
1.83992
1.82998
1.82382
1.82056
1.8194
1.81986
1.82141
1.82377
1.82678
1.83036
1.83446
1.8382
1.84264
1.84731
1.85183
1.85632
1.86118
1.86601
1.87079
1.87559
1.88037
1.88512
1.88986
1.89457
1.89925
1.90393
1.90858
1.91322
1.91785
1.92247
1.92707
1.93167
1.93624
1.94082
1.94529
2.45669
2.35927
2.26952
2.18741
2.11301
2.0465
1.98816
1.93824
1.89674
1.8634
1.83758
1.81836
1.80475
1.79569
1.79015
1.78737
1.78663
1.78735
1.78918
1.79174
1.79501
1.79869
1.80294
1.80709
1.81155
1.81646
1.82116
1.82581
1.83079
1.83583
1.84076
1.84575
1.85074
1.85568
1.8606
1.8655
1.87037
1.87523
1.88007
1.88489
1.88969
1.89448
1.89926
1.90403
1.90879
1.91353
1.91827
1.92299
1.92771
1.93233
2.11603
2.04813
1.98751
1.93446
1.88914
1.85156
1.82141
1.7981
1.78079
1.76861
1.7606
1.75581
1.75361
1.75335
1.7544
1.75656
1.75944
1.7629
1.76677
1.77117
1.77573
1.78021
1.78525
1.79023
1.79509
1.80017
1.80537
1.81049
1.81565
1.82082
1.82595
1.83106
1.83614
1.8412
1.84624
1.85125
1.85625
1.86123
1.8662
1.87115
1.87608
1.88101
1.88592
1.89082
1.89572
1.9006
1.90548
1.91033
1.91519
1.91995
1.87906
1.83845
1.8049
1.7781
1.75745
1.74223
1.73162
1.72478
1.72088
1.71935
1.7196
1.72105
1.72356
1.72678
1.73044
1.73453
1.73913
1.74397
1.74861
1.75382
1.75905
1.76408
1.76924
1.77464
1.77998
1.78531
1.79065
1.79596
1.80124
1.80651
1.81175
1.81696
1.82215
1.82733
1.83248
1.83762
1.84274
1.84784
1.85293
1.85801
1.86308
1.86813
1.87317
1.87821
1.88323
1.88824
1.89325
1.89823
1.90323
1.90812
1.73378
1.7159
1.70286
1.69393
1.68834
1.68541
1.68463
1.68543
1.68735
1.69024
1.69379
1.69769
1.70201
1.70681
1.71182
1.71679
1.7221
1.72757
1.7328
1.73805
1.74366
1.7492
1.75468
1.76021
1.76571
1.77117
1.77662
1.78203
1.78742
1.79278
1.79813
1.80345
1.80876
1.81405
1.81932
1.82457
1.82981
1.83504
1.84025
1.84545
1.85064
1.85582
1.86099
1.86615
1.8713
1.87644
1.88157
1.88668
1.8918
1.89682
1.65568
1.65142
1.64951
1.64951
1.65091
1.65333
1.65662
1.66051
1.66468
1.66926
1.67427
1.67945
1.68473
1.69017
1.6958
1.70128
1.7067
1.71246
1.71818
1.7238
1.72951
1.7352
1.74084
1.74646
1.75205
1.75762
1.76316
1.76867
1.77416
1.77963
1.78509
1.79052
1.79594
1.80134
1.80672
1.81209
1.81745
1.82279
1.82812
1.83344
1.83875
1.84405
1.84934
1.85462
1.85989
1.86515
1.8704
1.87563
1.88087
1.88601
1.61609
1.61903
1.62274
1.62697
1.63143
1.63627
1.64152
1.64689
1.65245
1.65805
1.66384
1.66955
1.67515
1.68103
1.68693
1.69273
1.6986
1.70447
1.71027
1.71606
1.72183
1.72757
1.73328
1.73896
1.74462
1.75026
1.75587
1.76147
1.76704
1.7726
1.77814
1.78367
1.78918
1.79467
1.80016
1.80562
1.81108
1.81653
1.82196
1.82739
1.8328
1.8382
1.8436
1.84898
1.85436
1.85972
1.86506
1.87041
1.87567
1.59321
1.59797
1.60306
1.60857
1.61416
1.61993
1.62574
1.6317
1.63761
1.64339
1.64941
1.65548
1.66147
1.66749
1.67352
1.67949
1.68545
1.69138
1.69728
1.70316
1.70901
1.71483
1.72063
1.72641
1.73216
1.7379
1.74361
1.74931
1.75498
1.76065
1.76629
1.77192
1.77754
1.78314
1.78873
1.79431
1.79988
1.80543
1.81098
1.81651
1.82203
1.82755
1.83305
1.83855
1.84403
1.8495
1.85495
1.86041
1.86577
1.57546
1.58126
1.58721
1.59327
1.5994
1.60548
1.61145
1.61761
1.62385
1.63001
1.63618
1.64237
1.64851
1.65463
1.66073
1.66679
1.67283
1.67883
1.68482
1.69078
1.69671
1.70262
1.70851
1.71438
1.72023
1.72606
1.73187
1.73766
1.74344
1.7492
1.75495
1.76068
1.7664
1.77211
1.7778
1.78349
1.78916
1.79482
1.80046
1.8061
1.81173
1.81735
1.82296
1.82856
1.83414
1.83972
1.84527
1.85082
1.85628
1.56695
1.57317
1.57934
1.58566
1.59205
1.59837
1.6047
1.61105
1.61735
1.62363
1.62988
1.6361
1.64229
1.64846
1.6546
1.66071
1.6668
1.67286
1.6789
1.68492
1.69092
1.6969
1.70286
1.7088
1.71472
1.72063
1.72652
1.73239
1.73825
1.74409
1.74992
1.75574
1.76154
1.76734
1.77312
1.77889
1.78465
1.7904
1.79614
1.80187
1.80758
1.81329
1.81899
1.82467
1.83034
1.83598
1.84162
1.84718
1.55356
1.5601
1.56657
1.57306
1.57956
1.58601
1.59244
1.59885
1.60522
1.61157
1.61789
1.62418
1.63044
1.63668
1.64289
1.64908
1.65525
1.6614
1.66752
1.67362
1.67971
1.68577
1.69182
1.69785
1.70386
1.70986
1.71584
1.7218
1.72775
1.73369
1.73961
1.74552
1.75142
1.75731
1.76319
1.76906
1.77491
1.78076
1.78659
1.79241
1.79822
1.80402
1.80981
1.81558
1.82133
1.82706
1.83279
1.83843
1.54792
1.55452
1.5611
1.56765
1.57418
1.58067
1.58714
1.59357
1.59999
1.60637
1.61273
1.61907
1.62538
1.63167
1.63793
1.64418
1.6504
1.65661
1.66279
1.66896
1.67511
1.68124
1.68735
1.69345
1.69953
1.7056
1.71165
1.71769
1.72372
1.72973
1.73574
1.74173
1.74771
1.75367
1.75963
1.76557
1.77151
1.77743
1.78334
1.78924
1.79512
1.80099
1.80684
1.81268
1.81849
1.8243
1.83001
1.53631
1.54298
1.54962
1.55622
1.5628
1.56936
1.57589
1.58239
1.58886
1.59532
1.60175
1.60815
1.61454
1.6209
1.62724
1.63356
1.63986
1.64614
1.6524
1.65865
1.66488
1.67109
1.67729
1.68347
1.68964
1.69579
1.70193
1.70805
1.71416
1.72026
1.72635
1.73243
1.73849
1.74454
1.75058
1.75661
1.76263
1.76864
1.77463
1.78061
1.78657
1.79252
1.79845
1.80436
1.81024
1.81611
1.82189
1.53188
1.53857
1.54524
1.55188
1.55849
1.56508
1.57165
1.57819
1.5847
1.5912
1.59768
1.60413
1.61056
1.61698
1.62337
1.62974
1.6361
1.64244
1.64876
1.65507
1.66136
1.66764
1.6739
1.68015
1.68638
1.6926
1.6988
1.70499
1.71117
1.71734
1.7235
1.72964
1.73578
1.7419
1.748
1.7541
1.76018
1.76625
1.7723
1.77834
1.78436
1.79035
1.79633
1.80228
1.80821
1.81405
1.52122
1.52796
1.53468
1.54138
1.54805
1.5547
1.56133
1.56793
1.57452
1.58108
1.58762
1.59414
1.60064
1.60713
1.61359
1.62004
1.62647
1.63288
1.63928
1.64566
1.65202
1.65838
1.66471
1.67103
1.67734
1.68364
1.68992
1.69619
1.70245
1.70869
1.71492
1.72114
1.72735
1.73354
1.73972
1.74589
1.75204
1.75818
1.7643
1.7704
1.77648
1.78254
1.78858
1.79458
1.80057
1.80646
1.51096
1.51776
1.52454
1.53129
1.53802
1.54473
1.55142
1.55809
1.56473
1.57136
1.57796
1.58455
1.59112
1.59767
1.6042
1.61072
1.61722
1.6237
1.63017
1.63662
1.64306
1.64948
1.65589
1.66228
1.66866
1.67503
1.68138
1.68772
1.69405
1.70037
1.70667
1.71296
1.71923
1.7255
1.73174
1.73798
1.74419
1.75039
1.75658
1.76274
1.76888
1.77499
1.78108
1.78713
1.79316
1.7991
1.50111
1.50796
1.51479
1.5216
1.52839
1.53516
1.5419
1.54863
1.55533
1.56202
1.56869
1.57534
1.58197
1.58859
1.59518
1.60177
1.60833
1.61488
1.62141
1.62793
1.63444
1.64093
1.6474
1.65387
1.66031
1.66675
1.67317
1.67958
1.68597
1.69235
1.69872
1.70507
1.71141
1.71774
1.72405
1.73034
1.73661
1.74287
1.74911
1.75532
1.76151
1.76767
1.77381
1.7799
1.78597
1.79194
1.49164
1.49854
1.50542
1.51229
1.51913
1.52595
1.53275
1.53954
1.5463
1.55305
1.55977
1.56648
1.57318
1.57985
1.58651
1.59316
1.59979
1.6064
1.61299
1.61958
1.62615
1.6327
1.63924
1.64576
1.65228
1.65877
1.66526
1.67173
1.67818
1.68462
1.69105
1.69746
1.70386
1.71024
1.7166
1.72295
1.72928
1.73558
1.74187
1.74813
1.75436
1.76056
1.76673
1.77285
1.77895
1.78494
1.48252
1.48948
1.49641
1.50333
1.51022
1.5171
1.52396
1.53079
1.53761
1.54442
1.5512
1.55797
1.56472
1.57145
1.57817
1.58487
1.59156
1.59823
1.60489
1.61153
1.61816
1.62477
1.63137
1.63796
1.64452
1.65108
1.65762
1.66415
1.67066
1.67716
1.68364
1.6901
1.69655
1.70298
1.70939
1.71579
1.72216
1.72851
1.73484
1.74113
1.7474
1.75363
1.75982
1.76597
1.77208
1.77808
1.47376
1.48076
1.48775
1.49471
1.50165
1.50858
1.51549
1.52238
1.52925
1.53611
1.54295
1.54977
1.55658
1.56337
1.57014
1.5769
1.58364
1.59037
1.59708
1.60378
1.61046
1.61713
1.62378
1.63042
1.63704
1.64365
1.65024
1.65682
1.66338
1.66993
1.67646
1.68297
1.68947
1.69594
1.7024
1.70883
1.71524
1.72163
1.72798
1.73431
1.7406
1.74685
1.75306
1.75923
1.76535
1.77136
1.47237
1.4794
1.48641
1.49341
1.50038
1.50734
1.51428
1.5212
1.52811
1.535
1.54187
1.54873
1.55557
1.56239
1.5692
1.576
1.58278
1.58954
1.59629
1.60302
1.60974
1.61644
1.62313
1.6298
1.63646
1.6431
1.64972
1.65633
1.66292
1.6695
1.67605
1.68258
1.6891
1.69559
1.70205
1.70849
1.7149
1.72128
1.72763
1.73394
1.74021
1.74644
1.75261
1.75873
1.76475
1.46429
1.47136
1.47842
1.48546
1.49248
1.49948
1.50647
1.51344
1.52039
1.52733
1.53425
1.54116
1.54804
1.55492
1.56178
1.56862
1.57544
1.58225
1.58905
1.59583
1.60259
1.60934
1.61607
1.62279
1.62949
1.63617
1.64284
1.64949
1.65611
1.66272
1.66931
1.67587
1.68241
1.68893
1.69542
1.70188
1.70832
1.71472
1.72108
1.72741
1.73369
1.73992
1.74609
1.75221
1.75821
1.45649
1.46361
1.47071
1.47779
1.48485
1.4919
1.49893
1.50595
1.51295
1.51993
1.52689
1.53384
1.54077
1.54769
1.55459
1.56148
1.56835
1.5752
1.58204
1.58886
1.59566
1.60245
1.60923
1.61598
1.62272
1.62944
1.63613
1.64281
1.64947
1.6561
1.66272
1.66931
1.67588
1.68242
1.68893
1.69541
1.70186
1.70827
1.71465
1.72098
1.72726
1.73349
1.73965
1.74576
1.75174
1.45613
1.46327
1.47039
1.47749
1.48458
1.49165
1.49871
1.50575
1.51277
1.51977
1.52676
1.53374
1.54069
1.54764
1.55456