/*--------------------------------*- C++ -*----------------------------------*\
| =========                 |                                                 |
| \\      /  F ield         | OpenFOAM: The Open Source CFD Toolbox           |
|  \\    /   O peration     | Version:  v1706                                 |
|   \\  /    A nd           | Web:      www.OpenFOAM.com                      |
|    \\/     M anipulation  |                                                 |
\*---------------------------------------------------------------------------*/
FoamFile
{
    version     2.0;
    format      ascii;
    class       volScalarField;
    location    "3.5e-05";
    object      p;
}
// * * * * * * * * * * * * * * * * * * * * * * * * * * * * * * * * * * * * * //

dimensions      [1 -1 -2 0 0 0 0];


internalField   nonuniform List<scalar> 
30038
(
21.9139
21.9139
21.9139
21.9139
21.9139
21.9139
21.9139
21.9139
21.9139
21.9139
21.9139
21.9139
21.9139
21.9139
21.9139
21.9139
21.9139
21.9139
21.9139
21.9139
21.9139
21.9139
21.9139
21.9139
21.9139
21.9139
21.9139
21.9139
21.9139
21.9139
21.9139
21.9139
21.9139
21.9139
21.9139
21.9139
21.9139
21.9139
21.9139
21.9139
21.9139
21.9139
21.9139
21.9139
21.9139
21.9139
21.9139
21.9139
21.9139
21.9139
21.9139
21.9139
21.9139
21.9139
21.9139
21.9139
21.9139
21.9139
21.9139
21.9139
21.9139
21.9139
21.9139
21.9139
21.9139
21.9139
21.9139
21.9139
21.9139
21.9139
21.9139
21.9139
21.9139
21.9139
21.9139
21.9139
21.9139
21.9139
21.9139
21.9139
21.9139
21.9139
21.9139
21.9139
21.9139
21.9139
21.9139
21.9139
21.9139
21.9139
21.9139
21.9139
21.9139
21.9139
21.9139
21.9139
21.9139
21.9139
21.9139
21.9139
21.9139
21.9139
21.9139
21.9139
21.9139
21.9139
21.9139
21.9139
21.9139
21.9139
21.9139
21.9139
21.9139
21.9139
21.9139
21.9139
21.9139
21.9139
21.9139
21.9139
21.9139
21.9139
21.9139
21.9139
21.9139
21.9139
21.9139
21.9139
21.9139
21.9139
21.9139
21.9139
21.9139
21.9139
21.9139
21.9139
21.9139
21.9139
21.9139
21.9139
21.9139
21.9139
21.9139
21.9139
21.9139
21.9139
21.9139
21.9139
21.9139
21.9139
21.9139
21.9139
21.9139
21.9139
21.9139
21.9139
21.9139
21.9139
21.9139
21.9139
21.9139
21.9139
21.9139
21.9139
21.9139
21.9139
21.9139
21.9139
21.9139
21.9139
21.9139
21.9139
21.9139
21.9139
21.9139
21.9139
21.9139
21.9139
21.9139
21.9139
21.9139
21.9139
21.9139
21.9139
21.9139
21.9139
21.9139
21.9139
21.9139
21.9139
21.9139
21.9139
21.9139
21.9139
21.9139
21.9139
21.9139
21.9139
21.9139
21.9139
21.9139
21.9139
21.9139
21.9139
21.9139
21.9139
21.9139
21.9139
21.9139
21.9139
21.9139
21.9139
21.9139
21.9139
21.9139
21.9139
21.9139
21.9139
21.9139
21.9139
21.9139
21.9139
21.9139
21.9139
21.9139
21.9139
21.9139
21.9139
21.9139
21.9139
21.9139
21.9139
21.9139
21.9139
21.9139
21.9139
21.9139
21.9139
21.9139
21.9139
21.9139
21.9139
21.9139
21.9139
21.9139
21.9139
21.9139
21.9139
21.9139
21.9139
21.9139
21.9139
21.9139
21.9139
21.9139
21.9139
21.9139
21.9139
21.9139
21.9139
21.9139
21.9139
21.9139
21.9139
21.9139
21.9139
21.9139
21.9139
21.9139
21.9139
21.9139
21.9139
21.9139
21.9139
21.9139
21.9139
21.9139
21.9139
21.9139
21.9139
21.9139
21.9139
21.9139
21.9139
21.9139
21.9139
21.9139
21.9139
21.9139
21.9139
21.9139
21.9139
21.9139
21.9139
21.9139
21.9139
21.9139
21.9139
21.9139
21.9139
21.9139
21.9139
21.9139
21.9139
21.9139
21.9139
21.9139
21.9139
21.9139
21.9139
21.9139
21.9139
21.9139
21.9139
21.9139
21.9139
21.9139
21.9139
21.9139
21.9139
21.9139
21.9139
21.9139
21.9139
21.9139
21.9139
21.9139
21.9139
21.9139
21.9139
21.9139
21.9139
21.9139
21.9139
21.9139
21.9139
21.9139
21.9139
21.9139
21.9139
21.9139
21.9139
21.9139
21.9139
21.9139
21.9139
21.9139
21.9139
21.9139
21.9139
21.9139
21.9139
21.9139
21.9139
21.9139
21.9139
21.9139
21.9139
21.9139
21.9139
21.9139
21.9139
21.9139
21.9139
21.9139
21.9139
21.9139
21.9139
21.9139
21.9139
21.9139
21.9139
21.9139
21.9139
21.9139
21.9139
21.9139
21.9139
21.9139
21.9139
21.9139
21.9139
21.9139
21.9139
21.9139
21.9139
21.9139
21.9139
21.9139
21.9139
21.9139
21.9139
21.9139
21.9139
21.9139
21.9139
21.9139
21.9139
21.9139
21.9139
21.9139
21.9139
21.9139
21.9139
21.9139
21.9139
21.9139
21.9139
21.9139
21.9139
21.9139
21.9139
21.9139
21.9139
21.9139
21.9139
21.9139
21.9139
21.9139
21.9139
21.9139
21.9139
21.9139
21.9139
21.9139
21.9139
21.9139
21.9139
21.9139
21.9139
21.9139
21.9139
21.9139
21.9139
21.9139
21.9139
21.9139
21.9139
21.9139
21.9139
21.9139
21.9139
21.9139
21.9139
21.9139
21.9139
21.9139
21.9139
21.9139
21.9139
21.9139
21.9139
21.9139
21.9139
21.9139
21.9139
21.9139
21.9139
21.9139
21.9139
21.9139
21.9139
21.9139
21.9139
21.9139
21.9139
21.9139
21.9139
21.9139
21.9139
21.9139
21.9139
21.9139
21.9139
21.9139
21.9139
21.9139
21.9139
21.9139
21.9139
21.9139
21.9139
21.9139
21.9139
21.9139
21.9139
21.9139
21.9139
21.9139
21.9139
21.9139
21.9139
21.9139
21.9139
21.9139
21.9139
21.9139
21.9139
21.9139
21.9139
21.9139
21.9139
21.9139
21.9139
21.9139
21.9139
21.9139
21.9139
21.9139
21.9139
21.9139
21.9139
21.9139
21.9139
21.9139
21.9139
21.9139
21.9139
21.9139
21.9139
21.9139
21.9139
21.9139
21.9139
21.9139
21.9139
21.9139
21.9139
21.9139
21.9139
21.9139
21.9139
21.9139
21.9139
21.9139
21.9139
21.9139
21.9139
21.9139
21.9139
21.9139
21.9139
21.9139
21.9139
21.9139
21.9139
21.9139
21.9139
21.9139
21.9139
21.9139
21.9139
21.9139
21.9139
21.9139
21.9139
21.9139
21.9139
21.9139
21.9139
21.9139
21.9139
21.9139
21.9139
21.9139
21.9139
21.9139
21.9139
21.9139
21.9139
21.9139
21.9139
21.9139
21.9139
21.9139
21.9139
21.9139
21.9139
21.9139
21.9139
21.9139
21.9139
21.9139
21.9139
21.9139
21.9139
21.9139
21.9139
21.9139
21.9139
21.9139
21.9139
21.9139
21.9139
21.9139
21.9139
21.9139
21.9139
21.9139
21.9139
21.9139
21.9139
21.9139
21.9139
21.9139
21.9139
21.9139
21.9139
21.9139
21.9139
21.9139
21.9139
21.9139
21.9139
21.9139
21.9139
21.9139
21.9139
21.9139
21.9139
21.9139
21.9139
21.9139
21.9139
21.9139
21.9139
21.9139
21.9139
21.9139
21.9139
21.9139
21.9139
21.9139
21.9139
21.9139
21.9139
21.9139
21.9139
21.9139
21.9139
21.9139
21.9139
21.9139
21.9139
21.9139
21.9139
21.9139
21.9139
21.9139
21.9139
21.9139
21.9139
21.9139
21.9139
21.9139
21.9139
21.9139
21.9139
21.9139
21.9139
21.9139
21.9139
21.9139
21.9139
21.9139
21.9139
21.9139
21.9139
21.9139
21.9139
21.9139
21.9139
21.9139
21.9139
21.9139
21.9139
21.9139
21.9139
21.9139
21.9139
21.9139
21.9139
21.9139
21.9139
21.9139
21.9139
21.9139
21.9139
21.9139
21.9139
21.9139
21.9139
21.9139
21.9139
21.9139
21.9139
21.9139
21.9139
21.9139
21.9139
21.9139
21.9139
21.9139
21.9139
21.9139
21.9139
21.9139
21.9139
21.9139
21.9139
21.9139
21.9139
21.9139
21.9139
21.9139
21.9139
21.9139
21.9139
21.9139
21.9139
21.9139
21.9139
21.9139
21.9139
21.9139
21.9139
21.9139
21.9139
21.9139
21.9139
21.9139
21.9139
21.9139
21.9139
21.9139
21.9139
21.9139
21.9139
21.9139
21.9139
21.9139
21.9139
21.9139
21.9139
21.9139
21.9139
21.9139
21.9139
21.9139
21.9139
21.9139
21.9139
21.9139
21.9139
21.9139
21.9139
21.9139
21.9139
21.9139
21.9139
21.9139
21.9139
21.9139
21.9139
21.9139
21.9139
21.9139
21.9139
21.9139
21.9139
21.9139
21.9139
21.9139
21.9139
21.9139
21.9139
21.9139
21.9139
21.9139
21.9139
21.9139
21.9139
21.9139
21.9139
21.9139
21.9139
21.9139
21.9139
21.9139
21.9139
21.9139
21.9139
21.9139
21.9139
21.9139
21.9139
21.9139
21.9139
21.9139
21.9139
21.9139
21.9139
21.9139
21.9139
21.9139
21.9139
21.9139
21.9139
21.9139
21.9139
21.9139
21.9139
21.9139
21.9139
21.9139
21.9139
21.9139
21.9139
21.9139
21.9139
21.9139
21.9139
21.9139
21.9139
21.9139
21.9139
21.9139
21.9139
21.9139
21.9139
21.9139
21.9139
21.9139
21.9139
21.9139
21.9139
21.9139
21.9139
21.9139
21.9139
21.9139
21.9139
21.9139
21.9139
21.9139
21.9139
21.9139
21.9139
21.9139
21.9139
21.9139
21.9139
21.9139
21.9139
21.9139
21.9139
21.9139
21.9139
21.9139
21.9139
21.9139
21.9139
21.9139
21.9139
21.9139
21.9139
21.9139
21.9139
21.9139
21.9139
21.9139
21.9139
21.9139
21.9139
21.9139
21.9139
21.9139
21.9139
21.9139
21.9139
21.9139
21.9139
21.9139
21.9139
21.9139
21.9139
21.9139
21.9139
21.9139
21.9139
21.9139
21.9139
21.9139
21.9139
21.9139
21.9139
21.9139
21.9139
21.9139
21.9139
21.9139
21.9139
21.9139
21.9139
21.9139
21.9139
21.9139
21.9139
21.9139
21.9139
21.9139
21.9139
21.9139
21.9139
21.9139
21.9139
21.9139
21.9139
21.9139
21.9139
21.9139
21.9139
21.9139
21.9139
21.9139
21.9139
21.9139
21.9139
21.9139
21.9139
21.9139
21.9139
21.9139
21.9139
21.9139
21.9139
21.9139
21.9139
21.9139
21.9139
21.9139
21.9139
21.9139
21.9139
21.9139
21.9139
21.9139
21.9139
21.9139
21.9139
21.9139
21.9139
21.9139
21.9139
21.9139
21.9139
21.9139
21.9139
21.9139
21.9139
21.9139
21.9139
21.9139
21.9139
21.9139
21.9139
21.9139
21.9139
21.9139
21.9139
21.9139
21.9139
21.9139
21.9139
21.9139
21.9139
21.9139
21.9139
21.9139
21.9139
21.9139
21.9139
21.9139
21.9139
21.9139
21.9139
21.9139
21.9139
21.9139
21.9139
21.9139
21.9139
21.9139
21.9139
21.9139
21.9139
21.9139
21.9139
21.9139
21.9139
21.9139
21.9139
21.9139
21.9139
21.9139
21.9139
21.9139
21.9139
21.9139
21.9139
21.9139
21.9139
21.9139
21.9139
21.9139
21.9139
21.9139
21.9139
21.9139
21.9139
21.9139
21.9139
21.9139
21.9139
21.9139
21.9139
21.9139
21.9139
21.9139
21.9139
21.9139
21.9139
21.9139
21.9139
21.9139
21.9139
21.9139
21.9139
21.9139
21.9139
21.9139
21.9139
21.9139
21.9139
21.9139
21.9139
21.9139
21.9139
21.9139
21.9139
21.9139
21.9139
21.9139
21.9139
21.9139
21.9139
21.9139
21.9139
21.9139
21.9139
21.9139
21.9139
21.9139
21.9139
21.9139
21.9139
21.9139
21.9139
21.9139
21.9139
21.9139
21.9139
21.9139
21.9139
21.9139
21.9139
21.9139
21.9139
21.9139
21.9139
21.9139
21.9139
21.9139
21.9139
21.9139
21.9139
21.9139
21.9139
21.9139
21.9139
21.9139
21.9139
21.9139
21.9139
21.9139
21.9139
21.9139
21.9139
21.9139
21.9139
21.9139
21.9139
21.9139
21.9139
21.9139
21.9139
21.9139
21.9139
21.9139
21.9139
21.9139
21.9139
21.9139
21.9139
21.9139
21.9139
21.9139
21.9139
21.9139
21.9139
21.9139
21.9139
21.9139
21.9139
21.9139
21.9139
21.9139
21.9139
21.9139
21.9139
21.9139
21.9139
21.9139
21.9139
21.9139
21.9139
21.9139
21.9139
21.9139
21.9139
21.9139
21.9139
21.9139
21.9139
21.9139
21.9139
21.9139
21.9139
21.9139
21.9139
21.9139
21.9139
21.9139
21.9139
21.9139
21.9139
21.9139
21.9139
21.9139
21.9139
21.9139
21.9139
21.9139
21.9139
21.9139
21.9139
21.9139
21.9139
21.9139
21.9139
21.9139
21.9139
21.9139
21.9139
21.9139
21.9139
21.9139
21.9139
21.9139
21.9139
21.9139
21.9139
21.9139
21.9139
21.9139
21.9139
21.9139
21.9139
21.9139
21.9139
21.914
21.914
21.9139
21.9139
21.9139
21.9139
21.9139
21.9139
21.9139
21.9139
21.9139
21.9139
21.9139
21.9139
21.9139
21.9139
21.9139
21.9139
21.9139
21.9139
21.9139
21.9139
21.9139
21.9139
21.9139
21.9139
21.9139
21.9139
21.9139
21.9139
21.9139
21.9139
21.9139
21.9139
21.9139
21.9139
21.9139
21.9139
21.9139
21.9139
21.9139
21.9139
21.9139
21.9139
21.9139
21.9139
21.9139
21.914
21.914
21.914
21.9141
21.9142
21.9139
21.9139
21.9139
21.9139
21.9139
21.9139
21.9139
21.9139
21.9139
21.9139
21.9139
21.9139
21.9139
21.9139
21.9139
21.9139
21.9139
21.9139
21.9139
21.9139
21.9139
21.9139
21.9139
21.9139
21.9139
21.9139
21.9139
21.9139
21.9139
21.9139
21.9139
21.9139
21.9139
21.9139
21.9139
21.9139
21.9139
21.9139
21.9139
21.9139
21.9139
21.9139
21.914
21.914
21.914
21.9141
21.9142
21.9144
21.9147
21.9151
21.9139
21.9139
21.9139
21.9139
21.9139
21.9139
21.9139
21.9139
21.9139
21.9139
21.9139
21.9139
21.9139
21.9139
21.9139
21.9139
21.9139
21.9139
21.9139
21.9139
21.9139
21.9139
21.9139
21.9139
21.9139
21.9139
21.9139
21.9139
21.9139
21.9139
21.9139
21.9139
21.9139
21.9139
21.9139
21.9139
21.9139
21.9139
21.9139
21.914
21.914
21.9141
21.9141
21.9143
21.9144
21.9147
21.9151
21.9158
21.9168
21.9184
21.9139
21.9139
21.9139
21.9139
21.9139
21.9139
21.9139
21.9139
21.9139
21.9139
21.9139
21.9139
21.9139
21.9139
21.9139
21.9139
21.9139
21.9139
21.9139
21.9139
21.9139
21.9139
21.9139
21.9139
21.9139
21.9139
21.9139
21.9139
21.9139
21.9139
21.9139
21.9139
21.9139
21.9139
21.9139
21.914
21.914
21.914
21.9141
21.9142
21.9143
21.9145
21.9148
21.9152
21.9158
21.9168
21.9183
21.9206
21.9242
21.9299
21.9139
21.9139
21.9139
21.9139
21.9139
21.9139
21.9139
21.9139
21.9139
21.9139
21.9139
21.9139
21.9139
21.9139
21.9139
21.9139
21.9139
21.9139
21.9139
21.9139
21.9139
21.9139
21.9139
21.9139
21.9139
21.9139
21.9139
21.9139
21.9139
21.9139
21.9139
21.9139
21.914
21.914
21.914
21.9141
21.9142
21.9143
21.9145
21.9148
21.9153
21.9159
21.917
21.9185
21.9208
21.9243
21.9296
21.9376
21.9499
21.9696
21.9139
21.9139
21.9139
21.9139
21.9139
21.9139
21.9139
21.9139
21.9139
21.9139
21.9139
21.9139
21.9139
21.9139
21.9139
21.9139
21.9139
21.9139
21.9139
21.9139
21.9139
21.9139
21.9139
21.9139
21.9139
21.9139
21.9139
21.9139
21.9139
21.914
21.914
21.914
21.9141
21.9142
21.9144
21.9146
21.9149
21.9154
21.9161
21.9172
21.9187
21.9211
21.9246
21.93
21.9379
21.9499
21.968
21.9955
22.0374
22.1033
21.9139
21.9139
21.9139
21.9139
21.9139
21.9139
21.9139
21.9139
21.9139
21.9139
21.9139
21.9139
21.9139
21.9139
21.9139
21.9139
21.9139
21.9139
21.9139
21.9139
21.9139
21.9139
21.9139
21.9139
21.9139
21.914
21.914
21.914
21.9141
21.9141
21.9143
21.9144
21.9147
21.915
21.9155
21.9163
21.9174
21.9191
21.9216
21.9252
21.9307
21.9388
21.9509
21.9689
21.9959
22.0364
22.0972
22.1886
22.3272
22.5424
21.9139
21.9139
21.9139
21.9139
21.9139
21.9139
21.9139
21.9139
21.9139
21.9139
21.9139
21.9139
21.9139
21.9139
21.9139
21.9139
21.9139
21.9139
21.9139
21.9139
21.9139
21.9139
21.914
21.914
21.914
21.9141
21.9142
21.9143
21.9145
21.9148
21.9152
21.9158
21.9166
21.9178
21.9196
21.9222
21.9261
21.9318
21.9402
21.9526
21.971
21.9982
22.0387
22.0988
22.1881
22.3211
22.5192
22.8142
23.2546
23.922
21.9139
21.9139
21.9139
21.9139
21.9139
21.9139
21.9139
21.9139
21.9139
21.9139
21.9139
21.9139
21.9139
21.9139
21.9139
21.9139
21.9139
21.9139
21.914
21.914
21.914
21.9141
21.9141
21.9143
21.9144
21.9146
21.9149
21.9154
21.916
21.917
21.9183
21.9203
21.9231
21.9273
21.9333
21.9422
21.9552
21.9743
22.0022
22.0434
22.1041
22.1934
22.3252
22.5196
22.8057
23.226
23.841
24.7362
26.031
27.9067
21.9139
21.9139
21.9139
21.9139
21.9139
21.9139
21.9139
21.9139
21.9139
21.9139
21.9139
21.9139
21.9139
21.9139
21.914
21.914
21.914
21.9141
21.9141
21.9142
21.9143
21.9145
21.9148
21.9151
21.9156
21.9164
21.9174
21.919
21.9211
21.9243
21.9288
21.9354
21.9449
21.9588
21.9789
22.0082
22.0509
22.1132
22.2042
22.3373
22.5317
22.8155
23.2285
23.8273
24.6896
25.92
27.6546
30.0629
33.3498
37.7969
21.9139
21.9139
21.9139
21.9139
21.9139
21.9139
21.9139
21.9139
21.9139
21.9139
21.914
21.914
21.914
21.914
21.9141
21.9142
21.9143
21.9144
21.9146
21.915
21.9154
21.916
21.9168
21.9181
21.9198
21.9223
21.9258
21.9309
21.9381
21.9485
21.9635
21.9851
22.0163
22.0614
22.1266
22.221
22.3578
22.5559
22.8423
23.2557
23.8495
24.6974
25.8972
27.5741
29.8819
32.9996
37.1265
42.4805
49.2781
57.8887
21.9139
21.9139
21.9139
21.9139
21.9139
21.9139
21.914
21.914
21.914
21.914
21.9141
21.9142
21.9143
21.9144
21.9146
21.9148
21.9152
21.9157
21.9164
21.9175
21.9189
21.9209
21.9238
21.9278
21.9335
21.9417
21.9533
21.9698
21.9934
22.0272
22.0757
22.1451
22.2448
22.3878
22.5932
22.8874
23.3082
23.9073
24.7552
25.9445
27.5932
29.8448
32.865
36.8366
41.9522
48.4074
56.3998
66.1564
77.9306
92.374
21.9139
21.9139
21.914
21.914
21.914
21.914
21.9141
21.9141
21.9142
21.9144
21.9145
21.9148
21.9151
21.9156
21.9162
21.9171
21.9183
21.92
21.9224
21.9257
21.9304
21.937
21.9463
21.9594
21.978
22.0043
22.0416
22.0945
22.1698
22.2768
22.429
22.6456
22.9531
23.3887
24.0033
24.865
26.0626
27.7082
29.9368
32.9033
36.7772
41.7361
47.9605
55.6284
64.9285
76.0895
89.3894
105.152
123.616
146.74
21.914
21.914
21.9141
21.9141
21.9142
21.9144
21.9145
21.9147
21.915
21.9155
21.916
21.9168
21.9179
21.9194
21.9214
21.9243
21.9283
21.9339
21.9416
21.9524
21.9675
21.9887
22.0185
22.0603
22.1192
22.2021
22.319
22.4838
22.716
23.0428
23.5013
24.142
25.0316
26.2562
27.9229
30.1595
33.1114
36.9359
41.7973
47.8623
55.2961
64.2679
74.9757
87.6809
102.649
120.186
140.869
165.929
196.432
235.687
21.9142
21.9142
21.9144
21.9145
21.9147
21.915
21.9154
21.9159
21.9167
21.9177
21.919
21.9209
21.9234
21.9269
21.9318
21.9384
21.9476
21.9604
21.9781
22.0027
22.037
22.0847
22.1513
22.2442
22.3741
22.5554
22.8087
23.1616
23.652
24.3305
25.2631
26.5339
28.2459
30.5209
33.4953
37.3155
42.1331
48.1015
55.374
64.1035
74.4665
86.6928
101.053
117.807
137.384
160.687
189.064
223.696
265.057
311.178
361.903
21.9148
21.915
21.9154
21.9159
21.9166
21.9176
21.9189
21.9206
21.9229
21.9261
21.9305
21.9364
21.9446
21.9557
21.9711
21.9922
22.0212
22.0613
22.1166
22.1931
22.299
22.4456
22.6485
22.9291
23.3163
23.8491
24.5785
25.5707
26.9081
28.6905
31.0339
34.0668
37.9252
42.7487
48.6779
55.8541
64.4179
74.5272
86.3846
100.257
116.387
135.107
157.108
183.582
215.819
254.496
299.014
346.984
395.102
438.737
476.843
21.916
21.9167
21.9176
21.9189
21.9205
21.9228
21.9258
21.9299
21.9354
21.9428
21.9529
21.9666
21.9854
22.0109
22.0457
22.0933
22.1586
22.248
22.3706
22.5388
22.7693
23.0851
23.5165
24.1039
24.8996
25.9698
27.3961
29.2754
31.7183
34.8456
38.7835
43.6598
49.6034
56.7439
65.2118
75.1489
86.7365
100.224
115.857
133.909
154.905
179.868
210.071
246.429
288.826
335.625
383.745
429.476
469.342
501.545
525.123
541.239
21.9207
21.9229
21.9259
21.9298
21.9351
21.9421
21.9516
21.9643
21.9815
22.0047
22.036
22.0785
22.1361
22.2142
22.3203
22.4645
22.6604
22.9264
23.287
23.7747
24.4316
25.3113
26.4809
28.021
30.0256
32.6001
35.8578
39.9152
44.8888
50.8962
58.0563
66.4906
76.3274
87.7315
100.93
116.177
133.709
153.941
177.721
206.258
240.588
280.951
326.267
373.988
420.69
462.866
498.037
525.007
544.038
555.991
562.698
565.115
21.9355
21.9424
21.9516
21.9638
21.9801
22.002
22.0311
22.0703
22.1228
22.1935
22.2884
22.4163
22.5884
22.82
23.1314
23.5493
24.1081
24.8524
25.8374
27.1308
28.8123
30.973
33.7131
37.1378
41.3542
46.4682
52.5867
59.8185
68.2768
78.0791
89.3768
102.378
117.339
134.479
154.135
177.007
204.207
236.822
275.328
319.078
366.032
413.104
456.875
494.502
524.507
546.497
561.216
569.725
573.997
574.718
574.625
574.275
21.9811
22.0023
22.0304
22.0678
22.1174
22.1834
22.2713
22.3885
22.5449
22.7533
23.0311
23.4006
23.8911
24.5397
25.3931
26.5085
27.9539
29.808
32.1584
35.0993
38.7282
43.1426
48.4381
54.7116
62.0631
70.5979
80.4259
91.6867
104.573
119.341
136.198
155.431
177.621
203.779
234.989
271.876
314.107
360.085
407.075
451.845
491.416
523.941
548.621
565.868
576.675
582.512
584.447
584.327
584.19
583.159
580.757
576.93
22.119
22.1828
22.2669
22.378
22.5247
22.7185
22.9744
23.3119
23.756
24.3387
25.1
26.0889
27.3642
28.9941
31.0552
33.6312
36.81
40.6806
45.3311
50.8476
57.3177
64.8341
73.4951
83.4045
94.6929
107.543
122.199
138.873
157.811
179.509
204.879
234.975
270.505
311.354
356.273
402.877
448.161
489.149
523.682
550.755
570.375
583.333
590.723
594.079
594.468
594.14
593.549
591.792
588.65
584.251
579.11
573.001
22.5256
22.7117
22.9552
23.2732
23.6881
24.2279
24.9274
25.8296
26.9857
28.4555
30.3065
32.6126
35.4524
38.9069
43.0567
47.9805
53.7553
60.4612
68.1845
77.0179
87.0601
98.4348
111.318
125.944
142.525
161.283
182.651
207.454
236.704
271.138
310.788
354.665
400.709
446.139
488.054
524.139
553.21
574.9
589.801
598.907
603.6
604.805
604.461
604.08
602.738
600.014
596.237
591.393
585.849
579.764
573.634
567.132
23.6799
24.1953
24.8575
25.7045
26.7819
28.1425
29.8463
31.9589
34.5504
37.6935
41.4616
45.9269
51.1592
57.2275
64.2058
72.1755
81.2248
91.4483
102.965
115.947
130.622
147.198
165.879
187.058
211.489
240.133
273.727
312.386
355.31
400.698
445.992
488.424
525.674
556.291
579.732
596.374
607.132
612.959
615.204
615.12
614.675
613.705
611.543
608.176
603.733
598.57
592.694
586.536
580.298
573.958
567.718
561.243
28.0259
29.634
31.6156
34.0333
36.9521
40.4382
44.5573
49.373
54.947
61.342
68.6273
76.881
86.1877
96.6385
108.351
121.495
136.293
152.948
171.648
192.762
216.995
245.255
278.254
316.14
358.237
402.942
447.914
490.544
528.516
560.261
585.13
603.332
615.435
622.423
625.704
626.074
625.489
624.796
623.036
619.98
616.032
611.164
605.605
599.581
593.433
587.154
580.822
574.521
568.212
562.025
555.626
36.6269
39.9149
43.7823
48.2872
53.4851
59.4309
66.1824
73.8068
82.3798
91.9834
102.706
114.665
128.034
143.03
159.844
178.656
199.823
224.018
252.1
284.733
322.058
363.471
407.518
452.046
494.601
532.922
565.421
591.374
610.728
624.012
632.136
636.315
637.179
636.674
636.079
634.58
631.894
628.28
623.736
618.51
612.665
606.583
600.378
594.082
587.782
581.492
575.21
568.966
562.717
556.581
550.238
52.7533
58.3619
64.707
71.8438
79.8391
88.7673
98.7077
109.746
122.006
135.662
150.93
167.983
186.996
208.329
232.639
260.734
293.212
330.177
371.054
414.491
458.488
500.746
539.101
572.003
598.637
618.831
633.091
642.167
647.015
648.56
648.219
647.469
646.249
643.927
640.578
636.376
631.413
625.783
619.791
613.678
607.43
601.136
594.846
588.564
582.3
576.059
569.831
563.635
557.429
551.328
545.026
86.8294
96.1468
106.462
117.859
130.472
144.48
160.095
177.466
196.772
218.387
242.965
271.256
303.778
340.567
381.043
423.921
467.32
509.095
547.207
580.163
607.115
627.859
642.807
652.562
658.027
660.216
660.044
659.206
658.164
656.071
652.825
648.978
644.278
638.928
633.086
627.055
620.868
614.591
608.309
602.027
595.754
589.5
583.262
577.04
570.837
564.645
558.481
552.306
546.23
539.964
127.166
140.193
154.627
170.666
188.433
208.124
230.142
255.141
283.805
316.546
353.319
393.512
435.871
478.61
519.737
557.346
590.016
616.962
637.945
653.277
663.487
669.493
672.066
672.115
671.294
670.308
668.378
665.356
661.669
657.211
652.109
646.409
640.454
634.359
628.136
621.876
615.605
609.329
603.065
596.816
590.58
584.36
578.153
571.959
565.782
559.614
553.474
547.325
541.271
535.037
182.784
201.025
221.203
243.757
269.342
298.548
331.667
368.557
408.549
450.4
492.409
532.725
569.583
601.668
628.289
649.187
664.578
675.069
681.418
684.241
684.512
683.741
682.62
680.865
678.057
674.44
670.23
665.34
659.812
653.951
647.947
641.771
635.525
629.269
623.004
616.743
610.492
604.248
598.015
591.794
585.583
579.384
573.198
567.024
560.866
554.719
548.6
542.474
536.441
530.239
259.456
285.793
315.695
349.318
386.413
426.245
467.563
508.748
548.075
583.938
615.164
641.155
661.655
676.839
687.373
693.839
696.774
697.255
696.488
695.224
693.593
690.921
687.336
683.319
678.606
673.245
667.505
661.595
655.494
649.285
643.05
636.796
630.532
624.277
618.031
611.793
605.564
599.342
593.128
586.924
580.729
574.546
568.375
562.217
556.077
549.949
543.85
537.747
531.735
525.564
369.692
407.038
446.697
487.405
527.628
565.771
600.399
630.501
655.561
675.368
690.116
700.446
706.824
709.773
710.307
709.535
708.198
706.584
703.988
700.404
696.513
691.973
686.789
681.146
675.305
669.274
663.113
656.915
650.688
644.439
638.189
631.941
625.696
619.459
613.228
607.004
600.787
594.577
588.375
582.182
576
569.83
563.673
557.531
551.408
545.298
539.22
533.139
527.148
521.008
509.942
549.021
585.76
618.903
647.62
671.48
690.325
704.418
714.292
720.398
723.234
723.705
722.913
721.527
719.815
717.271
713.754
709.861
705.455
700.453
694.877
689.105
683.16
677.045
670.873
664.666
658.434
652.197
645.96
639.721
633.483
627.248
621.015
614.787
608.563
602.346
596.136
589.934
583.741
577.558
571.387
565.229
559.086
552.96
546.853
540.763
534.704
528.645
522.675
516.567
639.349
666.426
688.838
706.473
719.688
728.913
734.578
737.151
737.471
736.615
735.166
733.322
730.791
727.315
723.391
719.066
714.183
708.684
702.987
697.15
691.081
684.935
678.757
672.544
666.318
660.087
653.852
647.618
641.385
635.153
628.921
622.69
616.461
610.236
604.016
597.803
591.598
585.402
579.217
573.043
566.883
560.738
554.61
548.499
542.409
536.337
530.299
524.262
518.313
512.234
735.867
744.268
749.332
751.505
751.611
750.646
749.104
747.119
744.538
741.066
737.111
732.826
728.025
722.609
716.973
711.211
705.192
699.081
692.951
686.765
680.553
674.333
668.106
661.875
655.644
649.41
643.176
636.943
630.709
624.476
618.245
612.017
605.794
599.576
593.366
587.166
580.976
574.799
568.635
562.486
556.353
550.239
544.144
538.072
532.019
526
519.985
514.057
508.008
766.277
766.113
765
763.333
761.204
758.514
755.02
751.026
746.742
741.998
736.662
731.072
725.367
719.405
713.331
707.24
701.082
694.888
688.689
682.478
676.256
670.029
663.798
657.563
651.327
645.088
638.849
632.61
626.372
620.136
613.903
607.674
601.451
595.236
589.03
582.835
576.652
570.483
564.329
558.191
552.071
545.972
539.892
533.837
527.803
521.803
515.811
509.903
503.884
777.849
775.563
772.72
769.174
765.137
760.827
756.112
750.837
745.28
739.626
733.725
727.688
721.632
715.505
709.332
703.155
696.96
690.749
684.533
678.31
672.08
665.845
659.605
653.361
647.115
640.868
634.621
628.375
622.131
615.891
609.656
603.427
597.206
590.993
584.791
578.602
572.426
566.265
560.121
553.995
547.889
541.803
535.739
529.701
523.685
517.706
511.735
505.849
499.859
779.44
775.086
770.371
765.136
759.606
753.993
748.15
742.146
736.125
730.035
723.888
717.733
711.557
705.359
699.156
692.943
686.72
680.489
674.253
668.009
661.761
655.508
649.253
642.996
636.739
630.484
624.231
617.982
611.739
605.502
599.273
593.053
586.844
580.647
574.463
568.295
562.143
556.009
549.895
543.801
537.73
531.682
525.661
519.664
513.704
507.755
501.889
495.928
779.561
774.058
768.476
762.68
756.709
750.72
744.67
738.55
732.418
726.266
720.086
713.898
707.698
701.483
695.26
689.029
682.788
676.54
670.287
664.027
657.764
651.498
645.23
638.963
632.697
626.434
620.175
613.922
607.676
601.438
595.209
588.991
582.786
576.593
570.416
564.256
558.113
551.99
545.887
539.807
533.75
527.718
521.714
515.735
509.795
503.867
498.023
492.09
771.38
765.424
759.411
753.319
747.211
741.085
734.926
728.755
722.572
716.369
710.157
703.934
697.698
691.453
685.201
678.94
672.674
666.402
660.126
653.848
647.569
641.289
635.012
628.737
622.468
616.203
609.947
603.698
597.46
591.232
585.017
578.815
572.629
566.458
560.306
554.172
548.059
541.969
535.901
529.859
523.843
517.856
511.896
505.975
500.069
494.245
488.341
768.196
762.114
756.016
749.88
743.727
737.562
731.376
725.176
718.964
712.737
706.499
700.25
693.991
687.723
681.449
675.168
668.882
662.593
656.302
650.009
643.718
637.428
631.141
624.859
618.583
612.314
606.055
599.805
593.566
587.34
581.128
574.93
568.749
562.586
556.442
550.318
544.216
538.137
532.083
526.055
520.055
514.085
508.143
502.241
496.357
490.554
484.678
758.814
752.67
746.502
740.316
734.118
727.903
721.673
715.431
709.177
702.912
696.637
690.354
684.063
677.767
671.467
665.163
658.857
652.551
646.246
639.943
633.643
627.348
621.059
614.778
608.506
602.243
595.993
589.755
583.53
577.321
571.128
564.953
558.797
552.661
546.547
540.456
534.389
528.348
522.335
516.35
510.397
504.474
498.592
492.729
486.947
481.098
755.577
749.395
743.193
736.974
730.742
724.495
718.235
711.963
705.681
699.389
693.089
686.782
680.47
674.154
667.834
661.514
655.193
648.873
642.556
636.242
629.933
623.631
617.336
611.05
604.775
598.511
592.26
586.023
579.801
573.595
567.407
561.238
555.089
548.962
542.857
536.777
530.723
524.695
518.696
512.727
506.791
500.886
495.023
489.182
483.421
477.6
752.401
746.181
739.944
733.691
727.425
721.146
714.855
708.555
702.245
695.928
689.604
683.275
676.942
670.606
664.27
657.933
651.598
645.265
638.937
632.614
626.297
619.988
613.688
607.398
601.12
594.855
588.604
582.368
576.149
569.947
563.764
557.601
551.46
545.341
539.247
533.177
527.135
521.12
515.136
509.183
503.263
497.377
491.534
485.714
479.976
474.184
749.278
743.02
736.747
730.461
724.162
717.852
711.532
705.204
698.868
692.526
686.179
679.829
673.477
667.124
660.771
654.419
648.071
641.727
635.388
629.056
622.732
616.417
610.112
603.819
597.539
591.273
585.023
578.788
572.572
566.374
560.197
554.041
547.907
541.797
535.712
529.654
523.623
517.622
511.653
505.715
499.814
493.946
488.124
482.327
476.611
470.849
746.201
739.907
733.6
727.281
720.951
714.611
708.263
701.909
695.548
689.183
682.815
676.446
670.075
663.705
657.337
650.972
644.611
638.256
631.908
625.568
619.237
612.917
606.608
600.312
594.031
587.764
581.514
575.282
569.069
562.876
556.703
550.554
544.428
538.326
532.252
526.205
520.187
514.2
508.246
502.325
496.442
490.594
484.793
479.019
473.324
467.587
743.17
736.841
730.501
724.15
717.79
711.423
705.049
698.669
692.285
685.899
679.511
673.122
666.734
660.349
653.967
647.589
641.217
634.852
628.495
622.147
615.81
609.485
603.173
596.875
590.592
584.326
578.077
571.847
565.637
559.448
553.282
547.139
541.021
534.929
528.865
522.83
516.826
510.854
504.916
499.013
493.147
487.316
481.533
475.779
470.104
464.393
740.183
733.821
727.449
721.069
714.681
708.286
701.887
695.484
689.079
682.672
676.264
669.858
663.455
657.054
650.659
644.269
637.886
631.512
625.147
618.793
612.45
606.121
599.805
593.505
587.222
580.956
574.708
568.481
562.275
556.091
549.931
543.796
537.687
531.606
525.553
519.531
513.541
507.581
501.657
495.768
489.917
484.104
478.339
472.606
466.954
461.272
730.846
724.445
718.036
711.621
705.202
698.779
692.353
685.927
679.501
673.076
666.653
660.234
653.82
647.412
641.011
634.619
628.236
621.863
615.503
609.155
602.822
596.504
590.202
583.918
577.653
571.408
565.184
558.982
552.805
546.652
540.526
534.427
528.355
522.312
516.3
510.32
504.373
498.461
492.587
486.754
480.96
475.216
469.505
463.876
458.222
727.917
721.487
715.051
708.611
702.168
695.722
689.276
682.83
676.385
669.943
663.505
657.072
650.645
644.225
637.814
631.412
625.021
618.642
612.275
605.924
599.587
593.267
586.965
580.681
574.418
568.176
561.957
555.762
549.59
543.444
537.323
531.231
525.167
519.133
513.13
507.162
501.229
495.333
489.475
483.66
477.885
472.162
466.474
460.867
455.242
725.033
718.576
712.115
705.651
699.185
692.718
686.251
679.787
673.325
666.867
660.414
653.967
647.528
641.097
634.676
628.265
621.867
615.482
609.111
602.756
596.417
590.096
583.794
577.513
571.253
565.014
558.797
552.604
546.437
540.295
534.18
528.094
522.04
516.017
510.027
504.071
498.153
492.272
486.431
480.633
474.878
469.175
463.509
457.926
452.329
715.711
709.226
702.739
696.251
689.764
683.279
676.796
670.318
663.845
657.378
650.918
644.468
638.027
631.597
625.179
618.775
612.385
606.011