/*--------------------------------*- C++ -*----------------------------------*\
| =========                 |                                                 |
| \\      /  F ield         | OpenFOAM: The Open Source CFD Toolbox           |
|  \\    /   O peration     | Version:  v1706                                 |
|   \\  /    A nd           | Web:      www.OpenFOAM.com                      |
|    \\/     M anipulation  |                                                 |
\*---------------------------------------------------------------------------*/
FoamFile
{
    version     2.0;
    format      ascii;
    class       volScalarField;
    location    "3.5e-05";
    object      rho;
}
// * * * * * * * * * * * * * * * * * * * * * * * * * * * * * * * * * * * * * //

dimensions      [1 -3 0 0 0 0 0];


internalField   nonuniform List<scalar> 
30038
(
0.000511309
0.000511309
0.000511309
0.000511309
0.000511309
0.000511309
0.000511309
0.000511309
0.000511309
0.000511309
0.000511309
0.000511309
0.000511309
0.000511309
0.000511309
0.000511309
0.000511309
0.000511309
0.000511309
0.000511309
0.000511309
0.000511309
0.000511309
0.000511309
0.000511309
0.000511309
0.000511309
0.000511309
0.000511309
0.000511309
0.000511309
0.000511309
0.000511309
0.000511309
0.000511309
0.000511309
0.000511309
0.000511309
0.000511309
0.000511309
0.000511309
0.000511309
0.000511309
0.000511309
0.000511309
0.000511309
0.000511309
0.000511309
0.000511309
0.000511309
0.000511309
0.000511309
0.000511309
0.000511309
0.000511309
0.000511309
0.000511309
0.000511309
0.000511309
0.000511309
0.000511309
0.000511309
0.000511309
0.000511309
0.000511309
0.000511309
0.000511309
0.000511309
0.000511309
0.000511309
0.000511309
0.000511309
0.000511309
0.000511309
0.000511309
0.000511309
0.000511309
0.000511309
0.000511309
0.000511309
0.000511309
0.000511309
0.000511309
0.000511309
0.000511309
0.000511309
0.000511309
0.000511309
0.000511309
0.000511309
0.000511309
0.000511309
0.000511309
0.000511309
0.000511309
0.000511309
0.000511309
0.000511309
0.000511309
0.000511309
0.000511309
0.000511309
0.000511309
0.000511309
0.000511309
0.000511309
0.000511309
0.000511309
0.000511309
0.000511309
0.000511309
0.000511309
0.000511309
0.000511309
0.000511309
0.000511309
0.000511309
0.000511309
0.000511309
0.000511309
0.000511309
0.000511309
0.000511309
0.000511309
0.000511309
0.000511309
0.000511309
0.000511309
0.000511309
0.000511309
0.000511309
0.000511309
0.000511309
0.000511309
0.000511309
0.000511309
0.000511309
0.000511309
0.000511309
0.000511309
0.000511309
0.000511309
0.000511309
0.000511309
0.000511309
0.000511309
0.000511309
0.000511309
0.000511309
0.000511309
0.000511309
0.000511309
0.000511309
0.000511309
0.000511309
0.000511309
0.000511309
0.000511309
0.000511309
0.000511309
0.000511309
0.000511309
0.000511309
0.000511309
0.000511309
0.000511309
0.000511309
0.000511309
0.000511309
0.000511309
0.000511309
0.000511309
0.000511309
0.000511309
0.000511309
0.000511309
0.000511309
0.000511309
0.000511309
0.000511309
0.000511309
0.000511309
0.000511309
0.000511309
0.000511309
0.000511309
0.000511309
0.000511309
0.000511309
0.000511309
0.000511309
0.000511309
0.000511309
0.000511309
0.000511309
0.000511309
0.000511309
0.000511309
0.000511309
0.000511309
0.000511309
0.000511309
0.000511309
0.000511309
0.000511309
0.000511309
0.000511309
0.000511309
0.000511309
0.000511309
0.000511309
0.000511309
0.000511309
0.000511309
0.000511309
0.000511309
0.000511309
0.000511309
0.000511309
0.000511309
0.000511309
0.000511309
0.000511309
0.000511309
0.000511309
0.000511309
0.000511309
0.000511309
0.000511309
0.000511309
0.000511309
0.000511309
0.000511309
0.000511309
0.000511309
0.000511309
0.000511309
0.000511309
0.000511309
0.000511309
0.000511309
0.000511309
0.000511309
0.000511309
0.000511309
0.000511309
0.000511309
0.000511309
0.000511309
0.000511309
0.000511309
0.000511309
0.000511309
0.000511309
0.000511309
0.000511309
0.000511309
0.000511309
0.000511309
0.000511309
0.000511309
0.000511309
0.000511309
0.000511309
0.000511309
0.000511309
0.000511309
0.000511309
0.000511309
0.000511309
0.000511309
0.000511309
0.000511309
0.000511309
0.000511309
0.000511309
0.000511309
0.000511309
0.000511309
0.000511309
0.000511309
0.000511309
0.000511309
0.000511309
0.000511309
0.000511309
0.000511309
0.000511309
0.000511309
0.000511309
0.000511309
0.000511309
0.000511309
0.000511309
0.000511309
0.000511309
0.000511309
0.000511309
0.000511309
0.000511309
0.000511309
0.000511309
0.000511309
0.000511309
0.000511309
0.000511309
0.000511309
0.000511309
0.000511309
0.000511309
0.000511309
0.000511309
0.000511309
0.000511309
0.000511309
0.000511309
0.000511309
0.000511309
0.000511309
0.000511309
0.000511309
0.000511309
0.000511309
0.000511309
0.000511309
0.000511309
0.000511309
0.000511309
0.000511309
0.000511309
0.000511309
0.000511309
0.000511309
0.000511309
0.000511309
0.000511309
0.000511309
0.000511309
0.000511309
0.000511309
0.000511309
0.000511309
0.000511309
0.000511309
0.000511309
0.000511309
0.000511309
0.000511309
0.000511309
0.000511309
0.000511309
0.000511309
0.000511309
0.000511309
0.000511309
0.000511309
0.000511309
0.000511309
0.000511309
0.000511309
0.000511309
0.000511309
0.000511309
0.000511309
0.000511309
0.000511309
0.000511309
0.000511309
0.000511309
0.000511309
0.000511309
0.000511309
0.000511309
0.000511309
0.000511309
0.000511309
0.000511309
0.000511309
0.000511309
0.000511309
0.000511309
0.000511309
0.000511309
0.000511309
0.000511309
0.000511309
0.000511309
0.000511309
0.000511309
0.000511309
0.000511309
0.000511309
0.000511309
0.000511309
0.000511309
0.000511309
0.000511309
0.000511309
0.000511309
0.000511309
0.000511309
0.000511309
0.000511309
0.000511309
0.000511309
0.000511309
0.000511309
0.000511309
0.000511309
0.000511309
0.000511309
0.000511309
0.000511309
0.000511309
0.000511309
0.000511309
0.000511309
0.000511309
0.000511309
0.000511309
0.000511309
0.000511309
0.000511309
0.000511309
0.000511309
0.000511309
0.000511309
0.000511309
0.000511309
0.000511309
0.000511309
0.000511309
0.000511309
0.000511309
0.000511309
0.000511309
0.000511309
0.000511309
0.000511309
0.000511309
0.000511309
0.000511309
0.000511309
0.000511309
0.000511309
0.000511309
0.000511309
0.000511309
0.000511309
0.000511309
0.000511309
0.000511309
0.000511309
0.000511309
0.000511309
0.000511309
0.000511309
0.000511309
0.000511309
0.000511309
0.000511309
0.000511309
0.000511309
0.000511309
0.000511309
0.000511309
0.000511309
0.000511309
0.000511309
0.000511309
0.000511309
0.000511309
0.000511309
0.000511309
0.000511309
0.000511309
0.000511309
0.000511309
0.000511309
0.000511309
0.000511309
0.000511309
0.000511309
0.000511309
0.000511309
0.000511309
0.000511309
0.000511309
0.000511309
0.000511309
0.000511309
0.000511309
0.000511309
0.000511309
0.000511309
0.000511309
0.000511309
0.000511309
0.000511309
0.000511309
0.000511309
0.000511309
0.000511309
0.000511309
0.000511309
0.000511309
0.000511309
0.000511309
0.000511309
0.000511309
0.000511309
0.000511309
0.000511309
0.000511309
0.000511309
0.000511309
0.000511309
0.000511309
0.000511309
0.000511309
0.000511309
0.000511309
0.000511309
0.000511309
0.000511309
0.000511309
0.000511309
0.000511309
0.000511309
0.000511309
0.000511309
0.000511309
0.000511309
0.000511309
0.000511309
0.000511309
0.000511309
0.000511309
0.000511309
0.000511309
0.000511309
0.000511309
0.000511309
0.000511309
0.000511309
0.000511309
0.000511309
0.000511309
0.000511309
0.000511309
0.000511309
0.000511309
0.000511309
0.000511309
0.000511309
0.000511309
0.000511309
0.000511309
0.000511309
0.000511309
0.000511309
0.000511309
0.000511309
0.000511309
0.000511309
0.000511309
0.000511309
0.000511309
0.000511309
0.000511309
0.000511309
0.000511309
0.000511309
0.000511309
0.000511309
0.000511309
0.000511309
0.000511309
0.000511309
0.000511309
0.000511309
0.000511309
0.000511309
0.000511309
0.000511309
0.000511309
0.000511309
0.000511309
0.000511309
0.000511309
0.000511309
0.000511309
0.000511309
0.000511309
0.000511309
0.000511309
0.000511309
0.000511309
0.000511309
0.000511309
0.000511309
0.000511309
0.000511309
0.000511309
0.000511309
0.000511309
0.000511309
0.000511309
0.000511309
0.000511309
0.000511309
0.000511309
0.000511309
0.000511309
0.000511309
0.000511309
0.000511309
0.000511309
0.000511309
0.000511309
0.000511309
0.000511309
0.000511309
0.000511309
0.000511309
0.000511309
0.000511309
0.000511309
0.000511309
0.000511309
0.000511309
0.000511309
0.000511309
0.000511309
0.000511309
0.000511309
0.000511309
0.000511309
0.000511309
0.000511309
0.000511309
0.000511309
0.000511309
0.000511309
0.000511309
0.000511309
0.000511309
0.000511309
0.000511309
0.000511309
0.000511309
0.000511309
0.000511309
0.000511309
0.000511309
0.000511309
0.000511309
0.000511309
0.000511309
0.000511309
0.000511309
0.000511309
0.000511309
0.000511309
0.000511309
0.000511309
0.000511309
0.000511309
0.000511309
0.000511309
0.000511309
0.000511309
0.000511309
0.000511309
0.000511309
0.000511309
0.000511309
0.000511309
0.000511309
0.000511309
0.000511309
0.000511309
0.000511309
0.000511309
0.000511309
0.000511309
0.000511309
0.000511309
0.000511309
0.000511309
0.000511309
0.000511309
0.000511309
0.000511309
0.000511309
0.000511309
0.000511309
0.000511309
0.000511309
0.000511309
0.000511309
0.000511309
0.000511309
0.000511309
0.000511309
0.000511309
0.000511309
0.000511309
0.000511309
0.000511309
0.000511309
0.000511309
0.000511309
0.000511309
0.000511309
0.000511309
0.000511309
0.000511309
0.000511309
0.000511309
0.000511309
0.000511309
0.000511309
0.000511309
0.000511309
0.000511309
0.000511309
0.000511309
0.000511309
0.000511309
0.000511309
0.000511309
0.000511309
0.000511309
0.000511309
0.000511309
0.000511309
0.000511309
0.000511309
0.000511309
0.000511309
0.000511309
0.000511309
0.000511309
0.000511309
0.000511309
0.000511309
0.000511309
0.000511309
0.000511309
0.000511309
0.000511309
0.000511309
0.000511309
0.000511309
0.000511309
0.000511309
0.000511309
0.000511309
0.000511309
0.000511309
0.000511309
0.000511309
0.000511309
0.000511309
0.000511309
0.000511309
0.000511309
0.000511309
0.000511309
0.000511309
0.000511309
0.000511309
0.000511309
0.000511309
0.000511309
0.000511309
0.000511309
0.000511309
0.000511309
0.000511309
0.000511309
0.000511309
0.000511309
0.000511309
0.000511309
0.000511309
0.000511309
0.000511309
0.000511309
0.000511309
0.000511309
0.000511309
0.000511309
0.000511309
0.000511309
0.000511309
0.000511309
0.000511309
0.000511309
0.000511309
0.000511309
0.000511309
0.000511309
0.000511309
0.000511309
0.000511309
0.000511309
0.000511309
0.000511309
0.000511309
0.000511309
0.000511309
0.000511309
0.000511309
0.000511309
0.000511309
0.000511309
0.000511309
0.000511309
0.000511309
0.000511309
0.000511309
0.000511309
0.000511309
0.000511309
0.000511309
0.000511309
0.000511309
0.000511309
0.000511309
0.000511309
0.000511309
0.000511309
0.000511309
0.000511309
0.000511309
0.000511309
0.000511309
0.000511309
0.000511309
0.000511309
0.000511309
0.000511309
0.000511309
0.000511309
0.000511309
0.000511309
0.000511309
0.000511309
0.000511309
0.000511309
0.000511309
0.000511309
0.000511309
0.000511309
0.000511309
0.000511309
0.000511309
0.000511309
0.000511309
0.000511309
0.000511309
0.000511309
0.000511309
0.000511309
0.000511309
0.000511309
0.000511309
0.000511309
0.000511309
0.000511309
0.000511309
0.000511309
0.000511309
0.000511309
0.000511309
0.000511309
0.000511309
0.000511309
0.000511309
0.000511309
0.000511309
0.000511309
0.000511309
0.000511309
0.000511309
0.000511309
0.000511309
0.000511309
0.000511309
0.000511309
0.000511309
0.000511309
0.000511309
0.000511309
0.000511309
0.000511309
0.000511309
0.000511309
0.000511309
0.000511309
0.000511309
0.000511309
0.000511309
0.000511309
0.000511309
0.000511309
0.000511309
0.000511309
0.000511309
0.000511309
0.000511309
0.000511309
0.000511309
0.000511309
0.000511309
0.000511309
0.000511309
0.000511309
0.000511309
0.000511309
0.000511309
0.000511309
0.000511309
0.000511309
0.000511309
0.000511309
0.000511309
0.000511309
0.000511309
0.000511309
0.000511309
0.000511309
0.000511309
0.000511309
0.000511309
0.000511309
0.000511309
0.000511309
0.000511309
0.000511309
0.000511309
0.000511309
0.000511309
0.000511309
0.000511309
0.000511309
0.000511309
0.000511309
0.000511309
0.000511309
0.000511309
0.000511309
0.000511309
0.000511309
0.000511309
0.000511309
0.000511309
0.000511309
0.000511309
0.000511309
0.000511309
0.000511309
0.000511309
0.000511309
0.000511309
0.000511309
0.000511309
0.000511309
0.000511309
0.000511309
0.000511309
0.000511309
0.000511309
0.000511309
0.000511309
0.000511309
0.000511309
0.000511309
0.000511309
0.000511309
0.000511309
0.000511309
0.000511309
0.000511309
0.000511309
0.000511309
0.000511309
0.000511309
0.000511309
0.000511309
0.000511309
0.000511309
0.000511309
0.000511309
0.000511309
0.000511309
0.000511309
0.000511309
0.000511309
0.000511309
0.000511309
0.000511309
0.000511309
0.000511309
0.000511309
0.000511309
0.000511309
0.000511309
0.000511309
0.000511309
0.000511309
0.000511309
0.000511309
0.000511309
0.000511309
0.000511309
0.000511309
0.000511309
0.000511309
0.000511309
0.000511309
0.000511309
0.000511309
0.000511309
0.000511309
0.000511309
0.000511309
0.000511309
0.000511309
0.000511309
0.000511309
0.000511309
0.000511309
0.000511309
0.000511309
0.000511309
0.000511309
0.000511309
0.000511309
0.000511309
0.000511309
0.000511309
0.000511309
0.000511309
0.000511309
0.000511309
0.000511309
0.000511309
0.000511309
0.000511309
0.000511309
0.000511309
0.000511309
0.000511309
0.000511309
0.000511309
0.000511309
0.000511309
0.000511309
0.000511309
0.000511309
0.000511309
0.000511309
0.000511309
0.000511309
0.000511309
0.000511309
0.000511309
0.000511309
0.000511309
0.000511309
0.000511309
0.000511309
0.000511309
0.000511309
0.000511309
0.000511309
0.000511309
0.000511309
0.000511309
0.000511309
0.000511309
0.000511309
0.000511309
0.000511309
0.000511309
0.000511309
0.000511309
0.000511309
0.000511309
0.000511309
0.000511309
0.000511309
0.000511309
0.000511309
0.000511309
0.000511309
0.000511309
0.000511309
0.000511309
0.000511309
0.000511309
0.000511309
0.000511309
0.000511309
0.000511309
0.000511309
0.000511309
0.000511309
0.000511309
0.000511309
0.000511309
0.000511309
0.000511309
0.000511309
0.000511309
0.000511309
0.000511309
0.000511309
0.000511309
0.000511309
0.000511309
0.000511309
0.000511309
0.000511309
0.000511309
0.000511309
0.000511309
0.000511309
0.000511309
0.000511309
0.000511309
0.000511309
0.000511309
0.000511309
0.000511309
0.000511309
0.000511309
0.000511309
0.000511309
0.000511309
0.000511309
0.000511309
0.000511309
0.000511309
0.000511309
0.000511309
0.000511309
0.000511309
0.000511309
0.000511309
0.000511309
0.000511309
0.000511309
0.000511309
0.000511309
0.000511309
0.000511309
0.000511309
0.000511309
0.000511309
0.000511309
0.000511309
0.000511309
0.000511309
0.000511309
0.000511309
0.000511309
0.000511309
0.000511309
0.000511309
0.000511309
0.000511309
0.000511309
0.000511309
0.000511309
0.000511309
0.000511309
0.000511309
0.000511309
0.000511309
0.000511309
0.000511309
0.000511309
0.000511309
0.000511309
0.000511309
0.000511309
0.000511309
0.00051131
0.000511309
0.000511309
0.000511309
0.000511309
0.000511309
0.000511309
0.000511309
0.000511309
0.000511309
0.000511309
0.000511309
0.000511309
0.000511309
0.000511309
0.000511309
0.000511309
0.000511309
0.000511309
0.000511309
0.000511309
0.000511309
0.000511309
0.000511309
0.000511309
0.000511309
0.000511309
0.000511309
0.000511309
0.000511309
0.000511309
0.000511309
0.000511309
0.000511309
0.000511309
0.000511309
0.000511309
0.000511309
0.000511309
0.000511309
0.000511309
0.000511309
0.000511309
0.000511309
0.000511309
0.000511309
0.000511309
0.00051131
0.00051131
0.00051131
0.00051131
0.000511309
0.000511309
0.000511309
0.000511309
0.000511309
0.000511309
0.000511309
0.000511309
0.000511309
0.000511309
0.000511309
0.000511309
0.000511309
0.000511309
0.000511309
0.000511309
0.000511309
0.000511309
0.000511309
0.000511309
0.000511309
0.000511309
0.000511309
0.000511309
0.000511309
0.000511309
0.000511309
0.000511309
0.000511309
0.000511309
0.000511309
0.000511309
0.000511309
0.000511309
0.000511309
0.000511309
0.000511309
0.000511309
0.000511309
0.000511309
0.000511309
0.000511309
0.000511309
0.00051131
0.00051131
0.00051131
0.00051131
0.000511311
0.000511311
0.000511312
0.000511309
0.000511309
0.000511309
0.000511309
0.000511309
0.000511309
0.000511309
0.000511309
0.000511309
0.000511309
0.000511309
0.000511309
0.000511309
0.000511309
0.000511309
0.000511309
0.000511309
0.000511309
0.000511309
0.000511309
0.000511309
0.000511309
0.000511309
0.000511309
0.000511309
0.000511309
0.000511309
0.000511309
0.000511309
0.000511309
0.000511309
0.000511309
0.000511309
0.000511309
0.000511309
0.000511309
0.000511309
0.000511309
0.000511309
0.000511309
0.00051131
0.00051131
0.00051131
0.00051131
0.000511311
0.000511311
0.000511312
0.000511314
0.000511316
0.00051132
0.000511309
0.000511309
0.000511309
0.000511309
0.000511309
0.000511309
0.000511309
0.000511309
0.000511309
0.000511309
0.000511309
0.000511309
0.000511309
0.000511309
0.000511309
0.000511309
0.000511309
0.000511309
0.000511309
0.000511309
0.000511309
0.000511309
0.000511309
0.000511309
0.000511309
0.000511309
0.000511309
0.000511309
0.000511309
0.000511309
0.000511309
0.000511309
0.000511309
0.000511309
0.000511309
0.000511309
0.00051131
0.00051131
0.00051131
0.00051131
0.00051131
0.000511311
0.000511311
0.000511312
0.000511314
0.000511316
0.000511319
0.000511324
0.000511332
0.000511346
0.000511309
0.000511309
0.000511309
0.000511309
0.000511309
0.000511309
0.000511309
0.000511309
0.000511309
0.000511309
0.000511309
0.000511309
0.000511309
0.000511309
0.000511309
0.000511309
0.000511309
0.000511309
0.000511309
0.000511309
0.000511309
0.000511309
0.000511309
0.000511309
0.000511309
0.000511309
0.000511309
0.000511309
0.000511309
0.000511309
0.000511309
0.000511309
0.000511309
0.00051131
0.00051131
0.00051131
0.00051131
0.00051131
0.000511311
0.000511311
0.000511312
0.000511314
0.000511316
0.000511319
0.000511325
0.000511332
0.000511344
0.000511362
0.000511389
0.000511434
0.000511309
0.000511309
0.000511309
0.000511309
0.000511309
0.000511309
0.000511309
0.000511309
0.000511309
0.000511309
0.000511309
0.000511309
0.000511309
0.000511309
0.000511309
0.000511309
0.000511309
0.000511309
0.000511309
0.000511309
0.000511309
0.000511309
0.000511309
0.000511309
0.000511309
0.000511309
0.000511309
0.000511309
0.000511309
0.000511309
0.00051131
0.00051131
0.00051131
0.00051131
0.00051131
0.000511311
0.000511312
0.000511313
0.000511314
0.000511316
0.00051132
0.000511325
0.000511333
0.000511344
0.000511362
0.000511388
0.000511428
0.000511488
0.000511579
0.000511729
0.000511309
0.000511309
0.000511309
0.000511309
0.000511309
0.000511309
0.000511309
0.000511309
0.000511309
0.000511309
0.000511309
0.000511309
0.000511309
0.000511309
0.000511309
0.000511309
0.000511309
0.000511309
0.000511309
0.000511309
0.000511309
0.000511309
0.000511309
0.000511309
0.000511309
0.000511309
0.00051131
0.00051131
0.00051131
0.00051131
0.00051131
0.00051131
0.000511311
0.000511312
0.000511313
0.000511314
0.000511317
0.00051132
0.000511326
0.000511334
0.000511345
0.000511363
0.000511389
0.000511428
0.000511487
0.000511575
0.000511707
0.000511905
0.000512202
0.000512684
0.000511309
0.000511309
0.000511309
0.000511309
0.000511309
0.000511309
0.000511309
0.000511309
0.000511309
0.000511309
0.000511309
0.000511309
0.000511309
0.000511309
0.000511309
0.000511309
0.000511309
0.000511309
0.000511309
0.000511309
0.000511309
0.000511309
0.000511309
0.00051131
0.00051131
0.00051131
0.00051131
0.00051131
0.000511311
0.000511311
0.000511312
0.000511313
0.000511315
0.000511318
0.000511321
0.000511327
0.000511335
0.000511347
0.000511365
0.000511392
0.000511431
0.000511489
0.000511576
0.000511704
0.000511895
0.00051218
0.000512605
0.000513236
0.000514173
0.000515659
0.000511309
0.000511309
0.000511309
0.000511309
0.000511309
0.000511309
0.000511309
0.000511309
0.000511309
0.000511309
0.000511309
0.000511309
0.000511309
0.000511309
0.000511309
0.000511309
0.000511309
0.000511309
0.000511309
0.00051131
0.00051131
0.00051131
0.00051131
0.00051131
0.00051131
0.000511311
0.000511311
0.000511312
0.000511314
0.000511316
0.000511318
0.000511323
0.000511328
0.000511337
0.00051135
0.000511368
0.000511396
0.000511436
0.000511495
0.000511581
0.000511709
0.000511898
0.000512176
0.000512586
0.000513191
0.000514081
0.000515387
0.000517297
0.000520057
0.000524276
0.000511309
0.000511309
0.000511309
0.000511309
0.000511309
0.000511309
0.000511309
0.000511309
0.000511309
0.000511309
0.000511309
0.000511309
0.000511309
0.000511309
0.000511309
0.000511309
0.00051131
0.00051131
0.00051131
0.00051131
0.00051131
0.000511311
0.000511311
0.000511312
0.000511313
0.000511314
0.000511317
0.00051132
0.000511324
0.000511331
0.00051134
0.000511353
0.000511373
0.000511402
0.000511443
0.000511504
0.000511593
0.000511722
0.000511911
0.000512187
0.000512592
0.000513183
0.000514045
0.000515298
0.000517113
0.000519722
0.000523437
0.000528663
0.000535862
0.000546262
0.000511309
0.000511309
0.000511309
0.000511309
0.000511309
0.000511309
0.000511309
0.000511309
0.000511309
0.000511309
0.000511309
0.000511309
0.00051131
0.00051131
0.00051131
0.00051131
0.00051131
0.00051131
0.000511311
0.000511311
0.000511312
0.000511313
0.000511315
0.000511318
0.000511321
0.000511326
0.000511333
0.000511344
0.000511358
0.000511379
0.00051141
0.000511454
0.000511518
0.00051161
0.000511743
0.000511936
0.000512216
0.000512621
0.000513209
0.000514058
0.000515283
0.00051704
0.000519545
0.000523083
0.000528016
0.000534792
0.000543943
0.000556141
0.000571894
0.000593397
0.000511309
0.000511309
0.000511309
0.000511309
0.000511309
0.000511309
0.000511309
0.000511309
0.00051131
0.00051131
0.00051131
0.00051131
0.00051131
0.00051131
0.000511311
0.000511311
0.000511312
0.000511313
0.000511314
0.000511316
0.000511319
0.000511323
0.000511329
0.000511337
0.000511348
0.000511365
0.000511388
0.000511421
0.000511468
0.000511536
0.000511633
0.000511773
0.000511973
0.000512262
0.000512675
0.000513269
0.000514121
0.000515338
0.000517068
0.000519514
0.000522939
0.000527678
0.000534138
0.000542807
0.000554253
0.000569102
0.000588024
0.000611929
0.000641665
0.000681047
0.000511309
0.000511309
0.000511309
0.000511309
0.00051131
0.00051131
0.00051131
0.00051131
0.00051131
0.00051131
0.000511311
0.000511311
0.000511312
0.000511313
0.000511314
0.000511315
0.000511318
0.000511321
0.000511326
0.000511332
0.000511341
0.000511354
0.000511373
0.000511399
0.000511435
0.000511487
0.000511561
0.000511665
0.000511814
0.000512026
0.000512328
0.000512757
0.000513368
0.000514237
0.000515466
0.000517198
0.000519624
0.000522991
0.000527611
0.000533859
0.000542177
0.000553081
0.000567149
0.00058498
0.000607296
0.000635096
0.000669562
0.000712031
0.00076308
0.000832973
0.00051131
0.00051131
0.00051131
0.00051131
0.00051131
0.00051131
0.00051131
0.000511311
0.000511311
0.000511312
0.000511313
0.000511315
0.000511317
0.00051132
0.000511324
0.000511329
0.000511337
0.000511348
0.000511362
0.000511383
0.000511413
0.000511454
0.000511511
0.000511593
0.000511707
0.000511869
0.000512096
0.000512418
0.000512871
0.00051351
0.000514409
0.000515671
0.000517433
0.000519876
0.000523236
0.000527804
0.000533929
0.000542015
0.000552532
0.000566008
0.000583003
0.000604138
0.000630248
0.000662513
0.000701972
0.000749882
0.000808914
0.000884888
0.000982276
0.00111602
0.00051131
0.00051131
0.00051131
0.00051131
0.000511311
0.000511311
0.000511312
0.000511313
0.000511314
0.000511316
0.000511319
0.000511322
0.000511327
0.000511334
0.000511343
0.000511356
0.000511373
0.000511397
0.000511431
0.000511478
0.000511543
0.000511634
0.000511762
0.00051194
0.000512188
0.000512536
0.000513023
0.000513702
0.000514649
0.000515965
0.000517785
0.000520283
0.000523685
0.000528265
0.00053435
0.00054231
0.000552575
0.000565626
0.000581988
0.000602204
0.000626995
0.000657383
0.000694506
0.00073935
0.000793827
0.000862184
0.000950512
0.00106395
0.0012047
0.00136506
0.00154538
0.000511311
0.000511311
0.000511312
0.000511313
0.000511314
0.000511316
0.000511318
0.000511322
0.000511326
0.000511332
0.00051134
0.000511351
0.000511366
0.000511387
0.000511416
0.000511455
0.00051151
0.000511585
0.000511689
0.000511833
0.000512032
0.000512308
0.000512691
0.000513221
0.000513955
0.000514967
0.000516361
0.000518268
0.00052086
0.000524351
0.000529003
0.000535123
0.000543054
0.000553184
0.000565956
0.000581857
0.000601381
0.000625152
0.000654053
0.000689248
0.000731637
0.000782607
0.000845346
0.000925256
0.00102794
0.00115637
0.00130854
0.00147562
0.00164542
0.00180055
0.001937
0.000511313
0.000511314
0.000511316
0.000511318
0.000511321
0.000511325
0.000511331
0.000511338
0.000511348
0.000511362
0.00051138
0.000511406
0.00051144
0.000511487
0.000511551
0.000511639
0.000511759
0.000511925
0.000512151
0.000512463
0.000512891
0.000513478
0.000514282
0.000515382
0.000516879
0.000518907
0.000521633
0.000525263
0.00053005
0.000536279
0.00054427
0.000554376
0.000567004
0.000582601
0.000601634
0.000624641
0.000652398
0.000685999
0.000726386
0.000774619
0.000833053
0.000906313
0.000999912
0.00111775
0.00125967
0.00141979
0.00158691
0.00174741
0.00188841
0.00200291
0.00208704
0.00214436
0.000511321
0.000511325
0.000511331
0.000511338
0.000511347
0.00051136
0.000511377
0.0005114
0.000511431
0.000511472
0.000511529
0.000511606
0.00051171
0.000511852
0.000512045
0.000512307
0.000512664
0.00051315
0.000513809
0.000514704
0.000515915
0.000517546
0.000519731
0.000522634
0.000526457
0.000531438
0.000537847
0.000545981
0.000556161
0.000568763
0.000584199
0.000602908
0.000625366
0.000652261
0.000684584
0.000723348
0.000769424
0.000824586
0.000892649
0.000978819
0.00108746
0.00121976
0.001372
0.00153503
0.0016965
0.00184367
0.0019673
0.00206259
0.00213012
0.00217245
0.00219627
0.00220484
0.000511347
0.000511359
0.000511375
0.000511397
0.000511426
0.000511465
0.000511516
0.000511586
0.000511679
0.000511805
0.000511975
0.000512203
0.00051251
0.000512925
0.000513484
0.000514236
0.000515246
0.000516597
0.000518398
0.000520781
0.00052391
0.00052798
0.000533218
0.000539879
0.000548238
0.000558589
0.000571276
0.000586682
0.000605222
0.000627321
0.000653599
0.000684952
0.000722432
0.000766809
0.000819471
0.000883508
0.000963704
0.00106458
0.00118822
0.0013325
0.00149027
0.00165057
0.00180116
0.00193171
0.00203652
0.00211382
0.00216585
0.00219593
0.0022114
0.00221433
0.00221422
0.00221364
0.000511425
0.000511462
0.000511511
0.000511576
0.000511663
0.000511778
0.000511932
0.000512137
0.000512412
0.000512778
0.000513267
0.00051392
0.000514789
0.000515943
0.00051747
0.000519481
0.000522111
0.000525518
0.000529894
0.000535455
0.00054244
0.000551101
0.00056171
0.000574583
0.000590077
0.000608581
0.00063049
0.000656365
0.000687022
0.000723521
0.000766582
0.000817331
0.000878288
0.000953774
0.00104826
0.00116436
0.00130111
0.00145306
0.00161064
0.00176247
0.00189793
0.00201019
0.00209599
0.00215646
0.00219449
0.00221548
0.00222311
0.00222315
0.00222351
0.00222142
0.00221481
0.00220305
0.000511659
0.000511768
0.000511913
0.000512104
0.000512356
0.00051269
0.000513132
0.000513717
0.000514489
0.000515505
0.000516839
0.000518585
0.000520855
0.000523783
0.000527529
0.000532273
0.000538224
0.000545604
0.000554645
0.000565596
0.00057875
0.000594443
0.000613041
0.000634916
0.000660579
0.000690795
0.000726573
0.00076865
0.000817965
0.000876604
0.000948443
0.00103779
0.00114751
0.00127747
0.0014235
0.00157741
0.00172878
0.0018672
0.00198488
0.00207789
0.00214599
0.00219135
0.0022176
0.00223041
0.00223261
0.00223241
0.00223188
0.00222781
0.00221901
0.00220586
0.00219006
0.00217049
0.000512337
0.000512652
0.000513064
0.000513605
0.000514312
0.000515235
0.000516437
0.000517996
0.000520011
0.000522596
0.000525885
0.000530033
0.000535214
0.000541624
0.000549471
0.000558966
0.000570339
0.000583863
0.000599858
0.00061867
0.000640649
0.000666271
0.000696264
0.000731583
0.000772979
0.000821256
0.000878211
0.000947299
0.00103261
0.00113709
0.00126112
0.00140149
0.00155126
0.00170095
0.00184058
0.00196195
0.00206063
0.0021351
0.0021868
0.00221882
0.00223636
0.00224176
0.00224174
0.002242
0.00223955
0.00223253
0.00222188
0.00220762
0.00219077
0.00217182
0.00215254
0.00213172
0.00051424
0.000515104
0.00051622
0.000517655
0.000519494
0.000521837
0.000524801
0.000528517
0.000533134
0.000538821
0.000545761
0.000554144
0.000564164
0.000576033
0.000590013
0.00060641
0.00062555
0.000647765
0.000673509
0.000703483
0.000738598
0.000779595
0.000827187
0.000882975
0.000950074
0.00103232
0.00113263
0.00125165
0.00138687
0.00153234
0.00167947
0.00181889
0.00194255
0.00204523
0.00212478
0.00218193
0.00221944
0.00224084
0.00225002
0.00225124
0.00225145
0.00225036
0.00224557
0.00223672
0.00222427
0.00220931
0.00219167
0.00217285
0.00215363
0.00213394
0.00211449
0.00209403
0.000521431
0.000524171
0.000527586
0.000531801
0.000536961
0.000543225
0.000550767
0.000559757
0.000570372
0.000582813
0.000597332
0.000614227
0.000633805
0.000656382
0.0006824
0.000712547
0.000747698
0.000788559
0.000835783
0.000890848
0.000956615
0.00103667
0.00113379
0.00124871
0.0013794
0.00152064
0.0016647
0.00180289
0.00192732
0.00203247
0.00211586
0.00217773
0.00221957
0.00224481
0.00225767
0.00226081
0.00226077
0.00226068
0.00225754
0.00225011
0.00223968
0.00222621
0.00221022
0.00219244
0.00217409
0.00215518
0.00213597
0.00211675
0.00209742
0.00207842
0.00205852
0.000535887
0.000541664
0.000548578
0.000556788
0.000566449
0.000577722
0.000590801
0.000605939
0.000623425
0.000643548
0.000666609
0.000693053
0.000723565
0.000758987
0.000799968
0.000847123
0.000901868
0.000966892
0.00104553
0.00114035
0.00125204
0.00137884
0.00151609
0.00165682
0.00179296
0.00191694
0.00202325
0.00210928
0.00217435
0.00221982
0.00224878
0.00226476
0.00226985
0.00227038
0.0022708
0.00226873
0.00226289
0.00225394
0.00224198
0.00222767
0.00221104
0.00219345
0.00217533
0.00215677
0.00213809
0.00211936
0.00210056