/*--------------------------------*- C++ -*----------------------------------*\
| =========                 |                                                 |
| \\      /  F ield         | OpenFOAM: The Open Source CFD Toolbox           |
|  \\    /   O peration     | Version:  v1706                                 |
|   \\  /    A nd           | Web:      www.OpenFOAM.com                      |
|    \\/     M anipulation  |                                                 |
\*---------------------------------------------------------------------------*/
FoamFile
{
    version     2.0;
    format      ascii;
    class       volScalarField;
    location    "3.5e-05";
    object      Tov;
}
// * * * * * * * * * * * * * * * * * * * * * * * * * * * * * * * * * * * * * //

dimensions      [0 0 0 1 0 0 0];


internalField   nonuniform List<scalar> 
30038
(
144.4
144.4
144.4
144.4
144.4
144.4
144.4
144.4
144.4
144.4
144.4
144.4
144.4
144.4
144.4
144.4
144.4
144.4
144.4
144.4
144.4
144.4
144.4
144.4
144.4
144.4
144.4
144.4
144.4
144.4
144.4
144.4
144.4
144.4
144.4
144.4
144.4
144.4
144.4
144.4
144.4
144.4
144.4
144.4
144.4
144.4
144.4
144.4
144.4
144.4
144.4
144.4
144.4
144.4
144.4
144.4
144.4
144.4
144.4
144.4
144.4
144.4
144.4
144.4
144.4
144.4
144.4
144.4
144.4
144.4
144.4
144.4
144.4
144.4
144.4
144.4
144.4
144.4
144.4
144.4
144.4
144.4
144.4
144.4
144.4
144.4
144.4
144.4
144.4
144.4
144.4
144.4
144.4
144.4
144.4
144.4
144.4
144.4
144.4
144.4
144.4
144.4
144.4
144.4
144.4
144.4
144.4
144.4
144.4
144.4
144.4
144.4
144.4
144.4
144.4
144.4
144.4
144.4
144.4
144.4
144.4
144.4
144.4
144.4
144.4
144.4
144.4
144.4
144.4
144.4
144.4
144.4
144.4
144.4
144.4
144.4
144.4
144.4
144.4
144.4
144.4
144.4
144.4
144.4
144.4
144.4
144.4
144.4
144.4
144.4
144.4
144.4
144.4
144.4
144.4
144.4
144.4
144.4
144.4
144.4
144.4
144.4
144.4
144.4
144.4
144.4
144.4
144.4
144.4
144.4
144.4
144.4
144.4
144.4
144.4
144.4
144.4
144.4
144.4
144.4
144.4
144.4
144.4
144.4
144.4
144.4
144.4
144.4
144.4
144.4
144.4
144.4
144.4
144.4
144.4
144.4
144.4
144.4
144.4
144.4
144.4
144.4
144.4
144.4
144.4
144.4
144.4
144.4
144.4
144.4
144.4
144.4
144.4
144.4
144.4
144.4
144.4
144.4
144.4
144.4
144.4
144.4
144.4
144.4
144.4
144.4
144.4
144.4
144.4
144.4
144.4
144.4
144.4
144.4
144.4
144.4
144.4
144.4
144.4
144.4
144.4
144.4
144.4
144.4
144.4
144.4
144.4
144.4
144.4
144.4
144.4
144.4
144.4
144.4
144.4
144.4
144.4
144.4
144.4
144.4
144.4
144.4
144.4
144.4
144.4
144.4
144.4
144.4
144.4
144.4
144.4
144.4
144.4
144.4
144.4
144.4
144.4
144.4
144.4
144.4
144.4
144.4
144.4
144.4
144.4
144.4
144.4
144.4
144.4
144.4
144.4
144.4
144.4
144.4
144.4
144.4
144.4
144.4
144.4
144.4
144.4
144.4
144.4
144.4
144.4
144.4
144.4
144.4
144.4
144.4
144.4
144.4
144.4
144.4
144.4
144.4
144.4
144.4
144.4
144.4
144.4
144.4
144.4
144.4
144.4
144.4
144.4
144.4
144.4
144.4
144.4
144.4
144.4
144.4
144.4
144.4
144.4
144.4
144.4
144.4
144.4
144.4
144.4
144.4
144.4
144.4
144.4
144.4
144.4
144.4
144.4
144.4
144.4
144.4
144.4
144.4
144.4
144.4
144.4
144.4
144.4
144.4
144.4
144.4
144.4
144.4
144.4
144.4
144.4
144.4
144.4
144.4
144.4
144.4
144.4
144.4
144.4
144.4
144.4
144.4
144.4
144.4
144.4
144.4
144.4
144.4
144.4
144.4
144.4
144.4
144.4
144.4
144.4
144.4
144.4
144.4
144.4
144.4
144.4
144.4
144.4
144.4
144.4
144.4
144.4
144.4
144.4
144.4
144.4
144.4
144.4
144.4
144.4
144.4
144.4
144.4
144.4
144.4
144.4
144.4
144.4
144.4
144.4
144.4
144.4
144.4
144.4
144.4
144.4
144.4
144.4
144.4
144.4
144.4
144.4
144.4
144.4
144.4
144.4
144.4
144.4
144.4
144.4
144.4
144.4
144.4
144.4
144.4
144.4
144.4
144.4
144.4
144.4
144.4
144.4
144.4
144.4
144.4
144.4
144.4
144.4
144.4
144.4
144.4
144.4
144.4
144.4
144.4
144.4
144.4
144.4
144.4
144.4
144.4
144.4
144.4
144.4
144.4
144.4
144.4
144.4
144.4
144.4
144.4
144.4
144.4
144.4
144.4
144.4
144.4
144.4
144.4
144.4
144.4
144.4
144.4
144.4
144.4
144.4
144.4
144.4
144.4
144.4
144.4
144.4
144.4
144.4
144.4
144.4
144.4
144.4
144.4
144.4
144.4
144.4
144.4
144.4
144.4
144.4
144.4
144.4
144.4
144.4
144.4
144.4
144.4
144.4
144.4
144.4
144.4
144.4
144.4
144.4
144.4
144.4
144.4
144.4
144.4
144.4
144.4
144.4
144.4
144.4
144.4
144.4
144.4
144.4
144.4
144.4
144.4
144.4
144.4
144.4
144.4
144.4
144.4
144.4
144.4
144.4
144.4
144.4
144.4
144.4
144.4
144.4
144.4
144.4
144.4
144.4
144.4
144.4
144.4
144.4
144.4
144.4
144.4
144.4
144.4
144.4
144.4
144.4
144.4
144.4
144.4
144.4
144.4
144.4
144.4
144.4
144.4
144.4
144.4
144.4
144.4
144.4
144.4
144.4
144.4
144.4
144.4
144.4
144.4
144.4
144.4
144.4
144.4
144.4
144.4
144.4
144.4
144.4
144.4
144.4
144.4
144.4
144.4
144.4
144.4
144.4
144.4
144.4
144.4
144.4
144.4
144.4
144.4
144.4
144.4
144.4
144.4
144.4
144.4
144.4
144.4
144.4
144.4
144.4
144.4
144.4
144.4
144.4
144.4
144.4
144.4
144.4
144.4
144.4
144.4
144.4
144.4
144.4
144.4
144.4
144.4
144.4
144.4
144.4
144.4
144.4
144.4
144.4
144.4
144.4
144.4
144.4
144.4
144.4
144.4
144.4
144.4
144.4
144.4
144.4
144.4
144.4
144.4
144.4
144.4
144.4
144.4
144.4
144.4
144.4
144.4
144.4
144.4
144.4
144.4
144.4
144.4
144.4
144.4
144.4
144.4
144.4
144.4
144.4
144.4
144.4
144.4
144.4
144.4
144.4
144.4
144.4
144.4
144.4
144.4
144.4
144.4
144.4
144.4
144.4
144.4
144.4
144.4
144.4
144.4
144.4
144.4
144.4
144.4
144.4
144.4
144.4
144.4
144.4
144.4
144.4
144.4
144.4
144.4
144.4
144.4
144.4
144.4
144.4
144.4
144.4
144.4
144.4
144.4
144.4
144.4
144.4
144.4
144.4
144.4
144.4
144.4
144.4
144.4
144.4
144.4
144.4
144.4
144.4
144.4
144.4
144.4
144.4
144.4
144.4
144.4
144.4
144.4
144.4
144.4
144.4
144.4
144.4
144.4
144.4
144.4
144.4
144.4
144.4
144.4
144.4
144.4
144.4
144.4
144.4
144.4
144.4
144.4
144.4
144.4
144.4
144.4
144.4
144.4
144.4
144.4
144.4
144.4
144.4
144.4
144.4
144.4
144.4
144.4
144.4
144.4
144.4
144.4
144.4
144.4
144.4
144.4
144.4
144.4
144.4
144.4
144.4
144.4
144.4
144.4
144.4
144.4
144.4
144.4
144.4
144.4
144.4
144.4
144.4
144.4
144.4
144.4
144.4
144.4
144.4
144.4
144.4
144.4
144.4
144.4
144.4
144.4
144.4
144.4
144.4
144.4
144.4
144.4
144.4
144.4
144.4
144.4
144.4
144.4
144.4
144.4
144.4
144.4
144.4
144.4
144.4
144.4
144.4
144.4
144.4
144.4
144.4
144.4
144.4
144.4
144.4
144.4
144.4
144.4
144.4
144.4
144.4
144.4
144.4
144.4
144.4
144.4
144.4
144.4
144.4
144.4
144.4
144.4
144.4
144.4
144.4
144.4
144.4
144.4
144.4
144.4
144.4
144.4
144.4
144.4
144.4
144.4
144.4
144.4
144.4
144.4
144.4
144.4
144.4
144.4
144.4
144.4
144.4
144.4
144.4
144.4
144.4
144.4
144.4
144.4
144.4
144.4
144.4
144.4
144.4
144.4
144.4
144.4
144.4
144.4
144.4
144.4
144.4
144.4
144.4
144.4
144.4
144.4
144.4
144.4
144.4
144.4
144.4
144.4
144.4
144.4
144.4
144.4
144.4
144.4
144.4
144.4
144.4
144.4
144.4
144.4
144.4
144.4
144.4
144.4
144.4
144.4
144.4
144.4
144.4
144.4
144.4
144.4
144.4
144.4
144.4
144.4
144.4
144.4
144.4
144.4
144.4
144.4
144.4
144.4
144.4
144.4
144.4
144.4
144.4
144.4
144.4
144.4
144.4
144.4
144.4
144.4
144.4
144.4
144.4
144.4
144.4
144.4
144.4
144.4
144.4
144.4
144.4
144.4
144.4
144.4
144.4
144.4
144.4
144.4
144.4
144.4
144.4
144.4
144.4
144.4
144.4
144.4
144.4
144.4
144.4
144.4
144.4
144.4
144.4
144.4
144.4
144.4
144.4
144.4
144.4
144.4
144.4
144.4
144.4
144.4
144.4
144.4
144.4
144.4
144.4
144.4
144.4
144.4
144.4
144.4
144.4
144.4
144.4
144.4
144.4
144.4
144.4
144.4
144.4
144.4
144.4
144.4
144.4
144.4
144.4
144.4
144.4
144.4
144.4
144.4
144.4
144.4
144.4
144.4
144.4
144.4
144.4
144.4
144.4
144.4
144.4
144.4
144.4
144.4
144.4
144.4
144.4
144.4
144.4
144.4
144.4
144.4
144.4
144.4
144.4
144.4
144.4
144.4
144.4
144.4
144.4
144.4
144.4
144.4
144.4
144.4
144.4
144.4
144.4
144.4
144.4
144.4
144.4
144.4
144.4
144.4
144.4
144.4
144.4
144.4
144.4
144.4
144.4
144.4
144.4
144.4
144.4
144.4
144.4
144.4
144.4
144.4
144.4
144.4
144.4
144.4
144.4
144.4
144.4
144.4
144.4
144.4
144.4
144.4
144.4
144.4
144.4
144.4
144.4
144.4
144.4
144.4
144.4
144.4
144.4
144.4
144.4
144.4
144.4
144.4
144.4
144.4
144.4
144.4
144.4
144.4
144.4
144.4
144.4
144.4
144.4
144.4
144.4
144.4
144.4
144.4
144.4
144.4
144.4
144.4
144.4
144.4
144.4
144.4
144.4
144.4
144.4
144.4
144.4
144.4
144.4
144.4
144.4
144.4
144.4
144.4
144.4
144.401
144.4
144.4
144.4
144.4
144.4
144.4
144.4
144.4
144.4
144.4
144.4
144.4
144.4
144.4
144.4
144.4
144.4
144.4
144.4
144.4
144.4
144.4
144.4
144.4
144.4
144.4
144.4
144.4
144.4
144.4
144.4
144.4
144.4
144.4
144.4
144.4
144.4
144.4
144.4
144.4
144.4
144.4
144.4
144.4
144.4
144.4
144.401
144.401
144.401
144.402
144.4
144.4
144.4
144.4
144.4
144.4
144.4
144.4
144.4
144.4
144.4
144.4
144.4
144.4
144.4
144.4
144.4
144.4
144.4
144.4
144.4
144.4
144.4
144.4
144.4
144.4
144.4
144.4
144.4
144.4
144.4
144.4
144.4
144.4
144.4
144.4
144.4
144.4
144.4
144.4
144.4
144.4
144.4
144.401
144.401
144.401
144.402
144.403
144.405
144.407
144.4
144.4
144.4
144.4
144.4
144.4
144.4
144.4
144.4
144.4
144.4
144.4
144.4
144.4
144.4
144.4
144.4
144.4
144.4
144.4
144.4
144.4
144.4
144.4
144.4
144.4
144.4
144.4
144.4
144.4
144.4
144.4
144.4
144.4
144.4
144.4
144.4
144.4
144.4
144.4
144.401
144.401
144.401
144.402
144.403
144.405
144.407
144.411
144.417
144.427
144.4
144.4
144.4
144.4
144.4
144.4
144.4
144.4
144.4
144.4
144.4
144.4
144.4
144.4
144.4
144.4
144.4
144.4
144.4
144.4
144.4
144.4
144.4
144.4
144.4
144.4
144.4
144.4
144.4
144.4
144.4
144.4
144.4
144.4
144.4
144.4
144.4
144.401
144.401
144.402
144.402
144.403
144.405
144.408
144.412
144.417
144.426
144.44
144.461
144.495
144.4
144.4
144.4
144.4
144.4
144.4
144.4
144.4
144.4
144.4
144.4
144.4
144.4
144.4
144.4
144.4
144.4
144.4
144.4
144.4
144.4
144.4
144.4
144.4
144.4
144.4
144.4
144.4
144.4
144.4
144.4
144.4
144.4
144.401
144.401
144.401
144.402
144.402
144.404
144.405
144.408
144.412
144.418
144.427
144.441
144.462
144.493
144.541
144.615
144.731
144.4
144.4
144.4
144.4
144.4
144.4
144.4
144.4
144.4
144.4
144.4
144.4
144.4
144.4
144.4
144.4
144.4
144.4
144.4
144.4
144.4
144.4
144.4
144.4
144.4
144.4
144.4
144.4
144.4
144.4
144.401
144.401
144.401
144.402
144.403
144.404
144.406
144.409
144.413
144.419
144.429
144.443
144.464
144.496
144.543
144.615
144.723
144.887
145.137
145.529
144.4
144.4
144.4
144.4
144.4
144.4
144.4
144.4
144.4
144.4
144.4
144.4
144.4
144.4
144.4
144.4
144.4
144.4
144.4
144.4
144.4
144.4
144.4
144.4
144.4
144.4
144.4
144.401
144.401
144.401
144.402
144.403
144.405
144.407
144.41
144.414
144.421
144.431
144.446
144.468
144.5
144.549
144.621
144.729
144.89
145.132
145.495
146.04
146.867
148.143
144.4
144.4
144.4
144.4
144.4
144.4
144.4
144.4
144.4
144.4
144.4
144.4
144.4
144.4
144.4
144.4
144.4
144.4
144.4
144.4
144.4
144.4
144.4
144.401
144.401
144.401
144.402
144.403
144.404
144.405
144.408
144.411
144.416
144.423
144.434
144.45
144.473
144.507
144.558
144.632
144.742
144.905
145.147
145.506
146.04
146.833
148.014
149.768
152.381
156.303
144.4
144.4
144.4
144.4
144.4
144.4
144.4
144.4
144.4
144.4
144.4
144.4
144.4
144.4
144.4
144.4
144.4
144.4
144.4
144.401
144.401
144.401
144.401
144.402
144.403
144.404
144.406
144.409
144.413
144.418
144.426
144.438
144.455
144.48
144.517
144.57
144.648
144.762
144.93
145.176
145.539
146.074
146.862
148.021
149.725
152.221
155.855
161.111
168.644
179.341
144.4
144.4
144.4
144.4
144.4
144.4
144.4
144.4
144.4
144.4
144.4
144.4
144.4
144.4
144.4
144.4
144.401
144.401
144.401
144.402
144.403
144.404
144.405
144.407
144.41
144.415
144.421
144.43
144.444
144.462
144.49
144.529
144.586
144.67
144.79
144.966
145.222
145.596
146.141
146.938
148.1
149.792
152.248
155.793
160.864
168.033
178.005
191.595
209.687
233.124
144.4
144.4
144.4
144.4
144.4
144.4
144.4
144.4
144.4
144.4
144.4
144.4
144.401
144.401
144.401
144.402
144.402
144.403
144.405
144.406
144.409
144.413
144.418
144.425
144.436
144.45
144.472
144.502
144.546
144.608
144.699
144.829
145.016
145.287
145.678
146.245
147.064
148.25
149.961
152.422
155.943
160.938
167.942
177.608
190.674
207.9
229.965
257.357
290.315
328.685
144.4
144.4
144.4
144.4
144.4
144.4
144.4
144.4
144.401
144.401
144.401
144.402
144.402
144.403
144.404
144.406
144.408
144.411
144.415
144.421
144.43
144.442
144.459
144.484
144.518
144.567
144.637
144.737
144.879
145.083
145.374
145.791
146.39
147.249
148.479
150.239
152.748
156.304
161.306
168.259
177.78
190.559
207.306
228.647
255.022
286.585
323.157
364.252
409.195
456.987
144.4
144.4
144.4
144.4
144.401
144.401
144.401
144.402
144.402
144.403
144.404
144.405
144.407
144.41
144.414
144.419
144.426
144.437
144.451
144.471
144.5
144.54
144.596
144.675
144.787
144.945
145.17
145.489
145.942
146.586
147.501
148.8
150.641
153.241
156.893
161.98
168.99
178.503
191.171
207.656
228.543
254.246
284.917
320.396
360.218
403.661
449.807
497.563
545.805
593.539
144.401
144.401
144.401
144.402
144.402
144.403
144.404
144.405
144.407
144.409
144.413
144.418
144.424
144.433
144.446
144.463
144.487
144.521
144.567
144.633
144.724
144.852
145.032
145.284
145.639
146.139
146.843
147.835
149.23
151.188
153.927
157.736
162.992
170.162
179.802
192.523
208.942
229.598
254.872
284.906
319.562
358.417
400.811
445.905
492.683
539.998
586.736
631.777
673.768
711.532
144.402
144.402
144.403
144.404
144.405
144.407
144.409
144.412
144.417
144.423
144.431
144.442
144.458
144.479
144.508
144.549
144.604
144.682
144.789
144.938
145.145
145.433
145.835
146.396
147.179
148.272
149.794
151.91
154.842
158.877
164.388
171.827
181.726
194.66
211.198
231.832
256.9
286.524
320.57
358.649
400.155
444.32
490.237
536.849
583.098
627.931
670.166
708.386
741.298
768.047
789.021
144.405
144.407
144.409
144.412
144.417
144.422
144.43
144.441
144.455
144.474
144.501
144.537
144.586
144.654
144.747
144.874
145.05
145.293
145.628
146.09
146.73
147.615
148.839
150.527
152.85
156.035
160.374
166.234
174.057
184.352
197.655
214.491
235.297
260.366
289.788
323.422
360.901
401.661
444.994
490.083
535.971
581.656
626.174
668.498
707.382
741.507
769.903
792.258
809.031
820.975
829.426
144.413
144.417
144.423
144.43
144.44
144.454
144.472
144.497
144.53
144.576
144.637
144.72
144.834
144.989
145.2
145.489
145.884
146.425
147.167
148.183
149.574
151.475
154.064
157.576
162.306
168.621
176.952
187.783
201.616
218.922
240.085
265.344
294.752
328.155
365.195
405.343
447.941
492.242
537.388
582.441
626.503
668.662
707.84
742.81
772.523
796.454
814.747
828.084
837.384
843.685
847.738
850.397
144.442
144.455
144.473
144.497
144.529
144.572
144.629
144.707
144.811
144.952
145.142
145.4
145.75
146.223
146.867
147.74
148.924
150.53
152.702
155.628
159.553
164.777
171.666
180.641
192.158
206.68
224.624
246.316
271.937
301.499
334.827
371.57
411.223
453.174
496.734
541.132
585.5
628.996
670.796
709.968
745.404
776.043
801.22
820.866
835.484
845.871
852.949
857.599
860.514
862.28
863.218
863.556
144.532
144.574
144.63
144.704
144.803
144.936
145.114
145.352
145.671
146.1
146.677
147.453
148.496
149.897
151.777
154.293
157.645
162.086
167.925
175.525
185.29
197.651
213.022
231.767
254.145
280.282
310.142
343.529
380.093
419.35
460.728
503.59
547.239
590.88
633.722
675.011
713.933
749.504
780.703
806.791
827.535
843.253
854.625
862.496
867.749
871.064
873.036
874.135
874.528
874.468
874.37
874.064
144.81
144.939
145.111
145.338
145.64
146.042
146.577
147.289
148.238
149.502
151.183
153.413
156.365
160.25
165.334
171.928
180.389
191.107
204.473
220.855
240.551
263.758
290.54
320.818
354.369
390.845
429.783
470.644
512.84
555.736
598.61
640.722
681.378
719.854
755.282
786.713
813.382
834.937
851.544
863.771
872.368
878.167
881.889
884.11
885.377
885.865
885.757
885.559
885.212
884.478
883.466
882.326
145.652
146.041
146.553
147.23
148.122
149.299
150.851
152.892
155.571
159.073
163.625
169.499
177.01
186.504
198.344
212.882
230.427
251.213
275.368
302.897
333.679
367.472
403.924
442.593
482.974
524.522
566.657
608.722
650.032
689.944
727.808
762.861
794.239
821.175
843.251
860.516
873.427
882.637
888.926
893.033
895.495
896.882
897.495
897.41
897.111
896.697
896.018
894.998
893.778
892.388
890.917
889.464
148.133
149.265
150.744
152.672
155.18
158.431
162.626
168.005
174.845
183.456
194.167
207.307
223.177
242.025
264.014
289.208
317.556
348.897
382.973
419.434
457.858
497.77
538.669
580.022
621.234
661.67
700.737
737.848
772.328
803.393
830.308
852.626
870.311
883.709
893.396
900.098
904.526
907.203
908.714
909.43
909.368
908.989
908.478
907.8
906.774
905.515
904.126
902.575
900.988
899.412
897.874
896.363
155.148
158.258
162.238
167.302
173.697
181.702
191.614
203.734
218.347
235.696
255.962
279.239
305.527
334.725
366.644
401.01
437.48
475.652
515.084
555.312
595.852
636.158
675.646
713.77
750
783.732
814.257
840.892
863.183
881.036
894.716
904.736
911.75
916.415
919.274
920.892
921.659
921.621
921.22
920.597
919.847
918.838
917.552
916.111
914.511
912.83
911.145
909.487
907.844
906.209
904.604
903.024
181.09
190.479
201.901
215.618
231.861
250.809
272.573
297.181
324.576
354.618
387.091
421.717
458.164
496.049
534.963
574.48
614.156
653.492
691.951
729.036
764.263
797.09
826.878
852.998
875.008
892.786
906.545
916.728
923.921
928.749
931.743
933.434
934.212
934.197
933.772
933.027
932.17
931.172
929.842
928.337
926.719
924.96
923.177
921.407
919.656
917.908
916.178
914.466
912.759
911.073
909.405
230.281
248.277
268.901
292.195
318.129
346.597
377.427
410.391
445.213
481.57
519.105
557.438
596.181
634.928
673.219
710.563
746.508
780.613
812.391
841.263
866.655
888.154
905.632
919.262
929.43
936.672
941.572
944.625
946.346
947.122
947.098
946.631
945.793
944.822
943.762
942.397
940.831
939.165
937.347
935.465
933.592
931.737
929.891
928.054
926.236
924.423
922.617
920.821
919.028
917.251
915.49
315.15
342.348
371.803
403.325
436.679
471.595
507.767
544.86
582.528
620.415
658.151
695.307
731.441
766.141
799.008
829.599
857.389
881.858
902.637
919.605
932.907
942.892
950.05
954.91
957.945
959.652
960.393
960.322
959.812
958.898
957.783
956.624
955.24
953.61
951.873
950
948.023
946.045
944.084
942.134
940.191
938.266
936.354
934.448
932.551
930.659
928.769
926.884
924.999
923.129
921.269
466.05
500.927
536.789
573.324
610.218
647.15
683.775
719.698
754.517
787.863
819.376
848.649
875.203
898.573
918.44
934.703
947.491
957.136
964.077
968.788
971.732
973.368
974.018
973.883
973.315
972.315
971.056
969.776
968.355
966.639
964.809
962.902
960.849
958.771
956.704
954.646
952.594
950.56
948.545
946.537
944.537
942.547
940.561
938.578
936.599
934.62
932.643
930.666
928.7
926.743
604.475
640.471
676.331
711.734
746.312
779.704
811.584
841.624
869.448
894.62
916.73
935.515
950.898
963.007
972.16
978.754
983.211
985.995
987.502
988.012
987.798
987.134
986.017
984.642
983.237
981.733
979.94
978.022
976.043
973.919
971.734
969.566
967.41
965.261
963.121
960.999
958.886
956.782
954.69
952.605
950.525
948.449
946.377
944.306
942.236
940.166
938.097
936.026
933.964
931.908
741.922
775.031
806.881
837.179
865.627
891.875
915.527
936.233
953.78
968.127
979.412
987.942
994.074
998.179
1000.73
1002.04
1002.37
1002.06
1001.27
1000.02
998.539
996.994
995.371
993.517
991.506
989.432
987.245
984.964
982.691
980.431
978.172
975.924
973.697
971.485
969.282
967.089
964.904
962.724
960.55
958.381
956.215
954.052
951.891
949.73
947.568
945.406
943.243
941.077
938.919
936.764
864.495
891.235
915.783
937.783
956.951
973.128
986.306
996.648
1004.44
1009.99
1013.67
1015.91
1017
1017.1
1016.66
1015.72
1014.33
1012.73
1011.04
1009.28
1007.36
1005.25
1003.07
1000.81
998.441
996.061
993.701
991.341
988.986
986.652
984.334
982.024
979.727
977.443
975.166
972.896
970.631
968.37
966.113
963.858
961.605
959.353
957.101
954.848
952.595
950.339
948.082
945.82
943.565
941.309
961.214
978.73
993.427
1005.33
1014.63
1021.58
1026.47
1029.67
1031.54
1032.31
1032.17
1031.57
1030.47
1028.93
1027.19
1025.36
1023.47
1021.45
1019.23
1016.95
1014.61
1012.16
1009.67
1007.21
1004.75
1002.29
999.848
997.428
995.016
992.616
990.229
987.85
985.48
983.117
980.761
978.41
976.063
973.718
971.374
969.032
966.691
964.349
962.006
959.661
957.314
954.964
952.611
950.253
947.9
945.544
1025.07
1033.24
1039.29
1043.45
1046.12
1047.56
1047.96
1047.62
1046.79
1045.49
1043.79
1041.91
1039.95
1037.92
1035.77
1033.46
1031.07
1028.64
1026.1
1023.51
1020.94
1018.38
1015.82
1013.28
1010.75
1008.24
1005.74
1003.25
1000.77
998.304
995.843
993.389
990.941
988.499
986.061
983.626
981.194
978.764
976.333
973.903
971.472
969.039
966.604
964.167
961.725
959.28
956.831
954.376
951.924
949.468
1060.88
1062.96
1063.94
1063.93
1063.36
1062.29
1060.77
1058.91
1056.89
1054.78
1052.61
1050.33
1047.92
1045.42
1042.88
1040.26
1037.57
1034.9
1032.24
1029.58
1026.93
1024.3
1021.69
1019.08
1016.5
1013.92
1011.35
1008.8
1006.25
1003.7
1001.17
998.635
996.107
993.583
991.062
988.542
986.025
983.507
980.989
978.469
975.948
973.423
970.896
968.364
965.828
963.286
960.74
958.187
955.636
953.078
1079.38
1078.04
1076.29
1074.27
1072.1
1069.85
1067.54
1065.12
1062.61
1060
1057.34
1054.63
1051.85
1049.07
1046.32
1043.56
1040.8
1038.07
1035.36
1032.65
1029.96
1027.29
1024.62
1021.97
1019.32
1016.68
1014.05
1011.43
1008.81
1006.2
1003.58
1000.97
998.367
995.762
993.157
990.553
987.947
985.34
982.73
980.117
977.5
974.878
972.252
969.62
966.981
964.338
961.686
959.035
956.376
1089.85
1087.52
1085.12
1082.68
1080.12
1077.49
1074.78
1072.01
1069.2
1066.32
1063.45
1060.59
1057.74
1054.88
1052.05
1049.24
1046.43
1043.64
1040.87
1038.11
1035.36
1032.61
1029.88
1027.15
1024.44
1021.73
1019.02
1016.32
1013.62
1010.93
1008.23
1005.54
1002.85
1000.16
997.469
994.777
992.082
989.385
986.683
983.978
981.267
978.551
975.829
973.1
970.365
967.623
964.872
962.122
959.361
1098.01
1095.32
1092.56
1089.75
1086.87
1083.95
1080.99
1078.01
1075.06
1072.11
1069.15
1066.23
1063.32
1060.41
1057.53
1054.66
1051.8
1048.95
1046.11
1043.28
1040.47
1037.65
1034.85
1032.05
1029.26
1026.47
1023.69
1020.91
1018.13
1015.36
1012.58
1009.81
1007.03
1004.26
1001.48
998.695
995.911
993.122
990.329
987.53
984.725
981.913
979.095
976.269
973.436
970.595
967.746
964.895
962.033
1101.91
1098.88
1095.83
1092.76
1089.7
1086.66
1083.61
1080.59
1077.59
1074.59
1071.6
1068.64
1065.68
1062.74
1059.81
1056.89
1053.97
1051.07
1048.18
1045.29
1042.4
1039.53
1036.66
1033.79
1030.92
1028.06
1025.2
1022.35
1019.49
1016.63
1013.77
1010.91
1008.05
1005.18
1002.31
999.432
996.551
993.664
990.771
987.871
984.964
982.049
979.126
976.194
973.255
970.306
967.355
964.392
1107.66
1104.52
1101.38
1098.24
1095.12
1092.02
1088.93
1085.85
1082.8
1079.75
1076.71
1073.69
1070.68
1067.67
1064.68
1061.69
1058.71
1055.74
1052.78
1049.82
1046.86
1043.91
1040.97
1038.02
1035.08
1032.14
1029.2
1026.26
1023.32
1020.38
1017.43
1014.48
1011.53
1008.57
1005.61
1002.64
999.67
996.69
993.702
990.707
987.703
984.691
981.67
978.64
975.602
972.554
969.504
966.44
1109.81
1106.62
1103.44
1100.27
1097.13
1093.99
1090.86
1087.75
1084.64
1081.55
1078.46
1075.39
1072.32
1069.26
1066.21
1063.16
1060.12
1057.09
1054.06
1051.03
1048
1044.98
1041.96
1038.94
1035.91
1032.89
1029.87
1026.84
1023.81
1020.78
1017.75
1014.7
1011.66
1008.6
1005.54
1002.48
999.404
996.321
993.23
990.13
987.02
983.902
980.774
977.638
974.491
971.342
968.178
1114.84
1111.61
1108.38
1105.16
1101.96
1098.77
1095.59
1092.42
1089.26
1086.1
1082.96
1079.82
1076.69
1073.56
1070.44
1067.33
1064.21
1061.11
1058
1054.9
1051.79
1048.69
1045.59
1042.49
1039.39
1036.28
1033.17
1030.06
1026.95
1023.83
1020.7
1017.57
1014.43
1011.29
1008.14
1004.98
1001.81
998.628
995.441
992.244
989.038
985.822
982.597
979.363
976.118
972.87
969.608
1116.33
1113.05
1109.78
1106.53
1103.28
1100.04
1096.81
1093.59
1090.37
1087.17
1083.96
1080.76
1077.57
1074.38
1071.19
1068.01
1064.83
1061.65
1058.47
1055.29
1052.11
1048.92
1045.74
1042.55
1039.37
1036.17
1032.98
1029.77
1026.56
1023.35
1020.13
1016.9
1013.66
1010.42
1007.16
1003.9
1000.62
997.341
994.048
990.745
987.433
984.11
980.779
977.437
974.092
970.732
1120.78
1117.45
1114.13
1110.82
1107.51
1104.21
1100.92
1097.64
1094.36
1091.08
1087.81
1084.55
1081.28
1078.02
1074.76
1071.51
1068.25
1064.99
1061.74
1058.48
1055.22
1051.95
1048.69
1045.42
1042.14
1038.86
1035.58
1032.29
1028.99
1025.69
1022.37
1019.05
1015.72
1012.38
1009.04
1005.68
1002.31
998.93
995.542
992.143
988.734
985.315
981.888
978.451
975.01
971.554
1124.95
1121.57
1118.19
1114.82
1111.46
1108.1
1104.75
1101.4
1098.05
1094.71
1091.37
1088.04
1084.7
1081.37
1078.04
1074.7
1071.37
1068.04
1064.7
1061.36
1058.02
1054.68
1051.33
1047.97
1044.61
1041.25
1037.87
1034.49
1031.11
1027.71
1024.31
1020.9
1017.47
1014.04
1010.6
1007.15
1003.68
1000.21
996.727
993.233
989.729
986.215
982.693
979.161
975.625
972.075
1128.85
1125.41
1121.97
1118.54
1115.12
1111.7
1108.28
1104.87
1101.45
1098.04
1094.64
1091.23
1087.82
1084.42
1081.01
1077.6
1074.19
1070.78
1067.36
1063.94
1060.52
1057.09
1053.66
1050.22
1046.77
1043.32
1039.86
1036.39
1032.91
1029.43
1025.93
1022.43
1018.91
1015.39
1011.85
1008.31
1004.75
1001.18
997.606
994.018
990.419
986.812
983.195
979.569
975.939
972.299
1132.46
1128.96
1125.47
1121.98
1118.49
1115
1111.52
1108.04
1104.56
1101.08
1097.6
1094.12
1090.64
1087.16
1083.68
1080.19
1076.71
1073.21
1069.72
1066.22
1062.71
1059.2
1055.68
1052.15
1048.62
1045.08
1041.53
1037.98
1034.41
1030.83
1027.25
1023.65
1020.05
1016.43
1012.8
1009.16
1005.51
1001.85
998.181
994.498
990.806
987.105
983.4
979.689
975.975
972.249
1135.79
1132.23
1128.67
1125.12
1121.56
1118.01
1114.46
1110.91
1107.37
1103.82
1100.27
1096.71
1093.16
1089.6
1086.04
1082.48
1078.91
1075.34
1071.76
1068.18
1064.59
1060.99
1057.39
1053.78
1050.16
1046.53
1042.9
1039.25
1035.6
1031.93
1028.25
1024.57
1020.87
1017.16
1013.44
1009.71
1005.97
1002.21
998.45
994.682
990.905
987.119
983.328
979.532
975.734
971.922
1138.82
1135.2
1131.58
1127.96
1124.34
1120.73
1117.11
1113.49
1109.87
1106.25
1102.63
1099
1095.37
1091.74
1088.1
1084.46
1080.81
1077.16
1073.5
1069.83
1066.16
1062.48
1058.79
1055.1
1051.39
1047.68
1043.95
1040.22
1036.47
1032.72
1028.95
1025.18
1021.39
1017.59
1013.77
1009.95
1006.13
1002.29
998.44
994.585
990.723
986.853
982.976
979.093
975.209
971.314
1137.87
1134.19
1130.51
1126.82
1123.14
1119.45
1115.76
1112.07
1108.38
1104.68
1100.98
1097.28
1093.57
1089.85
1086.13
1082.4
1078.67
1074.93
1071.18
1067.42
1063.66
1059.89
1056.1
1052.31
1048.51
1044.7
1040.88
1037.04
1033.2
1029.34
1025.47
1021.6
1017.72
1013.82
1009.92
1006
1002.08
998.148
994.206
990.256
986.301
982.34
978.375
974.41
970.434
1140.25
1136.5
1132.75
1129
1125.25
1121.49
1117.73
1113.97
1110.2
1106.43
1102.65
1098.87
1095.08
1091.29
1087.49
1083.68
1079.87
1076.05
1072.21
1068.37
1064.53
1060.67
1056.8
1052.92
1049.03
1045.13
1041.22
1037.3
1033.38
1029.44
1025.49
1021.53
1017.56
1013.58
1009.59
1005.59
1001.58
997.567
993.541
989.509
985.471
981.43
977.385
973.343
969.291
1142.33
1138.51
1134.69
1130.87
1127.05
1123.22
1119.39
1115.56
1111.71
1107.87
1104.02
1100.16
1096.29
1092.42
1088.54
1084.65
1080.76
1076.85
1072.94
1069.02
1065.08
1061.14
1057.19
1053.22
1049.25
1045.27
1041.28
1037.28
1033.27
1029.25
1025.22
1021.17
1017.12
1013.06
1008.98
1004.9
1000.81
996.706
992.599
988.487
984.371
980.253
976.132
972.016
967.891
1140.21
1136.33
1132.44
1128.55
1124.65
1120.74
1116.83
1112.92
1109
1105.07
1101.13
1097.19
1093.24
1089.28
1085.31
1081.33
1077.35
1073.35
1069.35
1065.33
1061.31
1057.28
1053.23
1049.18
1045.12
1041.05
1036.97
1032.87
1028.77
1024.65
1020.53
1016.39
1012.24
1008.09
1003.92
999.751
995.572
991.388
987.199
983.008
978.816
974.623
970.436
966.244
1141.61
1137.66
1133.7
1129.73
1125.76
1121.78
1117.8
1113.81
1109.81
1105.81
1101.8
1097.78
1093.75
1089.71
1085.66
1081.6
1077.54
1073.47
1069.38
1065.29
1061.19
1057.08
1052.96
1048.82
1044.68
1040.53
1036.36
1032.18
1028
1023.8
1019.59
1015.38
1011.15
1006.92
1002.68
998.427
994.172
989.913
985.652
981.389
977.127
972.866
968.612
964.355
1142.7
1138.67
1134.64
1130.61
1126.56
1122.51
1118.46
1114.39
1110.32
1106.24
1102.15
1098.05
1093.94
1089.83
1085.71
1081.57
1077.44
1073.29
1069.13
1064.96
1060.77
1056.58
1052.38
1048.17
1043.94
1039.71
1035.46
1031.21
1026.94
1022.67
1018.38
1014.09
1009.79
1005.48
1001.16
996.841
992.514
988.184
983.853
979.522
975.193
970.869
966.553
962.235
1143.47
1139.38
1135.28
1131.17
1127.05
1122.93
1118.8
1114.66
1110.51
1106.36
1102.2
1098.03
1093.85
1089.66
1085.47
1081.26
1077.04
1072.81
1068.57
1064.32
1060.06
1055.79
1051.51
1047.22
1042.92
1038.61
1034.29
1029.96
1025.61
1021.26
1016.9
1012.54
1008.16
1003.78
999.392
995
990.605
986.207
981.81
977.415
973.024
968.639
964.265
959.892
1139.76
1135.59
1131.42
1127.23
1123.04
1118.84
1114.63
1110.41
1106.19
1101.96
1097.71
1093.46
1089.19
1084.92
1080.64
1076.34
1072.04
1067.72
1063.4
1059.06
1054.72
1050.36
1045.99
1041.62
1037.23
1032.83
1028.43
1024.01
1019.59
1015.16
1010.72
1006.28
1001.83
997.371
992.913
988.452
983.991
979.532
975.076
970.628
966.187
961.758
957.333
1139.85
1135.61
1131.37
1127.11
1122.85
1118.58
1114.3
1110.02
1105.72
1101.41
1097.09
1092.76
1088.42
1084.08
1079.72
1075.35
1070.97
1066.58
1062.18
1057.77
1053.36
1048.93
1044.49
1040.04
1035.58
1031.11
1026.64
1022.15
1017.66
1013.16
1008.65
1004.14
999.627
995.108
990.586
986.064
981.544
977.026
972.515
968.012
963.519
959.041
954.569
1139.64
1135.33
1131.02
1126.7
1122.36
1118.02
1113.67
1109.31
1104.94
1100.56
1096.17
1091.77
1087.36
1082.94
1078.51
1074.07
1069.62
1065.16
1060.69
1056.21
1051.72
1047.22
1042.71
1038.19
1033.66
1029.13
1024.59
1020.03
1015.48
1010.91
1006.34
1001.77
997.19
992.61
988.029
983.45
978.873
974.302
969.738
965.186
960.645
956.122
951.607
1134.74
1130.36
1125.97
1121.57
1117.16
1112.74
1108.31
1103.87
1099.42
1094.96
1090.49
1086.01
1081.52
1077.02
1072.51
1067.99
1063.46
1058.92
1054.37
1049.81
1045.24
1040.67
1036.08
1031.49
1026.89
1022.28
1017.67
1013.05
1008.42
1003.79
999.158
994.522
989.886
985.25
980.617
975.989
971.367
966.756
962.158
957.574
953.01
948.457
1133.85
1129.4
1124.94
1120.47
1115.99
1111.51
1107.01
1102.5
1097.98
1093.45
1088.92
1084.37
1079.81
1075.24
1070.67
1066.08
1061.48
1056.88
1052.26
1047.64
1043.01
1038.37
1033.72
1029.07
1024.4
1019.74
1015.06
1010.38
1005.7
1001.01
996.323
991.633
986.944
982.257
977.574
972.898
968.232
963.577
958.937
954.315
949.715
945.128
1132.65
1128.14
1123.61
1119.08
1114.53
1109.98
1105.42
1100.84
1096.26
1091.67
1087.06
1082.45
1077.83
1073.2
1068.55