/*--------------------------------*- C++ -*----------------------------------*\
| =========                 |                                                 |
| \\      /  F ield         | OpenFOAM: The Open Source CFD Toolbox           |
|  \\    /   O peration     | Version:  v1706                                 |
|   \\  /    A nd           | Web:      www.OpenFOAM.com                      |
|    \\/     M anipulation  |                                                 |
\*---------------------------------------------------------------------------*/
FoamFile
{
    version     2.0;
    format      ascii;
    class       volScalarField;
    location    "3.5e-05";
    object      Tv;
}
// * * * * * * * * * * * * * * * * * * * * * * * * * * * * * * * * * * * * * //

dimensions      [0 0 0 1 0 0 0];


internalField   nonuniform List<scalar> 
30038
(
144.4
144.4
144.4
144.4
144.4
144.4
144.4
144.4
144.4
144.4
144.4
144.4
144.4
144.4
144.4
144.4
144.4
144.4
144.4
144.4
144.4
144.4
144.4
144.4
144.4
144.4
144.4
144.4
144.4
144.4
144.4
144.4
144.4
144.4
144.4
144.4
144.4
144.4
144.4
144.4
144.4
144.4
144.4
144.4
144.4
144.4
144.4
144.4
144.4
144.4
144.4
144.4
144.4
144.4
144.4
144.4
144.4
144.4
144.4
144.4
144.4
144.4
144.4
144.4
144.4
144.4
144.4
144.4
144.4
144.4
144.4
144.4
144.4
144.4
144.4
144.4
144.4
144.4
144.4
144.4
144.4
144.4
144.4
144.4
144.4
144.4
144.4
144.4
144.4
144.4
144.4
144.4
144.4
144.4
144.4
144.4
144.4
144.4
144.4
144.4
144.4
144.4
144.4
144.4
144.4
144.4
144.4
144.4
144.4
144.4
144.4
144.4
144.4
144.4
144.4
144.4
144.4
144.4
144.4
144.4
144.4
144.4
144.4
144.4
144.4
144.4
144.4
144.4
144.4
144.4
144.4
144.4
144.4
144.4
144.4
144.4
144.4
144.4
144.4
144.4
144.4
144.4
144.4
144.4
144.4
144.4
144.4
144.4
144.4
144.4
144.4
144.4
144.4
144.4
144.4
144.4
144.4
144.4
144.4
144.4
144.4
144.4
144.4
144.4
144.4
144.4
144.4
144.4
144.4
144.4
144.4
144.4
144.4
144.4
144.4
144.4
144.4
144.4
144.4
144.4
144.4
144.4
144.4
144.4
144.4
144.4
144.4
144.4
144.4
144.4
144.4
144.4
144.4
144.4
144.4
144.4
144.4
144.4
144.4
144.4
144.4
144.4
144.4
144.4
144.4
144.4
144.4
144.4
144.4
144.4
144.4
144.4
144.4
144.4
144.4
144.4
144.4
144.4
144.4
144.4
144.4
144.4
144.4
144.4
144.4
144.4
144.4
144.4
144.4
144.4
144.4
144.4
144.4
144.4
144.4
144.4
144.4
144.4
144.4
144.4
144.4
144.4
144.4
144.4
144.4
144.4
144.4
144.4
144.4
144.4
144.4
144.4
144.4
144.4
144.4
144.4
144.4
144.4
144.4
144.4
144.4
144.4
144.4
144.4
144.4
144.4
144.4
144.4
144.4
144.4
144.4
144.4
144.4
144.4
144.4
144.4
144.4
144.4
144.4
144.4
144.4
144.4
144.4
144.4
144.4
144.4
144.4
144.4
144.4
144.4
144.4
144.4
144.4
144.4
144.4
144.4
144.4
144.4
144.4
144.4
144.4
144.4
144.4
144.4
144.4
144.4
144.4
144.4
144.4
144.4
144.4
144.4
144.4
144.4
144.4
144.4
144.4
144.4
144.4
144.4
144.4
144.4
144.4
144.4
144.4
144.4
144.4
144.4
144.4
144.4
144.4
144.4
144.4
144.4
144.4
144.4
144.4
144.4
144.4
144.4
144.4
144.4
144.4
144.4
144.4
144.4
144.4
144.4
144.4
144.4
144.4
144.4
144.4
144.4
144.4
144.4
144.4
144.4
144.4
144.4
144.4
144.4
144.4
144.4
144.4
144.4
144.4
144.4
144.4
144.4
144.4
144.4
144.4
144.4
144.4
144.4
144.4
144.4
144.4
144.4
144.4
144.4
144.4
144.4
144.4
144.4
144.4
144.4
144.4
144.4
144.4
144.4
144.4
144.4
144.4
144.4
144.4
144.4
144.4
144.4
144.4
144.4
144.4
144.4
144.4
144.4
144.4
144.4
144.4
144.4
144.4
144.4
144.4
144.4
144.4
144.4
144.4
144.4
144.4
144.4
144.4
144.4
144.4
144.4
144.4
144.4
144.4
144.4
144.4
144.4
144.4
144.4
144.4
144.4
144.4
144.4
144.4
144.4
144.4
144.4
144.4
144.4
144.4
144.4
144.4
144.4
144.4
144.4
144.4
144.4
144.4
144.4
144.4
144.4
144.4
144.4
144.4
144.4
144.4
144.4
144.4
144.4
144.4
144.4
144.4
144.4
144.4
144.4
144.4
144.4
144.4
144.4
144.4
144.4
144.4
144.4
144.4
144.4
144.4
144.4
144.4
144.4
144.4
144.4
144.4
144.4
144.4
144.4
144.4
144.4
144.4
144.4
144.4
144.4
144.4
144.4
144.4
144.4
144.4
144.4
144.4
144.4
144.4
144.4
144.4
144.4
144.4
144.4
144.4
144.4
144.4
144.4
144.4
144.4
144.4
144.4
144.4
144.4
144.4
144.4
144.4
144.4
144.4
144.4
144.4
144.4
144.4
144.4
144.4
144.4
144.4
144.4
144.4
144.4
144.4
144.4
144.4
144.4
144.4
144.4
144.4
144.4
144.4
144.4
144.4
144.4
144.4
144.4
144.4
144.4
144.4
144.4
144.4
144.4
144.4
144.4
144.4
144.4
144.4
144.4
144.4
144.4
144.4
144.4
144.4
144.4
144.4
144.4
144.4
144.4
144.4
144.4
144.4
144.4
144.4
144.4
144.4
144.4
144.4
144.4
144.4
144.4
144.4
144.4
144.4
144.4
144.4
144.4
144.4
144.4
144.4
144.4
144.4
144.4
144.4
144.4
144.4
144.4
144.4
144.4
144.4
144.4
144.4
144.4
144.4
144.4
144.4
144.4
144.4
144.4
144.4
144.4
144.4
144.4
144.4
144.4
144.4
144.4
144.4
144.4
144.4
144.4
144.4
144.4
144.4
144.4
144.4
144.4
144.4
144.4
144.4
144.4
144.4
144.4
144.4
144.4
144.4
144.4
144.4
144.4
144.4
144.4
144.4
144.4
144.4
144.4
144.4
144.4
144.4
144.4
144.4
144.4
144.4
144.4
144.4
144.4
144.4
144.4
144.4
144.4
144.4
144.4
144.4
144.4
144.4
144.4
144.4
144.4
144.4
144.4
144.4
144.4
144.4
144.4
144.4
144.4
144.4
144.4
144.4
144.4
144.4
144.4
144.4
144.4
144.4
144.4
144.4
144.4
144.4
144.4
144.4
144.4
144.4
144.4
144.4
144.4
144.4
144.4
144.4
144.4
144.4
144.4
144.4
144.4
144.4
144.4
144.4
144.4
144.4
144.4
144.4
144.4
144.4
144.4
144.4
144.4
144.4
144.4
144.4
144.4
144.4
144.4
144.4
144.4
144.4
144.4
144.4
144.4
144.4
144.4
144.4
144.4
144.4
144.4
144.4
144.4
144.4
144.4
144.4
144.4
144.4
144.4
144.4
144.4
144.4
144.4
144.4
144.4
144.4
144.4
144.4
144.4
144.4
144.4
144.4
144.4
144.4
144.4
144.4
144.4
144.4
144.4
144.4
144.4
144.4
144.4
144.4
144.4
144.4
144.4
144.4
144.4
144.4
144.4
144.4
144.4
144.4
144.4
144.4
144.4
144.4
144.4
144.4
144.4
144.4
144.4
144.4
144.4
144.4
144.4
144.4
144.4
144.4
144.4
144.4
144.4
144.4
144.4
144.4
144.4
144.4
144.4
144.4
144.4
144.4
144.4
144.4
144.4
144.4
144.4
144.4
144.4
144.4
144.4
144.4
144.4
144.4
144.4
144.4
144.4
144.4
144.4
144.4
144.4
144.4
144.4
144.4
144.4
144.4
144.4
144.4
144.4
144.4
144.4
144.4
144.4
144.4
144.4
144.4
144.4
144.4
144.4
144.4
144.4
144.4
144.4
144.4
144.4
144.4
144.4
144.4
144.4
144.4
144.4
144.4
144.4
144.4
144.4
144.4
144.4
144.4
144.4
144.4
144.4
144.4
144.4
144.4
144.4
144.4
144.4
144.4
144.4
144.4
144.4
144.4
144.4
144.4
144.4
144.4
144.4
144.4
144.4
144.4
144.4
144.4
144.4
144.4
144.4
144.4
144.4
144.4
144.4
144.4
144.4
144.4
144.4
144.4
144.4
144.4
144.4
144.4
144.4
144.4
144.4
144.4
144.4
144.4
144.4
144.4
144.4
144.4
144.4
144.4
144.4
144.4
144.4
144.4
144.4
144.4
144.4
144.4
144.4
144.4
144.4
144.4
144.4
144.4
144.4
144.4
144.4
144.4
144.4
144.4
144.4
144.4
144.4
144.4
144.4
144.4
144.4
144.4
144.4
144.4
144.4
144.4
144.4
144.4
144.4
144.4
144.4
144.4
144.4
144.4
144.4
144.4
144.4
144.4
144.4
144.4
144.4
144.4
144.4
144.4
144.4
144.4
144.4
144.4
144.4
144.4
144.4
144.4
144.4
144.4
144.4
144.4
144.4
144.4
144.4
144.4
144.4
144.4
144.4
144.4
144.4
144.4
144.4
144.4
144.4
144.4
144.4
144.4
144.4
144.4
144.4
144.4
144.4
144.4
144.4
144.4
144.4
144.4
144.4
144.4
144.4
144.4
144.4
144.4
144.4
144.4
144.4
144.4
144.4
144.4
144.4
144.4
144.4
144.4
144.4
144.4
144.4
144.4
144.4
144.4
144.4
144.4
144.4
144.4
144.4
144.4
144.4
144.4
144.4
144.4
144.4
144.4
144.4
144.4
144.4
144.4
144.4
144.4
144.4
144.4
144.4
144.4
144.4
144.4
144.4
144.4
144.4
144.4
144.4
144.4
144.4
144.4
144.4
144.4
144.4
144.4
144.4
144.4
144.4
144.4
144.4
144.4
144.4
144.4
144.4
144.4
144.4
144.4
144.4
144.4
144.4
144.4
144.4
144.4
144.4
144.4
144.4
144.4
144.4
144.4
144.4
144.4
144.4
144.4
144.4
144.4
144.4
144.4
144.4
144.4
144.4
144.4
144.4
144.4
144.4
144.4
144.4
144.4
144.4
144.4
144.4
144.4
144.4
144.4
144.4
144.4
144.4
144.4
144.4
144.4
144.4
144.4
144.4
144.4
144.4
144.4
144.4
144.4
144.4
144.4
144.4
144.4
144.4
144.4
144.4
144.4
144.4
144.4
144.4
144.4
144.4
144.4
144.4
144.4
144.4
144.4
144.4
144.4
144.4
144.4
144.4
144.4
144.4
144.4
144.4
144.4
144.4
144.4
144.4
144.4
144.4
144.4
144.4
144.4
144.4
144.4
144.4
144.4
144.4
144.4
144.4
144.4
144.4
144.4
144.4
144.4
144.4
144.4
144.4
144.4
144.4
144.4
144.4
144.4
144.4
144.4
144.4
144.4
144.4
144.4
144.4
144.4
144.4
144.4
144.4
144.4
144.4
144.4
144.4
144.4
144.4
144.4
144.4
144.4
144.4
144.4
144.4
144.4
144.4
144.4
144.4
144.4
144.4
144.4
144.4
144.4
144.4
144.4
144.4
144.4
144.4
144.4
144.4
144.4
144.4
144.4
144.4
144.4
144.4
144.4
144.4
144.4
144.4
144.4
144.4
144.4
144.4
144.4
144.4
144.4
144.4
144.4
144.4
144.4
144.4
144.4
144.4
144.4
144.4
144.4
144.4
144.4
144.4
144.4
144.4
144.4
144.4
144.4
144.4
144.4
144.4
144.4
144.4
144.4
144.4
144.4
144.4
144.4
144.4
144.4
144.4
144.4
144.4
144.4
144.4
144.4
144.4
144.4
144.4
144.4
144.4
144.4
144.4
144.4
144.4
144.4
144.4
144.4
144.4
144.4
144.4
144.4
144.4
144.4
144.4
144.4
144.4
144.4
144.4
144.4
144.4
144.4
144.4
144.4
144.4
144.4
144.4
144.4
144.4
144.4
144.4
144.4
144.4
144.4
144.4
144.4
144.4
144.4
144.4
144.4
144.4
144.4
144.4
144.4
144.4
144.4
144.4
144.4
144.4
144.4
144.4
144.4
144.4
144.4
144.4
144.4
144.4
144.4
144.4
144.4
144.4
144.4
144.4
144.4
144.4
144.4
144.4
144.4
144.4
144.4
144.4
144.4
144.4
144.4
144.4
144.4
144.4
144.4
144.4
144.4
144.4
144.4
144.4
144.4
144.4
144.4
144.4
144.4
144.4
144.4
144.4
144.4
144.4
144.4
144.4
144.4
144.4
144.4
144.4
144.4
144.4
144.4
144.4
144.4
144.4
144.4
144.4
144.4
144.4
144.4
144.4
144.4
144.4
144.4
144.4
144.4
144.4
144.4
144.4
144.4
144.4
144.4
144.4
144.4
144.4
144.4
144.4
144.4
144.4
144.4
144.4
144.4
144.4
144.4
144.4
144.4
144.4
144.4
144.4
144.4
144.4
144.4
144.4
144.4
144.4
144.4
144.4
144.4
144.4
144.4
144.4
144.4
144.4
144.4
144.4
144.4
144.4
144.4
144.4
144.4
144.4
144.4
144.4
144.4
144.4
144.4
144.4
144.4
144.401
144.4
144.4
144.4
144.4
144.4
144.4
144.4
144.4
144.4
144.4
144.4
144.4
144.4
144.4
144.4
144.4
144.4
144.4
144.4
144.4
144.4
144.4
144.4
144.4
144.4
144.4
144.4
144.4
144.4
144.4
144.4
144.4
144.4
144.4
144.4
144.4
144.4
144.4
144.4
144.4
144.4
144.4
144.4
144.4
144.4
144.4
144.401
144.401
144.402
144.404
144.4
144.4
144.4
144.4
144.4
144.4
144.4
144.4
144.4
144.4
144.4
144.4
144.4
144.4
144.4
144.4
144.4
144.4
144.4
144.4
144.4
144.4
144.4
144.4
144.4
144.4
144.4
144.4
144.4
144.4
144.4
144.4
144.4
144.4
144.4
144.4
144.4
144.4
144.4
144.4
144.4
144.4
144.401
144.401
144.401
144.402
144.404
144.407
144.412
144.421
144.4
144.4
144.4
144.4
144.4
144.4
144.4
144.4
144.4
144.4
144.4
144.4
144.4
144.4
144.4
144.4
144.4
144.4
144.4
144.4
144.4
144.4
144.4
144.4
144.4
144.4
144.4
144.4
144.4
144.4
144.4
144.4
144.4
144.4
144.4
144.4
144.4
144.4
144.4
144.401
144.401
144.402
144.403
144.405
144.408
144.413
144.422
144.437
144.462
144.507
144.4
144.4
144.4
144.4
144.4
144.4
144.4
144.4
144.4
144.4
144.4
144.4
144.4
144.4
144.4
144.4
144.4
144.4
144.4
144.4
144.4
144.4
144.4
144.4
144.4
144.4
144.4
144.4
144.4
144.4
144.4
144.4
144.4
144.4
144.4
144.4
144.401
144.401
144.402
144.403
144.405
144.409
144.414
144.424
144.44
144.466
144.509
144.579
144.694
144.881
144.4
144.4
144.4
144.4
144.4
144.4
144.4
144.4
144.4
144.4
144.4
144.4
144.4
144.4
144.4
144.4
144.4
144.4
144.4
144.4
144.4
144.4
144.4
144.4
144.4
144.4
144.4
144.4
144.4
144.4
144.4
144.4
144.401
144.401
144.401
144.402
144.404
144.406
144.41
144.416
144.427
144.444
144.472
144.518
144.591
144.708
144.889
145.161
145.559
146.123
144.4
144.4
144.4
144.4
144.4
144.4
144.4
144.4
144.4
144.4
144.4
144.4
144.4
144.4
144.4
144.4
144.4
144.4
144.4
144.4
144.4
144.4
144.4
144.4
144.4
144.4
144.4
144.4
144.4
144.401
144.401
144.402
144.403
144.404
144.407
144.412
144.419
144.431
144.45
144.481
144.53
144.609
144.733
144.922
145.203
145.605
146.156
146.872
147.761
148.823
144.4
144.4
144.4
144.4
144.4
144.4
144.4
144.4
144.4
144.4
144.4
144.4
144.4
144.4
144.4
144.4
144.4
144.4
144.4
144.4
144.4
144.4
144.4
144.4
144.4
144.401
144.401
144.401
144.402
144.403
144.406
144.409
144.414
144.423
144.436
144.458
144.493
144.548
144.634
144.768
144.97
145.266
145.685
146.252
146.982
147.873
148.912
150.071
151.326
152.658
144.4
144.4
144.4
144.4
144.4
144.4
144.4
144.4
144.4
144.4
144.4
144.4
144.4
144.4
144.4
144.4
144.4
144.4
144.4
144.4
144.4
144.4
144.401
144.401
144.402
144.403
144.404
144.407
144.411
144.417
144.428
144.444
144.469
144.509
144.572
144.668
144.816
145.036
145.354
145.797
146.389
147.142
148.053
149.106
150.271
151.517
152.815
154.142
155.486
156.848
144.4
144.4
144.4
144.4
144.4
144.4
144.4
144.4
144.4
144.4
144.4
144.4
144.4
144.4
144.4
144.4
144.4
144.4
144.401
144.401
144.402
144.402
144.404
144.406
144.409
144.414
144.422
144.435
144.454
144.484
144.531
144.604
144.715
144.881
145.124
145.471
145.947
146.572
147.356
148.294
149.366
150.545
151.798
153.096
154.417
155.743
157.062
158.367
159.663
160.968
144.4
144.4
144.4
144.4
144.4
144.4
144.4
144.4
144.4
144.4
144.4
144.4
144.4
144.4
144.4
144.401
144.401
144.401
144.402
144.403
144.405
144.408
144.412
144.419
144.429
144.444
144.468
144.505
144.562
144.648
144.777
144.967
145.242
145.625
146.142
146.809
147.632
148.602
149.699
150.893
152.154
153.455
154.773
156.092
157.402
158.694
159.966
161.218
162.451
163.673
164.912
144.4
144.4
144.4
144.4
144.4
144.4
144.4
144.4
144.4
144.4
144.4
144.401
144.401
144.401
144.402
144.403
144.405
144.407
144.411
144.416
144.425
144.438
144.458
144.488
144.534
144.604
144.708
144.861
145.083
145.396
145.826
146.393
147.11
147.979
148.987
150.111
151.322
152.592
153.893
155.207
156.519
157.818
159.098
160.357
161.594
162.809
164.005
165.183
166.345
167.495
168.664
144.4
144.4
144.4
144.4
144.4
144.4
144.4
144.4
144.401
144.401
144.401
144.402
144.403
144.405
144.407
144.41
144.415
144.423
144.434
144.452
144.478
144.517
144.575
144.662
144.79
144.975
145.237
145.6
146.085
146.711
147.487
148.407
149.456
150.61
151.838
153.115
154.417
155.724
157.026
158.312
159.578
160.821
162.041
163.239
164.417
165.577
166.719
167.843
168.951
170.042
171.118
172.212
144.4
144.4
144.4
144.4
144.401
144.401
144.401
144.402
144.403
144.405
144.407
144.41
144.415
144.422
144.433
144.448
144.472
144.506
144.558
144.633
144.744
144.903
145.129
145.443
145.866
146.418
147.113
147.953
148.929
150.021
151.203
152.448
153.73
155.029
156.328
157.616
158.887
160.136
161.361
162.562
163.741
164.9
166.039
167.161
168.266
169.354
170.424
171.477
172.512
173.529
174.534
175.556
144.401
144.401
144.402
144.402
144.403
144.405
144.407
144.41
144.415
144.422
144.432
144.447
144.469
144.502
144.549
144.618
144.717
144.859
145.061
145.34
145.717
146.213
146.843
147.615
148.524
149.557
150.691
151.899
153.157
154.44
155.733
157.019
158.292
159.544
160.773
161.978
163.159
164.317
165.454
166.572
167.672
168.755
169.822
170.872
171.904
172.919
173.916
174.897
175.862
176.813
177.755
178.715
144.404
144.406
144.408
144.411
144.416
144.423
144.434
144.449
144.47
144.502
144.547
144.612
144.706
144.838
145.024
145.28
145.626
146.082
146.664
147.381
148.235
149.215
150.302
151.474
152.704
153.969
155.25
156.532
157.802
159.055
160.286
161.493
162.674
163.832
164.967
166.08
167.175
168.253
169.313
170.358
171.386
172.397
173.39
174.366
175.326
176.27
177.199
178.116
179.021
179.917
180.806
181.716
144.418
144.426
144.437
144.452
144.475
144.506
144.552
144.616
144.708
144.836
145.014
145.258
145.586
146.016
146.565
147.243
148.054
148.991
150.039
151.176
152.378
153.623
154.889
156.162
157.427
158.678
159.907
161.113
162.294
163.45
164.582
165.691
166.78
167.85
168.903
169.94
170.961
171.966
172.954
173.925
174.879
175.817
176.739
177.646
178.541
179.424
180.297
181.16
182.017
182.867
183.714
184.582
144.483
144.517
144.564
144.631
144.724
144.853
145.031
145.272
145.592
146.01
146.54
147.195
147.978
148.884
149.9
151.008
152.184
153.408
154.659
155.919
157.176
158.421
159.646
160.848
162.026
163.178
164.306
165.41
166.492
167.554
168.598
169.625
170.637
171.633
172.613
173.577
174.525
175.456
176.37
177.27
178.155
179.026
179.887
180.736
181.577
182.41
183.236
184.057
184.873
185.685
186.498
187.331
144.756
144.892
145.076
145.322
145.645
146.063
146.59
147.235
148.004
148.892
149.887
150.973
152.128
153.333
154.566
155.813
157.059
158.294
159.511
160.707
161.878
163.024
164.145
165.242
166.316
167.368
168.402
169.418
170.418
171.403
172.372
173.327
174.267
175.19
176.097
176.987
177.863
178.724
179.572
180.409
181.236
182.052
182.862
183.664
184.461
185.253
186.042
186.827
187.61
188.392
189.175
189.979
146.182
146.718
147.369
148.137
149.019
150.004
151.076
152.215
153.403
154.62
155.852
157.083
158.306
159.512
160.698
161.859
162.995
164.107
165.193
166.257
167.299
168.32
169.323
170.31
171.282
172.238
173.181
174.109
175.022
175.92
176.802
177.668
178.519
179.356
180.18
180.992
181.794
182.587
183.372
184.15
184.923
185.691
186.455
187.217
187.976
188.733
189.489
190.245
191
191.759
192.539
149.275
150.26
151.325
152.454
153.628
154.829
156.044
157.259
158.466
159.658
160.829
161.977
163.1
164.198
165.272
166.322
167.351
168.358
169.347
170.319
171.275
172.216
173.144
174.058
174.958
175.844
176.715
177.571
178.411
179.237
180.049
180.848
181.635
182.412
183.18
183.941
184.694
185.442
186.186
186.926
187.662
188.397
189.13
189.862
190.593
191.324
192.056
192.788
193.522
194.26
195.018
154.015
155.202
156.399
157.596
158.784
159.956
161.109
162.239
163.346
164.427
165.484
166.518
167.53
168.521
169.493
170.448
171.386
172.31
173.221
174.118
175.003
175.875
176.732
177.576
178.404
179.218
180.017
180.803
181.576
182.338
183.09
183.833
184.568
185.296
186.019
186.738
187.452
188.164
188.874
189.582
190.289
190.996
191.703
192.411
193.119
193.828
194.539
195.252
195.966
196.685
197.424
160.415
161.546
162.654
163.739
164.799
165.836
166.85
167.842
168.814
169.767
170.702
171.621
172.525
173.416
174.295
175.162
176.016
176.858
177.686
178.501
179.301
180.088
180.86
181.619
182.366
183.101
183.827
184.544
185.253
185.956
186.653
187.346
188.036
188.722
189.407
190.09
190.772
191.454
192.136
192.819
193.503
194.188
194.875
195.564
196.254
196.947
197.641
198.339
199.042
199.763
165.321
166.334
167.324
168.293
169.242
170.172
171.085
171.982
172.865
173.734
174.592
175.438
176.272
177.095
177.906
178.705
179.49
180.261
181.019
181.764
182.495
183.215
183.923
184.622
185.313
185.996
186.673
187.344
188.011
188.675
189.336
189.995
190.653
191.31
191.967
192.624
193.282
193.941
194.602
195.264
195.928
196.595
197.263
197.935
198.608
199.285
199.964
200.646
201.334
202.04
169.808
170.713
171.601
172.474
173.332
174.178
175.012
175.835
176.647
177.449
178.24
179.02
179.787
180.542
181.284
182.012
182.728
183.431
184.123
184.804
185.476
186.139
186.796
187.446
188.091
188.732
189.37
190.005
190.638
191.27
191.902
192.533
193.165
193.798
194.432
195.068
195.705
196.345
196.987
197.632
198.28
198.93
199.583
200.239
200.897
201.559
202.224
202.893
203.567
204.258
173.93
174.75
175.558
176.356
177.144
177.922
178.691
179.449
180.196
180.932
181.656
182.367
183.066
183.752
184.426
185.089
185.742
186.386
187.023
187.652
188.275
188.894
189.508
190.119
190.728
191.336
191.942
192.548
193.153
193.76
194.367
194.976
195.587
196.2
196.815
197.432
198.053
198.676
199.302
199.931
200.564
201.199
201.838
202.48
203.126
203.774
204.426
205.081
205.742
206.42
177.764
178.517
179.261
179.995
180.72
181.435
182.139
182.831
183.511
184.179
184.835
185.479
186.113
186.738
187.354
187.962
188.563
189.16
189.751
190.339
190.923
191.506
192.087
192.667
193.247
193.827
194.408
194.99
195.573
196.158
196.746
197.336
197.929
198.525
199.123
199.725
200.331
200.939
201.551
202.167
202.786
203.408
204.034
204.664
205.297
205.933
206.572
207.216
207.864
208.529
181.361
182.053
182.734
183.405
184.064
184.712
185.349
185.974
186.589
187.193
187.788
188.376
188.956
189.529
190.098
190.662
191.223
191.781
192.337
192.891
193.445
193.999
194.553
195.108
195.664
196.222
196.782
197.344
197.909
198.477
199.048
199.622
200.199
200.78
201.365
201.953
202.545
203.141
203.74
204.343
204.95
205.561
206.175
206.792
207.414
208.038
208.666
209.298
209.935
210.588
184.728
185.355
185.971
186.575
187.169
187.753
188.328
188.893
189.452
190.003
190.549
191.089
191.626
192.159
192.69
193.22
193.747
194.275
194.802
195.33
195.859
196.39
196.922
197.456
197.993
198.533
199.076
199.622
200.171
200.724
201.28
201.841
202.405
202.973
203.545
204.121
204.701
205.285
205.873
206.464
207.06
207.659
208.262
208.869
209.479
210.093
210.71
211.331
211.957
212.597
188.418
188.971
189.515
190.051
190.579
191.102
191.619
192.132
192.641
193.147
193.651
194.153
194.655
195.156
195.657
196.158
196.661
197.166
197.673
198.181
198.693
199.207
199.725
200.246
200.77
201.298
201.83
202.366
202.906
203.45
203.998
204.551
205.107
205.668
206.233
206.802
207.375
207.952
208.533
209.118
209.707
210.3
210.896
211.496
212.099
212.705
213.315
213.93
214.56
191.258
191.758
192.252
192.74
193.225
193.706
194.185
194.661
195.137
195.611
196.086
196.561
197.036
197.513
197.992
198.473
198.956
199.442
199.931
200.423
200.919
201.418
201.922
202.429
202.94
203.456
203.976
204.5
205.029
205.562
206.099
206.641
207.187
207.737
208.292
208.851
209.414
209.982
210.553
211.128
211.707
212.289
212.875
213.465
214.058
214.654
215.254
215.858
216.476
193.909
194.365
194.819
195.27
195.72
196.168
196.616
197.064
197.513
197.962
198.413
198.866
199.321
199.779
200.239
200.703
201.17
201.641
202.115
202.594
203.076
203.563
204.054
204.55
205.05
205.555
206.064
206.578
207.096
207.619
208.147
208.679
209.216
209.757
210.302
210.852
211.405
211.963
212.525
213.09
213.66
214.233
214.809
215.389
215.972
216.558
217.147
217.742
218.349
196.824
197.246
197.667
198.089
198.511
198.935
199.36
199.787
200.217
200.649
201.084
201.522
201.964
202.41
202.86
203.313
203.771
204.234
204.7
205.172
205.648
206.128
206.614
207.104
207.599
208.099
208.603
209.113
209.627
210.145
210.668
211.196
211.728
212.265
212.805
213.35
213.899
214.451
215.008
215.568
216.131
216.698
217.268
217.842
218.418
218.997
219.582
220.178
199.159
199.555
199.953
200.352
200.754
201.158
201.565
201.975
202.388
202.805
203.226
203.651
204.079
204.513
204.951
205.393
205.84
206.292
206.749
207.21
207.677
208.148
208.625
209.106
209.592
210.084
210.58
211.08
211.586
212.096
212.611
213.13
213.654
214.182
214.714
215.25
215.79
216.334
216.881
217.432
217.987
218.544
219.105
219.669
220.235
220.805
221.38
221.965
201.765
202.143
202.525
202.91
203.299
203.691
204.087
204.487
204.891
205.3
205.713
206.131
206.554
206.982
207.415
207.853
208.295
208.743
209.196
209.655
210.118
210.586
211.059
211.538
212.021
212.509
213.002
213.5
214.002
214.509
215.02
215.536
216.056
216.579
217.107
217.639
218.174
218.713
219.255
219.8
220.349
220.9
221.455
222.012
222.572
223.136
223.712
203.889
204.252
204.62
204.991
205.367
205.747
206.131
206.521
206.914
207.313
207.717
208.126
208.54
208.959
209.384
209.813
210.248
210.688
211.134
211.584
212.04
212.501
212.967
213.438
213.914
214.395
214.88
215.37
215.865
216.364
216.868
217.376
217.887
218.403
218.923
219.446
219.973
220.503
221.036
221.573
222.112
222.655
223.2
223.748
224.298
224.853
225.418
206.289
206.645
207.006
207.371
207.741
208.116
208.496
208.881
209.272
209.667
210.068
210.475
210.886
211.303
211.726
212.154
212.587
213.025
213.469
213.918
214.372
214.831
215.295
215.764
216.238
216.716
217.199
217.687
218.178
218.674
219.174
219.679
220.186
220.698
221.213
221.731
222.253
222.778
223.306
223.836
224.37
224.906
225.444
225.985
226.53
227.085
208.263
208.609
208.961
209.317
209.679
210.046
210.418
210.796
211.179
211.568
211.962
212.361
212.766
213.177
213.593
214.014
214.441
214.873
215.311
215.753
216.201
216.653
217.111
217.573
218.04
218.511
218.988
219.468
219.952
220.441
220.934
221.43
221.93
222.434
222.941
223.451
223.964
224.481
225
225.522
226.046
226.573
227.102
227.634
228.169
228.714
210.18
210.518
210.862
211.211
211.566
211.926
212.291
212.663
213.04
213.422
213.81
214.204
214.603
215.007
215.417
215.833
216.254
216.68
217.111
217.548
217.989
218.435
218.887
219.342
219.803
220.268
220.737
221.21
221.688
222.169
222.654
223.143
223.636
224.132
224.631
225.133
225.638
226.146
226.656
227.169
227.685
228.202
228.722
229.245
229.771
230.305
212.044
212.376
212.713
213.056
213.405
213.759
214.119
214.485
214.856
215.233
215.616
216.004
216.397
216.797
217.201
217.611
218.026
218.447
218.873
219.303
219.739
220.179
220.624
221.073
221.527
221.986
222.448
222.915
223.385
223.86
224.338
224.819
225.304
225.792
226.283
226.777
227.274
227.773
228.275
228.779
229.286
229.795
230.306
230.819
231.335
231.86
213.861
214.187
214.519
214.857
215.2
215.549
215.904
216.265
216.631
217.003
217.381
217.764
218.153
218.547
218.946
219.351
219.761
220.176
220.596
221.021
221.451
221.885
222.324
222.767
223.215
223.667
224.123
224.583
225.046
225.514
225.984
226.458
226.935
227.416
227.899
228.385
228.873
229.365
229.858
230.354
230.851
231.351
231.853
232.357
232.864
233.379
215.634
215.955
216.283
216.616
216.954
217.299
217.649
218.005
218.367
218.735
219.108
219.486
219.87
220.259
220.654
221.053
221.458
221.868
222.283
222.702
223.126
223.555
223.988
224.425
224.867
225.312
225.762
226.215
226.671
227.132
227.595
228.062
228.531
229.004
229.479
229.957
230.437
230.92
231.405
231.892
232.381
232.872
233.365
233.86
234.358
234.863
217.366
217.683
218.006
218.335
218.67
219.01
219.356
219.708
220.066
220.429
220.797
221.171
221.551
221.935
222.325
222.72
223.12
223.525
223.934
224.348
224.767
225.19
225.617
226.048
226.483
226.922
227.365
227.812
228.261
228.714
229.171
229.63
230.092
230.557
231.024
231.494
231.967
232.441
232.918
233.396
233.877
234.359
234.842
235.328
235.817
236.313
219.372
219.691
220.017
220.348
220.684
221.027
221.375
221.728
222.087
222.452
222.822
223.197
223.577
223.962
224.352
224.747
225.147
225.551
225.959
226.372
226.79
227.211
227.636
228.065
228.498
228.934
229.374
229.817
230.263
230.712
231.164
231.619
232.076
232.536
232.998
233.462
233.928
234.396
234.866
235.338
235.811
236.286
236.763
237.242
237.729
221.025
221.341
221.663
221.99
222.324
222.662
223.007
223.357
223.712
224.072
224.438
224.808
225.184
225.565
225.95
226.34
226.735
227.134
227.537
227.945
228.356
228.772
229.191
229.614
230.04
230.47
230.903
231.339
231.778
232.22
232.665
233.112
233.561
234.013
234.467
234.923
235.381
235.841
236.303
236.766
237.23
237.696
238.164
238.635
239.112
222.643
222.956
223.275
223.599
223.929
224.264
224.605
224.951
225.303
225.659
226.021
226.387
226.759
227.135
227.515
227.901
228.29
228.684
229.082
229.484
229.89
230.299
230.713
231.129
231.549
231.973
232.399
232.828
233.26
233.695
234.132
234.572
235.014
235.458
235.904
236.352
236.802
237.253
237.707
238.161
238.617
239.074
239.533
239.995
240.463
224.538
224.854
225.175
225.502
225.834
226.171
226.514
226.861
227.214
227.571
227.934
228.301
228.672
229.048
229.429
229.813
230.202
230.595
230.991
231.391
231.795
232.202
232.613
233.026
233.443
233.863
234.285
234.71
235.138
235.568
236
236.434
236.87
237.309
237.749
238.19
238.634
239.078
239.525
239.972
240.421
240.871
241.324
241.782
226.089
226.401
226.72
227.043
227.372
227.706
228.045
228.389
228.737
229.091
229.449
229.812
230.179
230.55
230.925
231.305
231.688
232.076
232.467
232.861
233.259
233.66
234.064
234.472
234.882
235.295
235.71
236.128
236.549
236.971
237.396
237.823
238.251
238.682
239.114
239.548
239.983
240.419
240.857
241.296
241.736
242.177
242.621
243.071
227.608
227.918
228.233
228.554
228.879
229.21
229.545
229.885
230.23
230.579
230.933
231.292
231.654
232.021
232.391
232.766
233.144
233.526
233.911
234.3
234.692
235.087
235.485
235.886
236.289
236.696
237.104
237.515
237.929
238.344
238.761
239.18
239.601
240.024
240.448
240.874
241.301
241.729
242.158
242.589
243.021
243.454
243.889
244.329
229.098
229.405
229.717
230.034
230.357
230.684
231.015
231.352
231.693
232.038
232.388
232.742
233.1
233.461
233.827
234.196
234.569
234.946
235.325
235.708
236.094
236.483
236.875
237.27
237.667
238.066
238.468
238.872
239.278
239.686
240.096
240.508
240.921
241.336
241.752
242.17
242.589
243.009
243.43
243.852
244.275
244.7
245.127
245.559
230.862
231.172
231.486
231.805
232.128
232.457
232.789
233.126
233.467
233.813
234.162
234.515
234.872
235.233
235.597
235.965
236.336
236.71
237.087
237.467
237.85
238.236
238.624
239.014
239.407
239.802
240.199
240.598
240.999
241.401
241.806
242.211
242.618
243.027
243.437
243.847
244.259
244.672
245.086
245.501
245.917
246.336
246.759
232.291
232.598
232.909
233.224
233.544
233.869
234.198
234.531
234.868
235.209
235.554
235.902
236.254
236.61
236.969
237.331
237.697
238.065
238.437
238.811
239.187
239.567
239.948
240.332
240.718
241.106
241.496
241.888
242.282
242.677
243.074
243.472
243.872
244.272
244.674
245.077
245.481
245.886
246.292
246.699
247.106
247.516
247.931
233.693
233.996
234.304
234.616
234.932
235.253
235.578
235.907
236.24
236.577
236.917
237.261
237.608
237.959
238.312
238.669
239.029
239.392
239.757
240.125
240.496
240.869
241.244
241.622
242.001
242.382
242.765
243.15
243.537
243.925
244.314
244.705
245.097
245.49
245.884
246.279
246.675
247.072
247.469
247.868
248.268
248.669
249.076
235.367
235.671
235.98
236.293
236.61
236.931
237.256
237.584
237.916
238.252
238.591
238.934
239.279
239.628
239.979
240.333
240.69
241.05
241.412
241.776
242.143
242.512
242.883
243.255
243.63
244.006
244.384
244.763
245.144
245.526
245.909
246.294
246.679
247.065
247.453
247.841
248.23
248.62
249.01
249.402
249.795
250.193
236.711
237.012
237.317
237.626
237.939
238.256
238.577
238.901
239.229
239.56
239.894
240.232
240.572
240.915
241.261
241.61
241.961
242.315
242.671
243.029
243.39
243.752
244.116
244.482
244.85
245.219
245.59
245.962
246.336
246.711
247.086
247.463
247.841
248.22
248.6
248.98
249.361
249.743
250.126
250.509
250.895
251.285
238.028
238.326
238.628
238.933
239.242
239.555
239.872
240.191
240.515
240.841
241.17
241.503
241.838
242.176
242.516
242.859
243.205
243.553
243.903
244.255
244.609
244.965
245.323
245.682
246.043
246.406
246.769
247.135
247.501
247.868
248.237
248.606
248.977
249.348
249.72
250.093
250.466
250.84
251.215
251.591
251.969
252.35
239.32
239.614
239.912
240.214
240.519
240.828
241.14
241.455
241.774
242.095
242.42
242.747
243.077
243.41
243.745
244.082
244.422
244.764
245.108
245.454
245.802
246.151
246.503
246.855
247.21
247.565
247.922