/*--------------------------------*- C++ -*----------------------------------*\
| =========                 |                                                 |
| \\      /  F ield         | OpenFOAM: The Open Source CFD Toolbox           |
|  \\    /   O peration     | Version:  v1706                                 |
|   \\  /    A nd           | Web:      www.OpenFOAM.com                      |
|    \\/     M anipulation  |                                                 |
\*---------------------------------------------------------------------------*/
FoamFile
{
    version     2.0;
    format      ascii;
    class       volVectorField;
    location    "3.5e-05";
    object      U;
}
// * * * * * * * * * * * * * * * * * * * * * * * * * * * * * * * * * * * * * //

dimensions      [0 1 -1 0 0 0 0];


internalField   nonuniform List<vector> 
30038
(
(1760 -5.98641e-11 7.79125e-15)
(1760 -6.06775e-11 2.06542e-15)
(1760 -6.12347e-11 7.9091e-15)
(1760 -6.12182e-11 2.22013e-15)
(1760 -6.32486e-11 4.71446e-15)
(1760 -6.45504e-11 4.22914e-15)
(1760 -6.48265e-11 7.93499e-15)
(1760 -6.69067e-11 9.62181e-15)
(1760 -6.84652e-11 5.51971e-15)
(1760 -6.86757e-11 3.50717e-15)
(1760 -6.94953e-11 1.02428e-14)
(1760 -7.07951e-11 8.88355e-15)
(1760 -7.39308e-11 5.40137e-15)
(1760 -7.56028e-11 3.18815e-15)
(1760 -7.69713e-11 5.6344e-15)
(1760 -7.67885e-11 9.98511e-15)
(1760 -7.70854e-11 7.05587e-15)
(1760 -7.8163e-11 3.31652e-15)
(1760 -7.80082e-11 2.68526e-15)
(1760 -7.93917e-11 7.65988e-15)
(1760 -8.02679e-11 8.79561e-15)
(1760 -8.1392e-11 6.98759e-15)
(1760 -8.36266e-11 1.21048e-15)
(1760 -8.54864e-11 7.08619e-15)
(1760 -8.64173e-11 6.46668e-15)
(1760 -8.65769e-11 3.19429e-15)
(1760 -8.86065e-11 2.53532e-15)
(1760 -8.90907e-11 5.73322e-15)
(1760 -9.4598e-11 9.89445e-15)
(1760 -9.73872e-11 8.85829e-15)
(1760 -9.87879e-11 5.8978e-15)
(1760 -1.00657e-10 1.00854e-14)
(1760 -1.04982e-10 6.84418e-15)
(1760 -1.08779e-10 4.41595e-15)
(1760 -1.12045e-10 1.07086e-14)
(1760 -1.14348e-10 8.38377e-15)
(1760 -1.16926e-10 1.768e-15)
(1760 -1.22344e-10 5.38775e-15)
(1760 -1.69759e-10 1.88603e-14)
(1760 -1.73013e-10 2.00934e-14)
(1760 -1.77305e-10 2.03167e-14)
(1760 -1.80137e-10 1.739e-14)
(1760 -1.81136e-10 2.4763e-14)
(1760 -1.85017e-10 2.12864e-14)
(1760 -1.86955e-10 2.17098e-14)
(1760 -1.90032e-10 2.32531e-14)
(1760 -1.93395e-10 1.7232e-14)
(1760 -1.9728e-10 2.09195e-14)
(1760 -1.99452e-10 2.17127e-14)
(1760 -2.00608e-10 1.53685e-14)
(1760 -2.02719e-10 1.86705e-14)
(1760 -2.07181e-10 1.97745e-14)
(1760 -2.12113e-10 2.05988e-14)
(1760 -2.1894e-10 1.9989e-14)
(1760 -2.20709e-10 1.96655e-14)
(1760 -2.27193e-10 1.91466e-14)
(1760 -2.29466e-10 1.6448e-14)
(1760 -2.32403e-10 1.90028e-14)
(1760 -2.35837e-10 1.87794e-14)
(1760 -2.38687e-10 2.0567e-14)
(1760 -2.41504e-10 2.10357e-14)
(1760 -2.46419e-10 1.91347e-14)
(1760 -2.53072e-10 1.78243e-14)
(1760 -2.57636e-10 1.83506e-14)
(1760 -2.63441e-10 1.90557e-14)
(1760 -2.658e-10 1.65976e-14)
(1760 -2.69031e-10 2.00373e-14)
(1760 -2.7446e-10 2.19316e-14)
(1760 -2.81586e-10 1.30041e-14)
(1760 -2.85983e-10 2.41903e-14)
(1760 -2.91337e-10 2.68938e-14)
(1760 -2.94269e-10 2.21025e-14)
(1760 -3.05189e-10 2.44809e-14)
(1760 -3.0821e-10 1.81253e-14)
(1760 -3.22755e-10 1.84334e-14)
(1760 -3.33814e-10 2.05672e-14)
(1760 -2.80048e-10 3.30351e-14)
(1760 -2.82526e-10 3.5119e-14)
(1760 -2.85345e-10 3.32589e-14)
(1760 -2.90277e-10 2.98902e-14)
(1760 -2.94345e-10 3.23153e-14)
(1760 -2.98345e-10 3.38611e-14)
(1760 -3.02127e-10 3.40883e-14)
(1760 -3.05464e-10 2.80958e-14)
(1760 -3.10375e-10 2.85343e-14)
(1760 -3.17634e-10 2.8899e-14)
(1760 -3.22731e-10 2.65801e-14)
(1760 -3.27555e-10 2.98221e-14)
(1760 -3.3067e-10 3.18474e-14)
(1760 -3.34109e-10 3.25931e-14)
(1760 -3.38088e-10 3.11304e-14)
(1760 -3.46532e-10 3.47169e-14)
(1760 -3.5257e-10 3.40012e-14)
(1760 -3.61439e-10 3.28926e-14)
(1760 -3.68226e-10 3.15952e-14)
(1760 -3.75185e-10 3.0996e-14)
(1760 -3.81628e-10 2.91456e-14)
(1760 -3.8731e-10 3.23273e-14)
(1760 -3.92459e-10 2.85239e-14)
(1760 -3.9651e-10 2.7339e-14)
(1760 -4.03162e-10 3.33988e-14)
(1760 -4.10243e-10 3.39623e-14)
(1760 -4.19412e-10 3.03936e-14)
(1760 -4.26466e-10 2.64333e-14)
(1760 -4.33145e-10 2.9941e-14)
(1760 -4.40052e-10 3.34142e-14)
(1760 -4.48556e-10 3.14507e-14)
(1760 -4.55161e-10 3.44355e-14)
(1760 -4.64248e-10 3.31731e-14)
(1760 -4.69254e-10 3.35656e-14)
(1760 -4.81107e-10 3.4841e-14)
(1760 -4.86471e-10 3.63581e-14)
(1760 -5.02264e-10 3.08797e-14)
(1760 -5.16393e-10 3.25985e-14)
(1760 -3.82759e-10 4.59304e-14)
(1760 -3.86467e-10 4.5712e-14)
(1760 -3.91474e-10 4.45708e-14)
(1760 -3.97784e-10 4.15357e-14)
(1760 -4.04128e-10 4.74952e-14)
(1760 -4.09826e-10 4.27036e-14)
(1760 -4.13739e-10 4.06334e-14)
(1760 -4.18988e-10 4.14095e-14)
(1760 -4.23116e-10 4.38434e-14)
(1760 -4.29654e-10 4.07301e-14)
(1760 -4.36744e-10 4.52e-14)
(1760 -4.43903e-10 4.52918e-14)
(1760 -4.49268e-10 4.76824e-14)
(1760 -4.56427e-10 4.05242e-14)
(1760 -4.61462e-10 4.02466e-14)
(1760 -4.6796e-10 4.20405e-14)
(1760 -4.75296e-10 3.89301e-14)
(1760 -4.84222e-10 4.37201e-14)
(1760 -4.93709e-10 4.54426e-14)
(1760 -5.02255e-10 4.24295e-14)
(1760 -5.1124e-10 4.24004e-14)
(1760 -5.20708e-10 4.07547e-14)
(1760 -5.29299e-10 4.42755e-14)
(1760 -5.37491e-10 4.68099e-14)
(1760 -5.4652e-10 4.44468e-14)
(1760 -5.54018e-10 4.54427e-14)
(1760 -5.62466e-10 4.53569e-14)
(1760 -5.71326e-10 4.28328e-14)
(1760 -5.80838e-10 4.4215e-14)
(1760 -5.90874e-10 4.81304e-14)
(1760 -6.02884e-10 4.55235e-14)
(1760 -6.12195e-10 4.6893e-14)
(1760 -6.23985e-10 4.62029e-14)
(1760 -6.32655e-10 4.40907e-14)
(1760 -6.44529e-10 4.6663e-14)
(1760 -6.52514e-10 5.00967e-14)
(1760 -6.69445e-10 4.83727e-14)
(1760 -6.86391e-10 4.92618e-14)
(1760 -4.81377e-10 5.50237e-14)
(1760 -4.86078e-10 5.59778e-14)
(1760 -4.8973e-10 5.79045e-14)
(1760 -4.97467e-10 5.7657e-14)
(1760 -5.06296e-10 5.57358e-14)
(1760 -5.15243e-10 5.47865e-14)
(1760 -5.21182e-10 5.71765e-14)
(1760 -5.27057e-10 5.7305e-14)
(1760 -5.33182e-10 5.8763e-14)
(1760 -5.40473e-10 5.86574e-14)
(1760 -5.47545e-10 5.7808e-14)
(1760 -5.56531e-10 5.58449e-14)
(1760 -5.62349e-10 5.50177e-14)
(1760 -5.69495e-10 5.15848e-14)
(1760 -5.77537e-10 5.38562e-14)
(1760 -5.85276e-10 5.78558e-14)
(1760 -5.93439e-10 6.13019e-14)
(1760 -6.0223e-10 5.86221e-14)
(1760 -6.12882e-10 5.44026e-14)
(1760 -6.23795e-10 5.99246e-14)
(1760 -6.33225e-10 5.5294e-14)
(1760 -6.44474e-10 5.00335e-14)
(1760 -6.55667e-10 5.90316e-14)
(1760 -6.66307e-10 5.73268e-14)
(1760 -6.76826e-10 5.86797e-14)
(1760 -6.87264e-10 6.06e-14)
(1760 -6.97033e-10 6.1988e-14)
(1760 -7.07302e-10 5.38518e-14)
(1760 -7.18819e-10 5.16308e-14)
(1760 -7.30661e-10 5.05416e-14)
(1760 -7.44147e-10 5.44894e-14)
(1760 -7.56654e-10 6.31758e-14)
(1760 -7.71075e-10 6.06839e-14)
(1760 -7.83823e-10 5.82675e-14)
(1760 -7.97255e-10 5.84397e-14)
(1760 -8.07377e-10 5.96368e-14)
(1760 -8.2405e-10 6.22875e-14)
(1760 -8.44268e-10 6.2644e-14)
(1760 -5.81865e-10 7.06919e-14)
(1760 -5.87017e-10 7.15287e-14)
(1760 -5.91318e-10 6.79693e-14)
(1760 -5.95488e-10 6.2584e-14)
(1760 -6.02527e-10 6.42133e-14)
(1760 -6.11992e-10 6.64242e-14)
(1760 -6.20875e-10 6.19341e-14)
(1760 -6.27858e-10 7.27882e-14)
(1760 -6.35176e-10 7.57827e-14)
(1760 -6.44213e-10 7.11906e-14)
(1760 -6.51778e-10 7.06825e-14)
(1760 -6.61821e-10 6.81845e-14)
(1760 -6.69731e-10 6.73739e-14)
(1760 -6.78249e-10 6.8804e-14)
(1760 -6.86924e-10 6.87073e-14)
(1760 -6.96236e-10 6.90629e-14)
(1760 -7.04665e-10 7.37059e-14)
(1760 -7.14387e-10 7.02922e-14)
(1760 -7.25946e-10 6.54459e-14)
(1760 -7.38708e-10 7.05154e-14)
(1760 -7.49702e-10 7.03206e-14)
(1760 -7.61341e-10 7.34555e-14)
(1760 -7.73755e-10 7.26458e-14)
(1760 -7.86696e-10 6.75579e-14)
(1760 -7.99214e-10 6.59057e-14)
(1760 -8.12824e-10 7.10884e-14)
(1760 -8.25836e-10 7.65511e-14)
(1760 -8.3864e-10 6.81285e-14)
(1760 -8.51431e-10 7.3303e-14)
(1760 -8.64185e-10 7.3618e-14)
(1760 -8.77573e-10 6.80869e-14)
(1760 -8.90887e-10 6.9026e-14)
(1760 -9.05784e-10 6.99098e-14)
(1760 -9.20527e-10 7.53915e-14)
(1760 -9.36914e-10 7.54464e-14)
(1760 -9.4914e-10 6.88662e-14)
(1760 -9.66992e-10 6.96346e-14)
(1760 -9.89285e-10 7.32055e-14)
(1760 -6.74023e-10 7.9927e-14)
(1760 -6.81791e-10 7.63667e-14)
(1760 -6.89069e-10 8.04184e-14)
(1760 -6.96152e-10 8.33762e-14)
(1760 -7.01997e-10 8.08164e-14)
(1760 -7.10162e-10 7.80548e-14)
(1760 -7.19888e-10 8.05149e-14)
(1760 -7.26856e-10 8.62142e-14)
(1760 -7.3407e-10 7.71273e-14)
(1760 -7.43578e-10 8.28963e-14)
(1760 -7.53555e-10 8.34466e-14)
(1760 -7.65067e-10 8.00214e-14)
(1760 -7.74863e-10 8.01184e-14)
(1760 -7.83154e-10 7.82677e-14)
(1760 -7.91269e-10 7.73928e-14)
(1760 -8.00801e-10 8.16672e-14)
(1760 -8.09947e-10 8.10651e-14)
(1760 -8.19869e-10 8.57446e-14)
(1760 -8.31166e-10 8.19209e-14)
(1760 -8.44513e-10 8.45543e-14)
(1760 -8.58106e-10 8.3308e-14)
(1760 -8.72319e-10 8.16974e-14)
(1760 -8.86155e-10 8.11919e-14)
(1760 -8.99706e-10 8.4057e-14)
(1760 -9.14244e-10 8.14705e-14)
(1760 -9.28384e-10 8.37175e-14)
(1760 -9.43397e-10 8.75442e-14)
(1760 -9.57211e-10 7.85701e-14)
(1760 -9.72215e-10 7.81046e-14)
(1760 -9.87813e-10 8.14514e-14)
(1760 -1.00306e-09 8.10489e-14)
(1760 -1.01767e-09 7.97688e-14)
(1760 -1.03314e-09 8.35283e-14)
(1760 -1.04755e-09 8.69972e-14)
(1760 -1.06495e-09 8.99983e-14)
(1760 -1.07868e-09 8.60016e-14)
(1760 -1.09972e-09 8.54316e-14)
(1760 -1.12389e-09 8.78823e-14)
(1760 -7.61291e-10 9.39289e-14)
(1760 -7.70227e-10 9.32469e-14)
(1760 -7.78854e-10 9.46213e-14)
(1760 -7.87834e-10 9.8197e-14)
(1760 -7.96022e-10 9.6481e-14)
(1760 -8.03618e-10 9.03091e-14)
(1760 -8.13847e-10 9.24924e-14)
(1760 -8.22393e-10 9.4904e-14)
(1760 -8.29764e-10 9.73802e-14)
(1760 -8.38577e-10 9.53813e-14)
(1760 -8.47749e-10 9.16044e-14)
(1760 -8.59149e-10 9.33958e-14)
(1760 -8.71926e-10 9.16313e-14)
(1760 -8.83629e-10 9.34599e-14)
(1760 -8.94586e-10 9.17612e-14)
(1760 -9.05294e-10 9.65313e-14)
(1760 -9.15893e-10 9.95088e-14)
(1760 -9.25995e-10 9.72846e-14)
(1760 -9.37346e-10 9.46783e-14)
(1760 -9.4869e-10 9.66893e-14)
(1760 -9.60367e-10 9.21723e-14)
(1760 -9.74017e-10 9.72582e-14)
(1760 -9.89962e-10 9.30132e-14)
(1760 -1.00563e-09 9.26529e-14)
(1760 -1.02231e-09 9.09168e-14)
(1760 -1.03716e-09 9.7069e-14)
(1760 -1.05369e-09 9.46223e-14)
(1760 -1.06877e-09 9.29663e-14)
(1760 -1.0833e-09 9.75754e-14)
(1760 -1.09887e-09 9.90656e-14)
(1760 -1.11736e-09 1.00312e-13)
(1760 -1.13454e-09 9.81971e-14)
(1760 -1.15227e-09 1.00112e-13)
(1760 -1.16875e-09 9.67883e-14)
(1760 -1.18711e-09 9.85246e-14)
(1760 -1.20138e-09 1.04452e-13)
(1760 -1.2223e-09 9.87427e-14)
(1760 -1.24817e-09 9.48015e-14)
(1760 -8.35894e-10 1.08031e-13)
(1760 -8.46349e-10 1.0746e-13)
(1760 -8.5638e-10 1.11787e-13)
(1760 -8.66499e-10 1.09904e-13)
(1760 -8.75158e-10 1.0818e-13)
(1760 -8.83549e-10 1.08572e-13)
(1760 -8.93275e-10 1.13147e-13)
(1760 -9.04077e-10 1.09402e-13)
(1760 -9.14356e-10 1.09295e-13)
(1760 -9.2363e-10 1.06746e-13)
(1760 -9.33353e-10 1.01376e-13)
(1760 -9.41976e-10 1.09609e-13)
(1760 -9.52497e-10 1.01579e-13)
(1760 -9.64733e-10 1.08886e-13)
(1760 -9.7824e-10 1.08395e-13)
(1760 -9.92142e-10 1.09912e-13)
(1760 -1.00406e-09 1.10219e-13)
(1760 -1.01602e-09 1.05713e-13)
(1760 -1.02711e-09 1.04262e-13)
(1760 -1.03829e-09 1.06194e-13)
(1760 -1.05012e-09 1.06435e-13)
(1760 -1.06255e-09 1.06723e-13)
(1760 -1.07591e-09 1.0502e-13)
(1760 -1.09038e-09 1.03217e-13)
(1760 -1.10607e-09 1.06827e-13)
(1760 -1.12354e-09 1.08172e-13)
(1760 -1.13931e-09 1.10424e-13)
(1760 -1.15691e-09 1.07514e-13)
(1760 -1.17411e-09 1.08364e-13)
(1760 -1.18963e-09 1.08234e-13)
(1760 -1.20613e-09 1.10422e-13)
(1760 -1.22389e-09 1.10149e-13)
(1760 -1.24256e-09 1.11062e-13)
(1760 -1.26186e-09 1.09539e-13)
(1760 -1.27928e-09 1.15573e-13)
(1760 -1.29891e-09 1.14899e-13)
(1760 -1.31511e-09 1.10664e-13)
(1760 -1.33888e-09 1.08733e-13)
(1760 -1.36611e-09 1.08125e-13)
(1760 -9.18987e-10 1.20109e-13)
(1760 -9.28761e-10 1.15958e-13)
(1760 -9.39147e-10 1.17383e-13)
(1760 -9.50181e-10 1.23578e-13)
(1760 -9.60863e-10 1.22743e-13)
(1760 -9.71209e-10 1.24175e-13)
(1760 -9.81434e-10 1.2464e-13)
(1760 -9.92402e-10 1.17812e-13)
(1760 -1.00414e-09 1.16614e-13)
(1760 -1.01337e-09 1.14388e-13)
(1760 -1.0245e-09 1.19478e-13)
(1760 -1.03568e-09 1.15787e-13)
(1760 -1.04575e-09 1.13119e-13)
(1760 -1.05746e-09 1.21679e-13)
(1760 -1.06965e-09 1.19466e-13)
(1760 -1.0838e-09 1.19793e-13)
(1760 -1.09754e-09 1.15707e-13)
(1760 -1.11027e-09 1.20658e-13)
(1760 -1.12359e-09 1.19111e-13)
(1760 -1.13652e-09 1.2015e-13)
(1760 -1.1502e-09 1.16919e-13)
(1760 -1.16351e-09 1.16616e-13)
(1760 -1.17617e-09 1.17107e-13)
(1760 -1.18932e-09 1.19889e-13)
(1760 -1.20333e-09 1.22275e-13)
(1760 -1.22036e-09 1.21342e-13)
(1760 -1.23798e-09 1.2297e-13)
(1760 -1.25621e-09 1.17885e-13)
(1760 -1.27567e-09 1.17226e-13)
(1760 -1.29276e-09 1.22754e-13)
(1760 -1.31093e-09 1.23759e-13)
(1760 -1.32902e-09 1.23123e-13)
(1760 -1.34712e-09 1.23945e-13)
(1760 -1.36671e-09 1.23829e-13)
(1760 -1.38648e-09 1.25794e-13)
(1760 -1.40756e-09 1.22933e-13)
(1760 -1.42385e-09 1.18806e-13)
(1760 -1.44777e-09 1.23284e-13)
(1760 -1.47712e-09 1.24897e-13)
(1760 -1.00527e-09 1.35112e-13)
(1760 -1.0133e-09 1.36792e-13)
(1760 -1.02369e-09 1.32693e-13)
(1760 -1.03494e-09 1.33606e-13)
(1760 -1.04544e-09 1.28824e-13)
(1760 -1.05575e-09 1.30327e-13)
(1760 -1.06601e-09 1.35423e-13)
(1760 -1.07699e-09 1.34337e-13)
(1760 -1.08973e-09 1.28396e-13)
(1760 -1.10093e-09 1.30512e-13)
(1760 -1.11184e-09 1.29877e-13)
(1760 -1.12349e-09 1.31283e-13)
(1760 -1.13537e-09 1.28527e-13)
(1760 -1.14826e-09 1.25023e-13)
(1760 -1.16078e-09 1.3332e-13)
(1760 -1.17387e-09 1.37507e-13)
(1760 -1.18791e-09 1.39228e-13)
(1760 -1.20195e-09 1.34199e-13)
(1760 -1.21666e-09 1.29011e-13)
(1760 -1.23059e-09 1.30187e-13)
(1760 -1.24526e-09 1.32567e-13)
(1760 -1.26017e-09 1.33678e-13)
(1760 -1.27479e-09 1.32116e-13)
(1760 -1.28785e-09 1.31617e-13)
(1760 -1.30173e-09 1.3248e-13)
(1760 -1.31674e-09 1.36121e-13)
(1760 -1.33337e-09 1.29644e-13)
(1760 -1.35134e-09 1.29107e-13)
(1760 -1.37016e-09 1.35083e-13)
(1760 -1.38867e-09 1.38141e-13)
(1760 -1.40804e-09 1.3775e-13)
(1760 -1.42842e-09 1.33395e-13)
(1760 -1.44837e-09 1.33719e-13)
(1760 -1.46809e-09 1.33898e-13)
(1760 -1.48762e-09 1.34737e-13)
(1760 -1.5102e-09 1.34478e-13)
(1760 -1.52809e-09 1.37326e-13)
(1760 -1.55452e-09 1.38534e-13)
(1760 -1.56884e-09 1.36326e-13)
(1760 -1.07553e-09 1.49547e-13)
(1760 -1.08623e-09 1.45703e-13)
(1760 -1.09616e-09 1.43965e-13)
(1760 -1.10662e-09 1.47146e-13)
(1760 -1.1163e-09 1.46911e-13)
(1760 -1.12691e-09 1.48136e-13)
(1760 -1.1391e-09 1.47229e-13)
(1760 -1.15087e-09 1.47823e-13)
(1760 -1.16271e-09 1.44732e-13)
(1760 -1.17474e-09 1.47956e-13)
(1760 -1.18657e-09 1.46437e-13)
(1760 -1.19854e-09 1.45574e-13)
(1760 -1.21039e-09 1.4276e-13)
(1760 -1.22201e-09 1.38401e-13)
(1760 -1.23425e-09 1.44901e-13)
(1760 -1.24745e-09 1.46775e-13)
(1760 -1.26165e-09 1.43702e-13)
(1760 -1.27639e-09 1.43697e-13)
(1760 -1.29075e-09 1.4451e-13)
(1760 -1.30575e-09 1.43331e-13)
(1760 -1.32071e-09 1.38753e-13)
(1760 -1.33644e-09 1.40255e-13)
(1760 -1.35227e-09 1.41584e-13)
(1760 -1.36775e-09 1.39838e-13)
(1760 -1.38214e-09 1.42537e-13)
(1760 -1.39744e-09 1.49837e-13)
(1760 -1.41238e-09 1.45137e-13)
(1760 -1.42805e-09 1.40363e-13)
(1760 -1.44499e-09 1.46214e-13)
(1760 -1.46376e-09 1.45588e-13)
(1760 -1.48145e-09 1.48085e-13)
(1760 -1.4995e-09 1.44743e-13)
(1760 -1.52032e-09 1.45076e-13)
(1760 -1.54237e-09 1.47734e-13)
(1760 -1.5648e-09 1.51475e-13)
(1760 -1.58477e-09 1.5104e-13)
(1760 -1.60696e-09 1.48304e-13)
(1760 -1.62438e-09 1.50355e-13)
(1760 -1.65173e-09 1.45599e-13)
(1760 -1.66575e-09 1.5069e-13)
(1760 -1.15307e-09 1.62105e-13)
(1760 -1.16379e-09 1.62379e-13)
(1760 -1.17545e-09 1.62777e-13)
(1760 -1.1876e-09 1.57785e-13)
(1760 -1.19844e-09 1.59327e-13)
(1760 -1.20953e-09 1.60584e-13)
(1760 -1.21996e-09 1.62409e-13)
(1760 -1.23104e-09 1.60421e-13)
(1760 -1.24263e-09 1.59998e-13)
(1760 -1.25589e-09 1.62577e-13)
(1760 -1.26919e-09 1.5493e-13)
(1760 -1.28256e-09 1.55577e-13)
(1760 -1.29497e-09 1.54874e-13)
(1760 -1.30755e-09 1.54158e-13)
(1760 -1.32063e-09 1.55478e-13)
(1760 -1.33417e-09 1.56162e-13)
(1760 -1.34746e-09 1.53593e-13)
(1760 -1.36158e-09 1.49831e-13)
(1760 -1.37646e-09 1.53052e-13)
(1760 -1.39288e-09 1.51069e-13)
(1760 -1.40799e-09 1.54668e-13)
(1760 -1.42418e-09 1.57076e-13)
(1760 -1.44174e-09 1.59688e-13)
(1760 -1.45824e-09 1.57254e-13)
(1760 -1.47355e-09 1.54576e-13)
(1760 -1.48807e-09 1.55759e-13)
(1760 -1.50259e-09 1.55738e-13)
(1760 -1.519e-09 1.55296e-13)
(1760 -1.53568e-09 1.54539e-13)
(1760 -1.55374e-09 1.57132e-13)
(1760 -1.57184e-09 1.5852e-13)
(1760 -1.59064e-09 1.58819e-13)
(1760 -1.61016e-09 1.58668e-13)
(1760 -1.6305e-09 1.60438e-13)
(1760 -1.65456e-09 1.63053e-13)
(1760 -1.6764e-09 1.56258e-13)
(1760 -1.69967e-09 1.57727e-13)
(1760 -1.71857e-09 1.60859e-13)
(1760 -1.74637e-09 1.60235e-13)
(1760 -1.76211e-09 1.59917e-13)
(1760 -1.2296e-09 1.7544e-13)
(1760 -1.24096e-09 1.71468e-13)
(1760 -1.25158e-09 1.72397e-13)
(1760 -1.26337e-09 1.73771e-13)
(1760 -1.27493e-09 1.75561e-13)
(1760 -1.28703e-09 1.78092e-13)
(1760 -1.29932e-09 1.72518e-13)
(1760 -1.31176e-09 1.67927e-13)
(1760 -1.32343e-09 1.73598e-13)
(1760 -1.33627e-09 1.75081e-13)
(1760 -1.34867e-09 1.68681e-13)
(1760 -1.36122e-09 1.73603e-13)
(1760 -1.37551e-09 1.73603e-13)
(1760 -1.38874e-09 1.69324e-13)
(1760 -1.4017e-09 1.70589e-13)
(1760 -1.4159e-09 1.64504e-13)
(1760 -1.43072e-09 1.61981e-13)
(1760 -1.44487e-09 1.64897e-13)
(1760 -1.45892e-09 1.66165e-13)
(1760 -1.47458e-09 1.67383e-13)
(1760 -1.48963e-09 1.75894e-13)
(1760 -1.50551e-09 1.71385e-13)
(1760 -1.52383e-09 1.68667e-13)
(1760 -1.54233e-09 1.68892e-13)
(1760 -1.55956e-09 1.68528e-13)
(1760 -1.57669e-09 1.68346e-13)
(1760 -1.59219e-09 1.68698e-13)
(1760 -1.60833e-09 1.63434e-13)
(1760 -1.62557e-09 1.74753e-13)
(1760 -1.64315e-09 1.73554e-13)
(1760 -1.66085e-09 1.67251e-13)
(1760 -1.67835e-09 1.65992e-13)
(1760 -1.69831e-09 1.65179e-13)
(1760 -1.71784e-09 1.68724e-13)
(1760 -1.74153e-09 1.73293e-13)
(1760 -1.76548e-09 1.73271e-13)
(1760 -1.79045e-09 1.708e-13)
(1760 -1.8099e-09 1.69932e-13)
(1760 -1.83823e-09 1.76832e-13)
(1760 -1.85632e-09 1.79066e-13)
(1760 -1.30434e-09 1.87169e-13)
(1760 -1.31428e-09 1.89095e-13)
(1760 -1.32655e-09 1.89861e-13)
(1760 -1.33949e-09 1.85332e-13)
(1760 -1.35159e-09 1.85159e-13)
(1760 -1.36392e-09 1.88918e-13)
(1760 -1.37685e-09 1.89118e-13)
(1760 -1.38922e-09 1.79411e-13)
(1760 -1.40115e-09 1.81924e-13)
(1760 -1.41503e-09 1.86532e-13)
(1760 -1.42848e-09 1.81887e-13)
(1760 -1.44137e-09 1.87141e-13)
(1760 -1.4555e-09 1.83659e-13)
(1760 -1.46971e-09 1.77786e-13)
(1760 -1.48386e-09 1.81371e-13)
(1760 -1.49801e-09 1.80739e-13)
(1760 -1.51329e-09 1.75014e-13)
(1760 -1.52813e-09 1.78804e-13)
(1760 -1.54203e-09 1.81058e-13)
(1760 -1.55765e-09 1.84359e-13)
(1760 -1.5732e-09 1.85814e-13)
(1760 -1.58848e-09 1.79704e-13)
(1760 -1.60528e-09 1.83355e-13)
(1760 -1.62423e-09 1.83728e-13)
(1760 -1.64312e-09 1.7864e-13)
(1760 -1.66054e-09 1.84108e-13)
(1760 -1.67736e-09 1.77634e-13)
(1760 -1.6949e-09 1.7943e-13)
(1760 -1.71335e-09 1.82486e-13)
(1760 -1.73177e-09 1.77289e-13)
(1760 -1.74933e-09 1.80313e-13)
(1760 -1.76755e-09 1.82626e-13)
(1760 -1.78636e-09 1.81634e-13)
(1760 -1.8048e-09 1.77369e-13)
(1760 -1.82412e-09 1.83421e-13)
(1760 -1.84683e-09 1.84679e-13)
(1760 -1.87335e-09 1.85267e-13)
(1760 -1.8953e-09 1.86251e-13)
(1760 -1.92448e-09 1.84434e-13)
(1760 -1.94412e-09 1.81391e-13)
(1760 -1.38305e-09 1.99745e-13)
(1760 -1.39299e-09 2.01057e-13)
(1760 -1.40382e-09 1.99762e-13)
(1760 -1.41637e-09 1.99082e-13)
(1760 -1.4288e-09 1.97367e-13)
(1760 -1.44148e-09 1.9396e-13)
(1760 -1.45419e-09 1.96592e-13)
(1760 -1.46599e-09 1.95727e-13)
(1760 -1.47786e-09 1.96844e-13)
(1760 -1.49144e-09 1.96131e-13)
(1760 -1.50498e-09 1.94102e-13)
(1760 -1.51804e-09 1.96358e-13)
(1760 -1.53302e-09 1.91814e-13)
(1760 -1.54784e-09 1.90223e-13)
(1760 -1.56235e-09 1.94306e-13)
(1760 -1.57615e-09 1.94313e-13)
(1760 -1.59228e-09 1.93325e-13)
(1760 -1.60775e-09 1.93723e-13)
(1760 -1.62335e-09 1.90639e-13)
(1760 -1.63888e-09 1.92309e-13)
(1760 -1.65545e-09 1.93128e-13)
(1760 -1.67143e-09 1.91672e-13)
(1760 -1.68845e-09 1.91464e-13)
(1760 -1.70617e-09 1.91954e-13)
(1760 -1.72536e-09 1.91126e-13)
(1760 -1.74442e-09 1.90447e-13)
(1760 -1.76141e-09 1.92445e-13)
(1760 -1.77889e-09 1.94981e-13)
(1760 -1.79756e-09 1.8961e-13)
(1760 -1.8176e-09 1.93025e-13)
(1760 -1.83662e-09 1.93004e-13)
(1760 -1.85592e-09 1.99361e-13)
(1760 -1.87477e-09 1.93725e-13)
(1760 -1.893e-09 1.91153e-13)
(1760 -1.91177e-09 1.95406e-13)
(1760 -1.93203e-09 1.99758e-13)
(1760 -1.95635e-09 1.9952e-13)
(1760 -1.97851e-09 1.96694e-13)
(1760 -2.009e-09 1.95484e-13)
(1760 -2.02947e-09 1.99063e-13)
(1760 -1.45838e-09 2.13166e-13)
(1760 -1.46823e-09 2.12036e-13)
(1760 -1.47941e-09 2.12783e-13)
(1760 -1.49124e-09 2.08883e-13)
(1760 -1.50402e-09 2.07731e-13)
(1760 -1.51653e-09 2.1305e-13)
(1760 -1.53003e-09 2.14859e-13)
(1760 -1.54147e-09 2.09086e-13)
(1760 -1.55321e-09 2.09747e-13)
(1760 -1.5661e-09 2.11204e-13)
(1760 -1.57905e-09 2.09279e-13)
(1760 -1.59261e-09 2.10632e-13)
(1760 -1.60777e-09 2.04839e-13)
(1760 -1.62473e-09 2.04629e-13)
(1760 -1.6399e-09 2.10214e-13)
(1760 -1.65354e-09 2.05186e-13)
(1760 -1.66863e-09 2.04708e-13)
(1760 -1.68513e-09 2.09829e-13)
(1760 -1.70127e-09 2.07631e-13)
(1760 -1.71738e-09 2.04269e-13)
(1760 -1.73386e-09 2.04351e-13)
(1760 -1.75042e-09 1.99866e-13)
(1760 -1.76802e-09 2.06059e-13)
(1760 -1.78585e-09 2.08296e-13)
(1760 -1.80399e-09 2.10576e-13)
(1760 -1.8237e-09 2.09026e-13)
(1760 -1.84213e-09 2.04776e-13)
(1760 -1.86106e-09 2.04431e-13)
(1760 -1.87941e-09 2.02409e-13)
(1760 -1.89958e-09 2.05536e-13)
(1760 -1.91933e-09 2.04321e-13)
(1760 -1.94033e-09 2.02789e-13)
(1760 -1.96187e-09 2.05787e-13)
(1760 -1.98129e-09 2.07406e-13)
(1760 -1.99953e-09 2.02607e-13)
(1760 -2.01753e-09 2.05328e-13)
(1760 -2.03984e-09 2.06839e-13)
(1760 -2.05879e-09 2.04188e-13)
(1760 -2.08789e-09 2.05548e-13)
(1760 -2.10586e-09 2.08226e-13)
(1760 -1.53118e-09 2.30931e-13)
(1760 -1.5416e-09 2.28901e-13)
(1760 -1.55273e-09 2.25671e-13)
(1760 -1.56513e-09 2.2243e-13)
(1760 -1.57823e-09 2.24005e-13)
(1760 -1.59066e-09 2.21297e-13)
(1760 -1.60288e-09 2.23153e-13)
(1760 -1.61479e-09 2.22778e-13)
(1760 -1.6282e-09 2.25944e-13)
(1760 -1.64069e-09 2.21893e-13)
(1760 -1.65399e-09 2.1806e-13)
(1760 -1.66717e-09 2.20566e-13)
(1760 -1.68109e-09 2.1822e-13)
(1760 -1.69735e-09 2.21488e-13)
(1760 -1.71362e-09 2.21547e-13)
(1760 -1.72891e-09 2.23749e-13)
(1760 -1.74377e-09 2.2511e-13)
(1760 -1.75957e-09 2.2139e-13)
(1760 -1.77621e-09 2.21993e-13)
(1760 -1.79252e-09 2.2461e-13)
(1760 -1.80909e-09 2.17949e-13)
(1760 -1.8256e-09 2.16552e-13)
(1760 -1.84285e-09 2.18894e-13)
(1760 -1.8608e-09 2.15856e-13)
(1760 -1.87916e-09 2.18499e-13)
(1760 -1.89806e-09 2.16811e-13)
(1760 -1.91803e-09 2.16837e-13)
(1760 -1.93881e-09 2.1723e-13)
(1760 -1.9589e-09 2.12556e-13)
(1760 -1.97909e-09 2.15739e-13)
(1760 -1.99978e-09 2.18423e-13)
(1760 -2.01984e-09 2.2051e-13)
(1760 -2.04042e-09 2.22863e-13)
(1760 -2.06183e-09 2.1559e-13)
(1760 -2.08255e-09 2.15234e-13)
(1760 -2.09955e-09 2.18884e-13)
(1760 -2.1199e-09 2.20586e-13)
(1760 -2.13319e-09 2.19533e-13)
(1760 -2.15182e-09 2.20011e-13)
(1760 -2.16119e-09 2.22623e-13)
(1760 -1.59158e-09 2.43383e-13)
(1760 -1.60415e-09 2.45414e-13)
(1760 -1.61502e-09 2.4071e-13)
(1760 -1.62627e-09 2.39223e-13)
(1760 -1.63733e-09 2.42021e-13)
(1760 -1.64957e-09 2.35566e-13)
(1760 -1.66253e-09 2.3899e-13)
(1760 -1.67527e-09 2.35994e-13)
(1760 -1.6869e-09 2.32072e-13)
(1760 -1.6999e-09 2.35692e-13)
(1760 -1.71395e-09 2.33865e-13)
(1760 -1.72843e-09 2.29676e-13)
(1760 -1.74234e-09 2.29842e-13)
(1760 -1.75642e-09 2.32971e-13)
(1760 -1.77161e-09 2.33448e-13)
(1760 -1.78655e-09 2.31511e-13)
(1760 -1.80127e-09 2.36253e-13)
(1760 -1.81696e-09 2.32703e-13)
(1760 -1.83254e-09 2.2942e-13)
(1760 -1.84901e-09 2.30284e-13)
(1760 -1.86602e-09 2.3162e-13)
(1760 -1.88355e-09 2.28576e-13)
(1760 -1.90075e-09 2.30759e-13)
(1760 -1.91855e-09 2.28976e-13)
(1760 -1.93564e-09 2.25427e-13)
(1760 -1.95399e-09 2.33071e-13)
(1760 -1.97196e-09 2.32031e-13)
(1760 -1.99213e-09 2.28108e-13)
(1760 -2.01283e-09 2.2802e-13)
(1760 -2.03417e-09 2.31585e-13)
(1760 -2.05379e-09 2.34201e-13)
(1760 -2.07463e-09 2.2475e-13)
(1760 -2.09515e-09 2.29547e-13)
(1760 -2.1142e-09 2.35404e-13)
(1760 -2.13381e-09 2.28979e-13)
(1760 -2.14776e-09 2.30463e-13)
(1760 -2.16129e-09 2.33468e-13)
(1760 -2.17004e-09 2.34236e-13)
(1760 -2.17448e-09 2.31108e-13)
(1760 -2.17635e-09 2.33163e-13)
(1760 -2.13317e-09 2.31004e-13)
(1760 -1.66361e-09 2.59531e-13)
(1760 -1.67471e-09 2.60657e-13)
(1760 -1.68553e-09 2.5181e-13)
(1760 -1.69692e-09 2.52882e-13)
(1760 -1.70854e-09 2.54583e-13)
(1760 -1.72093e-09 2.49349e-13)
(1760 -1.73431e-09 2.48359e-13)
(1760 -1.74764e-09 2.46997e-13)
(1760 -1.76084e-09 2.48366e-13)
(1760 -1.7738e-09 2.50064e-13)
(1760 -1.78681e-09 2.44459e-13)
(1760 -1.80121e-09 2.43493e-13)
(1760 -1.81519e-09 2.46647e-13)
(1760 -1.8301e-09 2.46754e-13)
(1760 -1.84583e-09 2.43971e-13)
(1760 -1.86077e-09 2.44515e-13)
(1760 -1.8747e-09 2.4724e-13)
(1760 -1.8896e-09 2.45315e-13)
(1760 -1.90385e-09 2.43706e-13)
(1760 -1.91998e-09 2.43583e-13)
(1760 -1.937e-09 2.42455e-13)
(1760 -1.95528e-09 2.46815e-13)
(1760 -1.97361e-09 2.4266e-13)
(1760 -1.99256e-09 2.33912e-13)
(1760 -2.01107e-09 2.41327e-13)
(1760 -2.02905e-09 2.46515e-13)
(1760 -2.04691e-09 2.39247e-13)
(1760 -2.06549e-09 2.39367e-13)
(1760 -2.08549e-09 2.39439e-13)
(1760 -2.10601e-09 2.41874e-13)
(1760 -2.12533e-09 2.40114e-13)
(1760 -2.1415e-09 2.40598e-13)
(1760 -2.15738e-09 2.462e-13)
(1760 -2.17024e-09 2.44957e-13)
(1760 -2.17757e-09 2.48224e-13)
(1760 -2.18491e-09 2.46796e-13)
(1760 -2.16988e-09 2.41443e-13)
(1760 -2.17015e-09 2.44501e-13)
(1760 -2.07317e-09 2.49338e-13)
(1760 -1.86594e-09 2.45437e-13)
(1760 -1.41251e-09 2.45715e-13)
(1760 -1.72103e-09 2.75485e-13)
(1760 -1.73332e-09 2.76429e-13)
(1760 -1.74522e-09 2.65365e-13)
(1760 -1.75615e-09 2.64949e-13)
(1760 -1.7671e-09 2.7003e-13)
(1760 -1.77843e-09 2.65016e-13)
(1760 -1.79086e-09 2.63251e-13)
(1760 -1.80455e-09 2.66785e-13)
(1760 -1.81839e-09 2.61952e-13)
(1760 -1.83086e-09 2.63312e-13)
(1760 -1.84484e-09 2.6633e-13)
(1760 -1.85806e-09 2.57132e-13)
(1760 -1.87214e-09 2.5757e-13)
(1760 -1.88688e-09 2.58152e-13)
(1760 -1.90109e-09 2.58067e-13)
(1760 -1.91693e-09 2.60059e-13)
(1760 -1.93328e-09 2.6418e-13)
(1760 -1.94878e-09 2.58492e-13)
(1760 -1.96326e-09 2.52949e-13)
(1760 -1.9779e-09 2.5243e-13)
(1760 -1.993e-09 2.54165e-13)
(1760 -2.0091e-09 2.55259e-13)
(1760 -2.02608e-09 2.55194e-13)
(1760 -2.04486e-09 2.5403e-13)
(1760 -2.06391e-09 2.5625e-13)
(1760 -2.08322e-09 2.58031e-13)
(1760 -2.10236e-09 2.56497e-13)
(1760 -2.11963e-09 2.54832e-13)
(1760 -2.13659e-09 2.54656e-13)
(1760 -2.14916e-09 2.52372e-13)
(1760 -2.16356e-09 2.55357e-13)
(1760 -2.17355e-09 2.61822e-13)
(1760 -2.18073e-09 2.56197e-13)
(1760 -2.18177e-09 2.50014e-13)
(1760 -2.17083e-09 2.50945e-13)
(1760 -2.14688e-09 2.52623e-13)
(1760 -2.03914e-09 2.53457e-13)
(1760 -1.81021e-09 2.54444e-13)
(1760 -1.34009e-09 2.59753e-13)
(1760 -5.36167e-10 2.60009e-13)
(1760 8.37459e-10 2.56946e-13)
(1760 2.85191e-09 2.57723e-13)
(1760 -1.77758e-09 2.88152e-13)
(1760 -1.78817e-09 2.84363e-13)
(1760 -1.80024e-09 2.81744e-13)
(1760 -1.81315e-09 2.82072e-13)
(1760 -1.82596e-09 2.84853e-13)
(1760 -1.83784e-09 2.82192e-13)
(1760 -1.8493e-09 2.79136e-13)
(1760 -1.86092e-09 2.8077e-13)
(1760 -1.87382e-09 2.80004e-13)
(1760 -1.88827e-09 2.77926e-13)
(1760 -1.90228e-09 2.7886e-13)
(1760 -1.91609e-09 2.74689e-13)
(1760 -1.93015e-09 2.69991e-13)
(1760 -1.94342e-09 2.72294e-13)
(1760 -1.95868e-09 2.72519e-13)
(1760 -1.97411e-09 2.70608e-13)
(1760 -1.98992e-09 2.72191e-13)
(1760 -2.00518e-09 2.6853e-13)
(1760 -2.0211e-09 2.64946e-13)
(1760 -2.03612e-09 2.63711e-13)
(1760 -2.05059e-09 2.67047e-13)
(1760 -2.0645e-09 2.70442e-13)
(1760 -2.0792e-09 2.67464e-13)
(1760 -2.09504e-09 2.63807e-13)
(1760 -2.1109e-09 2.68482e-13)
(1760 -2.12876e-09 2.68267e-13)
(1760 -2.14256e-09 2.65151e-13)
(1760 -2.15795e-09 2.63526e-13)
(1760 -2.17082e-09 2.64401e-13)
(1760 -2.17868e-09 2.62613e-13)
(1760 -2.18661e-09 2.62642e-13)
(1760 -2.17329e-09 2.67453e-13)
(1760 -2.17504e-09 2.66344e-13)
(1760 -2.11474e-09 2.62479e-13)
(1760 -1.97922e-09 2.64528e-13)
(1760 -1.70148e-09 2.64837e-13)
(1760 -1.15881e-09 2.65912e-13)
(1760 -2.25404e-10 2.69966e-13)
(1760 1.17439e-09 2.69451e-13)
(1760 3.10949e-09 2.70597e-13)
(1760 5.79187e-09 2.70146e-13)
(1760 1.04428e-08 2.68113e-13)
(1760 1.85263e-08 2.69095e-13)
(1760 -1.84291e-09 2.97405e-13)
(1760 -1.85494e-09 2.98658e-13)
(1760 -1.8662e-09 2.99045e-13)
(1760 -1.8782e-09 2.96799e-13)
(1760 -1.8918e-09 2.94189e-13)
(1760 -1.90541e-09 2.92157e-13)
(1760 -1.91835e-09 2.93e-13)
(1760 -1.93057e-09 2.93234e-13)
(1760 -1.94347e-09 2.9046e-13)
(1760 -1.95684e-09 2.89257e-13)
(1760 -1.97064e-09 2.88087e-13)
(1760 -1.98526e-09 2.84654e-13)
(1760 -2.00011e-09 2.86208e-13)
(1760 -2.0138e-09 2.85231e-13)
(1760 -2.02881e-09 2.83713e-13)
(1760 -2.04452e-09 2.84867e-13)
(1760 -2.06074e-09 2.80356e-13)
(1760 -2.07655e-09 2.81199e-13)
(1760 -2.0922e-09 2.81411e-13)
(1760 -2.10777e-09 2.78456e-13)
(1760 -2.1219e-09 2.82854e-13)
(1760 -2.13551e-09 2.83485e-13)
(1760 -2.14693e-09 2.77535e-13)
(1760 -2.15604e-09 2.75198e-13)
(1760 -2.1672e-09 2.79694e-13)
(1760 -2.17506e-09 2.81538e-13)
(1760 -2.18186e-09 2.78007e-13)
(1760 -2.17727e-09 2.73261e-13)
(1760 -2.17037e-09 2.72611e-13)
(1760 -2.14685e-09 2.77232e-13)
(1760 -2.0761e-09 2.79721e-13)
(1760 -1.89911e-09 2.79207e-13)
(1760 -1.53939e-09 2.77529e-13)
(1760 -9.01e-10 2.77279e-13)
(1760 1.90751e-10 2.82131e-13)
(1760 1.67092e-09 2.81187e-13)
(1760 3.7174e-09 2.81491e-13)
(1760 6.66841e-09 2.8222e-13)
(1760 1.15166e-08 2.79426e-13)
(1760 1.93732e-08 2.77572e-13)
(1760 3.16661e-08 2.79919e-13)
(1760 5.22737e-08 2.81255e-13)
(1760 8.70033e-08 2.82176e-13)
(1760 -1.89465e-09 3.1516e-13)
(1760 -1.90653e-09 3.15015e-13)
(1760 -1.91838e-09 3.12384e-13)
(1760 -1.93028e-09 3.11587e-13)
(1760 -1.9428e-09 3.09493e-13)
(1760 -1.95675e-09 3.08018e-13)