/*--------------------------------*- C++ -*----------------------------------*\
| =========                 |                                                 |
| \\      /  F ield         | OpenFOAM: The Open Source CFD Toolbox           |
|  \\    /   O peration     | Version:  v1706                                 |
|   \\  /    A nd           | Web:      www.OpenFOAM.com                      |
|    \\/     M anipulation  |                                                 |
\*---------------------------------------------------------------------------*/
FoamFile
{
    version     2.0;
    format      ascii;
    class       volScalarField;
    location    "3.5e-05";
    object      wallHeatFlux;
}
// * * * * * * * * * * * * * * * * * * * * * * * * * * * * * * * * * * * * * //

dimensions      [1 0 -3 0 0 0 0];


internalField   uniform 0;

boundaryField
{
    cone
    {
        type            calculated;
        value           nonuniform List<scalar> 
153
(
118417
117244
116078
114917
113761
112610
111464
110323
109186
108055
106929
105809
104693
103583
102479
101380
100287
99200.6
98119.8
97045.1
95976.8
94915
93859.6
92811.1
91769.3
90734.7
89707.2
88687.2
87674.9
86670.4
85674.2
84686.5
83707.7
82738.3
81778.8
80829.7
79892
78966.2
78053.4
77154.9
76271.6
75405
74556.7
73728.2
72920.1
72130.9
71359.5
70572.8
69822.8
69170.9
68564.8
67998.6
67464.3
66956.6
66471.4
66005.5
65556.4
65122.2
64701.2
64292
63893.4
63504.5
63124.3
62751.9
62386.8
62028.2
61675.6
61328.4
60986.1
60648.3
60314.4
59984.2
59657.1
59333.2
59012
58693.3
58376.7
58062.1
57749
57437
57126.3
56816.5
56507.4
56198.8
55890.7
55582.7
55274.8
54966.8
54658.6
54350
54041
53731.4
53421.1
53110
52798.1
52485.2
52171.4
51856.4
51540.3
51223.1
50904.6
50584.8
50263.7
49941.3
49617.5
49292.4
48965.9
48638
48308.8
47978.1
47646.1
47312.8
46978.1
46642.1
46304.9
45966.4
45626.6
45285.7
44943.7
44600.6
44256.4
43911.2
43565.1
43218.1
42870.2
42521.5
42172.2
41822.1
41471.4
41120.1
40768.4
40416.2
40063.5
39710.6
39357.4
39003.9
38650.3
38296.6
37942.8
37589
37235.2
36881.5
36528
36174.7
35821.6
35468.8
35116.3
34764.3
34412.8
34061.8
33711.6
33362.3
33013.3
)
;
    }
    inlet
    {
        type            calculated;
        value           uniform 0;
    }
    rWedge
    {
        type            wedge;
    }
    lWedge
    {
        type            wedge;
    }
    outlet
    {
        type            calculated;
        value           nonuniform 0();
    }
    procBoundary2to0
    {
        type            processor;
        value           uniform 0;
    }
    procBoundary2to1
    {
        type            processor;
        value           uniform 0;
    }
    procBoundary2to3
    {
        type            processor;
        value           uniform 0;
    }
}


// ************************************************************************* //
