/*--------------------------------*- C++ -*----------------------------------*\
| =========                 |                                                 |
| \\      /  F ield         | OpenFOAM: The Open Source CFD Toolbox           |
|  \\    /   O peration     | Version:  v1706                                 |
|   \\  /    A nd           | Web:      www.OpenFOAM.com                      |
|    \\/     M anipulation  |                                                 |
\*---------------------------------------------------------------------------*/
FoamFile
{
    version     2.0;
    format      ascii;
    class       volVectorField;
    location    "3.1e-05";
    object      U;
}
// * * * * * * * * * * * * * * * * * * * * * * * * * * * * * * * * * * * * * //

dimensions      [0 1 -1 0 0 0 0];


internalField   nonuniform List<vector> 
29987
(
(978.58 -2.17577e-08 3.79807e-11)
(978.58 -8.57154e-09 1.4284e-11)
(978.58 -3.87795e-09 6.46173e-12)
(978.58 -2.16649e-09 3.65052e-12)
(978.58 -1.4159e-09 2.39259e-12)
(978.58 -1.01791e-09 1.72259e-12)
(978.58 -7.75734e-10 1.30816e-12)
(978.58 -6.15176e-10 1.02027e-12)
(978.58 -5.01378e-10 8.2587e-13)
(978.58 -4.17292e-10 6.91159e-13)
(978.58 -3.54403e-10 5.2132e-13)
(978.58 -3.06535e-10 4.58464e-13)
(978.58 -2.68705e-10 4.11968e-13)
(978.58 -2.38526e-10 3.51392e-13)
(978.58 -2.13507e-10 3.02936e-13)
(978.58 -1.9306e-10 2.64716e-13)
(978.58 -1.76207e-10 2.22931e-13)
(978.58 -1.62225e-10 1.98003e-13)
(978.58 -1.49693e-10 1.85697e-13)
(978.58 -1.38974e-10 1.71707e-13)
(978.58 -1.30078e-10 1.61658e-13)
(978.58 -1.22717e-10 1.38353e-13)
(978.58 -1.1636e-10 1.30651e-13)
(978.58 -1.09716e-10 1.13827e-13)
(978.58 -1.04569e-10 1.17237e-13)
(978.58 -9.94427e-11 1.10868e-13)
(978.58 -9.50693e-11 9.12936e-14)
(978.58 -9.23454e-11 8.28031e-14)
(978.58 -8.87277e-11 8.97594e-14)
(978.58 -8.54311e-11 8.22271e-14)
(978.58 -8.24571e-11 8.10781e-14)
(978.58 -8.06536e-11 7.36853e-14)
(978.58 -7.78719e-11 6.42647e-14)
(978.58 -7.60313e-11 5.95273e-14)
(978.58 -7.4337e-11 5.97962e-14)
(978.58 -7.24881e-11 5.6794e-14)
(978.58 -7.04038e-11 5.39818e-14)
(978.58 -6.91138e-11 4.50956e-14)
(978.58 -6.7795e-11 4.21529e-14)
(978.58 -6.65247e-11 4.34042e-14)
(978.58 -6.5163e-11 3.54578e-14)
(978.58 -6.46235e-11 3.95177e-14)
(978.58 -6.34369e-11 4.47929e-14)
(978.58 -6.28098e-11 3.73876e-14)
(978.58 -6.18991e-11 3.35271e-14)
(978.58 -6.20693e-11 3.2917e-14)
(978.58 -6.05505e-11 4.17687e-14)
(978.58 -6.00307e-11 3.05438e-14)
(978.58 -5.9308e-11 2.98773e-14)
(978.58 -5.90298e-11 3.27113e-14)
(978.58 -5.85978e-11 3.21821e-14)
(978.58 -5.84068e-11 2.97222e-14)
(978.58 -5.78943e-11 2.74326e-14)
(978.58 -5.73751e-11 2.31123e-14)
(978.58 -5.72897e-11 2.41378e-14)
(978.58 -5.65359e-11 2.04058e-14)
(978.58 -5.63332e-11 1.7982e-14)
(978.58 -5.66274e-11 1.99792e-14)
(978.58 -5.6241e-11 2.27361e-14)
(978.58 -5.55341e-11 2.62941e-14)
(978.58 -5.57584e-11 2.3089e-14)
(978.58 -5.58781e-11 1.35615e-14)
(978.58 -5.50057e-11 1.9687e-14)
(978.58 -5.49368e-11 2.07481e-14)
(978.58 -5.44685e-11 1.68921e-14)
(978.58 -5.49939e-11 1.51502e-14)
(978.58 -5.46519e-11 1.57144e-14)
(978.58 -5.4932e-11 1.86136e-14)
(978.58 -5.549e-11 1.8642e-14)
(978.58 -5.48847e-11 1.62376e-14)
(978.58 -5.48527e-11 1.47811e-14)
(978.58 -5.52702e-11 1.57687e-14)
(978.58 -5.58041e-11 1.40895e-14)
(978.58 -5.55675e-11 1.4726e-14)
(978.58 -5.56319e-11 1.81312e-14)
(978.58 -5.56543e-11 1.69367e-14)
(978.58 -5.54148e-11 1.56867e-14)
(978.58 -5.60939e-11 1.59843e-14)
(978.58 -5.5867e-11 9.8961e-15)
(978.58 -5.62554e-11 6.85473e-15)
(978.58 -5.66713e-11 1.04439e-14)
(978.58 -5.68395e-11 1.06498e-14)
(978.58 -5.71118e-11 8.14963e-15)
(978.58 -5.68633e-11 1.11669e-14)
(978.58 -5.72295e-11 1.30082e-14)
(978.58 -5.72972e-11 1.17197e-14)
(978.58 -5.78529e-11 1.02931e-14)
(978.58 -5.77049e-11 1.07591e-14)
(978.58 -5.804e-11 1.11904e-14)
(978.58 -5.84837e-11 8.05127e-15)
(978.58 -5.87048e-11 7.32635e-15)
(978.58 -5.89076e-11 7.90399e-15)
(978.58 -5.97005e-11 1.1177e-14)
(978.58 -5.90719e-11 1.23267e-14)
(978.58 -5.90374e-11 1.28224e-14)
(978.58 -5.93729e-11 1.12935e-14)
(978.58 -5.98436e-11 8.17632e-15)
(978.58 -6.00794e-11 1.02338e-14)
(978.58 -6.03712e-11 9.60263e-15)
(978.58 -6.08457e-11 7.37525e-15)
(978.58 -6.12127e-11 7.18265e-15)
(978.58 -6.19583e-11 1.27317e-14)
(978.58 -6.20527e-11 1.1736e-14)
(978.58 -6.2354e-11 8.41273e-15)
(978.58 -6.27556e-11 8.42691e-15)
(978.58 -6.32493e-11 7.1431e-15)
(978.58 -6.39549e-11 5.8661e-15)
(978.58 -6.4417e-11 6.19224e-15)
(978.58 -6.51053e-11 8.5821e-15)
(978.58 -6.56022e-11 6.63736e-15)
(978.58 -6.63529e-11 7.21936e-15)
(978.58 -6.70284e-11 7.81458e-15)
(978.58 -6.74266e-11 9.44815e-15)
(978.58 -6.81321e-11 7.94846e-15)
(978.58 -6.87842e-11 9.6919e-15)
(978.58 -6.94485e-11 7.35539e-15)
(978.58 -6.99416e-11 9.06916e-15)
(978.58 -7.05941e-11 1.0657e-14)
(978.58 -7.12262e-11 9.46775e-15)
(978.58 -7.16541e-11 5.82998e-15)
(978.58 -7.23514e-11 6.94213e-15)
(978.58 -7.32068e-11 8.23632e-15)
(978.58 -7.36794e-11 7.52777e-15)
(978.58 -7.41633e-11 8.4981e-15)
(978.58 -7.48174e-11 8.55555e-15)
(978.58 -7.52175e-11 7.94048e-15)
(978.58 -7.61634e-11 9.6289e-15)
(978.58 -7.7093e-11 8.04697e-15)
(978.58 -7.81526e-11 8.73373e-15)
(978.58 -7.86047e-11 8.03622e-15)
(978.58 -8.05858e-11 1.10051e-14)
(978.58 -8.13299e-11 1.12517e-14)
(978.58 -8.21369e-11 5.20255e-15)
(978.58 -8.26504e-11 4.37602e-15)
(978.58 -8.38339e-11 6.35189e-15)
(978.58 -8.47956e-11 4.53187e-15)
(978.58 -8.55656e-11 8.81644e-15)
(978.58 -8.7101e-11 7.68233e-15)
(978.58 -8.79191e-11 6.43576e-15)
(978.58 -8.90851e-11 7.78509e-15)
(978.58 -9.00084e-11 1.61696e-15)
(978.58 -9.09634e-11 5.31038e-15)
(978.58 -9.19042e-11 7.90447e-15)
(978.58 -9.38983e-11 6.44796e-15)
(978.58 -9.58459e-11 7.62865e-15)
(978.58 -9.68148e-11 8.03395e-15)
(978.58 -9.82354e-11 7.97751e-15)
(978.58 -9.89642e-11 8.51115e-15)
(978.58 -1.00257e-10 6.9498e-15)
(978.58 -1.01919e-10 4.59104e-15)
(978.58 -1.04044e-10 4.15739e-15)
(978.58 -1.05424e-10 4.24174e-15)
(978.58 -1.06231e-10 5.46072e-15)
(978.58 -1.07921e-10 7.55138e-15)
(978.58 -1.09846e-10 5.98278e-15)
(978.58 -1.12442e-10 7.77374e-15)
(978.58 -5.20925e-08 8.68204e-11)
(978.58 -2.79338e-08 4.30671e-11)
(978.58 -1.5059e-08 2.16717e-11)
(978.58 -8.8004e-09 1.23417e-11)
(978.58 -5.6484e-09 7.85934e-12)
(978.58 -3.93292e-09 5.49173e-12)
(978.58 -2.91679e-09 4.08167e-12)
(978.58 -2.26944e-09 3.13037e-12)
(978.58 -1.82754e-09 2.51014e-12)
(978.58 -1.5097e-09 2.02887e-12)
(978.58 -1.27373e-09 1.65937e-12)
(978.58 -1.09271e-09 1.42391e-12)
(978.58 -9.51543e-10 1.20204e-12)
(978.58 -8.39893e-10 1.04634e-12)
(978.58 -7.49983e-10 9.05629e-13)
(978.58 -6.75949e-10 8.18335e-13)
(978.58 -6.12832e-10 7.07794e-13)
(978.58 -5.60636e-10 6.43649e-13)
(978.58 -5.16771e-10 5.85501e-13)
(978.58 -4.78031e-10 5.33712e-13)
(978.58 -4.44524e-10 4.78443e-13)
(978.58 -4.16426e-10 4.16058e-13)
(978.58 -3.93135e-10 3.93963e-13)
(978.58 -3.71569e-10 3.60305e-13)
(978.58 -3.5188e-10 3.49358e-13)
(978.58 -3.34147e-10 3.3173e-13)
(978.58 -3.18654e-10 3.0862e-13)
(978.58 -3.05914e-10 2.86186e-13)
(978.58 -2.94516e-10 2.65967e-13)
(978.58 -2.82686e-10 2.43182e-13)
(978.58 -2.72745e-10 2.15176e-13)
(978.58 -2.65144e-10 2.10935e-13)
(978.58 -2.56125e-10 1.81941e-13)
(978.58 -2.49571e-10 1.71902e-13)
(978.58 -2.43798e-10 1.7291e-13)
(978.58 -2.35921e-10 1.6698e-13)
(978.58 -2.31638e-10 1.54468e-13)
(978.58 -2.24919e-10 1.53639e-13)
(978.58 -2.18944e-10 1.45824e-13)
(978.58 -2.15313e-10 1.30507e-13)
(978.58 -2.101e-10 1.19842e-13)
(978.58 -2.05582e-10 1.22992e-13)
(978.58 -2.03406e-10 1.24814e-13)
(978.58 -1.9963e-10 1.09865e-13)
(978.58 -1.97454e-10 9.40318e-14)
(978.58 -1.97208e-10 1.04451e-13)
(978.58 -1.94343e-10 1.00431e-13)
(978.58 -1.90797e-10 9.28018e-14)
(978.58 -1.87716e-10 9.21127e-14)
(978.58 -1.86332e-10 9.86363e-14)
(978.58 -1.83739e-10 9.40653e-14)
(978.58 -1.82737e-10 8.20547e-14)
(978.58 -1.81757e-10 7.7378e-14)
(978.58 -1.80608e-10 6.62726e-14)
(978.58 -1.80395e-10 6.80207e-14)
(978.58 -1.77682e-10 6.53042e-14)
(978.58 -1.76119e-10 6.50623e-14)
(978.58 -1.76282e-10 6.39374e-14)
(978.58 -1.75491e-10 7.21888e-14)
(978.58 -1.72689e-10 6.89661e-14)
(978.58 -1.72694e-10 6.00681e-14)
(978.58 -1.7373e-10 5.56319e-14)
(978.58 -1.72467e-10 6.36452e-14)
(978.58 -1.72167e-10 5.50956e-14)
(978.58 -1.71042e-10 5.37671e-14)
(978.58 -1.6954e-10 5.32421e-14)
(978.58 -1.68114e-10 4.80531e-14)
(978.58 -1.68059e-10 5.17905e-14)
(978.58 -1.69855e-10 4.96209e-14)
(978.58 -1.69482e-10 4.66612e-14)
(978.58 -1.68277e-10 4.97376e-14)
(978.58 -1.68852e-10 5.01492e-14)
(978.58 -1.69457e-10 4.47138e-14)
(978.58 -1.69534e-10 4.54939e-14)
(978.58 -1.69197e-10 4.88207e-14)
(978.58 -1.69676e-10 5.03679e-14)
(978.58 -1.71212e-10 4.50749e-14)
(978.58 -1.70175e-10 4.14455e-14)
(978.58 -1.69267e-10 3.4013e-14)
(978.58 -1.69781e-10 3.4299e-14)
(978.58 -1.70167e-10 3.68874e-14)
(978.58 -1.71617e-10 3.43406e-14)
(978.58 -1.73048e-10 3.20494e-14)
(978.58 -1.72847e-10 3.66072e-14)
(978.58 -1.73969e-10 3.90918e-14)
(978.58 -1.73335e-10 3.71619e-14)
(978.58 -1.74264e-10 3.33918e-14)
(978.58 -1.74301e-10 3.56896e-14)
(978.58 -1.74638e-10 3.33774e-14)
(978.58 -1.75479e-10 3.09412e-14)
(978.58 -1.75347e-10 3.24317e-14)
(978.58 -1.76283e-10 2.9921e-14)
(978.58 -1.7822e-10 3.69539e-14)
(978.58 -1.80458e-10 3.73389e-14)
(978.58 -1.81255e-10 3.87383e-14)
(978.58 -1.80837e-10 3.01231e-14)
(978.58 -1.81364e-10 2.40566e-14)
(978.58 -1.82326e-10 2.55355e-14)
(978.58 -1.82986e-10 2.5419e-14)
(978.58 -1.84233e-10 2.56136e-14)
(978.58 -1.8465e-10 2.56576e-14)
(978.58 -1.86285e-10 2.7127e-14)
(978.58 -1.87514e-10 2.79008e-14)
(978.58 -1.8878e-10 2.16632e-14)
(978.58 -1.89812e-10 2.32886e-14)
(978.58 -1.9118e-10 2.22108e-14)
(978.58 -1.92624e-10 2.19621e-14)
(978.58 -1.93675e-10 2.06049e-14)
(978.58 -1.9555e-10 1.86286e-14)
(978.58 -1.96258e-10 2.07262e-14)
(978.58 -1.97758e-10 2.2441e-14)
(978.58 -1.9984e-10 2.23446e-14)
(978.58 -2.012e-10 2.28248e-14)
(978.58 -2.02813e-10 2.33474e-14)
(978.58 -2.04875e-10 2.55035e-14)
(978.58 -2.06672e-10 2.47999e-14)
(978.58 -2.08031e-10 2.59454e-14)
(978.58 -2.10013e-10 2.5506e-14)
(978.58 -2.12443e-10 2.14958e-14)
(978.58 -2.1377e-10 1.81006e-14)
(978.58 -2.15578e-10 2.02511e-14)
(978.58 -2.17679e-10 2.10322e-14)
(978.58 -2.20007e-10 2.16472e-14)
(978.58 -2.22267e-10 2.18833e-14)
(978.58 -2.24119e-10 2.30409e-14)
(978.58 -2.25855e-10 2.00083e-14)
(978.58 -2.27077e-10 2.00372e-14)
(978.58 -2.28796e-10 1.92722e-14)
(978.58 -2.31975e-10 1.99867e-14)
(978.58 -2.34098e-10 2.35038e-14)
(978.58 -2.36912e-10 2.31292e-14)
(978.58 -2.3945e-10 1.83948e-14)
(978.58 -2.41856e-10 1.89679e-14)
(978.58 -2.44316e-10 2.09322e-14)
(978.58 -2.47821e-10 2.06984e-14)
(978.58 -2.51124e-10 2.10715e-14)
(978.58 -2.53841e-10 2.15542e-14)
(978.58 -2.56713e-10 1.71702e-14)
(978.58 -2.58928e-10 2.12894e-14)
(978.58 -2.61644e-10 2.14804e-14)
(978.58 -2.64988e-10 1.73634e-14)
(978.58 -2.69206e-10 1.91773e-14)
(978.58 -2.726e-10 1.81909e-14)
(978.58 -2.7433e-10 1.86122e-14)
(978.58 -2.77199e-10 1.74337e-14)
(978.58 -2.81871e-10 2.06705e-14)
(978.58 -2.86114e-10 1.9479e-14)
(978.58 -2.90447e-10 2.06169e-14)
(978.58 -2.94632e-10 2.12936e-14)
(978.58 -2.97803e-10 1.76912e-14)
(978.58 -3.01666e-10 1.60108e-14)
(978.58 -3.0754e-10 1.3672e-14)
(978.58 -3.11463e-10 1.7656e-14)
(978.58 -3.13517e-10 1.7091e-14)
(978.58 -3.17871e-10 1.68962e-14)
(978.58 -3.21328e-10 1.92444e-14)
(978.58 -7.11563e-08 1.17486e-10)
(978.58 -4.52409e-08 6.77856e-11)
(978.58 -2.73598e-08 3.74178e-11)
(978.58 -1.69417e-08 2.17614e-11)
(978.58 -1.108e-08 1.37099e-11)
(978.58 -7.69526e-09 9.37739e-12)
(978.58 -5.6461e-09 6.92854e-12)
(978.58 -4.34011e-09 5.30768e-12)
(978.58 -3.46096e-09 4.22447e-12)
(978.58 -2.83833e-09 3.42025e-12)
(978.58 -2.38078e-09 2.8398e-12)
(978.58 -2.03391e-09 2.42218e-12)
(978.58 -1.76437e-09 2.06384e-12)
(978.58 -1.55173e-09 1.77848e-12)
(978.58 -1.38106e-09 1.57487e-12)
(978.58 -1.24082e-09 1.36739e-12)
(978.58 -1.12356e-09 1.19094e-12)
(978.58 -1.02442e-09 1.07573e-12)
(978.58 -9.40608e-10 9.54663e-13)
(978.58 -8.68327e-10 8.86983e-13)
(978.58 -8.07348e-10 7.92683e-13)
(978.58 -7.55282e-10 7.14647e-13)
(978.58 -7.08789e-10 6.73869e-13)
(978.58 -6.67613e-10 6.1675e-13)
(978.58 -6.31963e-10 5.89755e-13)
(978.58 -5.98504e-10 5.46036e-13)
(978.58 -5.70229e-10 5.12664e-13)
(978.58 -5.45459e-10 4.70419e-13)
(978.58 -5.233e-10 4.3134e-13)
(978.58 -5.01876e-10 4.03012e-13)
(978.58 -4.83084e-10 3.73531e-13)
(978.58 -4.67745e-10 3.57323e-13)
(978.58 -4.53964e-10 3.32138e-13)
(978.58 -4.41276e-10 3.23405e-13)
(978.58 -4.29128e-10 3.07131e-13)
(978.58 -4.16692e-10 2.75341e-13)
(978.58 -4.05275e-10 2.59818e-13)
(978.58 -3.94016e-10 2.52874e-13)
(978.58 -3.83983e-10 2.49127e-13)
(978.58 -3.75414e-10 2.28518e-13)
(978.58 -3.67142e-10 2.21617e-13)
(978.58 -3.5956e-10 2.13117e-13)
(978.58 -3.53365e-10 2.06811e-13)
(978.58 -3.47424e-10 1.90967e-13)
(978.58 -3.42512e-10 1.79854e-13)
(978.58 -3.39774e-10 1.76345e-13)
(978.58 -3.35716e-10 1.70916e-13)
(978.58 -3.29537e-10 1.69579e-13)
(978.58 -3.24225e-10 1.6897e-13)
(978.58 -3.21879e-10 1.69723e-13)
(978.58 -3.16601e-10 1.5323e-13)
(978.58 -3.13271e-10 1.44571e-13)
(978.58 -3.11246e-10 1.3441e-13)
(978.58 -3.08294e-10 1.29759e-13)
(978.58 -3.08293e-10 1.21772e-13)
(978.58 -3.05071e-10 1.2078e-13)
(978.58 -3.02447e-10 1.14382e-13)
(978.58 -3.00871e-10 1.13497e-13)
(978.58 -2.98904e-10 1.19655e-13)
(978.58 -2.96117e-10 1.1577e-13)
(978.58 -2.93882e-10 1.1004e-13)
(978.58 -2.94352e-10 1.09922e-13)
(978.58 -2.94189e-10 1.00079e-13)
(978.58 -2.93362e-10 8.83894e-14)
(978.58 -2.9177e-10 9.73905e-14)
(978.58 -2.89013e-10 9.18073e-14)
(978.58 -2.8681e-10 8.67114e-14)
(978.58 -2.85888e-10 8.91267e-14)
(978.58 -2.86415e-10 7.96111e-14)
(978.58 -2.8625e-10 7.62729e-14)
(978.58 -2.85267e-10 7.5605e-14)
(978.58 -2.85162e-10 7.63785e-14)
(978.58 -2.85748e-10 7.45157e-14)
(978.58 -2.85253e-10 7.69452e-14)
(978.58 -2.84345e-10 7.95086e-14)
(978.58 -2.86744e-10 7.47989e-14)
(978.58 -2.87966e-10 6.9134e-14)
(978.58 -2.86557e-10 6.93752e-14)
(978.58 -2.85331e-10 7.03053e-14)
(978.58 -2.84792e-10 6.89816e-14)
(978.58 -2.83862e-10 6.45986e-14)
(978.58 -2.8482e-10 6.17867e-14)
(978.58 -2.8734e-10 5.95405e-14)
(978.58 -2.8905e-10 5.87373e-14)
(978.58 -2.90752e-10 5.65639e-14)
(978.58 -2.90563e-10 5.59925e-14)
(978.58 -2.91741e-10 6.12398e-14)
(978.58 -2.92396e-10 6.16801e-14)
(978.58 -2.93449e-10 5.81404e-14)
(978.58 -2.93718e-10 5.59062e-14)
(978.58 -2.93626e-10 5.25496e-14)
(978.58 -2.95091e-10 5.46604e-14)
(978.58 -2.97023e-10 6.23213e-14)
(978.58 -2.99548e-10 6.59189e-14)
(978.58 -3.01282e-10 5.84349e-14)
(978.58 -3.02302e-10 4.65155e-14)
(978.58 -3.03871e-10 4.59467e-14)
(978.58 -3.04375e-10 4.85262e-14)
(978.58 -3.04658e-10 4.83751e-14)
(978.58 -3.0596e-10 4.73226e-14)
(978.58 -3.08178e-10 4.31356e-14)
(978.58 -3.1031e-10 4.67307e-14)
(978.58 -3.12452e-10 4.35866e-14)
(978.58 -3.13629e-10 4.37243e-14)
(978.58 -3.15238e-10 4.72769e-14)
(978.58 -3.16697e-10 4.40483e-14)
(978.58 -3.1876e-10 4.08108e-14)
(978.58 -3.2084e-10 3.90715e-14)
(978.58 -3.2348e-10 3.97599e-14)
(978.58 -3.25033e-10 3.94473e-14)
(978.58 -3.27536e-10 3.52432e-14)
(978.58 -3.29685e-10 3.54494e-14)
(978.58 -3.32072e-10 3.7505e-14)
(978.58 -3.34431e-10 3.9242e-14)
(978.58 -3.37752e-10 4.13211e-14)
(978.58 -3.41251e-10 4.57504e-14)
(978.58 -3.43675e-10 4.60122e-14)
(978.58 -3.4638e-10 4.32827e-14)
(978.58 -3.4983e-10 3.72812e-14)
(978.58 -3.52707e-10 3.67667e-14)
(978.58 -3.55686e-10 3.77252e-14)
(978.58 -3.588e-10 3.7474e-14)
(978.58 -3.61894e-10 3.58907e-14)
(978.58 -3.65376e-10 3.48413e-14)
(978.58 -3.68736e-10 3.6592e-14)
(978.58 -3.72113e-10 3.66643e-14)
(978.58 -3.74007e-10 3.5492e-14)
(978.58 -3.77267e-10 3.7399e-14)
(978.58 -3.79777e-10 4.06539e-14)
(978.58 -3.84275e-10 3.79609e-14)
(978.58 -3.8905e-10 3.39446e-14)
(978.58 -3.92127e-10 3.76587e-14)
(978.58 -3.96251e-10 3.90166e-14)
(978.58 -4.01003e-10 3.34798e-14)
(978.58 -4.05555e-10 3.68232e-14)
(978.58 -4.10915e-10 2.83564e-14)
(978.58 -4.15605e-10 3.02423e-14)
(978.58 -4.20353e-10 3.59127e-14)
(978.58 -4.24928e-10 3.95224e-14)
(978.58 -4.29559e-10 3.28941e-14)
(978.58 -4.34544e-10 2.77957e-14)
(978.58 -4.39764e-10 2.93416e-14)
(978.58 -4.44819e-10 3.17858e-14)
(978.58 -4.49238e-10 3.06792e-14)
(978.58 -4.53754e-10 3.28007e-14)
(978.58 -4.58625e-10 2.96256e-14)
(978.58 -4.66567e-10 3.1628e-14)
(978.58 -4.72852e-10 3.36369e-14)
(978.58 -4.78823e-10 3.46305e-14)
(978.58 -4.84648e-10 3.14767e-14)
(978.58 -4.91476e-10 3.02024e-14)
(978.58 -4.99646e-10 2.98204e-14)
(978.58 -5.069e-10 2.99601e-14)
(978.58 -5.12095e-10 2.83412e-14)
(978.58 -5.17993e-10 3.37219e-14)
(978.58 -5.22758e-10 3.23114e-14)
(978.58 -8.35651e-08 1.37699e-10)
(978.58 -5.95601e-08 8.79048e-11)
(978.58 -3.94986e-08 5.23607e-11)
(978.58 -2.59388e-08 3.15137e-11)
(978.58 -1.74894e-08 2.00591e-11)
(978.58 -1.22776e-08 1.36578e-11)
(978.58 -8.99812e-09 9.92703e-12)
(978.58 -6.87155e-09 7.58711e-12)
(978.58 -5.43658e-09 6.00856e-12)
(978.58 -4.42886e-09 4.89649e-12)
(978.58 -3.6933e-09 4.03045e-12)
(978.58 -3.14047e-09 3.4173e-12)
(978.58 -2.71463e-09 2.912e-12)
(978.58 -2.37806e-09 2.53197e-12)
(978.58 -2.10942e-09 2.24217e-12)
(978.58 -1.89142e-09 1.94189e-12)
(978.58 -1.7095e-09 1.70911e-12)
(978.58 -1.55398e-09 1.5238e-12)
(978.58 -1.42324e-09 1.36273e-12)
(978.58 -1.31144e-09 1.25342e-12)
(978.58 -1.21591e-09 1.12638e-12)
(978.58 -1.13509e-09 1.04899e-12)
(978.58 -1.06337e-09 9.57147e-13)
(978.58 -1.00073e-09 8.88536e-13)
(978.58 -9.44578e-10 8.12348e-13)
(978.58 -8.94179e-10 7.59553e-13)
(978.58 -8.50155e-10 7.04005e-13)
(978.58 -8.10798e-10 6.59772e-13)
(978.58 -7.75696e-10 6.29782e-13)
(978.58 -7.43833e-10 5.79457e-13)
(978.58 -7.15232e-10 5.44315e-13)
(978.58 -6.89714e-10 5.09068e-13)
(978.58 -6.6856e-10 4.8794e-13)
(978.58 -6.48746e-10 4.54585e-13)
(978.58 -6.30216e-10 4.26836e-13)
(978.58 -6.12397e-10 4.00797e-13)
(978.58 -5.94761e-10 3.79899e-13)
(978.58 -5.7732e-10 3.53663e-13)
(978.58 -5.61714e-10 3.41606e-13)
(978.58 -5.47986e-10 3.1999e-13)
(978.58 -5.35099e-10 3.12028e-13)
(978.58 -5.23233e-10 2.95375e-13)
(978.58 -5.12534e-10 2.85127e-13)
(978.58 -5.04279e-10 2.69987e-13)
(978.58 -4.97759e-10 2.71655e-13)
(978.58 -4.90679e-10 2.52536e-13)
(978.58 -4.85051e-10 2.44971e-13)
(978.58 -4.76533e-10 2.37002e-13)
(978.58 -4.69481e-10 2.32463e-13)
(978.58 -4.65191e-10 2.16814e-13)
(978.58 -4.57621e-10 2.07097e-13)
(978.58 -4.5131e-10 2.03967e-13)
(978.58 -4.46958e-10 1.91855e-13)
(978.58 -4.43146e-10 1.83379e-13)
(978.58 -4.40795e-10 1.75306e-13)
(978.58 -4.37755e-10 1.75935e-13)
(978.58 -4.33895e-10 1.6768e-13)
(978.58 -4.3049e-10 1.64688e-13)
(978.58 -4.27352e-10 1.68139e-13)
(978.58 -4.23918e-10 1.6131e-13)
(978.58 -4.21038e-10 1.50852e-13)
(978.58 -4.18987e-10 1.39893e-13)
(978.58 -4.17995e-10 1.35095e-13)
(978.58 -4.16998e-10 1.41891e-13)
(978.58 -4.15493e-10 1.45307e-13)
(978.58 -4.12421e-10 1.35602e-13)
(978.58 -4.08814e-10 1.29894e-13)
(978.58 -4.0736e-10 1.25467e-13)
(978.58 -4.07532e-10 1.15723e-13)
(978.58 -4.05835e-10 1.13972e-13)
(978.58 -4.04528e-10 1.14948e-13)
(978.58 -4.04405e-10 1.15582e-13)
(978.58 -4.04709e-10 1.12117e-13)
(978.58 -4.05132e-10 1.11721e-13)
(978.58 -4.04049e-10 1.07596e-13)
(978.58 -4.0467e-10 1.0426e-13)
(978.58 -4.06356e-10 1.07357e-13)
(978.58 -4.06622e-10 1.06634e-13)
(978.58 -4.05083e-10 9.83104e-14)
(978.58 -4.03897e-10 9.26163e-14)
(978.58 -4.04135e-10 9.09447e-14)
(978.58 -4.03992e-10 9.60408e-14)
(978.58 -4.05052e-10 9.20543e-14)
(978.58 -4.06424e-10 9.13753e-14)
(978.58 -4.07414e-10 8.82627e-14)
(978.58 -4.07145e-10 8.71268e-14)
(978.58 -4.0955e-10 8.36053e-14)
(978.58 -4.09865e-10 7.94834e-14)
(978.58 -4.1214e-10 7.98013e-14)
(978.58 -4.11932e-10 8.23615e-14)
(978.58 -4.12952e-10 8.07638e-14)
(978.58 -4.13717e-10 8.1649e-14)
(978.58 -4.16436e-10 8.49969e-14)
(978.58 -4.1835e-10 8.41794e-14)
(978.58 -4.20681e-10 7.28415e-14)
(978.58 -4.22762e-10 7.32247e-14)
(978.58 -4.25576e-10 7.38312e-14)
(978.58 -4.27332e-10 6.88948e-14)
(978.58 -4.28827e-10 6.77683e-14)
(978.58 -4.29886e-10 6.43548e-14)
(978.58 -4.30716e-10 6.12741e-14)
(978.58 -4.3189e-10 6.17715e-14)
(978.58 -4.35198e-10 6.31483e-14)
(978.58 -4.38634e-10 6.53126e-14)
(978.58 -4.41251e-10 6.40014e-14)
(978.58 -4.43183e-10 6.24499e-14)
(978.58 -4.45422e-10 6.02803e-14)
(978.58 -4.48608e-10 5.93574e-14)
(978.58 -4.51247e-10 5.55419e-14)
(978.58 -4.5291e-10 5.17949e-14)
(978.58 -4.55718e-10 5.36239e-14)
(978.58 -4.58926e-10 5.47625e-14)
(978.58 -4.61381e-10 5.88068e-14)
(978.58 -4.64876e-10 5.80629e-14)
(978.58 -4.68685e-10 5.97227e-14)
(978.58 -4.7355e-10 5.82353e-14)
(978.58 -4.77418e-10 5.61264e-14)
(978.58 -4.8114e-10 5.16145e-14)
(978.58 -4.85249e-10 5.05895e-14)
(978.58 -4.89163e-10 5.34578e-14)
(978.58 -4.93105e-10 5.32045e-14)
(978.58 -4.9754e-10 4.99137e-14)
(978.58 -5.01862e-10 4.83571e-14)
(978.58 -5.07401e-10 5.21794e-14)
(978.58 -5.11227e-10 5.29278e-14)
(978.58 -5.14959e-10 5.25126e-14)
(978.58 -5.1895e-10 5.57438e-14)
(978.58 -5.24298e-10 5.46902e-14)
(978.58 -5.26926e-10 5.02888e-14)
(978.58 -5.32233e-10 4.88778e-14)
(978.58 -5.37552e-10 4.87432e-14)
(978.58 -5.42079e-10 5.13668e-14)
(978.58 -5.47001e-10 4.85446e-14)
(978.58 -5.52865e-10 4.80032e-14)
(978.58 -5.59403e-10 4.99223e-14)
(978.58 -5.66007e-10 4.83311e-14)
(978.58 -5.72154e-10 5.45452e-14)
(978.58 -5.78265e-10 5.2055e-14)
(978.58 -5.84168e-10 5.05346e-14)
(978.58 -5.90515e-10 4.56132e-14)
(978.58 -5.97484e-10 4.58051e-14)
(978.58 -6.04686e-10 4.60058e-14)
(978.58 -6.11547e-10 4.46538e-14)
(978.58 -6.17915e-10 4.66249e-14)
(978.58 -6.24302e-10 4.83676e-14)
(978.58 -6.30021e-10 4.89392e-14)
(978.58 -6.38674e-10 4.7743e-14)
(978.58 -6.47039e-10 4.58611e-14)
(978.58 -6.56657e-10 4.31035e-14)
(978.58 -6.64612e-10 4.31238e-14)
(978.58 -6.7285e-10 4.30157e-14)
(978.58 -6.82753e-10 4.58702e-14)
(978.58 -6.92917e-10 4.37289e-14)
(978.58 -7.02002e-10 4.07897e-14)
(978.58 -7.09901e-10 4.38055e-14)
(978.58 -7.17309e-10 4.41631e-14)
(978.58 -9.21839e-08 1.51894e-10)
(978.58 -7.10972e-08 1.04314e-10)
(978.58 -5.07585e-08 6.59923e-11)
(978.58 -3.5204e-08 4.13e-11)
(978.58 -2.45702e-08 2.67888e-11)
(978.58 -1.75656e-08 1.83059e-11)
(978.58 -1.29562e-08 1.32124e-11)
(978.58 -9.88024e-09 1.00186e-11)
(978.58 -7.7787e-09 7.90146e-12)
(978.58 -6.3017e-09 6.41987e-12)
(978.58 -5.22797e-09 5.31629e-12)
(978.58 -4.42401e-09 4.45377e-12)
(978.58 -3.80852e-09 3.77953e-12)
(978.58 -3.32593e-09 3.28302e-12)
(978.58 -2.94083e-09 2.86631e-12)
(978.58 -2.62931e-09 2.5175e-12)
(978.58 -2.37096e-09 2.2297e-12)
(978.58 -2.15163e-09 2.00493e-12)
(978.58 -1.96619e-09 1.81855e-12)
(978.58 -1.808e-09 1.62655e-12)
(978.58 -1.67298e-09 1.48428e-12)
(978.58 -1.55851e-09 1.36409e-12)
(978.58 -1.45739e-09 1.23845e-12)
(978.58 -1.3684e-09 1.14177e-12)
(978.58 -1.28969e-09 1.05189e-12)
(978.58 -1.22005e-09 1.00106e-12)
(978.58 -1.15799e-09 9.258e-13)
(978.58 -1.10261e-09 8.77799e-13)
(978.58 -1.05212e-09 8.2292e-13)
(978.58 -1.00744e-09 7.59886e-13)
(978.58 -9.68052e-10 7.07933e-13)
(978.58 -9.32609e-10 6.64843e-13)
(978.58 -9.01794e-10 6.14831e-13)
(978.58 -8.73207e-10 5.79014e-13)
(978.58 -8.46886e-10 5.49839e-13)
(978.58 -8.22563e-10 5.18122e-13)
(978.58 -7.9904e-10 4.93207e-13)
(978.58 -7.74375e-10 4.68531e-13)
(978.58 -7.53391e-10 4.35946e-13)
(978.58 -7.34815e-10 4.23019e-13)
(978.58 -7.15379e-10 4.11863e-13)
(978.58 -6.97519e-10 3.94607e-13)
(978.58 -6.83023e-10 3.76164e-13)
(978.58 -6.71383e-10 3.65565e-13)
(978.58 -6.60596e-10 3.48841e-13)
(978.58 -6.50659e-10 3.40977e-13)
(978.58 -6.42294e-10 3.19832e-13)
(978.58 -6.31534e-10 3.06415e-13)
(978.58 -6.21715e-10 2.92421e-13)
(978.58 -6.14796e-10 2.71585e-13)
(978.58 -6.04993e-10 2.73143e-13)
(978.58 -5.96642e-10 2.60737e-13)
(978.58 -5.89821e-10 2.52199e-13)
(978.58 -5.8432e-10 2.43572e-13)
(978.58 -5.78859e-10 2.39632e-13)
(978.58 -5.74747e-10 2.284e-13)
(978.58 -5.69673e-10 2.14375e-13)
(978.58 -5.64978e-10 2.12761e-13)
(978.58 -5.61029e-10 2.08485e-13)
(978.58 -5.57027e-10 1.94427e-13)
(978.58 -5.52742e-10 1.88786e-13)
(978.58 -5.49038e-10 1.84982e-13)
(978.58 -5.4661e-10 1.84859e-13)
(978.58 -5.44177e-10 1.86838e-13)
(978.58 -5.41813e-10 1.76315e-13)
(978.58 -5.38756e-10 1.76489e-13)
(978.58 -5.34701e-10 1.70181e-13)
(978.58 -5.32568e-10 1.5828e-13)
(978.58 -5.31927e-10 1.63214e-13)
(978.58 -5.29639e-10 1.5907e-13)
(978.58 -5.27662e-10 1.52781e-13)
(978.58 -5.2629e-10 1.50216e-13)
(978.58 -5.26028e-10 1.4469e-13)
(978.58 -5.2608e-10 1.38759e-13)
(978.58 -5.25391e-10 1.40561e-13)
(978.58 -5.24904e-10 1.37881e-13)
(978.58 -5.24972e-10 1.3594e-13)
(978.58 -5.25255e-10 1.27215e-13)
(978.58 -5.24762e-10 1.23697e-13)
(978.58 -5.24188e-10 1.25322e-13)
(978.58 -5.24449e-10 1.29644e-13)
(978.58 -5.25295e-10 1.19066e-13)
(978.58 -5.24855e-10 1.16569e-13)
(978.58 -5.25184e-10 1.15963e-13)
(978.58 -5.27911e-10 1.1351e-13)
(978.58 -5.27643e-10 1.08625e-13)
(978.58 -5.28394e-10 1.06681e-13)
(978.58 -5.2942e-10 1.10159e-13)
(978.58 -5.31096e-10 1.11954e-13)
(978.58 -5.31673e-10 1.07644e-13)
(978.58 -5.31865e-10 1.02527e-13)
(978.58 -5.33003e-10 1.02912e-13)
(978.58 -5.35153e-10 1.00893e-13)
(978.58 -5.37432e-10 9.69227e-14)
(978.58 -5.41046e-10 9.5933e-14)
(978.58 -5.4265e-10 9.58608e-14)
(978.58 -5.45684e-10 8.88786e-14)
(978.58 -5.49141e-10 9.01471e-14)
(978.58 -5.50226e-10 9.08952e-14)
(978.58 -5.52797e-10 8.6457e-14)
(978.58 -5.553e-10 8.36811e-14)
(978.58 -5.56649e-10 8.63526e-14)
(978.58 -5.58694e-10 8.57501e-14)
(978.58 -5.63011e-10 7.77764e-14)
(978.58 -5.66663e-10 7.87167e-14)
(978.58 -5.68565e-10 8.06698e-14)
(978.58 -5.71239e-10 7.96672e-14)
(978.58 -5.7407e-10 7.87906e-14)
(978.58 -5.78436e-10 7.70099e-14)
(978.58 -5.81235e-10 7.89954e-14)
(978.58 -5.8344e-10 7.80922e-14)
(978.58 -5.86635e-10 7.70286e-14)
(978.58 -5.8926e-10 7.46678e-14)
(978.58 -5.93464e-10 6.75742e-14)
(978.58 -5.97458e-10 7.01469e-14)
(978.58 -6.03181e-10 7.30339e-14)
(978.58 -6.07926e-10 7.36505e-14)
(978.58 -6.13336e-10 7.20669e-14)
(978.58 -6.18755e-10 7.4501e-14)
(978.58 -6.23871e-10 7.26972e-14)
(978.58 -6.28243e-10 6.58906e-14)
(978.58 -6.33404e-10 6.54575e-14)
(978.58 -6.38496e-10 7.06694e-14)
(978.58 -6.45144e-10 6.91663e-14)
(978.58 -6.50192e-10 6.67511e-14)
(978.58 -6.55706e-10 7.1527e-14)
(978.58 -6.59711e-10 7.03359e-14)
(978.58 -6.65926e-10 6.38003e-14)
(978.58 -6.69705e-10 6.30598e-14)
(978.58 -6.75671e-10 6.20783e-14)
(978.58 -6.82299e-10 6.36268e-14)
(978.58 -6.89137e-10 6.76064e-14)
(978.58 -6.95772e-10 6.37269e-14)
(978.58 -7.02192e-10 6.63064e-14)
(978.58 -7.09568e-10 6.58451e-14)
(978.58 -7.1695e-10 6.44445e-14)
(978.58 -7.24985e-10 6.38767e-14)
(978.58 -7.32669e-10 6.07701e-14)
(978.58 -7.402e-10 6.02613e-14)
(978.58 -7.47775e-10 5.83464e-14)
(978.58 -7.56368e-10 6.16842e-14)
(978.58 -7.64609e-10 6.01701e-14)
(978.58 -7.72338e-10 6.15358e-14)
(978.58 -7.80604e-10 6.26048e-14)
(978.58 -7.89109e-10 6.08001e-14)
(978.58 -7.96787e-10 6.03068e-14)
(978.58 -8.04731e-10 5.76701e-14)
(978.58 -8.14195e-10 5.41679e-14)
(978.58 -8.25265e-10 5.63661e-14)
(978.58 -8.35954e-10 5.64065e-14)
(978.58 -8.46256e-10 5.64423e-14)
(978.58 -8.56516e-10 5.92131e-14)
(978.58 -8.67256e-10 5.19901e-14)
(978.58 -8.78742e-10 5.45471e-14)
(978.58 -8.87264e-10 5.82481e-14)
(978.58 -8.9448e-10 5.65033e-14)
(978.58 -9.85213e-08 1.62706e-10)
(978.58 -8.03684e-08 1.17668e-10)
(978.58 -6.08422e-08 7.81444e-11)
(978.58 -4.42957e-08 5.08971e-11)
(978.58 -3.20101e-08 3.36744e-11)
(978.58 -2.33947e-08 2.31482e-11)
(978.58 -1.74544e-08 1.67362e-11)
(978.58 -1.3357e-08 1.25857e-11)
(978.58 -1.05007e-08 9.82539e-12)
(978.58 -8.47475e-09 7.91148e-12)
(978.58 -7.0001e-09 6.55513e-12)
(978.58 -5.89772e-09 5.50614e-12)
(978.58 -5.05673e-09 4.7098e-12)
(978.58 -4.401e-09 4.07956e-12)
(978.58 -3.88008e-09 3.51637e-12)
(978.58 -3.45848e-09 3.09399e-12)
(978.58 -3.11005e-09 2.76675e-12)
(978.58 -2.81806e-09 2.4635e-12)
(978.58 -2.57059e-09 2.22955e-12)
(978.58 -2.36098e-09 2.00008e-12)
(978.58 -2.18104e-09 1.82183e-12)
(978.58 -2.02546e-09 1.66497e-12)
(978.58 -1.89019e-09 1.52447e-12)
(978.58 -1.77248e-09 1.3897e-12)
(978.58 -1.66851e-09 1.30455e-12)
(978.58 -1.57591e-09 1.22043e-12)
(978.58 -1.494e-09 1.14028e-12)
(978.58 -1.41951e-09 1.06678e-12)
(978.58 -1.35314e-09 9.78354e-13)
(978.58 -1.29368e-09 9.03821e-13)
(978.58 -1.24131e-09 8.61342e-13)
(978.58 -1.19545e-09 8.04031e-13)
(978.58 -1.15314e-09 7.57167e-13)
(978.58 -1.11503e-09 7.22418e-13)
(978.58 -1.07931e-09 6.75149e-13)
(978.58 -1.04636e-09 6.24604e-13)
(978.58 -1.0145e-09 6.15593e-13)
(978.58 -9.84049e-10 5.78903e-13)
(978.58 -9.57809e-10 5.52174e-13)
(978.58 -9.33729e-10 5.31038e-13)
(978.58 -9.08953e-10 4.93718e-13)
(978.58 -8.84874e-10 4.73096e-13)
(978.58 -8.65204e-10 4.59656e-13)
(978.58 -8.48527e-10 4.4313e-13)
(978.58 -8.33443e-10 4.24149e-13)
(978.58 -8.19589e-10 4.09964e-13)
(978.58 -8.07845e-10 3.87216e-13)
(978.58 -7.94768e-10 3.76429e-13)
(978.58 -7.81441e-10 3.61638e-13)
(978.58 -7.71971e-10 3.41214e-13)
(978.58 -7.59757e-10 3.30641e-13)
(978.58 -7.49639e-10 3.18889e-13)
(978.58 -7.39452e-10 3.06121e-13)
(978.58 -7.32256e-10 2.95575e-13)
(978.58 -7.24123e-10 2.83292e-13)
(978.58 -7.16424e-10 2.72615e-13)
(978.58 -7.09746e-10 2.68027e-13)
(978.58 -7.04112e-10 2.65635e-13)
(978.58 -6.99282e-10 2.50494e-13)
(978.58 -6.93612e-10 2.43091e-13)
(978.58 -6.88323e-10 2.39391e-13)
(978.58 -6.83903e-10 2.33166e-13)
(978.58 -6.79709e-10 2.29969e-13)
(978.58 -6.75887e-10 2.20682e-13)
(978.58 -6.71891e-10 2.19147e-13)
(978.58 -6.67722e-10 2.1582e-13)
(978.58 -6.63887e-10 2.03808e-13)
(978.58 -6.60508e-10 1.97309e-13)
(978.58 -6.58217e-10 1.9891e-13)
(978.58 -6.56233e-10 1.91296e-13)
(978.58 -6.54026e-10 1.84311e-13)
(978.58 -6.51652e-10 1.81198e-13)
(978.58 -6.50031e-10 1.77231e-13)
(978.58 -6.49996e-10 1.69609e-13)
(978.58 -6.49279e-10 1.71093e-13)
(978.58 -6.48908e-10 1.64042e-13)
(978.58 -6.48122e-10 1.59231e-13)
(978.58 -6.46966e-10 1.58469e-13)
(978.58 -6.45753e-10 1.67616e-13)
(978.58 -6.45545e-10 1.588e-13)
(978.58 -6.45401e-10 1.52654e-13)
(978.58 -6.46637e-10 1.46589e-13)
(978.58 -6.45587e-10 1.44626e-13)