/*--------------------------------*- C++ -*----------------------------------*\
| =========                 |                                                 |
| \\      /  F ield         | OpenFOAM: The Open Source CFD Toolbox           |
|  \\    /   O peration     | Version:  v1706                                 |
|   \\  /    A nd           | Web:      www.OpenFOAM.com                      |
|    \\/     M anipulation  |                                                 |
\*---------------------------------------------------------------------------*/
FoamFile
{
    version     2.0;
    format      ascii;
    class       volScalarField;
    location    "3.1e-05";
    object      wallHeatFlux;
}
// * * * * * * * * * * * * * * * * * * * * * * * * * * * * * * * * * * * * * //

dimensions      [1 0 -3 0 0 0 0];


internalField   uniform 0;

boundaryField
{
    cone
    {
        type            calculated;
        value           nonuniform List<scalar> 
147
(
23675
23671.2
23663.9
23657.1
23648.2
23637.7
23625.2
23610.5
23593.5
23574.4
23554.1
23532.9
23510.5
23486.6
23461.2
23434.2
23405.6
23375.4
23343.6
23310.2
23275.2
23238.6
23200.3
23160.5
23119.1
23076.1
23031.5
22985.4
22937.7
22888.4
22837.6
22785.3
22731.4
22676
22619
22560.6
22500.6
22439.2
22376.3
22311.9
22246.1
22178.8
22110.1
22039.9
21968.3
21895.3
21821
21745.2
21668.1
21589.6
21509.7
21428.5
21346.1
21262.3
21177.2
21090.8
21003.2
20914.3
20824.2
20732.9
20640.4
20546.7
20451.8
20355.8
20258.6
20160.4
20061
19960.5
19859
19756.5
19652.9
19548.2
19442.6
19336
19228.4
19119.9
19010.5
18900.1
18788.8
18676.6
18563.6
18449.7
18335
18219.5
18103.2
17986.1
17868.2
17749.6
17630.3
17510.2
17389.5
17268.1
17146
17023.3
16900
16776.1
16651.6
16526.5
16400.9
16274.8
16148.1
16021
15893.4
15765.3
15636.8
15507.9
15378.6
15248.9
15118.8
14988.4
14857.7
14726.6
14595.3
14463.7
14331.8
14199.7
14067.4
13934.9
13802.2
13669.3
13536.3
13403.1
13269.9
13136.5
13003.1
12869.6
12736
12602.5
12468.9
12335.3
12201.8
12068.3
11934.8
11801.5
11668.2
11535
11402
11269.1
11136.5
11004
10871.8
10740
10608.7
10477.7
10346.8
10215.8
23701.1
)
;
    }
    inlet
    {
        type            calculated;
        value           uniform 0;
    }
    rWedge
    {
        type            wedge;
    }
    lWedge
    {
        type            wedge;
    }
    outlet
    {
        type            calculated;
        value           nonuniform 0();
    }
    procBoundary3to2
    {
        type            processor;
        value           uniform 0;
    }
}


// ************************************************************************* //
