/*--------------------------------*- C++ -*----------------------------------*\
| =========                 |                                                 |
| \\      /  F ield         | OpenFOAM: The Open Source CFD Toolbox           |
|  \\    /   O peration     | Version:  v1706                                 |
|   \\  /    A nd           | Web:      www.OpenFOAM.com                      |
|    \\/     M anipulation  |                                                 |
\*---------------------------------------------------------------------------*/
FoamFile
{
    version     2.0;
    format      ascii;
    class       volScalarField;
    location    "3.2e-05";
    object      alpha;
}
// * * * * * * * * * * * * * * * * * * * * * * * * * * * * * * * * * * * * * //

dimensions      [1 -1 -1 0 0 0 0];


internalField   nonuniform List<scalar> 
29871
(
1.456e-05
1.46147e-05
1.46726e-05
1.47338e-05
1.47991e-05
1.48706e-05
1.49489e-05
1.50335e-05
1.51236e-05
1.52179e-05
1.53154e-05
1.54153e-05
1.55169e-05
1.56194e-05
1.57219e-05
1.58235e-05
1.59236e-05
1.60212e-05
1.61164e-05
1.62109e-05
1.63173e-05
1.64454e-05
1.65894e-05
1.67423e-05
1.68985e-05
1.70536e-05
1.72047e-05
1.73497e-05
1.74869e-05
1.76153e-05
1.77345e-05
1.78443e-05
1.79449e-05
1.80367e-05
1.81199e-05
1.81951e-05
1.82627e-05
1.83232e-05
1.83768e-05
1.84237e-05
1.84642e-05
1.84984e-05
1.85265e-05
1.85487e-05
1.85654e-05
1.85767e-05
1.85815e-05
1.858e-05
1.85745e-05
1.85649e-05
1.85498e-05
1.85298e-05
1.85069e-05
1.84799e-05
1.84497e-05
1.84167e-05
1.83799e-05
1.83384e-05
1.82927e-05
1.82424e-05
1.8187e-05
1.81267e-05
1.80617e-05
1.79919e-05
1.79169e-05
1.78368e-05
1.77515e-05
1.76607e-05
1.75645e-05
1.74626e-05
1.73548e-05
1.7241e-05
1.71209e-05
1.69946e-05
1.68619e-05
1.67227e-05
1.65767e-05
1.64241e-05
1.62659e-05
1.61047e-05
1.59481e-05
1.58156e-05
1.57151e-05
1.56258e-05
1.55378e-05
1.54484e-05
1.53572e-05
1.52648e-05
1.51715e-05
1.50779e-05
1.49845e-05
1.48916e-05
1.48006e-05
1.47149e-05
1.46375e-05
1.45695e-05
1.45114e-05
1.44602e-05
1.44128e-05
1.43677e-05
1.43247e-05
1.42843e-05
1.42473e-05
1.42147e-05
1.41874e-05
1.67614e-05
1.69926e-05
1.72277e-05
1.7466e-05
1.77099e-05
1.7978e-05
1.82728e-05
1.85889e-05
1.89187e-05
1.92547e-05
1.95897e-05
1.99174e-05
2.02329e-05
2.05322e-05
2.08128e-05
2.1073e-05
2.13117e-05
2.15289e-05
2.1725e-05
2.19011e-05
2.20563e-05
2.21902e-05
2.23042e-05
2.24001e-05
2.24796e-05
2.25446e-05
2.25966e-05
2.26368e-05
2.26667e-05
2.26879e-05
2.2702e-05
2.27109e-05
2.27159e-05
2.2718e-05
2.27173e-05
2.27155e-05
2.27126e-05
2.2709e-05
2.27047e-05
2.26993e-05
2.26926e-05
2.26847e-05
2.26754e-05
2.26648e-05
2.26526e-05
2.26388e-05
2.2623e-05
2.26051e-05
2.25856e-05
2.25652e-05
2.25434e-05
2.25225e-05
2.24987e-05
2.24715e-05
2.24438e-05
2.24157e-05
2.23868e-05
2.23567e-05
2.23256e-05
2.22927e-05
2.22579e-05
2.22219e-05
2.21847e-05
2.2146e-05
2.21059e-05
2.20646e-05
2.2022e-05
2.19784e-05
2.19338e-05
2.18883e-05
2.1842e-05
2.1795e-05
2.17472e-05
2.16988e-05
2.16493e-05
2.15977e-05
2.15424e-05
2.14814e-05
2.14117e-05
2.13292e-05
2.12276e-05
2.10994e-05
2.09443e-05
2.07671e-05
2.057e-05
2.03526e-05
2.01138e-05
1.98524e-05
1.95681e-05
1.92612e-05
1.89321e-05
1.85822e-05
1.82136e-05
1.78315e-05
1.7448e-05
1.70864e-05
1.67826e-05
1.65234e-05
1.62838e-05
1.60516e-05
1.58236e-05
1.5602e-05
1.5393e-05
1.52035e-05
1.50382e-05
2.04123e-05
2.08222e-05
2.12139e-05
2.15821e-05
2.19233e-05
2.2235e-05
2.25127e-05
2.27571e-05
2.29706e-05
2.31563e-05
2.33174e-05
2.34572e-05
2.35787e-05
2.36839e-05
2.37745e-05
2.38516e-05
2.39156e-05
2.39668e-05
2.40058e-05
2.40346e-05
2.40552e-05
2.40698e-05
2.40796e-05
2.40857e-05
2.40881e-05
2.40866e-05
2.40829e-05
2.40758e-05
2.40649e-05
2.40504e-05
2.40326e-05
2.40118e-05
2.39885e-05
2.39632e-05
2.39365e-05
2.39089e-05
2.38806e-05
2.38521e-05
2.38236e-05
2.37953e-05
2.37673e-05
2.37396e-05
2.37121e-05
2.36849e-05
2.36578e-05
2.36311e-05
2.36044e-05
2.35772e-05
2.35498e-05
2.35228e-05
2.34962e-05
2.3469e-05
2.34426e-05
2.34171e-05
2.33939e-05
2.33675e-05
2.3336e-05
2.33079e-05
2.32822e-05
2.32538e-05
2.32243e-05
2.31972e-05
2.31706e-05
2.31437e-05
2.3117e-05
2.30909e-05
2.30656e-05
2.30413e-05
2.30181e-05
2.29961e-05
2.29756e-05
2.29565e-05
2.29388e-05
2.29222e-05
2.29068e-05
2.28922e-05
2.28776e-05
2.28616e-05
2.28432e-05
2.28213e-05
2.27944e-05
2.27608e-05
2.27199e-05
2.26721e-05
2.26179e-05
2.25574e-05
2.24906e-05
2.24172e-05
2.23375e-05
2.22507e-05
2.21559e-05
2.20506e-05
2.19311e-05
2.17918e-05
2.16259e-05
2.14264e-05
2.11854e-05
2.08959e-05
2.05613e-05
2.01875e-05
1.97777e-05
1.9334e-05
1.88598e-05
1.8363e-05
1.786e-05
1.73826e-05
2.3879e-05
2.40334e-05
2.41643e-05
2.42746e-05
2.43663e-05
2.44413e-05
2.45009e-05
2.45467e-05
2.458e-05
2.46032e-05
2.4619e-05
2.46304e-05
2.46394e-05
2.46473e-05
2.46547e-05
2.46614e-05
2.46668e-05
2.46693e-05
2.46678e-05
2.46634e-05
2.46559e-05
2.46461e-05
2.46346e-05
2.46217e-05
2.46078e-05
2.45931e-05
2.45782e-05
2.45635e-05
2.45497e-05
2.45362e-05
2.45226e-05
2.45081e-05
2.44924e-05
2.44749e-05
2.44554e-05
2.44337e-05
2.44103e-05
2.43853e-05
2.43591e-05
2.4332e-05
2.43042e-05
2.4276e-05
2.42475e-05
2.42187e-05
2.41898e-05
2.41611e-05
2.41325e-05
2.41032e-05
2.40735e-05
2.40442e-05
2.40154e-05
2.39863e-05
2.39583e-05
2.39317e-05
2.39072e-05
2.38793e-05
2.38453e-05
2.38154e-05
2.37882e-05
2.37581e-05
2.37264e-05
2.36971e-05
2.36686e-05
2.36397e-05
2.36111e-05
2.35829e-05
2.35553e-05
2.35284e-05
2.35022e-05
2.34765e-05
2.34515e-05
2.34271e-05
2.34034e-05
2.338e-05
2.33565e-05
2.33322e-05
2.33068e-05
2.32803e-05
2.32529e-05
2.32244e-05
2.31947e-05
2.3164e-05
2.31332e-05
2.31025e-05
2.30717e-05
2.30412e-05
2.30111e-05
2.2981e-05
2.29499e-05
2.29173e-05
2.28828e-05
2.28453e-05
2.28027e-05
2.27539e-05
2.26988e-05
2.26363e-05
2.25663e-05
2.24896e-05
2.24064e-05
2.2315e-05
2.22114e-05
2.20896e-05
2.19404e-05
2.17521e-05
2.15134e-05
2.12144e-05
2.49375e-05
2.4964e-05
2.4984e-05
2.49997e-05
2.50125e-05
2.50231e-05
2.50319e-05
2.50385e-05
2.50415e-05
2.504e-05
2.50351e-05
2.50268e-05
2.5016e-05
2.50038e-05
2.49914e-05
2.49795e-05
2.49689e-05
2.49607e-05
2.49557e-05
2.49535e-05
2.49518e-05
2.4949e-05
2.49439e-05
2.4936e-05
2.49254e-05
2.49126e-05
2.4898e-05
2.48823e-05
2.48663e-05
2.48505e-05
2.48352e-05
2.482e-05
2.48047e-05
2.4789e-05
2.47727e-05
2.47555e-05
2.4737e-05
2.4717e-05
2.46955e-05
2.46727e-05
2.46484e-05
2.46228e-05
2.45965e-05
2.45693e-05
2.45411e-05
2.45123e-05
2.44835e-05
2.44541e-05
2.44239e-05
2.43934e-05
2.43635e-05
2.43333e-05
2.43019e-05
2.42729e-05
2.42455e-05
2.42206e-05
2.41905e-05
2.41552e-05
2.41251e-05
2.40977e-05
2.40677e-05
2.40343e-05
2.4003e-05
2.39731e-05
2.39436e-05
2.39142e-05
2.38846e-05
2.38554e-05
2.38269e-05
2.37984e-05
2.37697e-05
2.37409e-05
2.37121e-05
2.36832e-05
2.3654e-05
2.36248e-05
2.35952e-05
2.35645e-05
2.35333e-05
2.35025e-05
2.34716e-05
2.34401e-05
2.34087e-05
2.33783e-05
2.33483e-05
2.33183e-05
2.32887e-05
2.32599e-05
2.32312e-05
2.32017e-05
2.3172e-05
2.31403e-05
2.31057e-05
2.30686e-05
2.30328e-05
2.2999e-05
2.29656e-05
2.29344e-05
2.29058e-05
2.28776e-05
2.28481e-05
2.28156e-05
2.27785e-05
2.27348e-05
2.26825e-05
2.26206e-05
2.25502e-05
2.53025e-05
2.53e-05
2.52946e-05
2.52875e-05
2.52793e-05
2.5271e-05
2.52635e-05
2.52565e-05
2.52506e-05
2.52464e-05
2.52428e-05
2.52381e-05
2.52308e-05
2.52209e-05
2.52091e-05
2.51957e-05
2.51817e-05
2.51682e-05
2.51575e-05
2.51489e-05
2.51425e-05
2.51375e-05
2.51323e-05
2.51261e-05
2.51181e-05
2.51083e-05
2.50963e-05
2.5083e-05
2.50679e-05
2.50516e-05
2.50352e-05
2.50192e-05
2.50035e-05
2.49883e-05
2.49731e-05
2.49577e-05
2.49419e-05
2.49255e-05
2.4908e-05
2.48897e-05
2.48703e-05
2.48492e-05
2.48271e-05
2.48044e-05
2.478e-05
2.47544e-05
2.47286e-05
2.4702e-05
2.46735e-05
2.46445e-05
2.46161e-05
2.45875e-05
2.45557e-05
2.45266e-05
2.44989e-05
2.44741e-05
2.44418e-05
2.44057e-05
2.43751e-05
2.43457e-05
2.43158e-05
2.4279e-05
2.42425e-05
2.42095e-05
2.41784e-05
2.41467e-05
2.41124e-05
2.40792e-05
2.40478e-05
2.4015e-05
2.39808e-05
2.39467e-05
2.39124e-05
2.38774e-05
2.38425e-05
2.38085e-05
2.3774e-05
2.37383e-05
2.37039e-05
2.36721e-05
2.36399e-05
2.36067e-05
2.35759e-05
2.3547e-05
2.35176e-05
2.34876e-05
2.3459e-05
2.34303e-05
2.34006e-05
2.33702e-05
2.33407e-05
2.33101e-05
2.32773e-05
2.32432e-05
2.32122e-05
2.31832e-05
2.31548e-05
2.31279e-05
2.31023e-05
2.30762e-05
2.30483e-05
2.30193e-05
2.29901e-05
2.29617e-05
2.29397e-05
2.29232e-05
2.29006e-05
2.54898e-05
2.54841e-05
2.54796e-05
2.54759e-05
2.54727e-05
2.54683e-05
2.5462e-05
2.54534e-05
2.5443e-05
2.54322e-05
2.54211e-05
2.54106e-05
2.54024e-05
2.5396e-05
2.53902e-05
2.53841e-05
2.53767e-05
2.53677e-05
2.53571e-05
2.5345e-05
2.53318e-05
2.53184e-05
2.53062e-05
2.52962e-05
2.52883e-05
2.5282e-05
2.52766e-05
2.52711e-05
2.52651e-05
2.52579e-05
2.52494e-05
2.52393e-05
2.52275e-05
2.52143e-05
2.52004e-05
2.51858e-05
2.51712e-05
2.51566e-05
2.51415e-05
2.51263e-05
2.51111e-05
2.50949e-05
2.50782e-05
2.50611e-05
2.50426e-05
2.50228e-05
2.50028e-05
2.49815e-05
2.4958e-05
2.49344e-05
2.49107e-05
2.48841e-05
2.48564e-05
2.48295e-05
2.4803e-05
2.47716e-05
2.47424e-05
2.47151e-05
2.46905e-05
2.46569e-05
2.46208e-05
2.45903e-05
2.45603e-05
2.45302e-05
2.44907e-05
2.44505e-05
2.44155e-05
2.43825e-05
2.43488e-05
2.4311e-05
2.4275e-05
2.42412e-05
2.42056e-05
2.41671e-05
2.41294e-05
2.40914e-05
2.40521e-05
2.40142e-05
2.39779e-05
2.39402e-05
2.39012e-05
2.3865e-05
2.3831e-05
2.37963e-05
2.37607e-05
2.37275e-05
2.36964e-05
2.3664e-05
2.36316e-05
2.36002e-05
2.35694e-05
2.35363e-05
2.35039e-05
2.34722e-05
2.34401e-05
2.34073e-05
2.33754e-05
2.33451e-05
2.33168e-05
2.32904e-05
2.32648e-05
2.32393e-05
2.32135e-05
2.31876e-05
2.31613e-05
2.31349e-05
2.31112e-05
2.30936e-05
2.30789e-05
2.30617e-05
2.56418e-05
2.56313e-05
2.56218e-05
2.56137e-05
2.56076e-05
2.56021e-05
2.55961e-05
2.55889e-05
2.55807e-05
2.55711e-05
2.55606e-05
2.55498e-05
2.55394e-05
2.55304e-05
2.5523e-05
2.5517e-05
2.55117e-05
2.55061e-05
2.54997e-05
2.54921e-05
2.54835e-05
2.54735e-05
2.54629e-05
2.54527e-05
2.54434e-05
2.54355e-05
2.54289e-05
2.54231e-05
2.54177e-05
2.54122e-05
2.54062e-05
2.53995e-05
2.53913e-05
2.53816e-05
2.53709e-05
2.53584e-05
2.53449e-05
2.53313e-05
2.53164e-05
2.53006e-05
2.52853e-05
2.52691e-05
2.52516e-05
2.52345e-05
2.52167e-05
2.51968e-05
2.5177e-05
2.51573e-05
2.51344e-05
2.51112e-05
2.50889e-05
2.50639e-05
2.50366e-05
2.50103e-05
2.49854e-05
2.49546e-05
2.4925e-05
2.48978e-05
2.48727e-05
2.48388e-05
2.48031e-05
2.47729e-05
2.47429e-05
2.47127e-05
2.46716e-05
2.46296e-05
2.45934e-05
2.45588e-05
2.45233e-05
2.44829e-05
2.4445e-05
2.44094e-05
2.43734e-05
2.43325e-05
2.42913e-05
2.42513e-05
2.42105e-05
2.41714e-05
2.41338e-05
2.40958e-05
2.40563e-05
2.40189e-05
2.39834e-05
2.39483e-05
2.39124e-05
2.38774e-05
2.38438e-05
2.38102e-05
2.37762e-05
2.37425e-05
2.3709e-05
2.36746e-05
2.364e-05
2.36056e-05
2.35711e-05
2.35367e-05
2.35031e-05
2.34709e-05
2.34405e-05
2.34117e-05
2.33844e-05
2.33574e-05
2.33306e-05
2.33045e-05
2.32787e-05
2.32537e-05
2.32313e-05
2.32128e-05
2.3197e-05
2.31814e-05
2.57709e-05
2.57603e-05
2.57498e-05
2.57397e-05
2.57313e-05
2.57246e-05
2.57191e-05
2.5714e-05
2.57091e-05
2.57036e-05
2.56971e-05
2.56899e-05
2.5682e-05
2.56742e-05
2.56671e-05
2.56612e-05
2.56563e-05
2.56519e-05
2.56478e-05
2.56433e-05
2.5638e-05
2.56318e-05
2.56244e-05
2.5616e-05
2.56073e-05
2.55987e-05
2.55906e-05
2.55831e-05
2.55762e-05
2.55698e-05
2.55634e-05
2.55569e-05
2.555e-05
2.55418e-05
2.55331e-05
2.55231e-05
2.55109e-05
2.54986e-05
2.54852e-05
2.54693e-05
2.54537e-05
2.54381e-05
2.54195e-05
2.54011e-05
2.53835e-05
2.53627e-05
2.53416e-05
2.53218e-05
2.52989e-05
2.52746e-05
2.52517e-05
2.52277e-05
2.51998e-05
2.51731e-05
2.51483e-05
2.5118e-05
2.50876e-05
2.50597e-05
2.50336e-05
2.49999e-05
2.49645e-05
2.49343e-05
2.4904e-05
2.48735e-05
2.48316e-05
2.47893e-05
2.47529e-05
2.47174e-05
2.46805e-05
2.46378e-05
2.4599e-05
2.45628e-05
2.4527e-05
2.4486e-05
2.44415e-05
2.44002e-05
2.43605e-05
2.43213e-05
2.4283e-05
2.42453e-05
2.42072e-05
2.41696e-05
2.41332e-05
2.40975e-05
2.40616e-05
2.40257e-05
2.39903e-05
2.39553e-05
2.39201e-05
2.38847e-05
2.38491e-05
2.38132e-05
2.37769e-05
2.37406e-05
2.37045e-05
2.36688e-05
2.3634e-05
2.36003e-05
2.35685e-05
2.35385e-05
2.35095e-05
2.34811e-05
2.3453e-05
2.34255e-05
2.33986e-05
2.33729e-05
2.33495e-05
2.33288e-05
2.33104e-05
2.3293e-05
2.58962e-05
2.58896e-05
2.58824e-05
2.58749e-05
2.58677e-05
2.58615e-05
2.58566e-05
2.58526e-05
2.58495e-05
2.58465e-05
2.58433e-05
2.58395e-05
2.5835e-05
2.58299e-05
2.58245e-05
2.58193e-05
2.58145e-05
2.58104e-05
2.58066e-05
2.58032e-05
2.57995e-05
2.57954e-05
2.57905e-05
2.57845e-05
2.57776e-05
2.577e-05
2.57619e-05
2.57536e-05
2.57454e-05
2.57374e-05
2.57292e-05
2.57213e-05
2.57136e-05
2.57047e-05
2.56957e-05
2.56866e-05
2.5675e-05
2.56629e-05
2.5651e-05
2.56356e-05
2.56198e-05
2.56047e-05
2.55862e-05
2.55667e-05
2.55485e-05
2.55277e-05
2.5505e-05
2.54837e-05
2.54612e-05
2.54354e-05
2.54108e-05
2.53869e-05
2.53582e-05
2.53303e-05
2.53045e-05
2.52745e-05
2.52429e-05
2.52137e-05
2.51864e-05
2.51525e-05
2.51171e-05
2.50867e-05
2.50558e-05
2.50245e-05
2.49818e-05
2.49406e-05
2.49046e-05
2.48689e-05
2.48308e-05
2.47863e-05
2.47472e-05
2.47116e-05
2.4676e-05
2.46356e-05
2.45891e-05
2.45472e-05
2.45081e-05
2.44697e-05
2.44316e-05
2.4394e-05
2.43567e-05
2.43195e-05
2.42827e-05
2.42462e-05
2.42098e-05
2.41732e-05
2.41366e-05
2.41002e-05
2.40635e-05
2.40266e-05
2.39894e-05
2.3952e-05
2.39143e-05
2.38769e-05
2.38398e-05
2.38032e-05
2.37679e-05
2.3734e-05
2.37016e-05
2.36705e-05
2.36406e-05
2.36113e-05
2.35826e-05
2.35543e-05
2.35267e-05
2.35004e-05
2.34759e-05
2.34533e-05
2.34323e-05
2.34124e-05
2.60333e-05
2.60299e-05
2.60262e-05
2.6022e-05
2.60176e-05
2.60132e-05
2.60094e-05
2.60062e-05
2.60039e-05
2.60021e-05
2.60007e-05
2.59992e-05
2.59974e-05
2.59951e-05
2.59921e-05
2.59888e-05
2.59852e-05
2.59816e-05
2.59782e-05
2.5975e-05
2.59718e-05
2.59684e-05
2.59647e-05
2.59603e-05
2.59551e-05
2.59489e-05
2.59417e-05
2.59338e-05
2.59253e-05
2.59163e-05
2.59069e-05
2.58973e-05
2.58879e-05
2.58774e-05
2.58667e-05
2.58565e-05
2.58443e-05
2.58312e-05
2.58189e-05
2.58041e-05
2.57874e-05
2.57719e-05
2.57542e-05
2.57338e-05
2.57146e-05
2.56943e-05
2.56705e-05
2.56475e-05
2.56251e-05
2.55985e-05
2.5572e-05
2.55473e-05
2.55186e-05
2.5489e-05
2.54615e-05
2.54318e-05
2.53991e-05
2.53684e-05
2.53398e-05
2.53054e-05
2.52697e-05
2.52385e-05
2.52069e-05
2.51745e-05
2.51311e-05
2.50915e-05
2.50563e-05
2.50209e-05
2.49815e-05
2.49356e-05
2.48966e-05
2.4861e-05
2.48254e-05
2.47858e-05
2.47386e-05
2.46965e-05
2.46577e-05
2.46196e-05
2.45816e-05
2.4544e-05
2.45067e-05
2.44694e-05
2.44321e-05
2.43949e-05
2.43575e-05
2.432e-05
2.42823e-05
2.42445e-05
2.42065e-05
2.41683e-05
2.41299e-05
2.40915e-05
2.40531e-05
2.40149e-05
2.39777e-05
2.39413e-05
2.39061e-05
2.38722e-05
2.38396e-05
2.38083e-05
2.37778e-05
2.37481e-05
2.37188e-05
2.36899e-05
2.36618e-05
2.36347e-05
2.3609e-05
2.35847e-05
2.35617e-05
2.35395e-05
2.61847e-05
2.61829e-05
2.61816e-05
2.61805e-05
2.61793e-05
2.61778e-05
2.61762e-05
2.61745e-05
2.61729e-05
2.61718e-05
2.61711e-05
2.61709e-05
2.61709e-05
2.61708e-05
2.61705e-05
2.61698e-05
2.61685e-05
2.61667e-05
2.61645e-05
2.61619e-05
2.61591e-05
2.61562e-05
2.61531e-05
2.61497e-05
2.61458e-05
2.61413e-05
2.6136e-05
2.61298e-05
2.61225e-05
2.61144e-05
2.61053e-05
2.60953e-05
2.60847e-05
2.60737e-05
2.60617e-05
2.60493e-05
2.60371e-05
2.60234e-05
2.60084e-05
2.59945e-05
2.59789e-05
2.5961e-05
2.59441e-05
2.59262e-05
2.5905e-05
2.58842e-05
2.58638e-05
2.58397e-05
2.58149e-05
2.57918e-05
2.57653e-05
2.57371e-05
2.57107e-05
2.56826e-05
2.56515e-05
2.56218e-05
2.55925e-05
2.55591e-05
2.55266e-05
2.54965e-05
2.54622e-05
2.54257e-05
2.53932e-05
2.53609e-05
2.53271e-05
2.52837e-05
2.52453e-05
2.52105e-05
2.51755e-05
2.51344e-05
2.50879e-05
2.5049e-05
2.50127e-05
2.49771e-05
2.49369e-05
2.489e-05
2.48482e-05
2.48093e-05
2.4771e-05
2.47328e-05
2.46948e-05
2.46569e-05
2.46189e-05
2.45809e-05
2.45427e-05
2.45044e-05
2.44658e-05
2.44271e-05
2.43882e-05
2.43492e-05
2.43102e-05
2.4271e-05
2.42322e-05
2.41939e-05
2.4156e-05
2.4119e-05
2.40831e-05
2.40484e-05
2.40148e-05
2.39824e-05
2.39509e-05
2.39201e-05
2.38898e-05
2.386e-05
2.38305e-05
2.38017e-05
2.37737e-05
2.37468e-05
2.3721e-05
2.36962e-05
2.36722e-05
2.63451e-05
2.63451e-05
2.63455e-05
2.63463e-05
2.63474e-05
2.63485e-05
2.63495e-05
2.63503e-05
2.6351e-05
2.63517e-05
2.63525e-05
2.63535e-05
2.63547e-05
2.63559e-05
2.6357e-05
2.63579e-05
2.63583e-05
2.63581e-05
2.63574e-05
2.6356e-05
2.63541e-05
2.63517e-05
2.63488e-05
2.63455e-05
2.63417e-05
2.63373e-05
2.63322e-05
2.63262e-05
2.63193e-05
2.63114e-05
2.63023e-05
2.62922e-05
2.62812e-05
2.62692e-05
2.62561e-05
2.62423e-05
2.62281e-05
2.62127e-05
2.61959e-05
2.61799e-05
2.61625e-05
2.61429e-05
2.61238e-05
2.61046e-05
2.60824e-05
2.60594e-05
2.60378e-05
2.60134e-05
2.59867e-05
2.59618e-05
2.59355e-05
2.59059e-05
2.58772e-05
2.58493e-05
2.58175e-05
2.57855e-05
2.57555e-05
2.57223e-05
2.56879e-05
2.56555e-05
2.56219e-05
2.55846e-05
2.55501e-05
2.55167e-05
2.5482e-05
2.54391e-05
2.54009e-05
2.53655e-05
2.53306e-05
2.52883e-05
2.52418e-05
2.52024e-05
2.51649e-05
2.51289e-05
2.50871e-05
2.50416e-05
2.50001e-05
2.49608e-05
2.4922e-05
2.48832e-05
2.48444e-05
2.48056e-05
2.47668e-05
2.47278e-05
2.46887e-05
2.46495e-05
2.46101e-05
2.45706e-05
2.4531e-05
2.44915e-05
2.44523e-05
2.44133e-05
2.43747e-05
2.43367e-05
2.42995e-05
2.42631e-05
2.42279e-05
2.41936e-05
2.41603e-05
2.41279e-05
2.40961e-05
2.40648e-05
2.40339e-05
2.40032e-05
2.3973e-05
2.39433e-05
2.39144e-05
2.38863e-05
2.38592e-05
2.38329e-05
2.38073e-05
2.37823e-05
2.37578e-05
2.65165e-05
2.65184e-05
2.65208e-05
2.65235e-05
2.65265e-05
2.65298e-05
2.6533e-05
2.65362e-05
2.65392e-05
2.6542e-05
2.65446e-05
2.65471e-05
2.65496e-05
2.65519e-05
2.65542e-05
2.65562e-05
2.65578e-05
2.65589e-05
2.65592e-05
2.65589e-05
2.65579e-05
2.65562e-05
2.65537e-05
2.65505e-05
2.65466e-05
2.6542e-05
2.65366e-05
2.65304e-05
2.65233e-05
2.65151e-05
2.65058e-05
2.64954e-05
2.64839e-05
2.64713e-05
2.64573e-05
2.64425e-05
2.64268e-05
2.64097e-05
2.63915e-05
2.63732e-05
2.63538e-05
2.63324e-05
2.63109e-05
2.62896e-05
2.62659e-05
2.62405e-05
2.62167e-05
2.61912e-05
2.61628e-05
2.61352e-05
2.61082e-05
2.60778e-05
2.60465e-05
2.60171e-05
2.59854e-05
2.59512e-05
2.59187e-05
2.58862e-05
2.58502e-05
2.58151e-05
2.57813e-05
2.5744e-05
2.5707e-05
2.56715e-05
2.56366e-05
2.55944e-05
2.55553e-05
2.55185e-05
2.5483e-05
2.54398e-05
2.5394e-05
2.53536e-05
2.53146e-05
2.52759e-05
2.52349e-05
2.51914e-05
2.51496e-05
2.51093e-05
2.50696e-05
2.503e-05
2.49904e-05
2.49507e-05
2.4911e-05
2.48712e-05
2.48314e-05
2.47914e-05
2.47516e-05
2.47119e-05
2.46722e-05
2.46328e-05
2.45937e-05
2.45551e-05
2.45171e-05
2.44797e-05
2.44432e-05
2.44075e-05
2.43726e-05
2.43386e-05
2.43053e-05
2.42725e-05
2.42401e-05
2.42081e-05
2.41762e-05
2.41446e-05
2.41134e-05
2.40828e-05
2.40528e-05
2.40235e-05
2.39951e-05
2.39673e-05
2.39401e-05
2.39133e-05
2.38867e-05
2.66897e-05
2.66936e-05
2.66976e-05
2.67018e-05
2.67063e-05
2.6711e-05
2.6716e-05
2.67211e-05
2.67263e-05
2.67315e-05
2.67365e-05
2.67412e-05
2.67457e-05
2.67498e-05
2.67536e-05
2.67572e-05
2.67604e-05
2.67632e-05
2.67656e-05
2.67675e-05
2.67687e-05
2.67689e-05
2.67685e-05
2.67673e-05
2.67651e-05
2.6762e-05
2.6758e-05
2.67531e-05
2.67472e-05
2.67404e-05
2.67326e-05
2.67238e-05
2.67138e-05
2.67027e-05
2.66904e-05
2.66769e-05
2.6662e-05
2.66461e-05
2.6629e-05
2.66106e-05
2.65909e-05
2.65707e-05
2.65492e-05
2.65261e-05
2.65023e-05
2.64786e-05
2.6453e-05
2.64254e-05
2.63988e-05
2.63715e-05
2.63415e-05
2.63108e-05
2.62818e-05
2.62504e-05
2.62167e-05
2.61844e-05
2.61522e-05
2.61167e-05
2.60811e-05
2.60473e-05
2.60111e-05
2.59732e-05
2.59369e-05
2.59002e-05
2.58611e-05
2.5823e-05
2.57862e-05
2.5746e-05
2.57052e-05
2.5666e-05
2.56278e-05
2.55861e-05
2.5542e-05
2.54999e-05
2.5459e-05
2.54182e-05
2.5377e-05
2.53347e-05
2.52927e-05
2.52515e-05
2.52109e-05
2.51704e-05
2.513e-05
2.50896e-05
2.50492e-05
2.50087e-05
2.49686e-05
2.49286e-05
2.48886e-05
2.48489e-05
2.48094e-05
2.47703e-05
2.47317e-05
2.46936e-05
2.46561e-05
2.46192e-05
2.45831e-05
2.45476e-05
2.45128e-05
2.44786e-05
2.44447e-05
2.44112e-05
2.4378e-05
2.43448e-05
2.43119e-05
2.42793e-05
2.4247e-05
2.42152e-05
2.41841e-05
2.41536e-05
2.41236e-05
2.40942e-05
2.40651e-05
2.40361e-05
2.40071e-05
2.68748e-05
2.6881e-05
2.68874e-05
2.6894e-05
2.69007e-05
2.69074e-05
2.69143e-05
2.69212e-05
2.69281e-05
2.69349e-05
2.69416e-05
2.6948e-05
2.6954e-05
2.69595e-05
2.69646e-05
2.69692e-05
2.69732e-05
2.69767e-05
2.69796e-05
2.69819e-05
2.69834e-05
2.69839e-05
2.69836e-05
2.69825e-05
2.69803e-05
2.69771e-05
2.69728e-05
2.69673e-05
2.69608e-05
2.69531e-05
2.69443e-05
2.69344e-05
2.69233e-05
2.6911e-05
2.68975e-05
2.68827e-05
2.68667e-05
2.68493e-05
2.68308e-05
2.68108e-05
2.67896e-05
2.67674e-05
2.67441e-05
2.67191e-05
2.66931e-05
2.66669e-05
2.66392e-05
2.66096e-05
2.65799e-05
2.65504e-05
2.65186e-05
2.64851e-05
2.64531e-05
2.64202e-05
2.63846e-05
2.63488e-05
2.63147e-05
2.62783e-05
2.62398e-05
2.62028e-05
2.61663e-05
2.61265e-05
2.60869e-05
2.60488e-05
2.60092e-05
2.59685e-05
2.59288e-05
2.58887e-05
2.58473e-05
2.58059e-05
2.57649e-05
2.57234e-05
2.56804e-05
2.56373e-05
2.55948e-05
2.55527e-05
2.55105e-05
2.54682e-05
2.54259e-05
2.53841e-05
2.53426e-05
2.53014e-05
2.52603e-05
2.52192e-05
2.51784e-05
2.5138e-05
2.50977e-05
2.50576e-05
2.50177e-05
2.49781e-05
2.49389e-05
2.49001e-05
2.48618e-05
2.4824e-05
2.47867e-05
2.475e-05
2.47138e-05
2.46781e-05
2.46428e-05
2.46078e-05
2.45731e-05
2.45385e-05
2.45041e-05
2.44698e-05
2.44357e-05
2.44019e-05
2.43684e-05
2.43354e-05
2.43028e-05
2.42707e-05
2.4239e-05
2.42074e-05
2.4176e-05
2.41444e-05
2.41126e-05
2.40807e-05
2.70178e-05
2.70237e-05
2.70301e-05
2.70369e-05
2.7044e-05
2.70516e-05
2.70595e-05
2.70678e-05
2.70762e-05
2.70848e-05
2.70935e-05
2.71022e-05
2.71109e-05
2.71195e-05
2.71281e-05
2.71365e-05
2.71447e-05
2.71527e-05
2.71602e-05
2.71674e-05
2.7174e-05
2.718e-05
2.71854e-05
2.719e-05
2.71939e-05
2.7197e-05
2.71993e-05
2.72007e-05
2.72009e-05
2.72004e-05
2.71989e-05
2.71963e-05
2.71925e-05
2.71875e-05
2.71812e-05
2.71736e-05
2.71648e-05
2.71548e-05
2.71434e-05
2.71308e-05
2.71169e-05
2.71017e-05
2.70853e-05
2.70674e-05
2.70483e-05
2.70279e-05
2.70061e-05
2.6983e-05
2.69587e-05
2.69333e-05
2.69063e-05
2.68781e-05
2.68493e-05
2.68193e-05
2.67876e-05
2.6755e-05
2.67228e-05
2.66889e-05
2.6653e-05
2.66174e-05
2.65825e-05
2.65451e-05
2.6506e-05
2.64687e-05
2.64311e-05
2.63904e-05
2.63499e-05
2.63112e-05
2.62704e-05
2.62279e-05
2.61868e-05
2.61461e-05
2.61039e-05
2.60616e-05
2.60197e-05
2.59774e-05
2.59345e-05
2.58916e-05
2.58487e-05
2.58054e-05
2.57617e-05
2.57182e-05
2.5675e-05
2.56319e-05
2.5589e-05
2.55463e-05
2.55038e-05
2.54616e-05
2.54196e-05
2.53778e-05
2.53366e-05
2.52956e-05
2.52549e-05
2.52145e-05
2.51743e-05
2.51345e-05
2.50949e-05
2.50558e-05
2.50171e-05
2.49788e-05
2.49409e-05
2.49034e-05
2.48664e-05
2.48296e-05
2.47932e-05
2.4757e-05
2.47209e-05
2.4685e-05
2.46491e-05
2.46134e-05
2.45777e-05
2.45423e-05
2.45071e-05
2.44722e-05
2.44376e-05
2.44033e-05
2.43692e-05
2.43352e-05
2.43011e-05
2.42668e-05
2.42322e-05
2.41973e-05
2.41621e-05
2.72016e-05
2.72099e-05
2.72187e-05
2.72278e-05
2.72373e-05
2.7247e-05
2.7257e-05
2.72673e-05
2.72777e-05
2.72882e-05
2.72987e-05
2.73091e-05
2.73195e-05
2.73296e-05
2.73395e-05
2.73491e-05
2.73584e-05
2.73673e-05
2.73757e-05
2.73836e-05
2.73908e-05
2.73972e-05
2.74029e-05
2.74077e-05
2.74116e-05
2.74146e-05
2.74165e-05
2.74173e-05
2.7417e-05
2.74157e-05
2.74133e-05
2.74097e-05
2.74048e-05
2.73985e-05
2.73909e-05
2.7382e-05
2.73716e-05
2.73599e-05
2.73467e-05
2.73322e-05
2.73163e-05
2.7299e-05
2.72804e-05
2.72603e-05
2.7239e-05
2.72162e-05
2.71921e-05
2.71666e-05
2.714e-05
2.7112e-05
2.70827e-05
2.7052e-05
2.70205e-05
2.6988e-05
2.69538e-05
2.69184e-05
2.68832e-05
2.6847e-05
2.68087e-05
2.67695e-05
2.67319e-05
2.66926e-05
2.66508e-05
2.66096e-05
2.65699e-05
2.65276e-05
2.64837e-05
2.64416e-05
2.63996e-05
2.63551e-05
2.63109e-05
2.62678e-05
2.62242e-05
2.61799e-05
2.61357e-05
2.60917e-05
2.60474e-05
2.6003e-05
2.59586e-05
2.59142e-05
2.58697e-05
2.58253e-05
2.57811e-05
2.57372e-05
2.56936e-05
2.56501e-05
2.56069e-05
2.55639e-05
2.55213e-05
2.54793e-05
2.54376e-05
2.53963e-05
2.53553e-05
2.53146e-05
2.52742e-05
2.52342e-05
2.51945e-05
2.51551e-05
2.51161e-05
2.50774e-05
2.5039e-05
2.50009e-05
2.49631e-05
2.49254e-05
2.48879e-05
2.48505e-05
2.48131e-05
2.47758e-05
2.47385e-05
2.47012e-05
2.46641e-05
2.46271e-05
2.45904e-05
2.45537e-05
2.45172e-05
2.44807e-05
2.4444e-05
2.44072e-05
2.437e-05
2.43324e-05
2.42944e-05
2.42561e-05
2.42174e-05
2.73915e-05
2.74021e-05
2.74131e-05
2.74243e-05
2.74358e-05
2.74476e-05
2.74595e-05
2.74715e-05
2.74835e-05
2.74956e-05
2.75076e-05
2.75194e-05
2.75309e-05
2.75422e-05
2.75531e-05
2.75635e-05
2.75735e-05
2.75829e-05
2.75916e-05
2.75997e-05
2.76069e-05
2.76133e-05
2.76188e-05
2.76233e-05
2.76267e-05
2.7629e-05
2.763e-05
2.76297e-05
2.76285e-05
2.7626e-05
2.76221e-05
2.76169e-05
2.76103e-05
2.76023e-05
2.75929e-05
2.75819e-05
2.75695e-05
2.75556e-05
2.75403e-05
2.75234e-05
2.7505e-05
2.74852e-05
2.74639e-05
2.74412e-05
2.74171e-05
2.73915e-05
2.73646e-05
2.73363e-05
2.73068e-05
2.72759e-05
2.72438e-05
2.72102e-05
2.71757e-05
2.71403e-05
2.71034e-05
2.7065e-05
2.70264e-05
2.69876e-05
2.69468e-05
2.69043e-05
2.68633e-05
2.68218e-05
2.67777e-05
2.67327e-05
2.66899e-05
2.66459e-05
2.65993e-05
2.65535e-05
2.65092e-05
2.64633e-05
2.64165e-05
2.63706e-05
2.63249e-05
2.62789e-05
2.62328e-05
2.61867e-05
2.61408e-05
2.60949e-05
2.60491e-05
2.60034e-05
2.59579e-05
2.59125e-05
2.58675e-05
2.58227e-05
2.57782e-05
2.5734e-05
2.56899e-05
2.56463e-05
2.56032e-05
2.55607e-05
2.55186e-05
2.54768e-05
2.54353e-05
2.53941e-05
2.53533e-05
2.53128e-05
2.52726e-05
2.52327e-05
2.51931e-05
2.51537e-05
2.51145e-05
2.50754e-05
2.50365e-05
2.49977e-05
2.49589e-05
2.49201e-05
2.48812e-05
2.48423e-05
2.48034e-05
2.47645e-05
2.47257e-05
2.46869e-05
2.46481e-05
2.46093e-05
2.45704e-05
2.45313e-05
2.44917e-05
2.44516e-05
2.4411e-05
2.43698e-05
2.43281e-05
2.42861e-05
2.42438e-05
2.7586e-05
2.75987e-05
2.76115e-05
2.76247e-05
2.76379e-05
2.76513e-05
2.76648e-05
2.76782e-05
2.76916e-05
2.77048e-05
2.77178e-05
2.77305e-05
2.77428e-05
2.77547e-05
2.77661e-05
2.77769e-05
2.7787e-05
2.77964e-05
2.78049e-05
2.78127e-05
2.78194e-05
2.78252e-05
2.78299e-05
2.78334e-05
2.78357e-05
2.78367e-05
2.78363e-05
2.78348e-05
2.78318e-05
2.78275e-05
2.78216e-05
2.78143e-05
2.78055e-05
2.77952e-05
2.77833e-05
2.77698e-05
2.77548e-05
2.77382e-05
2.772e-05
2.77003e-05
2.7679e-05
2.76562e-05
2.76318e-05
2.76059e-05
2.75786e-05
2.75498e-05
2.75196e-05
2.74881e-05
2.74552e-05
2.7421e-05
2.73856e-05
2.73488e-05
2.73109e-05
2.72722e-05
2.72322e-05
2.71906e-05
2.71484e-05
2.71067e-05
2.7063e-05
2.70174e-05
2.69726e-05
2.69286e-05
2.68819e-05
2.68336e-05
2.67872e-05
2.67411e-05
2.66923e-05
2.66431e-05
2.65957e-05
2.65481e-05
2.64994e-05
2.64509e-05
2.64029e-05
2.6355e-05
2.6307e-05
2.62592e-05
2.62116e-05
2.61642e-05
2.61169e-05
2.607e-05
2.60234e-05
2.5977e-05
2.59311e-05
2.58854e-05
2.58401e-05
2.57949e-05
2.57501e-05
2.5706e-05
2.56625e-05
2.56194e-05
2.55766e-05
2.55342e-05
2.54921e-05
2.54504e-05
2.54089e-05
2.53678e-05
2.53269e-05
2.52862e-05
2.52457e-05
2.52053e-05
2.51651e-05
2.5125e-05
2.50848e-05
2.50447e-05
2.50046e-05
2.49643e-05
2.4924e-05
2.48834e-05
2.48428e-05
2.48021e-05
2.47613e-05
2.47203e-05
2.46791e-05
2.46377e-05
2.45961e-05
2.45541e-05
2.45117e-05
2.44687e-05
2.44251e-05
2.43808e-05
2.43359e-05
2.42906e-05
2.42451e-05
2.41996e-05
2.41541e-05
2.77835e-05
2.77978e-05
2.78123e-05
2.78269e-05
2.78416e-05
2.78562e-05
2.78708e-05
2.78852e-05
2.78994e-05
2.79133e-05
2.79268e-05
2.79399e-05
2.79525e-05
2.79645e-05
2.79758e-05
2.79863e-05
2.7996e-05
2.80048e-05
2.80127e-05
2.80195e-05
2.80251e-05
2.80297e-05
2.80329e-05
2.80349e-05
2.80353e-05
2.80346e-05
2.80324e-05
2.80287e-05
2.80235e-05
2.80167e-05
2.80083e-05
2.79983e-05
2.79867e-05
2.79735e-05
2.79586e-05
2.79421e-05
2.79239e-05
2.79041e-05
2.78826e-05
2.78594e-05
2.78347e-05
2.78083e-05
2.77804e-05
2.77509e-05
2.772e-05
2.76875e-05
2.76537e-05
2.76184e-05
2.75818e-05
2.75439e-05
2.75047e-05
2.74643e-05
2.74227e-05
2.73804e-05
2.7337e-05
2.7292e-05
2.7246e-05
2.72008e-05
2.71541e-05
2.71053e-05
2.70567e-05
2.70097e-05
2.69604e-05
2.69091e-05
2.68591e-05
2.68103e-05
2.67593e-05
2.67074e-05
2.66569e-05
2.66069e-05
2.65564e-05
2.65057e-05
2.64555e-05
2.64057e-05
2.63561e-05
2.63067e-05
2.62576e-05
2.62088e-05
2.61603e-05
2.61122e-05
2.60646e-05
2.60173e-05
2.59705e-05
2.5924e-05
2.58778e-05
2.58319e-05
2.57867e-05
2.57421e-05
2.5698e-05
2.56543e-05
2.56109e-05
2.55679e-05
2.55252e-05
2.54828e-05
2.54407e-05
2.53988e-05
2.53571e-05
2.53155e-05
2.52741e-05
2.52327e-05
2.51914e-05
2.515e-05
2.51086e-05
2.50672e-05
2.50256e-05
2.4984e-05
2.49422e-05
2.49003e-05
2.48581e-05
2.48158e-05
2.47731e-05
2.47301e-05
2.46867e-05
2.46429e-05
2.45987e-05
2.4554e-05
2.4509e-05
2.44634e-05
2.44171e-05
2.43702e-05
2.43227e-05
2.42748e-05
2.42265e-05
2.41778e-05
2.41288e-05
2.7982e-05
2.79976e-05
2.80133e-05
2.80289e-05
2.80445e-05
2.80599e-05
2.80751e-05
2.809e-05
2.81045e-05
2.81185e-05
2.81321e-05
2.8145e-05
2.81572e-05
2.81687e-05
2.81793e-05
2.8189e-05
2.81977e-05
2.82053e-05
2.82117e-05
2.8217e-05
2.82209e-05
2.82235e-05
2.82247e-05
2.82244e-05
2.82228e-05
2.82196e-05
2.82148e-05
2.82084e-05
2.82003e-05
2.81905e-05
2.8179e-05
2.81658e-05
2.81508e-05
2.81341e-05
2.81157e-05
2.80955e-05
2.80736e-05
2.805e-05
2.80247e-05
2.79977e-05
2.7969e-05
2.79387e-05
2.79068e-05
2.78733e-05
2.78382e-05
2.78017e-05
2.77638e-05
2.77244e-05
2.76837e-05
2.76418e-05
2.75986e-05
2.75542e-05
2.75086e-05
2.74624e-05
2.74153e-05
2.73666e-05
2.73168e-05
2.72679e-05
2.72178e-05
2.71657e-05
2.71136e-05
2.70633e-05
2.70112e-05
2.69571e-05
2.69041e-05
2.68522e-05
2.67989e-05
2.6745e-05
2.66917e-05
2.66391e-05
2.65866e-05
2.65342e-05
2.64821e-05
2.64304e-05
2.63793e-05
2.63285e-05