/*--------------------------------*- C++ -*----------------------------------*\
| =========                 |                                                 |
| \\      /  F ield         | OpenFOAM: The Open Source CFD Toolbox           |
|  \\    /   O peration     | Version:  v1706                                 |
|   \\  /    A nd           | Web:      www.OpenFOAM.com                      |
|    \\/     M anipulation  |                                                 |
\*---------------------------------------------------------------------------*/
FoamFile
{
    version     2.0;
    format      ascii;
    class       volScalarField;
    location    "3.2e-05";
    object      kappave;
}
// * * * * * * * * * * * * * * * * * * * * * * * * * * * * * * * * * * * * * //

dimensions      [1 1 -3 -1 0 0 0];


internalField   nonuniform List<scalar> 
29871
(
1.51362e-10
1.51931e-10
1.52533e-10
1.53169e-10
1.53849e-10
1.54591e-10
1.55405e-10
1.56286e-10
1.57222e-10
1.58202e-10
1.59215e-10
1.60254e-10
1.61311e-10
1.62376e-10
1.63442e-10
1.64499e-10
1.65538e-10
1.66554e-10
1.67543e-10
1.68526e-10
1.69632e-10
1.70964e-10
1.72461e-10
1.74051e-10
1.75674e-10
1.77287e-10
1.78858e-10
1.80365e-10
1.81791e-10
1.83126e-10
1.84365e-10
1.85507e-10
1.86553e-10
1.87507e-10
1.88372e-10
1.89154e-10
1.89857e-10
1.90486e-10
1.91043e-10
1.91531e-10
1.91952e-10
1.92307e-10
1.926e-10
1.9283e-10
1.93004e-10
1.93121e-10
1.93171e-10
1.93155e-10
1.93098e-10
1.92998e-10
1.92841e-10
1.92633e-10
1.92395e-10
1.92115e-10
1.918e-10
1.91457e-10
1.91074e-10
1.90643e-10
1.90168e-10
1.89645e-10
1.89069e-10
1.88442e-10
1.87767e-10
1.8704e-10
1.86261e-10
1.85428e-10
1.84541e-10
1.83598e-10
1.82597e-10
1.81537e-10
1.80417e-10
1.79234e-10
1.77986e-10
1.76673e-10
1.75293e-10
1.73846e-10
1.72328e-10
1.70742e-10
1.69096e-10
1.67421e-10
1.65793e-10
1.64416e-10
1.63371e-10
1.62443e-10
1.61528e-10
1.60598e-10
1.5965e-10
1.58689e-10
1.57719e-10
1.56747e-10
1.55776e-10
1.5481e-10
1.53864e-10
1.52973e-10
1.52168e-10
1.51461e-10
1.50857e-10
1.50325e-10
1.49832e-10
1.49363e-10
1.48916e-10
1.48497e-10
1.48112e-10
1.47773e-10
1.47489e-10
1.74249e-10
1.76653e-10
1.79097e-10
1.81574e-10
1.8411e-10
1.86897e-10
1.89963e-10
1.93249e-10
1.96678e-10
2.00171e-10
2.03654e-10
2.07062e-10
2.10341e-10
2.13454e-10
2.16372e-10
2.19076e-10
2.21559e-10
2.23817e-10
2.25857e-10
2.27687e-10
2.29302e-10
2.30694e-10
2.3188e-10
2.32878e-10
2.33705e-10
2.34381e-10
2.34922e-10
2.35341e-10
2.35652e-10
2.35872e-10
2.3602e-10
2.36113e-10
2.36165e-10
2.36188e-10
2.36181e-10
2.36162e-10
2.36132e-10
2.36095e-10
2.3605e-10
2.35994e-10
2.35925e-10
2.35842e-10
2.35746e-10
2.35635e-10
2.35508e-10
2.35365e-10
2.352e-10
2.35014e-10
2.34811e-10
2.34598e-10
2.34371e-10
2.34153e-10
2.33905e-10
2.33622e-10
2.33334e-10
2.33041e-10
2.3274e-10
2.32426e-10
2.32103e-10
2.3176e-10
2.31398e-10
2.31023e-10
2.30635e-10
2.30233e-10
2.29816e-10
2.29385e-10
2.28943e-10
2.28488e-10
2.28024e-10
2.27551e-10
2.27069e-10
2.26579e-10
2.26083e-10
2.25579e-10
2.25064e-10
2.24527e-10
2.23952e-10
2.23317e-10
2.22593e-10
2.21735e-10
2.20679e-10
2.19346e-10
2.17733e-10
2.15891e-10
2.13842e-10
2.11582e-10
2.09099e-10
2.06381e-10
2.03426e-10
2.00235e-10
1.96814e-10
1.93176e-10
1.89345e-10
1.85372e-10
1.81386e-10
1.77627e-10
1.74468e-10
1.71773e-10
1.69283e-10
1.66869e-10
1.64499e-10
1.62195e-10
1.60022e-10
1.58052e-10
1.56334e-10
2.12207e-10
2.1647e-10
2.20543e-10
2.24372e-10
2.2792e-10
2.31161e-10
2.34049e-10
2.36591e-10
2.38813e-10
2.40745e-10
2.42421e-10
2.43876e-10
2.4514e-10
2.46236e-10
2.4718e-10
2.47983e-10
2.48651e-10
2.49185e-10
2.49593e-10
2.49894e-10
2.50111e-10
2.50264e-10
2.50369e-10
2.50434e-10
2.50461e-10
2.50448e-10
2.50412e-10
2.5034e-10
2.50229e-10
2.5008e-10
2.49897e-10
2.49683e-10
2.49442e-10
2.49181e-10
2.48905e-10
2.48618e-10
2.48325e-10
2.4803e-10
2.47735e-10
2.47441e-10
2.4715e-10
2.46862e-10
2.46576e-10
2.46293e-10
2.46012e-10
2.45733e-10
2.45454e-10
2.4517e-10
2.44885e-10
2.44602e-10
2.44324e-10
2.4404e-10
2.43764e-10
2.43497e-10
2.43254e-10
2.42977e-10
2.42648e-10
2.42353e-10
2.42084e-10
2.41786e-10
2.41478e-10
2.41193e-10
2.40914e-10
2.40632e-10
2.40352e-10
2.40079e-10
2.39814e-10
2.39559e-10
2.39315e-10
2.39085e-10
2.38869e-10
2.38669e-10
2.38484e-10
2.3831e-10
2.38148e-10
2.37995e-10
2.37841e-10
2.37674e-10
2.37482e-10
2.37253e-10
2.36972e-10
2.36622e-10
2.36196e-10
2.35698e-10
2.35134e-10
2.34505e-10
2.33809e-10
2.33047e-10
2.32217e-10
2.31315e-10
2.30329e-10
2.29234e-10
2.27992e-10
2.26543e-10
2.24818e-10
2.22745e-10
2.20239e-10
2.1723e-10
2.13751e-10
2.09865e-10
2.05605e-10
2.00992e-10
1.96063e-10
1.90898e-10
1.85669e-10
1.80705e-10
2.48267e-10
2.49875e-10
2.5124e-10
2.52389e-10
2.53346e-10
2.5413e-10
2.54754e-10
2.55234e-10
2.55585e-10
2.55831e-10
2.56001e-10
2.56125e-10
2.56225e-10
2.56313e-10
2.56395e-10
2.56471e-10
2.56535e-10
2.56568e-10
2.56559e-10
2.56521e-10
2.5645e-10
2.56356e-10
2.56243e-10
2.56117e-10
2.5598e-10
2.55835e-10
2.55687e-10
2.55542e-10
2.55405e-10
2.55273e-10
2.55137e-10
2.54994e-10
2.54836e-10
2.54659e-10
2.54461e-10
2.54241e-10
2.54e-10
2.53744e-10
2.53474e-10
2.53194e-10
2.52907e-10
2.52614e-10
2.52318e-10
2.52018e-10
2.51716e-10
2.51416e-10
2.51116e-10
2.50808e-10
2.50495e-10
2.50186e-10
2.49882e-10
2.49574e-10
2.49277e-10
2.48994e-10
2.48732e-10
2.48434e-10
2.48074e-10
2.47756e-10
2.47465e-10
2.47143e-10
2.46805e-10
2.46493e-10
2.46188e-10
2.4588e-10
2.45574e-10
2.45274e-10
2.44979e-10
2.44692e-10
2.44411e-10
2.44137e-10
2.4387e-10
2.43611e-10
2.43358e-10
2.4311e-10
2.42859e-10
2.42601e-10
2.42333e-10
2.42053e-10
2.41763e-10
2.41464e-10
2.41151e-10
2.40829e-10
2.40506e-10
2.40184e-10
2.39862e-10
2.39543e-10
2.39228e-10
2.38914e-10
2.38589e-10
2.38249e-10
2.3789e-10
2.37499e-10
2.37055e-10
2.36548e-10
2.35973e-10
2.35323e-10
2.34596e-10
2.33798e-10
2.32933e-10
2.31982e-10
2.30905e-10
2.29639e-10
2.28088e-10
2.2613e-10
2.23649e-10
2.2054e-10
2.59328e-10
2.59612e-10
2.59828e-10
2.60001e-10
2.60145e-10
2.60266e-10
2.60369e-10
2.6045e-10
2.60496e-10
2.60494e-10
2.60458e-10
2.60387e-10
2.60292e-10
2.60183e-10
2.60072e-10
2.59968e-10
2.59878e-10
2.59814e-10
2.59784e-10
2.59783e-10
2.59789e-10
2.59783e-10
2.59753e-10
2.59694e-10
2.59608e-10
2.59498e-10
2.59371e-10
2.59231e-10
2.59088e-10
2.58947e-10
2.5881e-10
2.58673e-10
2.58534e-10
2.5839e-10
2.58238e-10
2.58075e-10
2.57897e-10
2.57702e-10
2.5749e-10
2.57261e-10
2.57016e-10
2.56754e-10
2.56484e-10
2.56202e-10
2.55906e-10
2.55603e-10
2.55298e-10
2.54985e-10
2.54661e-10
2.54332e-10
2.54007e-10
2.53678e-10
2.53335e-10
2.53014e-10
2.52709e-10
2.52429e-10
2.52094e-10
2.51702e-10
2.51365e-10
2.51056e-10
2.50718e-10
2.50345e-10
2.49993e-10
2.49656e-10
2.49324e-10
2.48993e-10
2.48659e-10
2.48331e-10
2.4801e-10
2.47691e-10
2.4737e-10
2.47049e-10
2.46728e-10
2.46408e-10
2.46085e-10
2.45764e-10
2.45439e-10
2.45104e-10
2.44766e-10
2.44432e-10
2.44099e-10
2.43759e-10
2.43423e-10
2.43097e-10
2.42777e-10
2.42458e-10
2.42143e-10
2.41838e-10
2.41534e-10
2.41224e-10
2.40911e-10
2.40578e-10
2.40216e-10
2.39827e-10
2.39453e-10
2.391e-10
2.38751e-10
2.38426e-10
2.38127e-10
2.37833e-10
2.37526e-10
2.37188e-10
2.36801e-10
2.36347e-10
2.35803e-10
2.35159e-10
2.34428e-10
2.63292e-10
2.6329e-10
2.6326e-10
2.63213e-10
2.63158e-10
2.63104e-10
2.63059e-10
2.63023e-10
2.63001e-10
2.62999e-10
2.63005e-10
2.63002e-10
2.62974e-10
2.62922e-10
2.62852e-10
2.62769e-10
2.62681e-10
2.62602e-10
2.62553e-10
2.62529e-10
2.6253e-10
2.62545e-10
2.62561e-10
2.62565e-10
2.62553e-10
2.6252e-10
2.62466e-10
2.62395e-10
2.62306e-10
2.62203e-10
2.62098e-10
2.61993e-10
2.6189e-10
2.61788e-10
2.61683e-10
2.61572e-10
2.61452e-10
2.6132e-10
2.61172e-10
2.6101e-10
2.6083e-10
2.60627e-10
2.60408e-10
2.60175e-10
2.59918e-10
2.59642e-10
2.59358e-10
2.59061e-10
2.58737e-10
2.58402e-10
2.58068e-10
2.57726e-10
2.57347e-10
2.5699e-10
2.56645e-10
2.56324e-10
2.55922e-10
2.55477e-10
2.55088e-10
2.54709e-10
2.54322e-10
2.53863e-10
2.53406e-10
2.52987e-10
2.52587e-10
2.52182e-10
2.5175e-10
2.51332e-10
2.50933e-10
2.50522e-10
2.50099e-10
2.4968e-10
2.49261e-10
2.48838e-10
2.48418e-10
2.48012e-10
2.47603e-10
2.47185e-10
2.46784e-10
2.46412e-10
2.4604e-10
2.45661e-10
2.45309e-10
2.44981e-10
2.4465e-10
2.44316e-10
2.43998e-10
2.43682e-10
2.43357e-10
2.43028e-10
2.42709e-10
2.4238e-10
2.4203e-10
2.41668e-10
2.41339e-10
2.41032e-10
2.40732e-10
2.40449e-10
2.40179e-10
2.39905e-10
2.39613e-10
2.3931e-10
2.39005e-10
2.38708e-10
2.38479e-10
2.38307e-10
2.38071e-10
2.65533e-10
2.65525e-10
2.65535e-10
2.65558e-10
2.65591e-10
2.65616e-10
2.65626e-10
2.65618e-10
2.65597e-10
2.65577e-10
2.6556e-10
2.65557e-10
2.65584e-10
2.65637e-10
2.65703e-10
2.65771e-10
2.65833e-10
2.65885e-10
2.65926e-10
2.65958e-10
2.65985e-10
2.66015e-10
2.66064e-10
2.66141e-10
2.66244e-10
2.66367e-10
2.66501e-10
2.66636e-10
2.66766e-10
2.66882e-10
2.66982e-10
2.67063e-10
2.67122e-10
2.67162e-10
2.67187e-10
2.67199e-10
2.67201e-10
2.67194e-10
2.67171e-10
2.67135e-10
2.67086e-10
2.67012e-10
2.66917e-10
2.66804e-10
2.66659e-10
2.66486e-10
2.6629e-10
2.66061e-10
2.65795e-10
2.65511e-10
2.65209e-10
2.6486e-10
2.64484e-10
2.64101e-10
2.63708e-10
2.63247e-10
2.62799e-10
2.62359e-10
2.61934e-10
2.61406e-10
2.60842e-10
2.60331e-10
2.59817e-10
2.59297e-10
2.58675e-10
2.58046e-10
2.57472e-10
2.56919e-10
2.5636e-10
2.5576e-10
2.55184e-10
2.54634e-10
2.54072e-10
2.53485e-10
2.52913e-10
2.52345e-10
2.51772e-10
2.51221e-10
2.50696e-10
2.50165e-10
2.49628e-10
2.4913e-10
2.48663e-10
2.48199e-10
2.47733e-10
2.473e-10
2.46898e-10
2.4649e-10
2.46089e-10
2.45706e-10
2.45334e-10
2.44945e-10
2.44568e-10
2.44203e-10
2.43839e-10
2.43472e-10
2.43118e-10
2.42783e-10
2.42472e-10
2.42183e-10
2.41906e-10
2.41631e-10
2.41355e-10
2.41079e-10
2.40801e-10
2.40521e-10
2.40271e-10
2.40085e-10
2.39931e-10
2.3975e-10
2.68034e-10
2.68062e-10
2.6811e-10
2.68185e-10
2.68294e-10
2.68422e-10
2.68557e-10
2.68694e-10
2.68835e-10
2.68976e-10
2.69123e-10
2.69283e-10
2.69465e-10
2.69678e-10
2.69926e-10
2.70205e-10
2.70508e-10
2.70824e-10
2.71149e-10
2.71475e-10
2.71806e-10
2.72136e-10
2.72474e-10
2.72827e-10
2.73202e-10
2.736e-10
2.74017e-10
2.74448e-10
2.74883e-10
2.75316e-10
2.75739e-10
2.76144e-10
2.76524e-10
2.76875e-10
2.77198e-10
2.77482e-10
2.77733e-10
2.77959e-10
2.78143e-10
2.78288e-10
2.78405e-10
2.78476e-10
2.78497e-10
2.78484e-10
2.78422e-10
2.78299e-10
2.78127e-10
2.77907e-10
2.77616e-10
2.77281e-10
2.76913e-10
2.76472e-10
2.75966e-10
2.75435e-10
2.7488e-10
2.74223e-10
2.73548e-10
2.7287e-10
2.72182e-10
2.71375e-10
2.70526e-10
2.69718e-10
2.68891e-10
2.68045e-10
2.67077e-10
2.66099e-10
2.65185e-10
2.64288e-10
2.63382e-10
2.62431e-10
2.61517e-10
2.60638e-10
2.59768e-10
2.58861e-10
2.57968e-10
2.57106e-10
2.56255e-10
2.55444e-10
2.54669e-10
2.53912e-10
2.53161e-10
2.52456e-10
2.51792e-10
2.51155e-10
2.50531e-10
2.49939e-10
2.49381e-10
2.48843e-10
2.48319e-10
2.47816e-10
2.47331e-10
2.46852e-10
2.46385e-10
2.45932e-10
2.45491e-10
2.45062e-10
2.4465e-10
2.44261e-10
2.43899e-10
2.43561e-10
2.43245e-10
2.42937e-10
2.42635e-10
2.42345e-10
2.42062e-10
2.41788e-10
2.41545e-10
2.41345e-10
2.41174e-10
2.41007e-10
2.71654e-10
2.71885e-10
2.72142e-10
2.72434e-10
2.72772e-10
2.73161e-10
2.73595e-10
2.74067e-10
2.74575e-10
2.75113e-10
2.75679e-10
2.76274e-10
2.76903e-10
2.77573e-10
2.78291e-10
2.79062e-10
2.79885e-10
2.80752e-10
2.81659e-10
2.82598e-10
2.83562e-10
2.84547e-10
2.85548e-10
2.86565e-10
2.87602e-10
2.88659e-10
2.89736e-10
2.90827e-10
2.91928e-10
2.93029e-10
2.94118e-10
2.95188e-10
2.96225e-10
2.97214e-10
2.98157e-10
2.99036e-10
2.99836e-10
3.00575e-10
3.01234e-10
3.0179e-10
3.02273e-10
3.02671e-10
3.02947e-10
3.03136e-10
3.0324e-10
3.03213e-10
3.0306e-10
3.02813e-10
3.02446e-10
3.01965e-10
3.01402e-10
3.00725e-10
2.99906e-10
2.99014e-10
2.98053e-10
2.96941e-10
2.95752e-10
2.94519e-10
2.93233e-10
2.918e-10
2.90296e-10
2.88806e-10
2.87262e-10
2.85675e-10
2.83944e-10
2.82209e-10
2.80541e-10
2.7888e-10
2.77207e-10
2.75487e-10
2.73834e-10
2.72238e-10
2.70671e-10
2.69082e-10
2.67496e-10
2.65989e-10
2.64545e-10
2.63157e-10
2.61828e-10
2.60558e-10
2.59336e-10
2.58173e-10
2.57076e-10
2.56038e-10
2.5505e-10
2.54113e-10
2.5323e-10
2.52397e-10
2.51607e-10
2.50857e-10
2.50145e-10
2.49465e-10
2.48816e-10
2.48199e-10
2.47613e-10
2.47058e-10
2.46536e-10
2.46046e-10
2.45597e-10
2.45184e-10
2.44797e-10
2.44429e-10
2.44076e-10
2.4374e-10
2.43418e-10
2.43116e-10
2.42844e-10
2.42606e-10
2.42396e-10
2.42202e-10
2.78329e-10
2.79071e-10
2.7987e-10
2.80731e-10
2.81665e-10
2.82682e-10
2.83788e-10
2.84983e-10
2.86266e-10
2.87634e-10
2.89084e-10
2.90613e-10
2.92222e-10
2.93912e-10
2.95689e-10
2.97558e-10
2.99519e-10
3.01573e-10
3.03714e-10
3.05934e-10
3.08224e-10
3.10574e-10
3.12973e-10
3.15412e-10
3.17883e-10
3.20379e-10
3.22895e-10
3.2542e-10
3.27946e-10
3.3046e-10
3.32941e-10
3.35381e-10
3.37759e-10
3.40045e-10
3.42234e-10
3.44309e-10
3.46226e-10
3.47999e-10
3.49618e-10
3.51027e-10
3.52254e-10
3.53302e-10
3.54109e-10
3.54702e-10
3.55108e-10
3.55269e-10
3.55113e-10
3.54772e-10
3.54223e-10
3.53413e-10
3.52404e-10
3.51186e-10
3.49693e-10
3.48013e-10
3.46163e-10
3.44071e-10
3.41785e-10
3.39371e-10
3.3682e-10
3.3405e-10
3.31146e-10
3.282e-10
3.25134e-10
3.21971e-10
3.18631e-10
3.15303e-10
3.12037e-10
3.08757e-10
3.05458e-10
3.02121e-10
2.98907e-10
2.95792e-10
2.92728e-10
2.89681e-10
2.86655e-10
2.83782e-10
2.81044e-10
2.7842e-10
2.7591e-10
2.73519e-10
2.71246e-10
2.69092e-10
2.67061e-10
2.6515e-10
2.63353e-10
2.61666e-10
2.60089e-10
2.58617e-10
2.57244e-10
2.55963e-10
2.54769e-10
2.53656e-10
2.5262e-10
2.51658e-10
2.50768e-10
2.49944e-10
2.4919e-10
2.48502e-10
2.47875e-10
2.47304e-10
2.4678e-10
2.46296e-10
2.45844e-10
2.45423e-10
2.4503e-10
2.44668e-10
2.4434e-10
2.44046e-10
2.4378e-10
2.43533e-10
2.91847e-10
2.93657e-10
2.956e-10
2.97681e-10
2.99908e-10
3.02293e-10
3.04846e-10
3.07576e-10
3.10487e-10
3.13583e-10
3.16861e-10
3.20319e-10
3.23956e-10
3.27769e-10
3.31757e-10
3.35921e-10
3.40259e-10
3.44769e-10
3.49443e-10
3.54273e-10
3.59243e-10
3.64336e-10
3.69532e-10
3.7481e-10
3.80148e-10
3.85523e-10
3.90914e-10
3.96299e-10
4.01655e-10
4.06957e-10
4.12173e-10
4.17276e-10
4.2224e-10
4.27015e-10
4.31575e-10
4.35902e-10
4.3993e-10
4.43641e-10
4.47033e-10
4.50035e-10
4.52634e-10
4.54852e-10
4.56625e-10
4.57933e-10
4.58834e-10
4.59267e-10
4.59012e-10
4.5843e-10
4.57438e-10
4.55931e-10
4.53984e-10
4.51622e-10
4.48765e-10
4.45483e-10
4.41837e-10
4.37774e-10
4.33304e-10
4.28538e-10
4.23479e-10
4.18056e-10
4.12368e-10
4.0653e-10
4.0045e-10
3.94178e-10
3.87667e-10
3.81185e-10
3.74739e-10
3.68243e-10
3.61709e-10
3.55172e-10
3.48851e-10
3.42689e-10
3.36624e-10
3.3065e-10
3.24766e-10
3.19158e-10
3.13802e-10
3.08671e-10
3.03766e-10
2.99095e-10
2.94664e-10
2.90476e-10
2.8653e-10
2.82826e-10
2.79358e-10
2.76122e-10
2.73113e-10
2.70322e-10
2.67742e-10
2.65361e-10
2.6317e-10
2.61159e-10
2.59317e-10
2.57635e-10
2.5611e-10
2.54729e-10
2.53483e-10
2.52363e-10
2.51359e-10
2.50458e-10
2.49648e-10
2.48916e-10
2.48253e-10
2.47651e-10
2.47104e-10
2.46611e-10
2.46168e-10
2.4577e-10
2.45411e-10
2.45083e-10
3.1566e-10
3.19368e-10
3.23349e-10
3.27612e-10
3.32168e-10
3.37027e-10
3.422e-10
3.47701e-10
3.53543e-10
3.59736e-10
3.66287e-10
3.73198e-10
3.80469e-10
3.88094e-10
3.96068e-10
4.04382e-10
4.13026e-10
4.21989e-10
4.31259e-10
4.40819e-10
4.50648e-10
4.60721e-10
4.71005e-10
4.81464e-10
4.92055e-10
5.02735e-10
5.13455e-10
5.24168e-10
5.34823e-10
5.45372e-10
5.55763e-10
5.65941e-10
5.7585e-10
5.85439e-10
5.94642e-10
6.03392e-10
6.11653e-10
6.19349e-10
6.26407e-10
6.32819e-10
6.3851e-10
6.43409e-10
6.47539e-10
6.50849e-10
6.53268e-10
6.54862e-10
6.55478e-10
6.54911e-10
6.53708e-10
6.51716e-10
6.48788e-10
6.44961e-10
6.40336e-10
6.34854e-10
6.28517e-10
6.21461e-10
6.13685e-10
6.05134e-10
5.95972e-10
5.86252e-10
5.75913e-10
5.65051e-10
5.53845e-10
5.42204e-10
5.3021e-10
5.17867e-10
5.05538e-10
4.93189e-10
4.80727e-10
4.68199e-10
4.5574e-10
4.43636e-10
4.31777e-10
4.20109e-10
4.08634e-10
3.97419e-10
3.86688e-10
3.76402e-10
3.66534e-10
3.57089e-10
3.48085e-10
3.39534e-10
3.31446e-10
3.23823e-10
3.16667e-10
3.09971e-10
3.03732e-10
2.97938e-10
2.92579e-10
2.87639e-10
2.83103e-10
2.78949e-10
2.75163e-10
2.71726e-10
2.68614e-10
2.65811e-10
2.63296e-10
2.61046e-10
2.59042e-10
2.5726e-10
2.55679e-10
2.54276e-10
2.5303e-10
2.51923e-10
2.5094e-10
2.50068e-10
2.49296e-10
2.48614e-10
2.48012e-10
2.47477e-10
2.47e-10
3.66483e-10
3.74159e-10
3.82368e-10
3.91131e-10
4.00465e-10
4.10385e-10
4.20907e-10
4.32047e-10
4.43818e-10
4.56234e-10
4.69302e-10
4.83027e-10
4.97404e-10
5.12425e-10
5.28074e-10
5.44328e-10
5.61161e-10
5.78541e-10
5.96434e-10
6.148e-10
6.33593e-10
6.52761e-10
6.72242e-10
6.91969e-10
7.11867e-10
7.3185e-10
7.51832e-10
7.71719e-10
7.91415e-10
8.10826e-10
8.29854e-10
8.48398e-10
8.66357e-10
8.83642e-10
9.00146e-10
9.15755e-10
9.30393e-10
9.4397e-10
9.56348e-10
9.67486e-10
9.7731e-10
9.85701e-10
9.92634e-10
9.98083e-10
1.00197e-09
1.00426e-09
1.0045e-09
1.00322e-09
1.00058e-09
9.96442e-10
9.90702e-10
9.83317e-10
9.7446e-10
9.64163e-10
9.52338e-10
9.39162e-10
9.24752e-10
9.09023e-10
8.92121e-10
8.74214e-10
8.55312e-10
8.35429e-10
8.14861e-10
7.93581e-10
7.71709e-10
7.49282e-10
7.26784e-10
7.04167e-10
6.81362e-10
6.58456e-10
6.35728e-10
6.13537e-10
5.91727e-10
5.70266e-10
5.49164e-10
5.28636e-10
5.08909e-10
4.8994e-10
4.71705e-10
4.5422e-10
4.37515e-10
4.21619e-10
4.06551e-10
3.92325e-10
3.78947e-10
3.66414e-10
3.54721e-10
3.43854e-10
3.33793e-10
3.24519e-10
3.16005e-10
3.08216e-10
3.0112e-10
2.94684e-10
2.8887e-10
2.8364e-10
2.78954e-10
2.74772e-10
2.71054e-10
2.67757e-10
2.64842e-10
2.62271e-10
2.60007e-10
2.58017e-10
2.56272e-10
2.54745e-10
2.53413e-10
2.52253e-10
2.51243e-10
2.50363e-10
2.49594e-10
2.4892e-10
2.48326e-10
4.64212e-10
4.79248e-10
4.9526e-10
5.12278e-10
5.30332e-10
5.49446e-10
5.69638e-10
5.90926e-10
6.13322e-10
6.36834e-10
6.61467e-10
6.87214e-10
7.14064e-10
7.41991e-10
7.70961e-10
8.00927e-10
8.31831e-10
8.63606e-10
8.96169e-10
9.29441e-10
9.6333e-10
9.9773e-10
1.03253e-09
1.0676e-09
1.10281e-09
1.13801e-09
1.17306e-09
1.20778e-09
1.24201e-09
1.27559e-09
1.30834e-09
1.34008e-09
1.37066e-09
1.3999e-09
1.42765e-09
1.45372e-09
1.47798e-09
1.50031e-09
1.52049e-09
1.53843e-09
1.55406e-09
1.56722e-09
1.57778e-09
1.58576e-09
1.59113e-09
1.59343e-09
1.59225e-09
1.58914e-09
1.5834e-09
1.575e-09
1.56394e-09
1.55015e-09
1.53377e-09
1.51501e-09
1.49379e-09
1.47019e-09
1.4445e-09
1.41676e-09
1.38695e-09
1.3554e-09
1.3223e-09
1.28757e-09
1.25155e-09
1.21444e-09
1.17642e-09
1.1375e-09
1.0983e-09
1.05885e-09
1.01914e-09
9.79282e-10
9.3977e-10
9.01003e-10
8.62836e-10
8.25255e-10
7.88408e-10
7.52556e-10
7.17944e-10
6.84582e-10
6.52462e-10
6.21607e-10
5.92065e-10
5.63888e-10
5.37115e-10
5.11777e-10
4.87892e-10
4.65463e-10
4.44488e-10
4.24951e-10
4.06823e-10
3.9007e-10
3.74652e-10
3.6052e-10
3.47619e-10
3.35892e-10
3.25276e-10
3.15706e-10
3.07113e-10
2.99429e-10
2.92584e-10
2.86507e-10
2.81132e-10
2.76392e-10
2.72226e-10
2.68577e-10
2.65392e-10
2.62621e-10
2.60217e-10
2.58139e-10
2.56345e-10
2.54798e-10
2.53464e-10
2.52312e-10
2.51314e-10
5.93112e-10
6.17854e-10
6.4417e-10
6.72108e-10
7.01724e-10
7.33065e-10
7.66169e-10
8.01069e-10
8.37785e-10
8.76331e-10
9.1671e-10
9.58917e-10
1.00294e-09
1.04874e-09
1.09628e-09
1.14552e-09
1.19636e-09
1.24872e-09
1.30248e-09
1.35753e-09
1.41369e-09
1.47081e-09
1.52873e-09
1.58725e-09
1.64616e-09
1.70525e-09
1.76428e-09
1.82301e-09
1.88118e-09
1.93854e-09
1.9948e-09
2.0497e-09
2.10295e-09
2.15428e-09
2.20341e-09
2.2501e-09
2.29406e-09
2.33505e-09
2.37284e-09
2.40726e-09
2.43801e-09
2.46493e-09
2.48793e-09
2.50684e-09
2.52141e-09
2.53165e-09
2.53753e-09
2.53761e-09
2.53379e-09
2.52626e-09
2.51431e-09
2.4979e-09
2.47727e-09
2.45237e-09
2.42327e-09
2.39033e-09
2.35363e-09
2.31312e-09
2.26914e-09
2.22204e-09
2.17176e-09
2.11854e-09
2.06287e-09
2.00486e-09
1.94463e-09
1.88272e-09
1.81945e-09
1.75491e-09
1.68963e-09
1.62393e-09
1.55794e-09
1.49191e-09
1.42634e-09
1.36171e-09
1.29804e-09
1.23541e-09
1.17404e-09
1.11426e-09
1.05635e-09
1.00043e-09
9.46505e-10
8.94635e-10
8.44885e-10
7.97333e-10
7.52052e-10
7.09093e-10
6.68502e-10
6.30288e-10
5.94446e-10
5.6096e-10
5.29794e-10
5.00901e-10
4.74222e-10
4.49683e-10
4.27204e-10
4.06694e-10
3.88057e-10
3.71189e-10
3.55984e-10
3.42332e-10
3.30123e-10
3.19246e-10
3.09593e-10
3.0106e-10
2.93546e-10
2.86955e-10
2.81197e-10
2.76187e-10
2.71843e-10
2.6809e-10
2.64858e-10
2.62079e-10
2.59695e-10
2.5765e-10
2.55895e-10
8.69998e-10
9.14129e-10
9.6086e-10
1.01027e-09
1.06241e-09
1.11735e-09
1.17514e-09
1.2358e-09
1.29935e-09
1.36579e-09
1.4351e-09
1.50724e-09
1.58215e-09
1.65976e-09
1.73996e-09
1.82264e-09
1.90763e-09
1.99478e-09
2.08387e-09
2.17466e-09
2.26691e-09
2.36029e-09
2.45453e-09
2.54931e-09
2.64426e-09
2.73902e-09
2.83319e-09
2.9264e-09
3.01824e-09
3.10829e-09
3.19612e-09
3.28133e-09
3.36348e-09
3.44215e-09
3.51694e-09
3.58746e-09
3.65332e-09
3.71414e-09
3.7696e-09
3.81945e-09
3.86332e-09
3.90093e-09
3.93219e-09
3.95693e-09
3.97477e-09
3.98559e-09
3.98869e-09
3.98394e-09
3.97401e-09
3.95742e-09
3.9339e-09
3.90345e-09
3.86652e-09
3.82319e-09
3.77353e-09
3.71785e-09
3.65663e-09
3.58976e-09
3.51748e-09
3.44045e-09
3.3589e-09
3.2728e-09
3.18288e-09
3.08966e-09
2.99323e-09
2.89414e-09
2.79304e-09
2.69028e-09
2.58625e-09
2.48153e-09
2.37652e-09
2.27164e-09
2.1674e-09
2.06435e-09
1.9628e-09
1.86297e-09
1.76517e-09
1.66979e-09
1.57718e-09
1.48757e-09
1.40106e-09
1.31775e-09
1.23773e-09
1.16113e-09
1.08806e-09
1.01861e-09
9.52817e-10
8.90717e-10
8.32313e-10
7.77585e-10
7.26491e-10
6.78964e-10
6.34922e-10
5.94261e-10
5.56863e-10
5.22597e-10
4.91322e-10
4.62886e-10
4.37132e-10
4.13898e-10
3.93019e-10
3.7433e-10
3.5767e-10
3.42877e-10
3.29797e-10
3.1828e-10
3.08181e-10
2.99362e-10
2.91692e-10
2.85046e-10
2.79307e-10
2.74368e-10
2.70126e-10
2.66492e-10
2.63384e-10
2.60727e-10
9.19264e-10
9.68961e-10
1.0219e-09
1.07822e-09
1.13805e-09
1.20155e-09
1.26881e-09
1.33999e-09
1.41517e-09
1.49446e-09
1.57794e-09
1.6657e-09
1.75777e-09
1.85421e-09
1.95503e-09
2.06021e-09
2.16972e-09
2.28348e-09
2.40139e-09
2.52331e-09
2.64908e-09
2.77848e-09
2.91128e-09
3.0472e-09
3.18592e-09
3.32708e-09
3.47028e-09
3.61508e-09
3.76099e-09
3.90755e-09
4.05421e-09
4.2004e-09
4.34552e-09
4.48899e-09
4.63018e-09
4.76849e-09
4.90329e-09
5.03395e-09
5.15987e-09
5.28042e-09
5.39502e-09
5.50307e-09
5.60405e-09
5.69742e-09
5.78266e-09
5.85934e-09
5.9271e-09
5.98551e-09
6.0342e-09
6.073e-09
6.1018e-09
6.12008e-09
6.12708e-09
6.12141e-09
6.10847e-09
6.08549e-09
6.05214e-09
6.00857e-09
5.95496e-09
5.89166e-09
5.81921e-09
5.73764e-09
5.64717e-09
5.54866e-09
5.44226e-09
5.32798e-09
5.20663e-09
5.07898e-09
4.94499e-09
4.80525e-09
4.66086e-09
4.51222e-09
4.35973e-09
4.20432e-09
4.04667e-09
3.88733e-09
3.72699e-09
3.56637e-09
3.40608e-09
3.24676e-09
3.08907e-09
2.9336e-09
2.7808e-09
2.6311e-09
2.48499e-09
2.3429e-09
2.20518e-09
2.07205e-09
1.94372e-09
1.82035e-09
1.70213e-09
1.58918e-09
1.48163e-09
1.37953e-09
1.28295e-09
1.19189e-09
1.10633e-09
1.02623e-09
9.51477e-10
8.81973e-10
8.17571e-10
7.58108e-10
7.03401e-10
6.53249e-10
6.07442e-10
5.65757e-10
5.27966e-10
4.93834e-10
4.63128e-10
4.35613e-10
4.11056e-10
3.8923e-10
3.6991e-10
3.52881e-10
3.37932e-10
3.24862e-10
3.1348e-10
3.03604e-10
2.95065e-10
2.87707e-10
2.81385e-10
2.75968e-10
2.71337e-10
1.40816e-09
1.49164e-09
1.58022e-09
1.67409e-09
1.77344e-09
1.87843e-09
1.98924e-09
2.10602e-09
2.22888e-09
2.35795e-09
2.49331e-09
2.63502e-09
2.78311e-09
2.93758e-09
3.09839e-09
3.26547e-09
3.4387e-09
3.6179e-09
3.80286e-09
3.99329e-09
4.18887e-09
4.38923e-09
4.59392e-09
4.80246e-09
5.0143e-09
5.22885e-09
5.44546e-09
5.66339e-09
5.88194e-09
6.10036e-09
6.31777e-09
6.53331e-09
6.7461e-09
6.95524e-09
7.15984e-09
7.35899e-09
7.55179e-09
7.73737e-09
7.91487e-09
8.08344e-09
8.24229e-09
8.39063e-09
8.52776e-09
8.653e-09
8.76568e-09
8.86528e-09
8.95134e-09
9.02337e-09
9.0809e-09
9.12372e-09
9.15172e-09
9.164e-09
9.15735e-09
9.13956e-09
9.10806e-09
9.06143e-09
8.99988e-09
8.92389e-09
8.83397e-09
8.73021e-09
8.61379e-09
8.48472e-09
8.34331e-09
8.19042e-09
8.02695e-09
7.85268e-09
7.66832e-09
7.4753e-09
7.27401e-09
7.06465e-09
6.8488e-09
6.62739e-09
6.40099e-09
6.17054e-09
5.93713e-09
5.70162e-09
5.4649e-09
5.22792e-09
4.99158e-09
4.75675e-09
4.52428e-09
4.29499e-09
4.0696e-09
3.84875e-09
3.63307e-09
3.42311e-09
3.21934e-09
3.02216e-09
2.83192e-09
2.64893e-09
2.47338e-09
2.30544e-09
2.14527e-09
1.99298e-09
1.84864e-09
1.71225e-09
1.58381e-09
1.46323e-09
1.3504e-09
1.24517e-09
1.14734e-09
1.0567e-09
9.72992e-10
8.95948e-10
8.25282e-10
7.6069e-10
7.01859e-10
6.4847e-10
6.00199e-10
5.56719e-10
5.17707e-10
4.82839e-10
4.518e-10
4.24278e-10
3.99971e-10
3.78588e-10
3.59849e-10
3.43489e-10
3.29261e-10
3.16929e-10
3.06278e-10
2.9711e-10
2.89243e-10
2.19484e-09
2.32977e-09
2.47238e-09
2.62294e-09
2.78165e-09
2.94876e-09
3.12443e-09
3.30883e-09
3.50211e-09
3.70434e-09
3.91559e-09
4.13588e-09
4.36515e-09
4.60333e-09
4.85026e-09
5.10575e-09
5.36952e-09
5.64121e-09
5.92042e-09
6.20664e-09
6.49931e-09
6.79775e-09
7.10126e-09
7.40901e-09
7.72013e-09
8.03367e-09
8.3486e-09
8.66385e-09
8.97839e-09
9.29096e-09
9.60034e-09
9.90528e-09
1.02045e-08
1.04968e-08
1.07808e-08
1.10554e-08
1.13192e-08
1.15711e-08
1.181e-08
1.20347e-08
1.22443e-08
1.24378e-08
1.26142e-08
1.27728e-08
1.29128e-08
1.30336e-08
1.31347e-08
1.32155e-08
1.32756e-08
1.33146e-08
1.33322e-08
1.33244e-08
1.32993e-08
1.32554e-08
1.31909e-08
1.31055e-08
1.29997e-08
1.28743e-08
1.27302e-08
1.25673e-08
1.23873e-08
1.21906e-08
1.19773e-08
1.17484e-08
1.15055e-08
1.12486e-08
1.09781e-08
1.06959e-08
1.04031e-08
1.01e-08
9.78795e-09
9.46877e-09
9.14338e-09
8.81285e-09
8.47853e-09
8.1417e-09
7.80356e-09
7.46533e-09
7.12823e-09
6.79342e-09
6.46204e-09
6.13515e-09
5.81377e-09
5.49879e-09
5.19102e-09
4.89119e-09
4.59994e-09
4.31794e-09
4.04571e-09
3.78359e-09
3.53188e-09
3.29083e-09
3.06064e-09
2.84146e-09
2.63337e-09
2.43641e-09
2.25052e-09
2.07562e-09
1.91155e-09
1.75812e-09
1.61507e-09
1.48211e-09
1.35892e-09
1.24514e-09
1.14038e-09
1.04424e-09
9.56317e-10
8.76171e-10
8.03368e-10
7.37471e-10
6.78037e-10
6.24629e-10
5.76811e-10
5.34158e-10
4.96252e-10
4.62688e-10
4.33077e-10
4.07049e-10
3.84255e-10
3.64366e-10
3.47071e-10
3.32087e-10
3.19148e-10
3.4172e-09
3.6276e-09
3.84917e-09
4.08219e-09
4.32692e-09
4.58359e-09
4.85238e-09
5.13345e-09
5.42688e-09
5.7327e-09
6.05089e-09
6.38134e-09
6.72389e-09
7.07827e-09
7.44415e-09
7.82109e-09
8.20857e-09
8.60595e-09
9.01251e-09
9.4274e-09
9.84968e-09
1.02783e-08
1.07121e-08
1.11498e-08
1.15901e-08
1.20314e-08
1.24724e-08
1.29116e-08
1.33471e-08
1.37774e-08
1.42008e-08
1.46154e-08
1.50196e-08
1.54116e-08
1.57897e-08
1.61524e-08
1.64979e-08
1.68249e-08
1.71318e-08
1.74173e-08
1.76802e-08
1.79193e-08
1.81337e-08
1.83224e-08
1.84847e-08
1.86198e-08
1.87273e-08
1.88066e-08
1.88573e-08
1.88786e-08
1.88666e-08
1.88309e-08
1.87699e-08
1.86805e-08
1.85633e-08
1.84189e-08
1.82476e-08
1.80508e-08
1.78294e-08
1.75838e-08
1.73156e-08
1.70262e-08
1.67154e-08
1.63841e-08
1.60349e-08
1.56681e-08
1.52838e-08
1.48841e-08
1.44712e-08
1.40456e-08
1.36086e-08
1.31625e-08
1.27088e-08
1.22489e-08
1.17845e-08
1.13172e-08
1.08486e-08
1.03803e-08
9.91389e-09
9.45087e-09
8.99272e-09
8.54085e-09
8.09655e-09
7.66099e-09
7.23522e-09
6.8202e-09
6.41693e-09
6.0263e-09
5.64892e-09
5.28525e-09
4.93573e-09
4.6007e-09
4.28042e-09
3.97509e-09
3.68479e-09
3.40957e-09
3.14937e-09
2.90406e-09
2.67345e-09
2.45727e-09
2.25522e-09
2.0669e-09
1.8919e-09
1.72977e-09
1.58e-09
1.44208e-09
1.31545e-09
1.19957e-09
1.09386e-09
9.97738e-10
9.10626e-10
8.31942e-10
7.61108e-10
6.97557e-10
6.40734e-10
5.901e-10
5.45134e-10
5.05334e-10
4.70229e-10
4.39369e-10
4.12333e-10
3.88727e-10
3.68185e-10
3.50367e-10
3.34953e-10
5.25586e-09
5.57324e-09
5.90624e-09
6.25512e-09
6.62016e-09
7.00153e-09
7.39937e-09
7.81375e-09
8.24464e-09
8.69194e-09
9.15544e-09
9.63485e-09
1.01298e-08
1.06396e-08
1.11637e-08
1.17014e-08
1.22516e-08
1.28134e-08
1.33855e-08
1.39666e-08
1.45552e-08
1.51497e-08
1.57484e-08
1.63494e-08
1.69506e-08
1.75502e-08
1.81459e-08
1.87356e-08
1.93168e-08
1.98874e-08
2.0445e-08
2.09873e-08
2.15121e-08
2.20171e-08
2.25001e-08
2.29592e-08
2.33924e-08
2.37978e-08
2.41737e-08
2.45187e-08
2.48313e-08
2.51103e-08
2.53547e-08
2.55635e-08
2.57361e-08
2.58718e-08
2.59701e-08
2.60307e-08
2.60528e-08
2.60309e-08
2.59789e-08
2.58933e-08
2.57704e-08
2.56108e-08
2.5416e-08
2.51868e-08
2.49233e-08
2.46278e-08
2.43011e-08
2.39442e-08
2.35586e-08
2.31468e-08
2.27082e-08
2.22439e-08
2.17571e-08
2.12488e-08
2.07187e-08
2.01695e-08
1.96039e-08
1.90232e-08
1.84287e-08
1.78227e-08
1.72077e-08
1.65856e-08
1.59583e-08
1.53279e-08
1.46964e-08
1.40659e-08
1.34383e-08
1.28156e-08
1.21997e-08
1.15924e-08
1.09952e-08
1.04097e-08
9.83712e-09
9.27893e-09
8.73651e-09
8.21082e-09
7.70263e-09
7.2126e-09
6.74129e-09
6.28915e-09
5.85653e-09
5.44365e-09
5.05064e-09
4.67751e-09
4.3242e-09
3.99054e-09
3.67627e-09
3.38107e-09
3.10452e-09
2.84615e-09
2.60545e-09
2.38181e-09
2.17462e-09
1.98321e-09
1.80689e-09
1.64495e-09
1.49664e-09
1.36122e-09
1.23795e-09
1.12606e-09
1.02482e-09
9.33481e-10
8.51337e-10
7.77688e-10
7.1186e-10
6.53197e-10
6.01078e-10
5.54916e-10
5.14156e-10
4.78272e-10
4.46774e-10
4.19202e-10
3.95129e-10
7.93909e-09
8.40321e-09
8.8883e-09
9.39461e-09
9.92232e-09
1.04715e-08
1.10422e-08
1.16342e-08
1.22474e-08
1.28813e-08
1.35355e-08
1.42094e-08
1.4902e-08
1.56125e-08
1.63398e-08
1.70824e-08
1.7839e-08
1.86078e-08
1.93871e-08
2.01747e-08
2.09686e-08
2.17663e-08
2.25653e-08
2.3363e-08
2.41567e-08
2.49436e-08
2.57206e-08
2.64847e-08
2.7233e-08
2.79624e-08
2.86699e-08
2.93527e-08
3.00079e-08
3.06328e-08
3.12247e-08
3.17814e-08
3.23004e-08
3.27797e-08
3.32176e-08
3.36123e-08
3.39626e-08
3.42672e-08
3.45251e-08
3.47357e-08
3.48983e-08
3.50124e-08
3.50776e-08
3.50944e-08
3.50543e-08
3.49777e-08
3.48563e-08
3.46882e-08
3.44737e-08
3.4214e-08
3.3911e-08
3.35658e-08
3.31785e-08
3.27523e-08
3.22878e-08
3.17864e-08
3.125e-08
3.0682e-08
3.00815e-08
2.94499e-08
2.87908e-08
2.81058e-08
2.73949e-08
2.66608e-08
2.59069e-08
2.5135e-08
2.4347e-08
2.35455e-08
2.27333e-08
2.19131e-08
2.10872e-08
2.02583e-08