/*--------------------------------*- C++ -*----------------------------------*\
| =========                 |                                                 |
| \\      /  F ield         | OpenFOAM: The Open Source CFD Toolbox           |
|  \\    /   O peration     | Version:  v1706                                 |
|   \\  /    A nd           | Web:      www.OpenFOAM.com                      |
|    \\/     M anipulation  |                                                 |
\*---------------------------------------------------------------------------*/
FoamFile
{
    version     2.0;
    format      ascii;
    class       volScalarField;
    location    "3.2e-05";
    object      kappatr;
}
// * * * * * * * * * * * * * * * * * * * * * * * * * * * * * * * * * * * * * //

dimensions      [1 1 -3 -1 0 0 0];


internalField   nonuniform List<scalar> 
29871
(
0.0151251
0.0151819
0.0152421
0.0153056
0.0153735
0.0154477
0.015529
0.015617
0.0157106
0.0158085
0.0159098
0.0160136
0.0161191
0.0162256
0.0163321
0.0164377
0.0165416
0.016643
0.0167419
0.0168401
0.0169506
0.0170837
0.0172333
0.0173921
0.0175543
0.0177155
0.0178725
0.0180231
0.0181656
0.018299
0.0184228
0.0185368
0.0186414
0.0187367
0.0188232
0.0189013
0.0189715
0.0190343
0.01909
0.0191388
0.0191808
0.0192164
0.0192456
0.0192686
0.019286
0.0192977
0.0193027
0.0193011
0.0192954
0.0192854
0.0192697
0.019249
0.0192252
0.0191972
0.0191657
0.0191315
0.0190932
0.0190501
0.0190026
0.0189504
0.0188929
0.0188302
0.0187627
0.0186902
0.0186123
0.0185291
0.0184404
0.0183462
0.0182462
0.0181403
0.0180284
0.0179101
0.0177854
0.0176542
0.0175164
0.0173717
0.0172201
0.0170616
0.0168972
0.0167297
0.0165671
0.0164294
0.016325
0.0162323
0.0161409
0.0160479
0.0159533
0.0158572
0.0157603
0.0156631
0.0155661
0.0154696
0.015375
0.015286
0.0152056
0.0151349
0.0150746
0.0150214
0.0149722
0.0149253
0.0148807
0.0148387
0.0148002
0.0147664
0.014738
0.0174119
0.0176521
0.0178964
0.0181438
0.0183972
0.0186757
0.018982
0.0193104
0.019653
0.020002
0.02035
0.0206905
0.0210181
0.0213291
0.0216206
0.0218908
0.0221389
0.0223645
0.0225682
0.0227511
0.0229124
0.0230514
0.0231699
0.0232695
0.0233521
0.0234196
0.0234736
0.0235154
0.0235464
0.0235684
0.0235831
0.0235923
0.0235975
0.0235997
0.023599
0.0235971
0.0235941
0.0235904
0.0235859
0.0235803
0.0235734
0.0235651
0.0235555
0.0235444
0.0235318
0.0235174
0.023501
0.0234825
0.0234622
0.0234409
0.0234183
0.0233966
0.0233719
0.0233437
0.0233149
0.0232857
0.0232557
0.0232244
0.0231921
0.0231579
0.0231218
0.0230844
0.0230457
0.0230055
0.0229639
0.022921
0.0228768
0.0228314
0.0227851
0.0227379
0.0226898
0.0226409
0.0225912
0.022541
0.0224896
0.0224359
0.0223785
0.0223151
0.0222427
0.0221571
0.0220515
0.0219183
0.0217571
0.0215731
0.0213684
0.0211426
0.0208944
0.0206229
0.0203276
0.0200087
0.0196669
0.0193034
0.0189205
0.0185236
0.0181252
0.0177496
0.017434
0.0171647
0.0169158
0.0166746
0.0164377
0.0162075
0.0159904
0.0157936
0.0156219
0.0212045
0.0216304
0.0220373
0.0224198
0.0227742
0.023098
0.0233865
0.0236403
0.0238622
0.0240551
0.0242224
0.0243677
0.0244938
0.0246031
0.0246973
0.0247773
0.0248438
0.024897
0.0249375
0.0249674
0.0249888
0.025004
0.0250142
0.0250205
0.025023
0.0250214
0.0250175
0.0250102
0.0249989
0.0249838
0.0249653
0.0249438
0.0249196
0.0248933
0.0248656
0.0248368
0.0248074
0.0247778
0.0247483
0.0247189
0.0246898
0.024661
0.0246324
0.0246041
0.024576
0.0245483
0.0245205
0.0244922
0.0244638
0.0244357
0.0244081
0.0243799
0.0243524
0.024326
0.0243018
0.0242744
0.0242417
0.0242125
0.0241858
0.0241563
0.0241257
0.0240975
0.0240699
0.0240419
0.0240142
0.0239871
0.0239608
0.0239356
0.0239115
0.0238886
0.0238673
0.0238475
0.0238291
0.0238119
0.0237959
0.0237807
0.0237655
0.0237489
0.0237298
0.023707
0.0236791
0.0236442
0.0236017
0.023552
0.0234958
0.0234329
0.0233634
0.0232873
0.0232044
0.0231143
0.0230158
0.0229064
0.0227823
0.0226376
0.0224652
0.022258
0.0220077
0.0217069
0.0213594
0.020971
0.0205453
0.0200844
0.0195918
0.0190757
0.0185532
0.0180572
0.0248057
0.0249662
0.0251022
0.0252167
0.025312
0.0253899
0.0254519
0.0254994
0.025534
0.025558
0.0255745
0.0255864
0.0255957
0.0256039
0.0256115
0.0256185
0.0256242
0.0256267
0.0256252
0.0256206
0.0256128
0.0256027
0.0255907
0.0255773
0.0255629
0.0255476
0.0255321
0.0255169
0.0255025
0.0254885
0.0254743
0.0254593
0.025443
0.0254248
0.0254045
0.0253821
0.0253577
0.0253317
0.0253045
0.0252763
0.0252475
0.0252182
0.0251886
0.0251587
0.0251287
0.0250989
0.0250691
0.0250387
0.0250079
0.0249774
0.0249475
0.0249172
0.0248882
0.0248605
0.0248351
0.024806
0.0247708
0.0247398
0.0247115
0.0246802
0.0246472
0.0246168
0.0245872
0.0245572
0.0245275
0.0244982
0.0244696
0.0244416
0.0244143
0.0243876
0.0243616
0.0243364
0.0243117
0.0242875
0.024263
0.0242377
0.0242114
0.0241839
0.0241554
0.0241258
0.0240949
0.024063
0.024031
0.0239991
0.0239672
0.0239355
0.0239042
0.0238729
0.0238407
0.0238068
0.023771
0.023732
0.0236877
0.0236371
0.0235797
0.0235148
0.0234421
0.0233625
0.023276
0.023181
0.0230735
0.0229469
0.0227919
0.0225963
0.0223484
0.0220377
0.0259054
0.0259329
0.0259537
0.02597
0.0259833
0.0259943
0.0260034
0.0260103
0.0260135
0.0260119
0.0260067
0.0259981
0.0259869
0.0259743
0.0259613
0.025949
0.025938
0.0259295
0.0259243
0.025922
0.0259202
0.0259173
0.025912
0.0259038
0.0258928
0.0258795
0.0258644
0.0258481
0.0258314
0.025815
0.0257991
0.0257833
0.0257674
0.0257511
0.0257342
0.0257163
0.0256971
0.0256763
0.025654
0.0256303
0.0256051
0.0255784
0.0255511
0.0255229
0.0254936
0.0254637
0.0254337
0.0254033
0.0253718
0.0253401
0.0253091
0.0252777
0.0252451
0.025215
0.0251865
0.0251606
0.0251294
0.0250927
0.0250614
0.025033
0.0250018
0.0249671
0.0249346
0.0249035
0.0248729
0.0248424
0.0248116
0.0247813
0.0247516
0.0247221
0.0246922
0.0246623
0.0246324
0.0246024
0.024572
0.0245417
0.0245109
0.0244791
0.0244467
0.0244147
0.0243826
0.0243498
0.0243172
0.0242856
0.0242545
0.0242233
0.0241926
0.0241627
0.0241328
0.0241022
0.0240713
0.0240384
0.0240025
0.0239639
0.0239267
0.0238916
0.0238569
0.0238246
0.0237948
0.0237655
0.0237348
0.0237011
0.0236625
0.0236172
0.0235629
0.0234985
0.0234254
0.0262845
0.0262819
0.0262764
0.0262689
0.0262604
0.0262518
0.026244
0.0262367
0.0262306
0.0262263
0.0262226
0.0262176
0.02621
0.0261998
0.0261875
0.0261736
0.026159
0.026145
0.0261339
0.0261249
0.0261184
0.0261131
0.0261077
0.0261013
0.026093
0.0260828
0.0260704
0.0260565
0.0260408
0.0260239
0.0260069
0.0259902
0.025974
0.0259581
0.0259423
0.0259263
0.0259099
0.0258929
0.0258747
0.0258557
0.0258355
0.0258136
0.0257907
0.0257671
0.0257418
0.0257152
0.0256883
0.0256608
0.0256312
0.025601
0.0255715
0.0255417
0.0255088
0.0254785
0.0254498
0.025424
0.0253905
0.0253529
0.0253211
0.0252906
0.0252595
0.0252214
0.0251833
0.0251491
0.0251168
0.0250839
0.0250482
0.0250138
0.0249811
0.024947
0.0249115
0.0248761
0.0248405
0.0248041
0.0247679
0.0247326
0.0246967
0.0246597
0.0246239
0.0245908
0.0245574
0.0245229
0.0244909
0.0244609
0.0244303
0.0243992
0.0243695
0.0243397
0.0243088
0.0242773
0.0242466
0.0242148
0.0241807
0.0241453
0.0241131
0.024083
0.0240535
0.0240255
0.0239989
0.0239718
0.0239428
0.0239128
0.0238824
0.0238528
0.02383
0.0238129
0.0237894
0.0264791
0.0264732
0.0264685
0.0264647
0.0264614
0.0264568
0.0264502
0.0264413
0.0264305
0.0264193
0.0264077
0.0263968
0.0263883
0.0263817
0.0263757
0.0263693
0.0263616
0.0263523
0.0263413
0.0263287
0.026315
0.026301
0.0262884
0.026278
0.0262698
0.0262632
0.0262576
0.0262519
0.0262457
0.0262382
0.0262293
0.0262189
0.0262066
0.0261929
0.0261785
0.0261633
0.0261481
0.0261329
0.0261173
0.0261015
0.0260857
0.0260689
0.0260515
0.0260338
0.0260145
0.025994
0.0259732
0.0259511
0.0259267
0.0259021
0.0258776
0.0258499
0.0258211
0.0257931
0.0257657
0.025733
0.0257027
0.0256744
0.0256487
0.0256139
0.0255763
0.0255447
0.0255135
0.0254823
0.0254412
0.0253995
0.0253631
0.0253288
0.0252938
0.0252545
0.0252171
0.025182
0.0251451
0.0251051
0.0250659
0.0250264
0.0249856
0.0249462
0.0249085
0.0248694
0.0248289
0.0247913
0.0247559
0.0247199
0.0246829
0.0246484
0.0246161
0.0245824
0.0245488
0.0245162
0.0244841
0.0244498
0.0244161
0.0243831
0.0243498
0.0243158
0.0242827
0.0242511
0.0242217
0.0241943
0.0241678
0.0241413
0.0241145
0.0240875
0.0240603
0.0240328
0.0240082
0.0239899
0.0239746
0.0239567
0.026637
0.0266261
0.0266162
0.0266078
0.0266015
0.0265957
0.0265895
0.0265821
0.0265736
0.0265636
0.0265527
0.0265414
0.0265306
0.0265212
0.0265136
0.0265074
0.0265018
0.026496
0.0264894
0.0264815
0.0264725
0.0264622
0.0264512
0.0264406
0.0264309
0.0264227
0.0264158
0.0264098
0.0264042
0.0263985
0.0263923
0.0263853
0.0263768
0.0263667
0.0263556
0.0263426
0.0263286
0.0263144
0.0262989
0.0262826
0.0262667
0.0262498
0.0262316
0.0262139
0.0261954
0.0261747
0.0261542
0.0261337
0.0261099
0.0260858
0.0260627
0.0260367
0.0260083
0.025981
0.0259551
0.0259231
0.0258924
0.0258642
0.0258381
0.0258029
0.0257658
0.0257344
0.0257032
0.0256718
0.0256292
0.0255855
0.0255479
0.025512
0.0254751
0.0254331
0.0253938
0.0253567
0.0253193
0.0252769
0.025234
0.0251925
0.0251501
0.0251096
0.0250705
0.025031
0.02499
0.0249511
0.0249142
0.0248778
0.0248405
0.0248041
0.0247692
0.0247343
0.024699
0.024664
0.0246292
0.0245935
0.0245575
0.0245217
0.024486
0.0244502
0.0244153
0.0243819
0.0243502
0.0243203
0.024292
0.024264
0.0242361
0.024209
0.0241822
0.0241562
0.0241329
0.0241138
0.0240973
0.0240811
0.0267711
0.0267601
0.0267492
0.0267387
0.0267299
0.026723
0.0267173
0.026712
0.0267069
0.0267012
0.0266945
0.0266869
0.0266788
0.0266707
0.0266633
0.0266571
0.026652
0.0266475
0.0266432
0.0266386
0.0266331
0.0266266
0.0266189
0.0266102
0.0266012
0.0265923
0.0265838
0.026576
0.0265689
0.0265622
0.0265555
0.0265488
0.0265416
0.0265331
0.0265241
0.0265137
0.026501
0.0264882
0.0264743
0.0264578
0.0264416
0.0264254
0.026406
0.026387
0.0263687
0.0263471
0.0263251
0.0263045
0.0262808
0.0262556
0.0262318
0.0262068
0.0261778
0.0261501
0.0261243
0.0260929
0.0260613
0.0260323
0.0260052
0.0259702
0.0259334
0.0259021
0.0258706
0.0258389
0.0257953
0.0257514
0.0257136
0.0256767
0.0256383
0.0255941
0.0255537
0.0255162
0.025479
0.0254363
0.0253901
0.0253473
0.0253059
0.0252652
0.0252254
0.0251863
0.0251467
0.0251077
0.0250699
0.0250328
0.0249954
0.0249581
0.0249214
0.0248851
0.0248484
0.0248117
0.0247747
0.0247374
0.0246997
0.024662
0.0246245
0.0245875
0.0245513
0.0245162
0.0244833
0.0244521
0.0244219
0.0243924
0.0243633
0.0243347
0.0243068
0.0242801
0.0242557
0.0242342
0.0242151
0.0241971
0.0269013
0.0268944
0.0268869
0.0268792
0.0268717
0.0268653
0.0268601
0.026856
0.0268527
0.0268497
0.0268463
0.0268424
0.0268377
0.0268324
0.0268268
0.0268214
0.0268164
0.0268121
0.0268082
0.0268046
0.0268008
0.0267965
0.0267914
0.0267853
0.0267781
0.0267702
0.0267618
0.0267531
0.0267446
0.0267363
0.0267278
0.0267196
0.0267116
0.0267023
0.026693
0.0266835
0.0266715
0.026659
0.0266465
0.0266306
0.0266141
0.0265984
0.0265792
0.0265589
0.0265401
0.0265185
0.0264948
0.0264728
0.0264494
0.0264226
0.026397
0.0263722
0.0263424
0.0263134
0.0262866
0.0262554
0.0262226
0.0261923
0.026164
0.0261287
0.0260919
0.0260603
0.0260282
0.0259958
0.0259513
0.0259085
0.0258712
0.0258341
0.0257945
0.0257483
0.0257077
0.0256707
0.0256337
0.0255917
0.0255434
0.0254999
0.0254593
0.0254194
0.0253798
0.0253408
0.025302
0.0252634
0.0252251
0.0251873
0.0251494
0.0251114
0.0250734
0.0250355
0.0249975
0.0249591
0.0249205
0.0248816
0.0248425
0.0248036
0.0247651
0.024727
0.0246904
0.0246552
0.0246215
0.0245892
0.0245581
0.0245277
0.0244978
0.0244685
0.0244398
0.0244125
0.024387
0.0243636
0.0243418
0.024321
0.0270437
0.0270402
0.0270363
0.027032
0.0270274
0.0270229
0.0270188
0.0270156
0.0270131
0.0270113
0.0270099
0.0270083
0.0270064
0.027004
0.0270009
0.0269974
0.0269937
0.02699
0.0269865
0.0269831
0.0269798
0.0269763
0.0269724
0.0269679
0.0269624
0.026956
0.0269486
0.0269403
0.0269315
0.0269222
0.0269123
0.0269025
0.0268926
0.0268817
0.0268706
0.02686
0.0268474
0.0268338
0.026821
0.0268055
0.0267883
0.0267722
0.0267537
0.0267325
0.0267126
0.0266916
0.0266668
0.026643
0.0266197
0.026592
0.0265645
0.0265388
0.026509
0.0264782
0.0264497
0.0264189
0.0263849
0.026353
0.0263232
0.0262875
0.0262504
0.0262181
0.0261853
0.0261515
0.0261064
0.0260653
0.0260288
0.025992
0.025951
0.0259034
0.0258629
0.0258259
0.0257889
0.0257478
0.0256987
0.0256551
0.0256147
0.0255751
0.0255357
0.0254966
0.0254578
0.0254191
0.0253803
0.0253417
0.0253029
0.0252639
0.0252247
0.0251855
0.025146
0.0251063
0.0250664
0.0250265
0.0249866
0.0249469
0.0249083
0.0248705
0.0248339
0.0247987
0.0247649
0.0247323
0.0247007
0.0246698
0.0246393
0.0246094
0.0245801
0.024552
0.0245253
0.0245001
0.0244761
0.0244531
0.027201
0.0271992
0.0271978
0.0271966
0.0271953
0.0271938
0.0271921
0.0271903
0.0271888
0.0271876
0.0271869
0.0271866
0.0271866
0.0271865
0.0271862
0.0271855
0.0271842
0.0271823
0.0271799
0.0271773
0.0271744
0.0271714
0.0271681
0.0271646
0.0271606
0.0271559
0.0271504
0.0271439
0.0271364
0.0271279
0.0271184
0.0271081
0.0270971
0.0270857
0.0270732
0.0270603
0.0270476
0.0270334
0.0270179
0.0270034
0.0269872
0.0269686
0.026951
0.0269324
0.0269104
0.0268888
0.0268676
0.0268426
0.0268168
0.0267928
0.0267653
0.026736
0.0267086
0.0266794
0.026647
0.0266163
0.0265858
0.0265511
0.0265174
0.026486
0.0264504
0.0264125
0.0263787
0.0263452
0.0263101
0.026265
0.0262252
0.026189
0.0261526
0.0261099
0.0260616
0.0260212
0.0259835
0.0259465
0.0259047
0.025856
0.0258127
0.0257722
0.0257324
0.0256928
0.0256533
0.0256138
0.0255744
0.0255349
0.0254953
0.0254554
0.0254154
0.0253752
0.0253347
0.0252943
0.0252537
0.025213
0.0251727
0.0251329
0.0250935
0.0250551
0.0250178
0.0249818
0.0249469
0.0249132
0.0248805
0.0248485
0.024817
0.024786
0.0247554
0.0247255
0.0246964
0.0246685
0.0246417
0.0246159
0.024591
0.0273676
0.0273676
0.027368
0.0273688
0.0273699
0.0273711
0.0273721
0.027373
0.0273737
0.0273745
0.0273753
0.0273763
0.0273775
0.0273788
0.02738
0.0273809
0.0273813
0.0273811
0.0273803
0.0273789
0.0273769
0.0273744
0.0273715
0.027368
0.027364
0.0273595
0.0273542
0.027348
0.0273408
0.0273325
0.0273232
0.0273126
0.0273012
0.0272887
0.0272751
0.0272608
0.0272461
0.02723
0.0272127
0.027196
0.0271779
0.0271575
0.0271377
0.0271177
0.0270947
0.0270708
0.0270484
0.027023
0.0269953
0.0269694
0.0269421
0.0269113
0.0268816
0.0268526
0.0268195
0.0267863
0.0267551
0.0267206
0.0266849
0.0266513
0.0266163
0.0265776
0.0265418
0.026507
0.026471
0.0264264
0.0263868
0.02635
0.0263137
0.0262698
0.0262215
0.0261806
0.0261416
0.0261041
0.0260608
0.0260135
0.0259704
0.0259296
0.0258892
0.025849
0.0258087
0.0257684
0.025728
0.0256875
0.0256469
0.0256061
0.0255652
0.0255243
0.0254831
0.0254421
0.0254014
0.0253608
0.0253207
0.0252812
0.0252426
0.0252048
0.0251682
0.0251326
0.025098
0.0250644
0.0250314
0.0249988
0.0249667
0.0249348
0.0249034
0.0248726
0.0248425
0.0248134
0.0247852
0.0247579
0.0247313
0.0247054
0.0246799
0.0275456
0.0275476
0.0275501
0.0275529
0.0275561
0.0275594
0.0275628
0.0275661
0.0275692
0.0275721
0.0275748
0.0275775
0.02758
0.0275825
0.0275848
0.0275868
0.0275885
0.0275897
0.02759
0.0275897
0.0275887
0.0275868
0.0275843
0.027581
0.0275769
0.0275722
0.0275666
0.0275601
0.0275527
0.0275442
0.0275346
0.0275238
0.0275118
0.0274987
0.0274842
0.0274688
0.0274525
0.0274347
0.0274158
0.0273968
0.0273766
0.0273544
0.0273321
0.0273099
0.0272853
0.027259
0.0272342
0.0272077
0.0271783
0.0271496
0.0271215
0.0270899
0.0270574
0.0270268
0.0269939
0.0269584
0.0269246
0.0268909
0.0268535
0.026817
0.0267819
0.0267432
0.0267047
0.0266679
0.0266316
0.0265878
0.0265471
0.0265089
0.026472
0.0264271
0.0263796
0.0263376
0.0262971
0.0262569
0.0262143
0.0261691
0.0261257
0.0260839
0.0260426
0.0260015
0.0259603
0.0259191
0.0258778
0.0258365
0.0257951
0.0257536
0.0257122
0.025671
0.0256298
0.0255888
0.0255482
0.0255081
0.0254686
0.0254298
0.0253918
0.0253548
0.0253186
0.0252832
0.0252486
0.0252146
0.0251809
0.0251476
0.0251145
0.0250817
0.0250493
0.0250174
0.0249863
0.0249559
0.0249264
0.0248975
0.0248693
0.0248414
0.0248138
0.0277256
0.0277296
0.0277338
0.0277382
0.0277428
0.0277477
0.0277529
0.0277582
0.0277636
0.027769
0.0277742
0.0277791
0.0277837
0.027788
0.027792
0.0277956
0.027799
0.0278019
0.0278044
0.0278064
0.0278076
0.0278078
0.0278074
0.0278061
0.0278039
0.0278007
0.0277966
0.0277914
0.0277853
0.0277783
0.0277701
0.0277609
0.0277506
0.027739
0.0277263
0.0277122
0.0276968
0.0276803
0.0276626
0.0276434
0.0276229
0.0276019
0.0275797
0.0275556
0.0275309
0.0275063
0.0274796
0.027451
0.0274234
0.027395
0.0273639
0.027332
0.0273018
0.0272692
0.0272342
0.0272006
0.0271672
0.0271303
0.0270934
0.0270582
0.0270207
0.0269812
0.0269435
0.0269055
0.0268649
0.0268253
0.026787
0.0267452
0.0267029
0.0266621
0.0266224
0.0265792
0.0265333
0.0264896
0.0264471
0.0264047
0.0263619
0.026318
0.0262743
0.0262316
0.0261893
0.0261473
0.0261053
0.0260633
0.0260214
0.0259794
0.0259377
0.0258961
0.0258546
0.0258133
0.0257723
0.0257317
0.0256915
0.0256519
0.025613
0.0255747
0.0255372
0.0255004
0.0254642
0.0254286
0.0253935
0.0253587
0.0253241
0.0252897
0.0252555
0.0252216
0.0251881
0.0251551
0.0251227
0.025091
0.0250599
0.0250293
0.0249991
0.0249689
0.0249388
0.0279178
0.0279243
0.027931
0.0279378
0.0279447
0.0279517
0.0279589
0.027966
0.0279732
0.0279803
0.0279872
0.0279938
0.0280001
0.0280059
0.0280111
0.0280159
0.0280201
0.0280237
0.0280267
0.0280291
0.0280307
0.0280312
0.0280309
0.0280297
0.0280275
0.0280241
0.0280196
0.028014
0.0280072
0.0279992
0.0279901
0.0279798
0.0279683
0.0279555
0.0279415
0.0279261
0.0279094
0.0278914
0.0278721
0.0278514
0.0278293
0.0278063
0.027782
0.0277561
0.0277291
0.0277019
0.0276731
0.0276423
0.0276116
0.0275809
0.0275479
0.027513
0.0274797
0.0274456
0.0274087
0.0273714
0.027336
0.0272982
0.0272582
0.0272198
0.0271819
0.0271405
0.0270994
0.0270598
0.0270186
0.0269763
0.0269351
0.0268935
0.0268505
0.0268074
0.0267649
0.0267217
0.0266771
0.0266323
0.0265882
0.0265444
0.0265007
0.0264567
0.0264128
0.0263693
0.0263262
0.0262834
0.0262407
0.026198
0.0261557
0.0261136
0.0260718
0.0260301
0.0259887
0.0259476
0.0259068
0.0258665
0.0258267
0.0257874
0.0257487
0.0257106
0.025673
0.0256359
0.0255993
0.0255629
0.0255268
0.0254909
0.0254552
0.0254195
0.0253841
0.0253489
0.0253142
0.0252799
0.025246
0.0252127
0.0251797
0.025147
0.0251143
0.0250815
0.0250485
0.0250153
0.0280664
0.0280726
0.0280792
0.0280862
0.0280937
0.0281015
0.0281098
0.0281183
0.0281271
0.028136
0.028145
0.0281541
0.0281631
0.0281721
0.0281809
0.0281897
0.0281982
0.0282065
0.0282144
0.0282218
0.0282287
0.0282349
0.0282405
0.0282453
0.0282493
0.0282526
0.028255
0.0282564
0.0282566
0.0282561
0.0282546
0.0282518
0.0282479
0.0282426
0.0282361
0.0282283
0.0282192
0.0282087
0.0281969
0.0281838
0.0281694
0.0281536
0.0281365
0.028118
0.0280981
0.0280769
0.0280543
0.0280302
0.0280051
0.0279786
0.0279505
0.0279213
0.0278914
0.0278602
0.0278272
0.0277934
0.02776
0.0277248
0.0276874
0.0276504
0.0276142
0.0275754
0.0275348
0.027496
0.0274569
0.0274147
0.0273726
0.0273324
0.02729
0.0272458
0.0272032
0.0271609
0.027117
0.0270731
0.0270295
0.0269856
0.026941
0.0268965
0.0268519
0.0268069
0.0267616
0.0267164
0.0266715
0.0266268
0.0265822
0.0265378
0.0264936
0.0264498
0.0264062
0.0263628
0.0263199
0.0262774
0.0262351
0.0261931
0.0261514
0.02611
0.0260689
0.0260283
0.025988
0.0259482
0.0259089
0.02587
0.0258315
0.0257933
0.0257555
0.0257178
0.0256804
0.025643
0.0256058
0.0255686
0.0255316
0.0254948
0.0254583
0.025422
0.0253861
0.0253505
0.025315
0.0252797
0.0252443
0.0252086
0.0251727
0.0251365
0.0250999
0.0282573
0.028266
0.0282751
0.0282846
0.0282944
0.0283045
0.0283149
0.0283256
0.0283364
0.0283473
0.0283582
0.028369
0.0283798
0.0283903
0.0284006
0.0284106
0.0284203
0.0284295
0.0284382
0.0284464
0.0284538
0.0284606
0.0284665
0.0284715
0.0284755
0.0284786
0.0284806
0.0284814
0.0284811
0.0284798
0.0284773
0.0284735
0.0284684
0.0284619
0.028454
0.0284447
0.028434
0.0284218
0.0284081
0.028393
0.0283765
0.0283586
0.0283392
0.0283184
0.0282961
0.0282725
0.0282475
0.028221
0.0281933
0.0281643
0.0281338
0.0281019
0.0280692
0.0280354
0.0279999
0.0279631
0.0279266
0.0278889
0.0278492
0.0278084
0.0277694
0.0277285
0.0276852
0.0276424
0.0276011
0.0275572
0.0275115
0.0274678
0.0274242
0.027378
0.0273321
0.0272873
0.027242
0.027196
0.0271501
0.0271043
0.0270583
0.0270122
0.0269661
0.0269199
0.0268737
0.0268276
0.0267817
0.0267361
0.0266908
0.0266457
0.0266008
0.0265561
0.0265118
0.0264682
0.0264249
0.026382
0.0263394
0.0262971
0.0262551
0.0262135
0.0261723
0.0261314
0.0260909
0.0260507
0.0260108
0.0259713
0.025932
0.0258928
0.0258539
0.025815
0.0257761
0.0257373
0.0256986
0.0256599
0.0256214
0.025583
0.0255447
0.0255067
0.0254688
0.0254308
0.0253927
0.0253544
0.0253158
0.0252768
0.0252373
0.0251975
0.0251573
0.0284546
0.0284656
0.028477
0.0284887
0.0285007
0.0285128
0.0285252
0.0285377
0.0285502
0.0285627
0.0285752
0.0285874
0.0285995
0.0286112
0.0286225
0.0286333
0.0286436
0.0286534
0.0286625
0.0286708
0.0286784
0.028685
0.0286907
0.0286954
0.0286989
0.0287013
0.0287023
0.0287021
0.0287008
0.0286982
0.0286942
0.0286888
0.0286819
0.0286736
0.0286638
0.0286524
0.0286396
0.0286251
0.0286091
0.0285916
0.0285725
0.0285519
0.0285298
0.0285062
0.0284812
0.0284546
0.0284267
0.0283973
0.0283666
0.0283346
0.0283011
0.0282663
0.0282304
0.0281936
0.0281553
0.0281154
0.0280754
0.0280351
0.0279927
0.0279485
0.0279059
0.0278628
0.027817
0.0277703
0.0277258
0.0276801
0.0276317
0.0275841
0.0275381
0.0274904
0.0274418
0.0273941
0.0273467
0.0272988
0.0272509
0.0272031
0.0271554
0.0271077
0.0270601
0.0270126
0.0269653
0.0269182
0.0268714
0.0268249
0.0267787
0.0267328
0.026687
0.0266416
0.026597
0.0265528
0.026509
0.0264655
0.0264224
0.0263797
0.0263373
0.0262952
0.0262535
0.026212
0.0261708
0.0261299
0.0260892
0.0260487
0.0260082
0.0259679
0.0259276
0.0258873
0.0258469
0.0258065
0.0257661
0.0257257
0.0256853
0.025645
0.0256047
0.0255644
0.0255241
0.0254834
0.0254422
0.0254006
0.0253584
0.0253156
0.0252723
0.0252286
0.0251847
0.0286567
0.0286698
0.0286832
0.0286968
0.0287106
0.0287245
0.0287385
0.0287524
0.0287663
0.02878
0.0287936
0.0288068
0.0288196
0.0288319
0.0288438
0.0288549
0.0288654
0.0288752
0.0288841
0.0288921
0.0288991
0.0289051
0.02891
0.0289137
0.0289161
0.0289171
0.0289167
0.0289151
0.028912
0.0289075
0.0289014
0.0288938
0.0288847
0.0288739
0.0288616
0.0288476
0.028832
0.0288148
0.0287959
0.0287754
0.0287533
0.0287295
0.0287042
0.0286774
0.028649
0.0286191
0.0285877
0.0285549
0.0285208
0.0284853
0.0284485
0.0284102
0.0283709
0.0283306
0.0282891
0.028246
0.0282021
0.0281587
0.0281134
0.028066
0.0280194
0.0279737
0.0279253
0.0278751
0.0278269
0.027779
0.0277282
0.0276772
0.027628
0.0275785
0.0275279
0.0274775
0.0274276
0.0273779
0.0273281
0.0272784
0.0272289
0.0271796
0.0271306
0.0270818
0.0270334
0.0269853
0.0269375
0.0268901
0.026843
0.026796
0.0267495
0.0267037
0.0266585
0.0266137
0.0265693
0.0265252
0.0264815
0.0264381
0.0263951
0.0263523
0.0263098
0.0262676
0.0262255
0.0261836
0.0261418
0.0261001
0.0260584
0.0260168
0.0259751
0.0259333
0.0258913
0.0258492
0.025807
0.0257647
0.0257223
0.0256797
0.025637
0.025594
0.0255507
0.0255071
0.0254631
0.0254184
0.0253731
0.0253271
0.0252805
0.0252334
0.0251861
0.0251388
0.0250915
0.0288619
0.0288767
0.0288918
0.0289069
0.0289221
0.0289374
0.0289525
0.0289675
0.0289822
0.0289967
0.0290107
0.0290243
0.0290374
0.0290498
0.0290616
0.0290725
0.0290826
0.0290918
0.0290999
0.0291069
0.0291128
0.0291175
0.0291209
0.029123
0.0291234
0.0291227
0.0291204
0.0291166
0.0291111
0.0291041
0.0290954
0.029085
0.029073
0.0290592
0.0290437
0.0290266
0.0290077
0.0289871
0.0289647
0.0289407
0.028915
0.0288876
0.0288586
0.028828
0.0287958
0.0287621
0.0287269
0.0286903
0.0286523
0.0286129
0.0285722
0.0285303
0.028487
0.028443
0.028398
0.0283512
0.0283034
0.0282565
0.028208
0.0281573
0.0281068
0.028058
0.0280068
0.0279535
0.0279016
0.0278509
0.0277978
0.027744
0.0276915
0.0276396
0.0275871
0.0275345
0.0274823
0.0274305
0.027379
0.0273277
0.0272767
0.027226
0.0271756
0.0271257
0.0270762
0.0270271
0.0269785
0.0269302
0.0268822
0.0268344
0.0267875
0.0267412
0.0266954
0.02665
0.0266049
0.0265602
0.0265159
0.0264718
0.0264281
0.0263845
0.0263412
0.026298
0.026255
0.026212
0.0261691
0.0261261
0.0260831
0.0260401
0.0259969
0.0259537
0.0259103
0.0258667
0.0258229
0.0257789
0.0257346
0.0256899
0.0256449
0.0255994
0.0255534
0.025507
0.0254602
0.0254128
0.0253648
0.025316
0.0252667
0.0252169
0.0251668
0.0251162
0.0250653
0.0290681
0.0290842
0.0291005
0.0291168
0.0291329
0.0291489
0.0291647
0.0291802
0.0291953
0.0292099
0.0292239
0.0292373
0.02925
0.029262
0.029273
0.029283
0.0292921
0.0293
0.0293067
0.0293121
0.0293162
0.029319
0.0293202
0.0293199
0.0293182
0.0293149
0.0293099
0.0293032
0.0292948
0.0292846
0.0292727
0.0292589
0.0292434
0.0292261
0.0292069
0.029186
0.0291632
0.0291387
0.0291124
0.0290843
0.0290545
0.0290231
0.0289899
0.0289551
0.0289187
0.0288807
0.0288413
0.0288005
0.0287582
0.0287146
0.0286697
0.0286236
0.0285763
0.0285283
0.0284794
0.0284287
0.028377
0.0283263
0.0282742
0.02822
0.028166
0.0281137
0.0280595
0.0280034
0.0279483
0.0278943
0.027839
0.027783
0.0277276
0.027673
0.0276185
0.027564
0.0275099
0.0274563
0.0274031
0.0273504
0.0272981
0.0272464
0.0271951
0.0271443
0.0270941
0.0270444
0.0269952
0.0269462
0.0268975
0.0268494
0.0268022
0.0267555
0.0267093
0.0266634
0.0266179
0.0265728
0.0265279
0.0264833
0.026439
0.0263948
0.0263508
0.0263069
0.0262631
0.0262192
0.0261753
0.0261314
0.0260873
0.026043
0.0259986
0.025954
0.0259093
0.0258643
0.025819
0.0257734
0.0257273
0.0256807
0.0256336
0.0255859
0.0255376
0.0254885
0.0254387
0.0253882
0.025337
0.0252853
0.025233
0.0251803
0.0251271
0.0250735
0.0250196
0.029256
0.0292731
0.0292901
0.0293071
0.0293239
0.0293405
0.0293567
0.0293726
0.029388
0.0294028
0.0294169
0.0294303
0.0294429
0.0294546
0.0294654
0.029475
0.0294835
0.0294908
0.0294968
0.0295014
0.0295046
0.0295063
0.0295062
0.0295049
0.0295018
0.029497
0.0294904
0.0294821
0.0294719
0.0294599
0.0294461
0.0294303
0.0294126
0.0293931
0.0293716
0.0293483
0.0293231
0.029296
0.029267
0.0292362
0.0292037
0.0291693
0.0291333
0.0290955
0.0290561
0.0290151
0.0289726
0.0289286
0.0288833
0.0288365
0.0287883
0.028739
0.0286885
0.0286368
0.0285847
0.0285317
0.0284771
0.0284216
0.028367
0.0283112
0.0282535
0.0281962
0.0281404
0.0280831
0.0280247
0.0279674
0.0279106
0.0278533
0.0277958
0.0277385
0.0276818
0.0276256
0.0275697
0.0275142
0.0274593
0.0274049
0.0273511
0.027298
0.0272454
0.0271935
0.0271422
0.0270915
0.0270414
0.0269918
0.0269424
0.0268934
0.0268453
0.0267979
0.0267511
0.0267047
0.0266586
0.0266128
0.0265674
0.0265223
0.0264774
0.0264327
0.0263881
0.0263436
0.0262992
0.0262548
0.0262103
0.0261657
0.026121
0.026076
0.0260309
0.0259854
0.0259397
0.0258935
0.0258468
0.0257998
0.0257522
0.0257041
0.0256553
0.0256059
0.0255558
0.0255049
0.0254533
0.025401
0.025348
0.0252944
0.0252403
0.0251857
0.0251307
0.0250752
0.0250191
0.0249626
0.0294571
0.0294747
0.0294921
0.0295092
0.029526
0.0295424
0.0295582
0.0295736
0.0295882
0.0296021
0.0296151
0.0296273
0.0296384
0.0296484
0.0296573
0.0296649
0.0296712
0.0296761
0.0296794
0.0296814
0.0296814
0.0296802
0.0296771
0.0296723
0.0296656
0.0296571
0.0296468
0.0296345
0.0296203
0.0296041
0.029586
0.0295659
0.0295437
0.0295197
0.0294936
0.0294656
0.0294356
0.0294037
0.0293699
0.0293342
0.0292968
0.0292575
0.0292166
0.0291739
0.0291295
0.0290836
0.0290361
0.0289873
0.0289373
0.0288858
0.0288331
0.0287792
0.0287242
0.0286682
0.0286118
0.0285548
0.0284968
0.0284383
0.0283805
0.0283216
0.0282611
0.0282015
0.0281426
0.0280824
0.0280221
0.0279629
0.0279037
0.0278445
0.0277858
0.0277272
0.027669
0.0276115
0.0275547
0.0274983
0.0274426
0.0273875
0.0273331
0.0272794
0.0272263
0.0271739
0.0271223
0.0270714
0.0270212
0.0269715
0.026922
0.026873
0.0268251
0.0267779
0.0267311
0.0266847
0.0266387
0.026593
0.0265475
0.0265023
0.0264573
0.0264124
0.0263676
0.0263229
0.0262781
0.0262332
0.0261882
0.0261431
0.0260976
0.0260519
0.0260059
0.0259595
0.0259126
0.0258652
0.0258172
0.0257687
0.0257196
0.0256698
0.0256193
0.0255681
0.0255161
0.0254635
0.0254101
0.025356
0.0253014
0.0252462
0.0251905
0.0251342
0.0250774
0.0250201
0.0249623
0.024904
0.0248453
0.0247864
0.0296531
0.0296705
0.0296876
0.0297043
0.0297205
0.029736
0.0297509
0.029765
0.0297783
0.0297906
0.0298019
0.0298121
0.0298211
0.0298288
0.0298351
0.02984
0.0298434
0.0298453
0.0298453
0.0298439
0.0298407
0.0298356
0.0298287
0.0298199
0.0298092
0.0297964
0.0297817
0.029765
0.0297462
0.0297253
0.0297024
0.0296774
0.0296504
0.0296213
0.0295902
0.0295571
0.029522
0.0294849
0.0294459
0.029405
0.0293623
0.0293178
0.0292717
0.0292239
0.0291743
0.0291233
0.0290708
0.0290171
0.0289622
0.0289065
0.0288499
0.0287922
0.0287335
0.0286739
0.0286139
0.0285534
0.0284921
0.0284307
0.0283698
0.0283081
0.0282454
0.0281837
0.0281223
0.0280598
0.0279976
0.0279365
0.0278752
0.0278141
0.0277541
0.0276945
0.0276351
0.0275767
0.0275191
0.0274622
0.027406
0.0273507
0.0272961
0.0272422
0.0271892
0.027137
0.0270856
0.0270351
0.0269853
0.0269359
0.0268869
0.0268385
0.0267911
0.0267444
0.0266982
0.0266524
0.0266068
0.0265615
0.0265165
0.0264716
0.0264269
0.0263823
0.0263377
0.0262931
0.0262483
0.0262034
0.0261583
0.026113
0.0260673
0.0260212
0.0259747
0.0259277
0.0258802
0.0258321
0.0257833
0.0257339
0.0256838
0.025633
0.0255815
0.0255292
0.0254763
0.0254226
0.0253683
0.0253133
0.0252578
0.0252018
0.0251452
0.0250882
0.0250306
0.0249727
0.0249143
0.0248555
0.0247964
0.0247372
0.0298415
0.0298583
0.0298745
0.0298901
0.029905
0.0299192
0.0299324
0.0299447
0.0299559
0.029966
0.0299749
0.0299825
0.0299887
0.0299934
0.0299966
0.0299982
0.029998
0.0299963
0.0299927
0.0299873
0.0299799
0.0299706
0.0299593
0.029946
0.0299306
0.0299131
0.0298935
0.0298718
0.029848
0.029822
0.0297939
0.0297637
0.0297313
0.0296969
0.0296604
0.0296217
0.0295811
0.0295387
0.0294942
0.0294478
0.0293996
0.0293498
0.0292983
0.0292456
0.0291916
0.0291362
0.0290795
0.0290216
0.0289625
0.0289027
0.0288422
0.0287809
0.0287188
0.0286559
0.0285927
0.0285288
0.0284642
0.0283997
0.0283356
0.028271
0.0282061
0.0281422
0.0280785
0.0280142
0.0279507