/*--------------------------------*- C++ -*----------------------------------*\
| =========                 |                                                 |
| \\      /  F ield         | OpenFOAM: The Open Source CFD Toolbox           |
|  \\    /   O peration     | Version:  v1706                                 |
|   \\  /    A nd           | Web:      www.OpenFOAM.com                      |
|    \\/     M anipulation  |                                                 |
\*---------------------------------------------------------------------------*/
FoamFile
{
    version     2.0;
    format      ascii;
    class       volScalarField;
    location    "3.2e-05";
    object      Mach;
}
// * * * * * * * * * * * * * * * * * * * * * * * * * * * * * * * * * * * * * //

dimensions      [0 0 0 0 0 0 0];


internalField   nonuniform List<scalar> 
29871
(
3.86703
3.85449
3.8415
3.82796
3.81362
3.79783
3.7801
3.76037
3.73887
3.716
3.69229
3.66824
3.64421
3.62048
3.59724
3.57465
3.55285
3.53195
3.51204
3.49252
3.47091
3.44526
3.41691
3.38743
3.35802
3.32945
3.30221
3.27661
3.25284
3.23097
3.21099
3.19283
3.17636
3.16147
3.14805
3.13595
3.12507
3.11533
3.10665
3.09902
3.09238
3.08672
3.08202
3.07824
3.07536
3.07338
3.07246
3.07246
3.07317
3.07516
3.07763
3.08095
3.08471
3.08935
3.09473
3.10062
3.10728
3.11485
3.12323
3.13247
3.14269
3.15387
3.16596
3.17899
3.19299
3.20799
3.22399
3.24103
3.25911
3.27825
3.29849
3.31985
3.34234
3.36598
3.39077
3.4168
3.44412
3.47275
3.50255
3.53307
3.56308
3.589
3.60943
3.62825
3.64719
3.66669
3.68676
3.70731
3.7283
3.74964
3.7711
3.79247
3.81399
3.83562
3.85592
3.87328
3.88772
3.90036
3.91184
3.92249
3.93238
3.9413
3.94904
3.95562
3.96126
3.37367
3.32582
3.27824
3.2314
3.18419
3.13403
3.08061
3.02532
2.9697
2.91498
2.86214
2.81189
2.76472
2.72096
2.68079
2.64428
2.61141
2.5821
2.55616
2.53338
2.51389
2.49762
2.48407
2.47287
2.46369
2.45628
2.45044
2.44609
2.44311
2.44133
2.44058
2.44064
2.44134
2.44254
2.44415
2.44603
2.44814
2.45041
2.45285
2.45546
2.45823
2.46114
2.4642
2.46738
2.47065
2.47406
2.47766
2.4814
2.48526
2.48932
2.49348
2.49794
2.50098
2.50484
2.509
2.51328
2.51761
2.52193
2.52636
2.53108
2.53599
2.54098
2.54614
2.55149
2.55703
2.56274
2.56862
2.57469
2.58097
2.58751
2.59438
2.60166
2.60952
2.61805
2.62728
2.63734
2.64844
2.66083
2.67486
2.69101
2.70999
2.73256
2.75861
2.7873
2.81845
2.85228
2.88909
2.92909
2.97251
3.01951
3.07027
3.12492
3.1835
3.24538
3.30825
3.36828
3.42044
3.46781
3.514
3.56034
3.60692
3.65333
3.69861
3.74045
3.77658
2.72842
2.66697
2.60967
2.557
2.50921
2.46648
2.42944
2.39775
2.37087
2.34822
2.32926
2.31344
2.30027
2.28935
2.28037
2.27312
2.26745
2.26332
2.26071
2.25943
2.25922
2.25986
2.26122
2.26317
2.26563
2.26855
2.27176
2.27526
2.27923
2.28372
2.28863
2.29384
2.29923
2.30472
2.31022
2.31572
2.32119
2.32662
2.33201
2.33735
2.34266
2.34795
2.35323
2.3585
2.36378
2.36906
2.37432
2.37964
2.38516
2.39083
2.39652
2.40169
2.40693
2.41225
2.41815
2.42249
2.42754
2.43326
2.43838
2.44321
2.44869
2.4543
2.45957
2.46491
2.47034
2.47572
2.48102
2.48625
2.49141
2.4965
2.50155
2.50656
2.51157
2.51661
2.52177
2.52703
2.53242
2.53798
2.54369
2.54955
2.55572
2.5623
2.56921
2.57627
2.58352
2.59116
2.5994
2.60844
2.61858
2.63034
2.64401
2.65974
2.67792
2.69915
2.72407
2.75328
2.78765
2.82818
2.87433
2.92569
2.98264
3.04567
3.11491
3.18936
3.26621
3.3407
2.24953
2.23169
2.21693
2.20481
2.19494
2.18703
2.18094
2.17654
2.17369
2.17219
2.17174
2.17198
2.17263
2.17354
2.17464
2.17592
2.17744
2.17945
2.18217
2.18539
2.18892
2.19262
2.19642
2.20033
2.20436
2.2085
2.21274
2.21701
2.2212
2.22537
2.22962
2.23405
2.23871
2.24365
2.24886
2.25433
2.26
2.26583
2.27181
2.27788
2.28404
2.2903
2.29659
2.30292
2.30935
2.31588
2.32239
2.32883
2.33539
2.34214
2.34882
2.35532
2.36187
2.36807
2.37467
2.37968
2.38548
2.39202
2.39808
2.40355
2.40976
2.41631
2.42241
2.42856
2.43481
2.44107
2.44732
2.45358
2.45987
2.46623
2.47266
2.47912
2.48561
2.49195
2.49786
2.50353
2.50915
2.51478
2.52038
2.52597
2.5317
2.53762
2.54363
2.54961
2.55556
2.56161
2.56776
2.57405
2.58061
2.58764
2.59531
2.60353
2.61217
2.62089
2.62948
2.63806
2.64685
2.65604
2.66614
2.67782
2.69181
2.70887
2.72981
2.75553
2.78691
2.8251
2.12082
2.11871
2.1175
2.11687
2.11665
2.11676
2.11713
2.11781
2.11889
2.12058
2.12291
2.1257
2.12872
2.13189
2.13507
2.13821
2.14125
2.14412
2.14671
2.14905
2.15148
2.15426
2.15748
2.16114
2.16518
2.16953
2.17416
2.17902
2.18412
2.18894
2.19339
2.19762
2.20177
2.20595
2.21028
2.21484
2.21967
2.22479
2.23018
2.23581
2.24164
2.24764
2.25389
2.26018
2.26653
2.27302
2.27964
2.2863
2.29298
2.29979
2.3068
2.31365
2.32044
2.32754
2.33424
2.34149
2.34697
2.3538
2.36099
2.36785
2.37396
2.38067
2.38795
2.39482
2.40165
2.40832
2.41498
2.42169
2.42826
2.43477
2.44136
2.44794
2.45444
2.4609
2.46734
2.47384
2.48036
2.48695
2.49361
2.5003
2.50698
2.5137
2.52053
2.5274
2.53423
2.54121
2.54849
2.55599
2.56371
2.57173
2.57933
2.586
2.59234
2.59859
2.60537
2.61163
2.61745
2.62334
2.62895
2.63462
2.64094
2.64787
2.65514
2.66257
2.67013
2.6779
2.68643
2.07839
2.08006
2.08207
2.08426
2.08648
2.08883
2.09115
2.09334
2.09546
2.09754
2.09958
2.10183
2.10439
2.10757
2.11105
2.11464
2.11842
2.12226
2.12601
2.12865
2.13111
2.13346
2.13592
2.13869
2.14183
2.14535
2.1492
2.15347
2.15786
2.16255
2.16745
2.17234
2.17716
2.18189
2.18658
2.1913
2.19609
2.20101
2.2061
2.2114
2.21686
2.22249
2.2284
2.23447
2.24059
2.24694
2.25346
2.26007
2.26667
2.27358
2.2807
2.28763
2.29445
2.30186
2.3087
2.31616
2.32169
2.32913
2.33672
2.3438
2.35089
2.35753
2.36533
2.37302
2.38057
2.38764
2.39458
2.40209
2.40935
2.41621
2.42336
2.43065
2.43779
2.4449
2.45202
2.45914
2.46618
2.47327
2.48043
2.48757
2.49433
2.50118
2.50838
2.51534
2.52199
2.52888
2.53612
2.54306
2.55
2.5569
2.56396
2.57072
2.57755
2.58437
2.59145
2.59809
2.6045
2.61116
2.61788
2.62415
2.63008
2.63592
2.64149
2.64702
2.65328
2.6587
2.66238
2.05394
2.0557
2.05736
2.05889
2.06046
2.06217
2.06445
2.06693
2.06971
2.07264
2.0756
2.07851
2.0814
2.08372
2.0858
2.08798
2.09048
2.0933
2.09642
2.09976
2.10329
2.10688
2.11048
2.11387
2.11698
2.11988
2.1227
2.12559
2.12865
2.13195
2.13555
2.1394
2.14354
2.14801
2.15267
2.15745
2.16233
2.16723
2.17214
2.17714
2.18218
2.18726
2.19253
2.19792
2.20334
2.20904
2.21495
2.22083
2.22694
2.23335
2.23988
2.24617
2.25305
2.26012
2.26714
2.27362
2.28126
2.28824
2.29568
2.30126
2.30898
2.31679
2.32395
2.33147
2.33795
2.34617
2.35436
2.36219
2.36957
2.37684
2.38481
2.39252
2.39968
2.40715
2.41519
2.42278
2.4303
2.43799
2.44549
2.45261
2.45999
2.46763
2.47497
2.48174
2.489
2.4965
2.50382
2.51058
2.51783
2.52506
2.53208
2.53862
2.54547
2.55217
2.55885
2.56549
2.57202
2.57832
2.58453
2.59081
2.59708
2.60331
2.60968
2.61606
2.62229
2.62846
2.63501
2.64142
2.64791
2.65388
2.03699
2.03962
2.04211
2.04432
2.04632
2.048
2.04983
2.05191
2.05434
2.05683
2.05958
2.0624
2.06529
2.06813
2.07075
2.07327
2.07578
2.07833
2.08111
2.08401
2.08725
2.09059
2.09415
2.09776
2.10132
2.10478
2.10809
2.1113
2.11451
2.11775
2.12113
2.12469
2.12841
2.13243
2.13671
2.14106
2.14574
2.15061
2.15536
2.16041
2.16563
2.17066
2.17596
2.18151
2.1869
2.19245
2.19841
2.20433
2.21009
2.21652
2.22309
2.2291
2.23585
2.24289
2.24996
2.25606
2.26372
2.27089
2.2783
2.284
2.29176
2.29964
2.30683
2.31453
2.32094
2.3294
2.33779
2.3457
2.35325
2.36073
2.369
2.37676
2.38439
2.39167
2.39998
2.40794
2.41558
2.42352
2.43118
2.43845
2.44585
2.45362
2.46105
2.46828
2.4757
2.4833
2.49065
2.49785
2.50512
2.51234
2.51939
2.52628
2.53311
2.53975
2.54628
2.55279
2.55921
2.56552
2.57175
2.57805
2.5844
2.59068
2.59691
2.60304
2.60899
2.61494
2.62096
2.62707
2.63344
2.63986
2.02236
2.02469
2.02704
2.02943
2.0318
2.03395
2.03595
2.03792
2.04007
2.0423
2.04472
2.04731
2.05007
2.05293
2.05578
2.05855
2.06124
2.06386
2.06658
2.06937
2.07229
2.07542
2.0787
2.08216
2.08574
2.08936
2.09296
2.09653
2.10009
2.10361
2.10713
2.11079
2.11445
2.11827
2.12241
2.12651
2.13085
2.13565
2.14026
2.14502
2.15032
2.15545
2.16047
2.16616
2.1718
2.17702
2.18307
2.18923
2.19473
2.20112
2.20775
2.21381
2.22024
2.22732
2.23441
2.24038
2.24787
2.25513
2.26256
2.26848
2.27616
2.284
2.29119
2.29885
2.3053
2.31388
2.32226
2.33018
2.33774
2.34532
2.35379
2.36149
2.36942
2.37638
2.38441
2.39275
2.40061
2.40843
2.41613
2.42368
2.43124
2.43896
2.44651
2.45396
2.46148
2.46905
2.47648
2.48381
2.49111
2.4983
2.50537
2.51235
2.51919
2.52584
2.53235
2.53881
2.54524
2.55163
2.55815
2.56462
2.57106
2.5774
2.5836
2.58966
2.59562
2.60158
2.60761
2.61382
2.62015
2.62638
2.0081
2.01013
2.01229
2.01459
2.01695
2.01926
2.02146
2.02358
2.02567
2.0278
2.03002
2.03238
2.03488
2.03755
2.04032
2.04314
2.04596
2.04875
2.05153
2.05434
2.0572
2.06019
2.06332
2.06659
2.07004
2.07361
2.07728
2.08099
2.08477
2.08854
2.09227
2.09622
2.10009
2.1039
2.10813
2.11233
2.1164
2.12112
2.12585
2.13025
2.13547
2.14079
2.14553
2.15116
2.157
2.16214
2.16803
2.17432
2.17999
2.18603
2.19272
2.19909
2.20514
2.21224
2.21936
2.22541
2.23267
2.23999
2.24741
2.25353
2.26119
2.26896
2.27613
2.28356
2.29019
2.29887
2.30707
2.31499
2.3224
2.33007
2.33872
2.34642
2.35426
2.36104
2.36878
2.37732
2.38523
2.393
2.40073
2.4084
2.41608
2.42378
2.43141
2.43894
2.44648
2.45402
2.46146
2.46881
2.47608
2.48324
2.49028
2.49722
2.50403
2.51071
2.51727
2.52375
2.53034
2.5369
2.54344
2.54996
2.55642
2.56278
2.56901
2.57514
2.58123
2.58735
2.59357
2.59987
2.60615
2.61225
1.99356
1.99538
1.9973
1.99935
2.00151
2.00374
2.00598
2.00819
2.01036
2.01251
2.01468
2.01692
2.01926
2.02173
2.02433
2.02705
2.02985
2.0327
2.03557
2.03847
2.04139
2.04438
2.04745
2.05064
2.05396
2.05743
2.06104
2.06477
2.0686
2.0725
2.07642
2.0805
2.08458
2.08857
2.09293
2.09732
2.10144
2.10611
2.11099
2.11538
2.12041
2.12583
2.13065
2.13597
2.14189
2.14729
2.15278
2.15911
2.16516
2.1708
2.17748
2.18414
2.19001
2.19696
2.20413
2.21043
2.21735
2.22476
2.23219
2.23846
2.24609
2.25383
2.26105
2.26818
2.27506
2.28382
2.2918
2.29973
2.3068
2.31465
2.32338
2.33097
2.33881
2.34558
2.35311
2.36165
2.36951
2.37722
2.38495
2.39266
2.40036
2.40805
2.41568
2.42324
2.43075
2.43822
2.44563
2.45294
2.46015
2.46725
2.47425
2.48115
2.48792
2.49462
2.50132
2.50793
2.51452
2.52109
2.52764
2.53416
2.54061
2.54697
2.55324
2.55946
2.56566
2.57191
2.57821
2.58453
2.59077
2.59689
1.97649
1.97821
1.97993
1.98171
1.98356
1.98551
1.98756
1.98968
1.99186
1.99405
1.99624
1.99844
2.00066
2.00294
2.0053
2.00776
2.01035
2.01305
2.01584
2.01872
2.02166
2.02464
2.02768
2.03078
2.03396
2.03724
2.04065
2.04418
2.04785
2.05165
2.05557
2.05958
2.06371
2.06791
2.07211
2.07654
2.08106
2.08542
2.09007
2.0951
2.0997
2.10456
2.11008
2.11516
2.12021
2.12613
2.13185
2.13712
2.14332
2.14967
2.15527
2.16166
2.1685
2.1746
2.1811
2.18829
2.19504
2.20154
2.209
2.2165
2.22294
2.23038
2.23815
2.24551
2.25246
2.25954
2.26827
2.27608
2.28405
2.29073
2.29882
2.30756
2.31504
2.32302
2.32958
2.33718
2.34556
2.35332
2.36097
2.36866
2.37636
2.38404
2.39168
2.39927
2.40679
2.41425
2.42166
2.42899
2.43623
2.44338
2.45042
2.45734
2.46426
2.47108
2.47781
2.4845
2.49113
2.49773
2.50429
2.51082
2.5173
2.52373
2.53009
2.53639
2.54267
2.54896
2.55527
2.5616
2.56792
2.5742
2.58041
1.96028
1.96197
1.96366
1.96537
1.96711
1.96891
1.9708
1.97277
1.97483
1.97695
1.97911
1.9813
1.98353
1.98579
1.98811
1.9905
1.99299
1.99558
1.99829
2.00109
2.004
2.00699
2.01005
2.01318
2.01639
2.01968
2.02307
2.02658
2.0302
2.03396
2.03784
2.04185
2.04599
2.05024
2.05456
2.05904
2.06363
2.0682
2.07291
2.07799
2.08282
2.0877
2.09326
2.09857
2.10366
2.10944
2.11543
2.12082
2.12672
2.13325
2.13916
2.14514
2.15199
2.15859
2.16468
2.17175
2.1789
2.18526
2.19246
2.20001
2.20688
2.21391
2.22173
2.22922
2.23628
2.24336
2.25198
2.25963
2.26767
2.27416
2.28234
2.29101
2.29851
2.30656
2.31292
2.32081
2.32897
2.33662
2.34418
2.35178
2.35941
2.36703
2.37461
2.38213
2.38958
2.39697
2.40429
2.41153
2.41866
2.42578
2.43281
2.43972
2.44658
2.45337
2.46009
2.46676
2.47337
2.47995
2.48648
2.49297
2.49942
2.50582
2.51218
2.51851
2.52483
2.53115
2.5375
2.54386
2.55023
2.55658
2.56291
2.56924
2.57556
1.94339
1.945
1.94664
1.94829
1.94996
1.95167
1.95344
1.95528
1.9572
1.95921
1.96128
1.96342
1.96561
1.96785
1.97014
1.9725
1.97493
1.97744
1.98007
1.98279
1.98563
1.98856
1.9916
1.99473
1.99795
2.00126
2.00466
2.00816
2.01177
2.0155
2.01936
2.02335
2.02747
2.03172
2.03608
2.04058
2.04521
2.0499
2.05471
2.05978
2.06479
2.0698
2.07531
2.08082
2.08609
2.09171
2.0979
2.10355
2.10925
2.11579
2.12211
2.12798
2.1346
2.14155
2.14779
2.15442
2.1617
2.16856
2.17518
2.18267
2.19009
2.19681
2.20442
2.21204
2.2195
2.22638
2.23475
2.24245
2.2505
2.2569
2.2651
2.27351
2.28112
2.28875
2.29608
2.30388
2.31179
2.31937
2.32682
2.33429
2.3418
2.34931
2.35678
2.36421
2.37156
2.37882
2.38607
2.39325
2.40034
2.40736
2.41431
2.42118
2.42799
2.43472
2.44141
2.44804
2.45462
2.46115
2.46765
2.4741
2.48052
2.4869
2.49326
2.4996
2.50595
2.51231
2.5187
2.5251
2.53153
2.53796
2.54441
2.55088
2.55734
1.92308
1.92449
1.92596
1.92746
1.929
1.93057
1.93217
1.93381
1.93549
1.93723
1.93904
1.94092
1.94289
1.94493
1.94705
1.94923
1.95148
1.9538
1.95618
1.95865
1.9612
1.96387
1.96663
1.9695
1.97248
1.97557
1.97876
1.98206
1.98546
1.98897
1.99258
1.99631
2.00016
2.00413
2.00823
2.01247
2.01684
2.02134
2.02598
2.03073
2.0356
2.04067
2.04579
2.05094
2.0564
2.06202
2.06749
2.07307
2.0793
2.08522
2.09098
2.09731
2.10397
2.11004
2.11634
2.12339
2.13011
2.13645
2.14359
2.1509
2.15749
2.16458
2.17215
2.17928
2.18633
2.19397
2.20166
2.20876
2.21652
2.22427
2.23207
2.23935
2.24724
2.2553
2.26295
2.27048
2.27814
2.28594
2.29371
2.30126
2.30867
2.31603
2.3234
2.33077
2.3381
2.34537
2.35265
2.35985
2.36698
2.37406
2.38106
2.38799
2.39486
2.40166
2.4084
2.41508
2.42171
2.42829
2.43482
2.44132
2.44777
2.45419
2.46058
2.46695
2.47331
2.47967
2.48605
2.49245
2.49887
2.50533
2.51182
2.51834
2.52488
2.53145
2.53803
1.90545
1.90674
1.90807
1.90945
1.91088
1.91235
1.91386
1.91541
1.91701
1.91866
1.92037
1.92216
1.92401
1.92595
1.92797
1.93008
1.93226
1.93451
1.93685
1.93927
1.94177
1.94438
1.94708
1.94988
1.9528
1.95583
1.95899
1.96225
1.96563
1.96913
1.97273
1.97646
1.98031
1.98428
1.98838
1.99261
1.99697
2.00147
2.00612
2.01089
2.01578
2.02085
2.02603
2.03128
2.03672
2.0424
2.04802
2.05364
2.05978
2.06594
2.07186
2.07797
2.08479
2.09117
2.09738
2.10426
2.11137
2.11785
2.12465
2.13207
2.13918
2.14586
2.15332
2.16081
2.16782
2.17517
2.18277
2.19026
2.19771
2.20533
2.21299
2.22066
2.22845
2.23628
2.24395
2.25152
2.25915
2.26686
2.27454
2.28208
2.28947
2.29678
2.30403
2.31123
2.31846
2.32565
2.33279
2.33986
2.34688
2.35385
2.36075
2.36759
2.37437
2.3811
2.38776
2.39438
2.40095
2.40747
2.41395
2.4204
2.42682
2.43321
2.43958
2.44594
2.45231
2.45869
2.46509
2.47153
2.478
2.4845
2.49105
2.49763
2.50425
2.5109
2.51758
2.52429
1.87989
1.88091
1.88194
1.88299
1.88407
1.88516
1.88628
1.88742
1.88859
1.8898
1.89106
1.89237
1.89373
1.89513
1.89659
1.8981
1.89966
1.90128
1.90297
1.90473
1.90657
1.90849
1.9105
1.9126
1.91478
1.91705
1.91941
1.92186
1.92441
1.92706
1.92981
1.93267
1.93565
1.93875
1.94197
1.94532
1.94878
1.95237
1.95609
1.95993
1.9639
1.96799
1.97223
1.97659
1.98109
1.98573
1.99051
1.99541
2.00048
2.00569
2.01099
2.01643
2.02211
2.02783
2.03355
2.03955
2.04586
2.05194
2.058
2.0647
2.07141
2.07773
2.08433
2.09158
2.09843
2.10503
2.11232
2.11978
2.12658
2.13368
2.14123
2.14853
2.1557
2.16317
2.17068
2.17816
2.18567
2.19326
2.2009
2.2086
2.21631
2.22396
2.23154
2.23911
2.2467
2.25426
2.26174
2.2691
2.27633
2.2835
2.29067
2.29777
2.30483
2.31183
2.31878
2.32569
2.33254
2.33934
2.34608
2.35278
2.35942
2.36601
2.37255
2.37906
2.38553
2.39196
2.39837
2.40475
2.41111
2.41747
2.42384
2.43021
2.4366
2.44303
2.4495
2.45601
2.46256
2.46915
2.47578
2.48246
2.48917
2.49594
2.50275
1.86235
1.86324
1.86415
1.86508
1.86604
1.86702
1.86802
1.86905
1.87012
1.87122
1.87237
1.87356
1.8748
1.8761
1.87745
1.87886
1.88033
1.88186
1.88346
1.88513
1.88687
1.8887
1.89062
1.89262
1.89472
1.89692
1.89921
1.9016
1.90409
1.90668
1.90938
1.91219
1.91512
1.91817
1.92134
1.92464
1.92807
1.93163
1.93532
1.93915
1.9431
1.94719
1.95142
1.95578
1.96028
1.96492
1.9697
1.97461
1.97967
1.98489
1.99021
1.99565
2.00131
2.00709
2.01288
2.01878
2.02512
2.03133
2.03746
2.0439
2.05083
2.0573
2.06378
2.07091
2.07811
2.08476
2.09174
2.09927
2.10645
2.11333
2.12074
2.12815
2.1354
2.14274
2.15019
2.15765
2.16512
2.17263
2.18018
2.18776
2.19535
2.20292
2.21045
2.21795
2.22543
2.23287
2.24024
2.24748
2.25468
2.26182
2.26888
2.27587
2.2828
2.28969
2.29653
2.30332
2.31006
2.31676
2.32341
2.33001
2.33656
2.34308
2.34956
2.356
2.36241
2.3688
2.37517
2.38152
2.38787
2.39422
2.40058
2.40696
2.41337
2.41981
2.4263
2.43284
2.43942
2.44605
2.45273
2.45946
2.46623
2.47306
2.47996
1.84457
1.84534
1.84613
1.84694
1.84778
1.84864
1.84954
1.85046
1.85142
1.85241
1.85345
1.85453
1.85566
1.85685
1.8581
1.8594
1.86077
1.86221
1.86371
1.86529
1.86694
1.86868
1.87051
1.87242
1.87444
1.87655
1.87877
1.88109
1.88351
1.88604
1.88869
1.89144
1.89432
1.89732
1.90045
1.9037
1.90709
1.91062
1.91427
1.91807
1.922
1.92607
1.93028
1.93463
1.93912
1.94375
1.94852
1.95343
1.95847
1.96368
1.96901
1.97444
1.98006
1.98586
1.99169
1.99755
2.0038
2.01012
2.01631
2.02257
2.02951
2.03616
2.04265
2.04952
2.05685
2.0637
2.07047
2.07785
2.08523
2.09218
2.09938
2.10676
2.11407
2.12136
2.12873
2.13613
2.14354
2.15097
2.15842
2.16588
2.17334
2.18079
2.18822
2.19561
2.20298
2.21028
2.21749
2.22467
2.2318
2.23884
2.24579
2.25268
2.25951
2.26629
2.27302
2.2797
2.28634
2.29294
2.29949
2.306
2.31248
2.31892
2.32533
2.33171
2.33807
2.34442
2.35075
2.35708
2.36342
2.36976
2.37613
2.38252
2.38894
2.3954
2.4019
2.40846
2.41508
2.42175
2.42848
2.43526
2.4421
2.44901
2.45599
1.82663
1.82728
1.82796
1.82865
1.82938
1.83013
1.83091
1.83172
1.83257
1.83345
1.83438
1.83536
1.83638
1.83746
1.8386
1.8398
1.84107
1.84241
1.84382
1.8453
1.84687
1.84852
1.85025
1.85208
1.85401
1.85604
1.85818
1.86042
1.86277
1.86524
1.86782
1.87052
1.87335
1.87629
1.87937
1.88258
1.88592
1.88939
1.89301
1.89676
1.90066
1.90469
1.90887
1.91319
1.91766
1.92226
1.92701
1.93189
1.93691
1.94209
1.9474
1.95282
1.95838
1.96415
1.96998
1.97583
1.98194
1.98832
1.99453
2.00073
2.0075
2.0143
2.02079
2.02746
2.03474
2.04178
2.04848
2.05558
2.06294
2.07005
2.07712
2.08438
2.09166
2.09892
2.1062
2.11351
2.12083
2.12817
2.13551
2.14284
2.15017
2.15748
2.16478
2.17205
2.17927
2.1864
2.19351
2.2006
2.2076
2.21452
2.22136
2.22814
2.23487
2.24155
2.24817
2.25475
2.26129
2.2678
2.27426
2.28069
2.28709
2.29346
2.29981
2.30614
2.31246
2.31877
2.32508
2.3314
2.33773
2.34408
2.35045
2.35686
2.36331
2.3698
2.37634
2.38293
2.38957
2.39627
2.40302
2.40984
2.41673
2.42369
2.43071
2.43775
2.44485
1.8086
1.80914
1.80971
1.81029
1.8109
1.81154
1.8122
1.81291
1.81364
1.81442
1.81524
1.81611
1.81703
1.81801
1.81904
1.82014
1.82131
1.82255
1.82386
1.82525
1.82672
1.82828
1.82993
1.83167
1.83352
1.83546
1.83751
1.83967
1.84195
1.84434
1.84685
1.84949
1.85224
1.85513
1.85815
1.86129
1.86458
1.868
1.87156
1.87526
1.8791
1.88309
1.88722
1.89149
1.8959
1.90046
1.90516
1.91
1.91497
1.92009
1.92536
1.93074
1.93623
1.94193
1.94774
1.95356
1.95954
1.9659
1.97208
1.97825
1.98483
1.99166
1.99813
2.00468
2.01179
2.01887
2.02556
2.03248
2.03968
2.0468
2.05384
2.06097
2.06815
2.07533
2.08251
2.08971
2.09692
2.10413
2.11134
2.11854
2.12572
2.13289
2.14003
2.14715
2.15419
2.16119
2.16821
2.17514
2.18199
2.18878
2.19551
2.20218
2.2088
2.21537
2.2219
2.22838
2.23483
2.24124
2.24763
2.25398
2.26032
2.26664
2.27294
2.27923
2.28552
2.29181
2.2981
2.30441
2.31074
2.31709
2.32348
2.32991
2.33638
2.34289
2.34945
2.35605
2.36269
2.36938
2.37614
2.38296
2.38983
2.39678
2.40384
2.41101
2.41827
1.79055
1.79099
1.79144
1.79191
1.79241
1.79294
1.7935
1.79409
1.79472
1.79539
1.7961
1.79687
1.79768
1.79855
1.79948
1.80048
1.80154
1.80268
1.80389
1.80518
1.80656
1.80802
1.80958
1.81123
1.81299
1.81484
1.8168
1.81888
1.82107
1.82338
1.82581
1.82837
1.83105
1.83386
1.8368
1.83987
1.84309
1.84643
1.84992
1.85355
1.85732
1.86123
1.86529
1.86949
1.87384
1.87832
1.88295
1.88771
1.89261
1.89765
1.90284
1.90815
1.91355
1.91915
1.92488
1.93064
1.9365
1.94277
1.94889
1.95501
1.96144
1.96817
1.97458
1.98105
1.98793
1.99488
2.00158
2.0084
2.01538
2.02239
2.02939
2.03639
2.04344
2.0505
2.05756
2.06462
2.07169
2.07875
2.0858
2.09283
2.09985
2.10684
2.11382
2.12075
2.12761
2.13451
2.14136
2.14812
2.15482
2.16147
2.16807
2.17462
2.18113
2.1876
2.19402
2.20041
2.20677
2.2131
2.2194
2.22569
2.23197
2.23823
2.24449
2.25075
2.25702
2.26329
2.26956
2.27586
2.28219
2.28855
2.29495
2.30139
2.30787
2.3144
2.32099
2.32764
2.33436
2.34113
2.34797
2.3549
2.36193
2.36906
2.37633
2.38375
2.3913
1.77224
1.77255
1.77287
1.77322
1.77358
1.77397
1.77439
1.77483
1.77532
1.77584
1.7764
1.77701
1.77766
1.77837
1.77913
1.77996
1.78085
1.78181
1.78284
1.78395
1.78514
1.78642
1.78779
1.78924
1.7908
1.79245
1.79421
1.79608
1.79806
1.80015
1.80237
1.80471
1.80717
1.80975
1.81247
1.81532
1.8183
1.82142
1.82468
1.82808
1.83161
1.83528
1.8391
1.84306
1.84716
1.8514
1.85578
1.86031
1.86496
1.86975
1.87468
1.87976
1.88496
1.89025
1.89572
1.90133
1.90698
1.91273
1.91884
1.92485
1.93087
1.9372
1.94372
1.95001
1.95641
1.96307
1.96971
1.97636
1.98309
1.98985
1.99667
2.00353
2.01039
2.01726
2.02415
2.03105
2.03794
2.04482
2.0517
2.05857
2.06541
2.07224
2.07904
2.08582
2.09255
2.09926
2.10599
2.11266
2.11925
2.1258
2.1323
2.13876
2.14519
2.15158
2.15793
2.16425
2.17054
2.17681
2.18306
2.1893
2.19552
2.20174
2.20796
2.21419
2.22043
2.22668
2.23296
2.23926
2.2456
2.25198
2.2584
2.26487
2.27139
2.27797
2.28462
2.29133
2.29813
2.305
2.31195
2.31899
2.32616
2.33347
2.34088
2.34839
2.35598
2.36366
1.75443
1.75463
1.75484
1.75508
1.75533
1.75561
1.75592
1.75626
1.75663
1.75704
1.75749
1.75799
1.75854
1.75913
1.75979
1.76051
1.76129
1.76214
1.76306
1.76406
1.76515
1.76631
1.76757
1.76892
1.77037
1.77192
1.77357
1.77533
1.7772
1.77919
1.78129
1.78352
1.78587
1.78834
1.79094
1.79368
1.79654
1.79955
1.80269
1.80596
1.80937
1.81292
1.8166
1.82043
1.8244
1.82852
1.83277
1.83716
1.84167
1.84632
1.8511
1.85603
1.86108
1.86623
1.87155
1.87698
1.88246
1.88806
1.89392
1.89975
1.90561
1.9118
1.91801
1.92412
1.93041
1.93684
1.94316
1.94963
1.95622
1.96275
1.96933
1.97599
1.98264
1.9893
1.99598
2.00267
2.00936
2.01604
2.02272
2.02939
2.03604
2.04267
2.04927
2.05583
2.06236
2.06891
2.07547
2.08194
2.08836
2.09474
2.1011
2.10743
2.11373
2.12
2.12625
2.13247
2.13868
2.14488
2.15107
2.15725
2.16344
2.16963
2.17584
2.18207
2.18832
2.19461
2.20093
2.2073
2.21371
2.22018
2.2267
2.23329
2.23995
2.24669
2.25351
2.26041
2.26742
2.27453
2.28174
2.28906
2.29647
2.30396
2.31155
2.31925
2.32704
2.33494
2.34294
2.35104
1.73674
1.73683
1.73694
1.73706
1.73721
1.73738
1.73757
1.7378
1.73806
1.73836
1.73869
1.73908
1.73951
1.73999
1.74053
1.74114
1.7418
1.74254
1.74335
1.74423
1.74519
1.74624
1.74738
1.74861
1.74994
1.75136
1.75289
1.75453
1.75628
1.75813
1.76011
1.7622
1.76442
1.76676
1.76922
1.77181
1.77453
1.77739
1.78038
1.78351
1.78677
1.79016
1.79368
1.79734
1.80114
1.80509
1.80918
1.8134
1.81775
1.8222
1.82678
1.83149
1.83633
1.84126
1.84635
1.85156
1.85681
1.86219
1.86774
1.87332
1.87896
1.88489
1.89077
1.89666
1.90278
1.90897
1.91504
1.92126
1.92765
1.93396
1.94029
1.94673
1.95316
1.95958
1.96603
1.97249
1.97895
1.98541
1.99187
1.99831
2.00473
2.01114
2.01751
2.02385
2.03016
2.03653
2.04288
2.04917
2.0554
2.06161
2.06781
2.074
2.08017
2.08632
2.09246
2.09859
2.10472
2.11085
2.11698
2.12313
2.12929
2.13547
2.14168
2.14793
2.15421
2.16055
2.16693
2.17337
2.17988
2.18646
2.19311
2.19985
2.20667
2.21358
2.22058
2.2277
2.23491
2.24224
2.24969
2.25724
2.26488
2.27262
2.28047
2.28842
2.29648
2.30465
2.31294
2.32133
1.71919
1.71918
1.71917
1.71918
1.71922
1.71927
1.71935
1.71946
1.71961
1.71979
1.72001
1.72027
1.72058
1.72095
1.72137
1.72184
1.72239
1.72299
1.72368
1.72443
1.72527
1.72618
1.72719
1.72828
1.72947
1.73076
1.73215
1.73364
1.73524
1.73695
1.73877
1.7407
1.74276
1.74494
1.74724
1.74966
1.7522
1.75487
1.75768
1.76063
1.76372
1.76692
1.77025
1.7737
1.77727
1.78098
1.78482
1.7888
1.79292
1.79713
1.80144
1.80588
1.81043
1.81508
1.81988
1.8248
1.8298
1.83492
1.84019
1.8455
1.85089
1.8565
1.8621
1.86773
1.87357
1.87948
1.88531
1.89125
1.89735
1.9034
1.90947
1.91565
1.92181
1.92797
1.93416
1.94035
1.94655
1.95275
1.95894
1.96513
1.9713
1.97745
1.98358
1.98967
1.99575
2.00189
2.00803
2.0141
2.02014
2.02617
2.0322
2.03822
2.04425
2.05027
2.05629
2.06232
2.06836
2.07441
2.08049
2.08659
2.09272
2.09889
2.1051
2.11136
2.11768
2.12406
2.1305
2.13703
2.14363
2.15032
2.1571
2.16397
2.17094
2.17802
2.18521
2.1925
2.19992
2.20745
2.21509
2.22287
2.23077
2.23879
2.24692
2.25516
2.2635
2.27196
2.28053
2.28923
1.7018
1.70167
1.70156
1.70145
1.70137
1.70131
1.70127
1.70126
1.70128
1.70133
1.70143
1.70157
1.70175
1.70198
1.70227
1.70261
1.70302
1.70349
1.70403
1.70464
1.70533
1.7061
1.70695
1.7079
1.70893
1.71005
1.71128
1.7126
1.71403
1.71556
1.7172
1.71895
1.72081
1.72279
1.72491
1.72713
1.72947
1.73193
1.73451
1.73721
1.74005
1.74302
1.74609
1.74927
1.75256
1.75596
1.75949
1.76314
1.76693
1.77086
1.77493
1.77912
1.78342
1.78782
1.79234
1.79698
1.80171
1.80654
1.81149
1.8165
1.8216
1.82685
1.83213
1.83745
1.84292
1.84847
1.85399
1.85958
1.86531
1.87101
1.87673
1.88258
1.88843
1.8943
1.90019
1.90607
1.91197
1.91786
1.92376
1.92966
1.93554
1.94141
1.94726
1.95309
1.9589
1.96475
1.97065
1.97649
1.98231
1.98813
1.99396
1.99981
2.00567
2.01154
2.01743
2.02333
2.02926
2.03522
2.04122
2.04726
2.05335
2.05949
2.06569
2.07196
2.0783
2.08472
2.09122
2.09782
2.10451
2.1113
2.1182
2.12522
2.13235
2.1396
2.14698
2.15448
2.16211
2.16988
2.17778
2.18581
2.19398
2.20228
2.2107
2.21924
2.22791
2.23669
2.24559
2.25463
2.2638
1.68433
1.68409
1.68387
1.68366
1.68347
1.6833
1.68316
1.68305
1.68298
1.68294
1.68294
1.68298
1.68307
1.68321
1.68341
1.68366
1.68398
1.68436
1.68482
1.68534
1.68594
1.68662
1.68739
1.68824
1.68918
1.69021
1.69134
1.69257
1.6939
1.69533
1.69686
1.69851
1.70026
1.70213
1.70411
1.70619
1.70838
1.71067
1.71306
1.71558
1.71825
1.72105
1.72398
1.72703
1.73018
1.73345
1.73684
1.74034
1.74397
1.74774
1.75163
1.75562
1.75971
1.76391
1.76821
1.7726
1.77709
1.78167
1.78632
1.79106
1.79589
1.80078
1.80573
1.81078
1.81589
1.82102
1.82621
1.8315
1.83678
1.8421
1.84754
1.85298
1.85845
1.86398
1.86951
1.87505
1.8806
1.88615
1.89171
1.89726
1.9028
1.90834
1.91386
1.91938
1.92491
1.93052
1.93611
1.94168
1.94726
1.95287
1.9585
1.96417
1.96986
1.97558
1.98134
1.98714
1.99298
1.99888
2.00484
2.01087
2.01698
2.02317
2.02945
2.03582
2.04228
2.04885
2.05553
2.06231
2.06922
2.07625
2.08341
2.09071
2.09814
2.1057
2.11341
2.12126
2.12926
2.13741
2.1457
2.15414
2.16272
2.17145
2.18031
2.18931
2.19844
2.20771
2.21709
2.2266
1.66712
1.66675
1.6664
1.66606
1.66574
1.66544
1.66516
1.66491
1.66469
1.6645
1.66435
1.66424
1.66417
1.66416
1.66419
1.66427
1.66442
1.66463
1.6649
1.66524
1.66565
1.66613
1.6667
1.66735
1.66808
1.66889
1.66979
1.67079
1.6719
1.67308
1.67434
1.67571
1.67717
1.67873
1.68043
1.68225
1.68418
1.68622
1.68837
1.69063
1.69302
1.69554
1.69819
1.70095
1.70382
1.7068
1.70988
1.71307
1.71635
1.71973
1.72321
1.72679
1.73047
1.73426
1.73813
1.74209
1.74614
1.75029
1.75451
1.7588
1.76317
1.76763
1.77213
1.7767
1.78135
1.78604
1.79079
1.79561
1.80045
1.80535
1.81032
1.8153
1.82032
1.82541
1.83052
1.83564
1.84079
1.84596
1.85113
1.8563
1.86148
1.86666
1.87185
1.87704
1.88224
1.88749
1.89279
1.89808
1.9034
1.90875
1.91414
1.91958
1.92506
1.9306
1.9362
1.94187
1.94759
1.95339
1.95926
1.96522
1.97128
1.97744
1.98371
1.99009
1.99658
2.0032
2.00994
2.01681
2.02382
2.03096
2.03825
2.04567
2.05324
2.06096
2.06884
2.07687
2.08506
2.09341
2.10191
2.11058
2.11939
2.12837
2.13749
2.14677
2.15618
2.16574
2.17543
2.18526
1.64953
1.64904
1.64856
1.6481
1.64765
1.64722
1.64681
1.64644
1.64609
1.64577
1.64549
1.64525
1.64505
1.64491
1.6448
1.64475
1.64476
1.64483
1.64497
1.64516
1.64542
1.64575
1.64618
1.64667
1.64722
1.64785
1.64857
1.64938
1.6503
1.65132
1.65244
1.65364
1.65495
1.65638
1.65794
1.6596
1.66137
1.66324
1.66522
1.66728
1.66943
1.6717
1.67406
1.67653
1.6791
1.68177
1.68453
1.68738
1.69033
1.69337
1.6965
1.69972
1.70304
1.70644
1.70992
1.71348
1.71714
1.72086
1.72465
1.72852
1.73247
1.73647
1.74054
1.74468
1.74887
1.75312
1.75743
1.76178
1.7662
1.77068
1.77519
1.77974
1.78435
1.78898
1.79364
1.79834
1.80307
1.80781
1.81258
1.81736
1.82215
1.82696
1.83179
1.83665
1.84152
1.84645
1.85145
1.85648
1.86156
1.86671
1.87191
1.87718
1.88252
1.88794
1.89344
1.89902
1.90469
1.91046
1.91633
1.9223
1.92838
1.93459
1.94093
1.9474
1.95401
1.96076
1.96766
1.97471
1.98192
1.98927
1.99679
2.00446
2.01229
2.02028
2.02845
2.03678
2.04527
2.05394
2.06278
2.07178
2.08094
2.09027
2.09975
2.10939
2.11918
2.12911
2.13918
1.63175
1.63112
1.6305
1.62989
1.6293
1.62872
1.62817
1.62764
1.62715
1.62668
1.62624
1.62585
1.6255
1.62519
1.62492
1.6247
1.62454
1.62446
1.62441
1.62441
1.62447
1.62461
1.62484
1.62516
1.62555
1.62601
1.62656
1.62723
1.628
1.62885
1.6298
1.63083
1.63194
1.63314
1.63443
1.63581
1.63729
1.63886
1.64052
1.64227
1.64411
1.64605
1.64807
1.65019
1.6524
1.6547
1.65708
1.65955
1.6621
1.66473
1.66745
1.67025
1.67313
1.67608
1.67911
1.68222
1.68539
1.68863
1.69195
1.69534
1.69878
1.70229
1.70587
1.70951
1.71321
1.71698
1.7208
1.72468
1.72864
1.73263
1.73665
1.74074
1.74486
1.74902
1.75323
1.75749
1.76178
1.7661
1.77046
1.77484
1.77925
1.78369
1.78816
1.79269
1.79725
1.80191
1.80665
1.81145
1.81632
1.82127
1.8263
1.83141
1.8366
1.84188
1.84727
1.85276
1.85836
1.86408
1.86993
1.8759
1.88201
1.88827
1.89467
1.90123
1.90794
1.91482
1.92186
1.92906
1.93643
1.94397
1.95168
1.95956
1.96762
1.97584
1.98425
1.99283
2.00158
2.01051
2.01962
2.0289
2.03834
2.04796
2.05773
2.06766
2.07774
2.08797
2.09835
2.10886
1.61449
1.61369
1.6129
1.61211
1.61134
1.61059
1.60984
1.60912
1.60842
1.60775
1.60709
1.60647
1.6059
1.60537
1.60487
1.60439
1.60396
1.6036
1.60332
1.60309
1.60292
1.6028
1.60278
1.60285
1.60299
1.6032
1.60348
1.60382
1.60423
1.60472
1.6053
1.60594
1.60667
1.60747
1.60836
1.60933
1.61039
1.61153
1.61275
1.61406
1.61544
1.61692
1.61847