/*--------------------------------*- C++ -*----------------------------------*\
| =========                 |                                                 |
| \\      /  F ield         | OpenFOAM: The Open Source CFD Toolbox           |
|  \\    /   O peration     | Version:  v1706                                 |
|   \\  /    A nd           | Web:      www.OpenFOAM.com                      |
|    \\/     M anipulation  |                                                 |
\*---------------------------------------------------------------------------*/
FoamFile
{
    version     2.0;
    format      ascii;
    class       volScalarField;
    location    "3.2e-05";
    object      mu;
}
// * * * * * * * * * * * * * * * * * * * * * * * * * * * * * * * * * * * * * //

dimensions      [1 -1 -1 0 0 0 0];


internalField   nonuniform List<scalar> 
29871
(
1.07284e-05
1.07687e-05
1.08114e-05
1.08565e-05
1.09046e-05
1.09573e-05
1.10149e-05
1.10773e-05
1.11437e-05
1.12132e-05
1.1285e-05
1.13586e-05
1.14335e-05
1.1509e-05
1.15845e-05
1.16594e-05
1.17331e-05
1.18051e-05
1.18752e-05
1.19449e-05
1.20233e-05
1.21177e-05
1.22238e-05
1.23365e-05
1.24515e-05
1.25658e-05
1.26772e-05
1.2784e-05
1.28851e-05
1.29797e-05
1.30675e-05
1.31484e-05
1.32226e-05
1.32902e-05
1.33515e-05
1.34069e-05
1.34567e-05
1.35013e-05
1.35408e-05
1.35754e-05
1.36052e-05
1.36304e-05
1.36511e-05
1.36675e-05
1.36798e-05
1.36881e-05
1.36916e-05
1.36905e-05
1.36865e-05
1.36794e-05
1.36682e-05
1.36535e-05
1.36367e-05
1.36168e-05
1.35945e-05
1.35702e-05
1.35431e-05
1.35125e-05
1.34788e-05
1.34417e-05
1.34009e-05
1.33565e-05
1.33086e-05
1.32572e-05
1.32019e-05
1.31429e-05
1.308e-05
1.30132e-05
1.29423e-05
1.28672e-05
1.27877e-05
1.27039e-05
1.26154e-05
1.25223e-05
1.24246e-05
1.2322e-05
1.22144e-05
1.2102e-05
1.19854e-05
1.18666e-05
1.17512e-05
1.16536e-05
1.15795e-05
1.15138e-05
1.14489e-05
1.1383e-05
1.13158e-05
1.12477e-05
1.1179e-05
1.111e-05
1.10412e-05
1.09728e-05
1.09057e-05
1.08426e-05
1.07855e-05
1.07354e-05
1.06926e-05
1.06549e-05
1.062e-05
1.05867e-05
1.0555e-05
1.05253e-05
1.0498e-05
1.0474e-05
1.04539e-05
1.23505e-05
1.25209e-05
1.26941e-05
1.28697e-05
1.30494e-05
1.32469e-05
1.34642e-05
1.36971e-05
1.39401e-05
1.41877e-05
1.44345e-05
1.4676e-05
1.49084e-05
1.5129e-05
1.53358e-05
1.55274e-05
1.57034e-05
1.58634e-05
1.60079e-05
1.61376e-05
1.6252e-05
1.63506e-05
1.64347e-05
1.65054e-05
1.65639e-05
1.66118e-05
1.66501e-05
1.66798e-05
1.67018e-05
1.67174e-05
1.67278e-05
1.67343e-05
1.6738e-05
1.67396e-05
1.67391e-05
1.67377e-05
1.67356e-05
1.6733e-05
1.67298e-05
1.67258e-05
1.67209e-05
1.67151e-05
1.67082e-05
1.67003e-05
1.66914e-05
1.66812e-05
1.66696e-05
1.66564e-05
1.6642e-05
1.6627e-05
1.66109e-05
1.65955e-05
1.6578e-05
1.65579e-05
1.65375e-05
1.65169e-05
1.64956e-05
1.64733e-05
1.64505e-05
1.64262e-05
1.64006e-05
1.6374e-05
1.63466e-05
1.63181e-05
1.62886e-05
1.62581e-05
1.62268e-05
1.61946e-05
1.61618e-05
1.61283e-05
1.60941e-05
1.60594e-05
1.60243e-05
1.59886e-05
1.59521e-05
1.59141e-05
1.58733e-05
1.58284e-05
1.5777e-05
1.57163e-05
1.56414e-05
1.55469e-05
1.54326e-05
1.53021e-05
1.51569e-05
1.49967e-05
1.48207e-05
1.46281e-05
1.44186e-05
1.41924e-05
1.395e-05
1.36921e-05
1.34205e-05
1.3139e-05
1.28564e-05
1.259e-05
1.23661e-05
1.21751e-05
1.19986e-05
1.18275e-05
1.16595e-05
1.14962e-05
1.13422e-05
1.12026e-05
1.10808e-05
1.50406e-05
1.53427e-05
1.56313e-05
1.59026e-05
1.6154e-05
1.63837e-05
1.65883e-05
1.67684e-05
1.69257e-05
1.70626e-05
1.71813e-05
1.72843e-05
1.73737e-05
1.74513e-05
1.75181e-05
1.75749e-05
1.7622e-05
1.76597e-05
1.76885e-05
1.77097e-05
1.77249e-05
1.77356e-05
1.77429e-05
1.77473e-05
1.77491e-05
1.7748e-05
1.77453e-05
1.774e-05
1.7732e-05
1.77213e-05
1.77082e-05
1.76929e-05
1.76758e-05
1.76571e-05
1.76374e-05
1.7617e-05
1.75962e-05
1.75752e-05
1.75543e-05
1.75334e-05
1.75128e-05
1.74923e-05
1.74721e-05
1.7452e-05
1.74321e-05
1.74124e-05
1.73927e-05
1.73727e-05
1.73525e-05
1.73326e-05
1.7313e-05
1.72929e-05
1.72735e-05
1.72547e-05
1.72376e-05
1.72181e-05
1.71949e-05
1.71742e-05
1.71553e-05
1.71344e-05
1.71127e-05
1.70927e-05
1.70731e-05
1.70532e-05
1.70336e-05
1.70143e-05
1.69957e-05
1.69778e-05
1.69607e-05
1.69445e-05
1.69294e-05
1.69153e-05
1.69023e-05
1.68901e-05
1.68787e-05
1.6868e-05
1.68572e-05
1.68454e-05
1.68319e-05
1.68157e-05
1.67959e-05
1.67711e-05
1.6741e-05
1.67057e-05
1.66658e-05
1.66213e-05
1.6572e-05
1.6518e-05
1.64592e-05
1.63953e-05
1.63254e-05
1.62478e-05
1.61598e-05
1.60571e-05
1.59349e-05
1.57879e-05
1.56103e-05
1.5397e-05
1.51505e-05
1.4875e-05
1.4573e-05
1.42461e-05
1.38967e-05
1.35307e-05
1.316e-05
1.28082e-05
1.7595e-05
1.77088e-05
1.78053e-05
1.78865e-05
1.79541e-05
1.80094e-05
1.80533e-05
1.8087e-05
1.81116e-05
1.81286e-05
1.81403e-05
1.81487e-05
1.81554e-05
1.81612e-05
1.81666e-05
1.81715e-05
1.81756e-05
1.81774e-05
1.81763e-05
1.8173e-05
1.81675e-05
1.81603e-05
1.81518e-05
1.81423e-05
1.81321e-05
1.81213e-05
1.81102e-05
1.80994e-05
1.80892e-05
1.80793e-05
1.80693e-05
1.80586e-05
1.8047e-05
1.80341e-05
1.80197e-05
1.80038e-05
1.79865e-05
1.79681e-05
1.79488e-05
1.79288e-05
1.79084e-05
1.78876e-05
1.78666e-05
1.78454e-05
1.78241e-05
1.7803e-05
1.77818e-05
1.77602e-05
1.77384e-05
1.77168e-05
1.76956e-05
1.76741e-05
1.76535e-05
1.76339e-05
1.76159e-05
1.75952e-05
1.75702e-05
1.75482e-05
1.75282e-05
1.7506e-05
1.74826e-05
1.7461e-05
1.744e-05
1.74187e-05
1.73976e-05
1.73769e-05
1.73566e-05
1.73367e-05
1.73174e-05
1.72985e-05
1.728e-05
1.72621e-05
1.72446e-05
1.72274e-05
1.721e-05
1.71921e-05
1.71735e-05
1.71539e-05
1.71337e-05
1.71127e-05
1.70908e-05
1.70682e-05
1.70455e-05
1.70229e-05
1.70002e-05
1.69777e-05
1.69556e-05
1.69334e-05
1.69105e-05
1.68864e-05
1.6861e-05
1.68334e-05
1.6802e-05
1.67661e-05
1.67254e-05
1.66794e-05
1.66278e-05
1.65713e-05
1.651e-05
1.64426e-05
1.63663e-05
1.62765e-05
1.61666e-05
1.60279e-05
1.5852e-05
1.56316e-05
1.8375e-05
1.83946e-05
1.84093e-05
1.84208e-05
1.84303e-05
1.84381e-05
1.84446e-05
1.84494e-05
1.84517e-05
1.84505e-05
1.84469e-05
1.84408e-05
1.84328e-05
1.84239e-05
1.84147e-05
1.84059e-05
1.83982e-05
1.83921e-05
1.83884e-05
1.83868e-05
1.83856e-05
1.83835e-05
1.83797e-05
1.83739e-05
1.83661e-05
1.83566e-05
1.83459e-05
1.83343e-05
1.83225e-05
1.83109e-05
1.82996e-05
1.82884e-05
1.82771e-05
1.82656e-05
1.82536e-05
1.82409e-05
1.82273e-05
1.82125e-05
1.81967e-05
1.81799e-05
1.8162e-05
1.81431e-05
1.81237e-05
1.81037e-05
1.80829e-05
1.80617e-05
1.80404e-05
1.80188e-05
1.79965e-05
1.79741e-05
1.7952e-05
1.79298e-05
1.79067e-05
1.78853e-05
1.78651e-05
1.78467e-05
1.78246e-05
1.77985e-05
1.77764e-05
1.77562e-05
1.77341e-05
1.77095e-05
1.76864e-05
1.76644e-05
1.76426e-05
1.7621e-05
1.75992e-05
1.75777e-05
1.75567e-05
1.75357e-05
1.75145e-05
1.74933e-05
1.74721e-05
1.74508e-05
1.74293e-05
1.74077e-05
1.73859e-05
1.73633e-05
1.73403e-05
1.73177e-05
1.72949e-05
1.72716e-05
1.72485e-05
1.72261e-05
1.7204e-05
1.71819e-05
1.71601e-05
1.71389e-05
1.71177e-05
1.7096e-05
1.70741e-05
1.70507e-05
1.70253e-05
1.69979e-05
1.69715e-05
1.69466e-05
1.6922e-05
1.68991e-05
1.68779e-05
1.68572e-05
1.68354e-05
1.68115e-05
1.67841e-05
1.6752e-05
1.67134e-05
1.66678e-05
1.6616e-05
1.86439e-05
1.86421e-05
1.86382e-05
1.86329e-05
1.86268e-05
1.86207e-05
1.86152e-05
1.861e-05
1.86057e-05
1.86026e-05
1.86e-05
1.85965e-05
1.85911e-05
1.85838e-05
1.85751e-05
1.85652e-05
1.85549e-05
1.8545e-05
1.85371e-05
1.85308e-05
1.85261e-05
1.85223e-05
1.85185e-05
1.85139e-05
1.85081e-05
1.85008e-05
1.8492e-05
1.84822e-05
1.84711e-05
1.84591e-05
1.8447e-05
1.84352e-05
1.84237e-05
1.84124e-05
1.84012e-05
1.83899e-05
1.83782e-05
1.83661e-05
1.83533e-05
1.83398e-05
1.83255e-05
1.83099e-05
1.82937e-05
1.82769e-05
1.8259e-05
1.82401e-05
1.8221e-05
1.82015e-05
1.81805e-05
1.81591e-05
1.81382e-05
1.81171e-05
1.80937e-05
1.80722e-05
1.80519e-05
1.80336e-05
1.80098e-05
1.79831e-05
1.79606e-05
1.7939e-05
1.79169e-05
1.78898e-05
1.78629e-05
1.78386e-05
1.78156e-05
1.77923e-05
1.7767e-05
1.77426e-05
1.77194e-05
1.76952e-05
1.76701e-05
1.76449e-05
1.76197e-05
1.75939e-05
1.75681e-05
1.75431e-05
1.75177e-05
1.74914e-05
1.74661e-05
1.74426e-05
1.74189e-05
1.73944e-05
1.73717e-05
1.73504e-05
1.73287e-05
1.73066e-05
1.72856e-05
1.72644e-05
1.72425e-05
1.72202e-05
1.71984e-05
1.71758e-05
1.71517e-05
1.71266e-05
1.71037e-05
1.70824e-05
1.70614e-05
1.70416e-05
1.70227e-05
1.70035e-05
1.69829e-05
1.69616e-05
1.69401e-05
1.69191e-05
1.69029e-05
1.68908e-05
1.68741e-05
1.8782e-05
1.87777e-05
1.87744e-05
1.87717e-05
1.87694e-05
1.87661e-05
1.87615e-05
1.87551e-05
1.87475e-05
1.87395e-05
1.87313e-05
1.87236e-05
1.87176e-05
1.87129e-05
1.87086e-05
1.8704e-05
1.86986e-05
1.8692e-05
1.86842e-05
1.86752e-05
1.86656e-05
1.86556e-05
1.86467e-05
1.86393e-05
1.86335e-05
1.86289e-05
1.86248e-05
1.86208e-05
1.86164e-05
1.86111e-05
1.86048e-05
1.85974e-05
1.85887e-05
1.8579e-05
1.85687e-05
1.8558e-05
1.85472e-05
1.85364e-05
1.85253e-05
1.85141e-05
1.85029e-05
1.8491e-05
1.84787e-05
1.84661e-05
1.84524e-05
1.84379e-05
1.84231e-05
1.84074e-05
1.83901e-05
1.83727e-05
1.83553e-05
1.83357e-05
1.83153e-05
1.82954e-05
1.82759e-05
1.82527e-05
1.82312e-05
1.82112e-05
1.8193e-05
1.81683e-05
1.81416e-05
1.81192e-05
1.8097e-05
1.80749e-05
1.80458e-05
1.80162e-05
1.79904e-05
1.7966e-05
1.79412e-05
1.79133e-05
1.78868e-05
1.78619e-05
1.78357e-05
1.78074e-05
1.77796e-05
1.77516e-05
1.77226e-05
1.76946e-05
1.76679e-05
1.76402e-05
1.76114e-05
1.75848e-05
1.75597e-05
1.75341e-05
1.75079e-05
1.74834e-05
1.74605e-05
1.74366e-05
1.74128e-05
1.73896e-05
1.73669e-05
1.73426e-05
1.73187e-05
1.72953e-05
1.72717e-05
1.72475e-05
1.7224e-05
1.72016e-05
1.71808e-05
1.71613e-05
1.71425e-05
1.71237e-05
1.71047e-05
1.70856e-05
1.70663e-05
1.70467e-05
1.70293e-05
1.70163e-05
1.70055e-05
1.69928e-05
1.88939e-05
1.88862e-05
1.88792e-05
1.88732e-05
1.88688e-05
1.88647e-05
1.88603e-05
1.8855e-05
1.8849e-05
1.88419e-05
1.88342e-05
1.88262e-05
1.88185e-05
1.88118e-05
1.88064e-05
1.8802e-05
1.87981e-05
1.87939e-05
1.87892e-05
1.87837e-05
1.87773e-05
1.87699e-05
1.87622e-05
1.87546e-05
1.87478e-05
1.8742e-05
1.87371e-05
1.87328e-05
1.87288e-05
1.87248e-05
1.87204e-05
1.87154e-05
1.87094e-05
1.87022e-05
1.86943e-05
1.86852e-05
1.86752e-05
1.86651e-05
1.86542e-05
1.86426e-05
1.86313e-05
1.86193e-05
1.86064e-05
1.85938e-05
1.85807e-05
1.8566e-05
1.85515e-05
1.85369e-05
1.85201e-05
1.8503e-05
1.84866e-05
1.84681e-05
1.8448e-05
1.84286e-05
1.84103e-05
1.83876e-05
1.83658e-05
1.83458e-05
1.83273e-05
1.83023e-05
1.8276e-05
1.82537e-05
1.82316e-05
1.82093e-05
1.81791e-05
1.81481e-05
1.81214e-05
1.8096e-05
1.80698e-05
1.804e-05
1.80121e-05
1.79859e-05
1.79593e-05
1.79292e-05
1.78988e-05
1.78694e-05
1.78393e-05
1.78105e-05
1.77828e-05
1.77548e-05
1.77257e-05
1.76981e-05
1.7672e-05
1.76461e-05
1.76196e-05
1.75939e-05
1.75691e-05
1.75444e-05
1.75193e-05
1.74945e-05
1.74698e-05
1.74444e-05
1.74189e-05
1.73936e-05
1.73682e-05
1.73429e-05
1.73181e-05
1.72944e-05
1.72719e-05
1.72507e-05
1.72306e-05
1.72107e-05
1.7191e-05
1.71717e-05
1.71528e-05
1.71343e-05
1.71178e-05
1.71042e-05
1.70925e-05
1.70811e-05
1.89891e-05
1.89813e-05
1.89735e-05
1.89661e-05
1.89599e-05
1.89549e-05
1.89509e-05
1.89472e-05
1.89436e-05
1.89395e-05
1.89347e-05
1.89294e-05
1.89236e-05
1.89178e-05
1.89126e-05
1.89082e-05
1.89046e-05
1.89014e-05
1.88984e-05
1.88951e-05
1.88912e-05
1.88866e-05
1.88811e-05
1.8875e-05
1.88685e-05
1.88622e-05
1.88562e-05
1.88507e-05
1.88456e-05
1.88409e-05
1.88362e-05
1.88314e-05
1.88263e-05
1.88203e-05
1.88139e-05
1.88065e-05
1.87975e-05
1.87884e-05
1.87786e-05
1.87669e-05
1.87554e-05
1.87438e-05
1.87301e-05
1.87166e-05
1.87037e-05
1.86883e-05
1.86728e-05
1.86581e-05
1.86413e-05
1.86234e-05
1.86066e-05
1.85888e-05
1.85683e-05
1.85486e-05
1.85303e-05
1.8508e-05
1.84856e-05
1.8465e-05
1.84458e-05
1.8421e-05
1.83949e-05
1.83727e-05
1.83503e-05
1.83279e-05
1.8297e-05
1.82658e-05
1.8239e-05
1.82128e-05
1.81856e-05
1.81542e-05
1.81256e-05
1.80989e-05
1.80726e-05
1.80423e-05
1.80095e-05
1.79791e-05
1.79498e-05
1.79209e-05
1.78927e-05
1.7865e-05
1.78369e-05
1.78092e-05
1.77824e-05
1.77561e-05
1.77296e-05
1.77031e-05
1.76771e-05
1.76513e-05
1.76253e-05
1.75992e-05
1.7573e-05
1.75465e-05
1.75198e-05
1.74931e-05
1.74665e-05
1.74402e-05
1.74146e-05
1.73897e-05
1.73663e-05
1.73442e-05
1.73228e-05
1.73018e-05
1.72812e-05
1.72609e-05
1.72411e-05
1.72222e-05
1.72049e-05
1.71896e-05
1.71761e-05
1.71633e-05
1.90814e-05
1.90765e-05
1.90712e-05
1.90657e-05
1.90604e-05
1.90559e-05
1.90522e-05
1.90493e-05
1.9047e-05
1.90448e-05
1.90424e-05
1.90397e-05
1.90363e-05
1.90326e-05
1.90286e-05
1.90247e-05
1.90212e-05
1.90182e-05
1.90154e-05
1.90129e-05
1.90101e-05
1.90071e-05
1.90035e-05
1.89991e-05
1.89941e-05
1.89884e-05
1.89825e-05
1.89763e-05
1.89703e-05
1.89644e-05
1.89584e-05
1.89526e-05
1.89469e-05
1.89403e-05
1.89337e-05
1.8927e-05
1.89184e-05
1.89095e-05
1.89007e-05
1.88894e-05
1.88777e-05
1.88666e-05
1.8853e-05
1.88386e-05
1.88252e-05
1.88099e-05
1.87931e-05
1.87775e-05
1.87609e-05
1.87419e-05
1.87237e-05
1.87061e-05
1.8685e-05
1.86644e-05
1.86454e-05
1.86233e-05
1.86001e-05
1.85785e-05
1.85584e-05
1.85334e-05
1.85073e-05
1.84849e-05
1.84621e-05
1.84391e-05
1.84076e-05
1.83772e-05
1.83508e-05
1.83244e-05
1.82964e-05
1.82636e-05
1.82348e-05
1.82085e-05
1.81823e-05
1.81525e-05
1.81183e-05
1.80874e-05
1.80586e-05
1.80303e-05
1.80022e-05
1.79745e-05
1.7947e-05
1.79196e-05
1.78925e-05
1.78656e-05
1.78388e-05
1.78118e-05
1.77849e-05
1.7758e-05
1.7731e-05
1.77038e-05
1.76764e-05
1.76488e-05
1.76211e-05
1.75935e-05
1.75662e-05
1.75392e-05
1.75132e-05
1.74882e-05
1.74643e-05
1.74414e-05
1.74194e-05
1.73978e-05
1.73766e-05
1.73558e-05
1.73355e-05
1.73161e-05
1.7298e-05
1.72814e-05
1.72659e-05
1.72512e-05
1.91825e-05
1.91799e-05
1.91772e-05
1.91741e-05
1.91709e-05
1.91677e-05
1.91648e-05
1.91625e-05
1.91608e-05
1.91595e-05
1.91584e-05
1.91573e-05
1.9156e-05
1.91542e-05
1.91521e-05
1.91496e-05
1.9147e-05
1.91444e-05
1.91419e-05
1.91395e-05
1.91371e-05
1.91346e-05
1.91319e-05
1.91287e-05
1.91248e-05
1.91202e-05
1.9115e-05
1.91091e-05
1.91028e-05
1.90962e-05
1.90893e-05
1.90822e-05
1.90753e-05
1.90675e-05
1.90597e-05
1.90521e-05
1.90432e-05
1.90335e-05
1.90245e-05
1.90135e-05
1.90013e-05
1.89899e-05
1.89768e-05
1.89617e-05
1.89476e-05
1.89327e-05
1.89151e-05
1.88982e-05
1.88817e-05
1.88621e-05
1.88426e-05
1.88243e-05
1.88032e-05
1.87813e-05
1.87611e-05
1.87392e-05
1.87151e-05
1.86925e-05
1.86714e-05
1.86461e-05
1.86198e-05
1.85968e-05
1.85735e-05
1.85496e-05
1.85176e-05
1.84885e-05
1.84626e-05
1.84364e-05
1.84074e-05
1.83736e-05
1.83449e-05
1.83186e-05
1.82924e-05
1.82632e-05
1.82284e-05
1.81974e-05
1.81688e-05
1.81407e-05
1.81128e-05
1.80851e-05
1.80575e-05
1.80301e-05
1.80026e-05
1.79752e-05
1.79476e-05
1.792e-05
1.78922e-05
1.78644e-05
1.78364e-05
1.78082e-05
1.77799e-05
1.77516e-05
1.77233e-05
1.76952e-05
1.76677e-05
1.7641e-05
1.7615e-05
1.75901e-05
1.75661e-05
1.75429e-05
1.75205e-05
1.74986e-05
1.7477e-05
1.74557e-05
1.7435e-05
1.74151e-05
1.73961e-05
1.73782e-05
1.73612e-05
1.73449e-05
1.9294e-05
1.92927e-05
1.92917e-05
1.92909e-05
1.929e-05
1.92889e-05
1.92877e-05
1.92864e-05
1.92853e-05
1.92845e-05
1.9284e-05
1.92838e-05
1.92838e-05
1.92837e-05
1.92835e-05
1.9283e-05
1.92821e-05
1.92807e-05
1.92791e-05
1.92772e-05
1.92752e-05
1.9273e-05
1.92707e-05
1.92682e-05
1.92653e-05
1.9262e-05
1.92581e-05
1.92535e-05
1.92482e-05
1.92422e-05
1.92355e-05
1.92281e-05
1.92203e-05
1.92122e-05
1.92034e-05
1.91942e-05
1.91852e-05
1.91751e-05
1.91641e-05
1.91539e-05
1.91424e-05
1.91292e-05
1.91167e-05
1.91035e-05
1.90879e-05
1.90726e-05
1.90576e-05
1.90398e-05
1.90215e-05
1.90045e-05
1.8985e-05
1.89641e-05
1.89447e-05
1.8924e-05
1.89011e-05
1.88793e-05
1.88577e-05
1.8833e-05
1.88091e-05
1.87869e-05
1.87616e-05
1.87347e-05
1.87108e-05
1.8687e-05
1.86621e-05
1.86301e-05
1.86018e-05
1.85762e-05
1.85504e-05
1.85201e-05
1.84858e-05
1.84572e-05
1.84304e-05
1.84042e-05
1.83745e-05
1.834e-05
1.83092e-05
1.82805e-05
1.82523e-05
1.82242e-05
1.81962e-05
1.81682e-05
1.81403e-05
1.81122e-05
1.80841e-05
1.80559e-05
1.80275e-05
1.79989e-05
1.79703e-05
1.79415e-05
1.79128e-05
1.78839e-05
1.78553e-05
1.78271e-05
1.77992e-05
1.77719e-05
1.77455e-05
1.77199e-05
1.76951e-05
1.76712e-05
1.7648e-05
1.76254e-05
1.7603e-05
1.7581e-05
1.75593e-05
1.75381e-05
1.75175e-05
1.74977e-05
1.74787e-05
1.74604e-05
1.74427e-05
1.94122e-05
1.94122e-05
1.94124e-05
1.94131e-05
1.94138e-05
1.94147e-05
1.94154e-05
1.9416e-05
1.94165e-05
1.9417e-05
1.94176e-05
1.94184e-05
1.94192e-05
1.94201e-05
1.9421e-05
1.94216e-05
1.94219e-05
1.94218e-05
1.94212e-05
1.94202e-05
1.94188e-05
1.9417e-05
1.94149e-05
1.94125e-05
1.94097e-05
1.94064e-05
1.94027e-05
1.93983e-05
1.93932e-05
1.93873e-05
1.93807e-05
1.93732e-05
1.93651e-05
1.93563e-05
1.93466e-05
1.93364e-05
1.9326e-05
1.93146e-05
1.93023e-05
1.92904e-05
1.92776e-05
1.92632e-05
1.92491e-05
1.9235e-05
1.92186e-05
1.92017e-05
1.91857e-05
1.91677e-05
1.91481e-05
1.91297e-05
1.91104e-05
1.90885e-05
1.90674e-05
1.90469e-05
1.90234e-05
1.89999e-05
1.89777e-05
1.89532e-05
1.89279e-05
1.89041e-05
1.88793e-05
1.88518e-05
1.88264e-05
1.88018e-05
1.87762e-05
1.87446e-05
1.87165e-05
1.86904e-05
1.86646e-05
1.86335e-05
1.85992e-05
1.85702e-05
1.85426e-05
1.8516e-05
1.84852e-05
1.84517e-05
1.84212e-05
1.83922e-05
1.83636e-05
1.8335e-05
1.83064e-05
1.82778e-05
1.82492e-05
1.82205e-05
1.81917e-05
1.81628e-05
1.81338e-05
1.81047e-05
1.80755e-05
1.80464e-05
1.80175e-05
1.79887e-05
1.79603e-05
1.79323e-05
1.79049e-05
1.78781e-05
1.78521e-05
1.78269e-05
1.78024e-05
1.77785e-05
1.77551e-05
1.7732e-05
1.77092e-05
1.76866e-05
1.76643e-05
1.76424e-05
1.76211e-05
1.76004e-05
1.75804e-05
1.75611e-05
1.75422e-05
1.75238e-05
1.75058e-05
1.95385e-05
1.95399e-05
1.95416e-05
1.95436e-05
1.95459e-05
1.95482e-05
1.95506e-05
1.9553e-05
1.95552e-05
1.95572e-05
1.95592e-05
1.9561e-05
1.95628e-05
1.95646e-05
1.95662e-05
1.95677e-05
1.95689e-05
1.95697e-05
1.95699e-05
1.95697e-05
1.9569e-05
1.95677e-05
1.95659e-05
1.95635e-05
1.95607e-05
1.95573e-05
1.95533e-05
1.95487e-05
1.95435e-05
1.95375e-05
1.95306e-05
1.9523e-05
1.95145e-05
1.95051e-05
1.94949e-05
1.94839e-05
1.94724e-05
1.94598e-05
1.94464e-05
1.94329e-05
1.94186e-05
1.94028e-05
1.9387e-05
1.93713e-05
1.93538e-05
1.93351e-05
1.93176e-05
1.92988e-05
1.92779e-05
1.92576e-05
1.92376e-05
1.92152e-05
1.91921e-05
1.91705e-05
1.91471e-05
1.9122e-05
1.9098e-05
1.9074e-05
1.90476e-05
1.90216e-05
1.89967e-05
1.89693e-05
1.8942e-05
1.89159e-05
1.88901e-05
1.88591e-05
1.88302e-05
1.88031e-05
1.8777e-05
1.87451e-05
1.87114e-05
1.86816e-05
1.86529e-05
1.86243e-05
1.85941e-05
1.85621e-05
1.85313e-05
1.85016e-05
1.84724e-05
1.84432e-05
1.8414e-05
1.83847e-05
1.83554e-05
1.83261e-05
1.82968e-05
1.82674e-05
1.8238e-05
1.82088e-05
1.81796e-05
1.81505e-05
1.81217e-05
1.80932e-05
1.80652e-05
1.80377e-05
1.80108e-05
1.79844e-05
1.79588e-05
1.79337e-05
1.79092e-05
1.7885e-05
1.78612e-05
1.78375e-05
1.7814e-05
1.77908e-05
1.77678e-05
1.77452e-05
1.77231e-05
1.77016e-05
1.76806e-05
1.76601e-05
1.76401e-05
1.76203e-05
1.76008e-05
1.96661e-05
1.9669e-05
1.96719e-05
1.9675e-05
1.96783e-05
1.96818e-05
1.96855e-05
1.96892e-05
1.96931e-05
1.96969e-05
1.97006e-05
1.97041e-05
1.97073e-05
1.97104e-05
1.97132e-05
1.97158e-05
1.97182e-05
1.97202e-05
1.9722e-05
1.97234e-05
1.97243e-05
1.97244e-05
1.97241e-05
1.97232e-05
1.97217e-05
1.97194e-05
1.97164e-05
1.97128e-05
1.97085e-05
1.97035e-05
1.96977e-05
1.96912e-05
1.96838e-05
1.96757e-05
1.96666e-05
1.96566e-05
1.96457e-05
1.9634e-05
1.96214e-05
1.96078e-05
1.95933e-05
1.95784e-05
1.95626e-05
1.95455e-05
1.9528e-05
1.95105e-05
1.94917e-05
1.94713e-05
1.94517e-05
1.94316e-05
1.94095e-05
1.93869e-05
1.93655e-05
1.93424e-05
1.93176e-05
1.92938e-05
1.92701e-05
1.92439e-05
1.92177e-05
1.91928e-05
1.91661e-05
1.91381e-05
1.91114e-05
1.90844e-05
1.90556e-05
1.90275e-05
1.90004e-05
1.89707e-05
1.89407e-05
1.89118e-05
1.88836e-05
1.88529e-05
1.88204e-05
1.87894e-05
1.87592e-05
1.87292e-05
1.86988e-05
1.86677e-05
1.86367e-05
1.86064e-05
1.85764e-05
1.85466e-05
1.85168e-05
1.8487e-05
1.84573e-05
1.84275e-05
1.83979e-05
1.83684e-05
1.8339e-05
1.83097e-05
1.82806e-05
1.82518e-05
1.82233e-05
1.81952e-05
1.81676e-05
1.81405e-05
1.81139e-05
1.80877e-05
1.80621e-05
1.80368e-05
1.80119e-05
1.79872e-05
1.79627e-05
1.79383e-05
1.7914e-05
1.789e-05
1.78662e-05
1.78428e-05
1.78198e-05
1.77974e-05
1.77753e-05
1.77536e-05
1.77321e-05
1.77108e-05
1.76894e-05
1.98025e-05
1.98071e-05
1.98118e-05
1.98166e-05
1.98215e-05
1.98265e-05
1.98316e-05
1.98367e-05
1.98418e-05
1.98468e-05
1.98517e-05
1.98564e-05
1.98608e-05
1.98649e-05
1.98686e-05
1.9872e-05
1.9875e-05
1.98776e-05
1.98797e-05
1.98814e-05
1.98825e-05
1.98829e-05
1.98826e-05
1.98818e-05
1.98802e-05
1.98779e-05
1.98747e-05
1.98707e-05
1.98658e-05
1.98602e-05
1.98537e-05
1.98464e-05
1.98382e-05
1.98292e-05
1.98192e-05
1.98083e-05
1.97965e-05
1.97837e-05
1.97701e-05
1.97554e-05
1.97397e-05
1.97234e-05
1.97062e-05
1.96878e-05
1.96686e-05
1.96493e-05
1.96289e-05
1.96071e-05
1.95852e-05
1.95635e-05
1.954e-05
1.95153e-05
1.94917e-05
1.94675e-05
1.94413e-05
1.94149e-05
1.93898e-05
1.93629e-05
1.93346e-05
1.93074e-05
1.92805e-05
1.92511e-05
1.92219e-05
1.91939e-05
1.91646e-05
1.91347e-05
1.91054e-05
1.90759e-05
1.90454e-05
1.90148e-05
1.89847e-05
1.89541e-05
1.89224e-05
1.88906e-05
1.88593e-05
1.88283e-05
1.87972e-05
1.87661e-05
1.87349e-05
1.87041e-05
1.86735e-05
1.86431e-05
1.86129e-05
1.85826e-05
1.85525e-05
1.85227e-05
1.8493e-05
1.84635e-05
1.84341e-05
1.84049e-05
1.8376e-05
1.83475e-05
1.83192e-05
1.82914e-05
1.82639e-05
1.82369e-05
1.82102e-05
1.81839e-05
1.81579e-05
1.81321e-05
1.81065e-05
1.8081e-05
1.80557e-05
1.80304e-05
1.80053e-05
1.79803e-05
1.79557e-05
1.79313e-05
1.79073e-05
1.78837e-05
1.78603e-05
1.78371e-05
1.78139e-05
1.77906e-05
1.77672e-05
1.77436e-05
1.99079e-05
1.99122e-05
1.99169e-05
1.99219e-05
1.99272e-05
1.99328e-05
1.99386e-05
1.99447e-05
1.99509e-05
1.99572e-05
1.99636e-05
1.997e-05
1.99764e-05
1.99828e-05
1.99891e-05
1.99953e-05
2.00014e-05
2.00072e-05
2.00128e-05
2.00181e-05
2.0023e-05
2.00274e-05
2.00313e-05
2.00347e-05
2.00376e-05
2.00399e-05
2.00416e-05
2.00426e-05
2.00428e-05
2.00424e-05
2.00413e-05
2.00394e-05
2.00366e-05
2.00329e-05
2.00282e-05
2.00227e-05
2.00162e-05
2.00088e-05
2.00004e-05
1.99911e-05
1.99809e-05
1.99697e-05
1.99576e-05
1.99444e-05
1.99303e-05
1.99153e-05
1.98992e-05
1.98822e-05
1.98643e-05
1.98456e-05
1.98257e-05
1.98049e-05
1.97837e-05
1.97616e-05
1.97382e-05
1.97142e-05
1.96905e-05
1.96655e-05
1.9639e-05
1.96128e-05
1.95871e-05
1.95596e-05
1.95308e-05
1.95033e-05
1.94755e-05
1.94456e-05
1.94157e-05
1.93872e-05
1.93572e-05
1.93258e-05
1.92956e-05
1.92656e-05
1.92344e-05
1.92033e-05
1.91724e-05
1.91412e-05
1.91096e-05
1.9078e-05
1.90464e-05
1.90145e-05
1.89823e-05
1.89502e-05
1.89184e-05
1.88867e-05
1.88551e-05
1.88236e-05
1.87923e-05
1.87612e-05
1.87302e-05
1.86995e-05
1.8669e-05
1.86389e-05
1.86089e-05
1.85791e-05
1.85495e-05
1.85201e-05
1.8491e-05
1.84622e-05
1.84336e-05
1.84054e-05
1.83775e-05
1.83499e-05
1.83226e-05
1.82955e-05
1.82687e-05
1.8242e-05
1.82154e-05
1.81889e-05
1.81625e-05
1.81362e-05
1.81099e-05
1.80838e-05
1.80579e-05
1.80322e-05
1.80067e-05
1.79814e-05
1.79563e-05
1.79312e-05
1.79061e-05
1.78808e-05
1.78553e-05
1.78296e-05
1.78036e-05
2.00433e-05
2.00494e-05
2.00559e-05
2.00626e-05
2.00696e-05
2.00767e-05
2.00841e-05
2.00917e-05
2.00993e-05
2.01071e-05
2.01148e-05
2.01225e-05
2.01301e-05
2.01376e-05
2.01449e-05
2.0152e-05
2.01588e-05
2.01654e-05
2.01716e-05
2.01774e-05
2.01827e-05
2.01874e-05
2.01916e-05
2.01952e-05
2.0198e-05
2.02002e-05
2.02016e-05
2.02022e-05
2.0202e-05
2.02011e-05
2.01993e-05
2.01966e-05
2.0193e-05
2.01884e-05
2.01828e-05
2.01762e-05
2.01686e-05
2.01599e-05
2.01502e-05
2.01395e-05
2.01278e-05
2.01151e-05
2.01013e-05
2.00866e-05
2.00708e-05
2.00541e-05
2.00363e-05
2.00175e-05
1.99979e-05
1.99773e-05
1.99556e-05
1.9933e-05
1.99098e-05
1.98859e-05
1.98607e-05
1.98346e-05
1.98087e-05
1.9782e-05
1.97538e-05
1.97249e-05
1.96972e-05
1.96682e-05
1.96375e-05
1.96071e-05
1.95778e-05
1.95466e-05
1.95143e-05
1.94833e-05
1.94524e-05
1.94195e-05
1.9387e-05
1.93552e-05
1.93231e-05
1.92904e-05
1.92579e-05
1.92254e-05
1.91928e-05
1.91601e-05
1.91274e-05
1.90946e-05
1.90619e-05
1.90292e-05
1.89966e-05
1.89643e-05
1.89321e-05
1.89001e-05
1.88683e-05
1.88366e-05
1.88052e-05
1.87742e-05
1.87435e-05
1.87131e-05
1.86828e-05
1.86529e-05
1.86231e-05
1.85936e-05
1.85643e-05
1.85353e-05
1.85066e-05
1.84781e-05
1.84498e-05
1.84218e-05
1.83939e-05
1.83661e-05
1.83385e-05
1.83109e-05
1.82833e-05
1.82558e-05
1.82283e-05
1.82009e-05
1.81736e-05
1.81463e-05
1.81192e-05
1.80922e-05
1.80653e-05
1.80384e-05
1.80114e-05
1.79842e-05
1.79568e-05
1.79291e-05
1.79012e-05
1.78729e-05
1.78444e-05
2.01832e-05
2.0191e-05
2.01991e-05
2.02074e-05
2.02159e-05
2.02245e-05
2.02333e-05
2.02421e-05
2.0251e-05
2.02599e-05
2.02687e-05
2.02774e-05
2.0286e-05
2.02942e-05
2.03023e-05
2.031e-05
2.03173e-05
2.03242e-05
2.03307e-05
2.03366e-05
2.03419e-05
2.03467e-05
2.03507e-05
2.0354e-05
2.03565e-05
2.03582e-05
2.03589e-05
2.03588e-05
2.03578e-05
2.0356e-05
2.03531e-05
2.03493e-05
2.03444e-05
2.03385e-05
2.03316e-05
2.03235e-05
2.03144e-05
2.03042e-05
2.02928e-05
2.02804e-05
2.02668e-05
2.02522e-05
2.02366e-05
2.02198e-05
2.0202e-05
2.01832e-05
2.01634e-05
2.01426e-05
2.01208e-05
2.00981e-05
2.00743e-05
2.00496e-05
2.00242e-05
1.99981e-05
1.99709e-05
1.99426e-05
1.99142e-05
1.98856e-05
1.98556e-05
1.98242e-05
1.9794e-05
1.97634e-05
1.97309e-05
1.96978e-05
1.96662e-05
1.96338e-05
1.95995e-05
1.95658e-05
1.95331e-05
1.94993e-05
1.94648e-05
1.9431e-05
1.93973e-05
1.93634e-05
1.93294e-05
1.92955e-05
1.92616e-05
1.92278e-05
1.9194e-05
1.91604e-05
1.91268e-05
1.90934e-05
1.90602e-05
1.90273e-05
1.89945e-05
1.89619e-05
1.89294e-05
1.88972e-05
1.88656e-05
1.88342e-05
1.88032e-05
1.87723e-05
1.87418e-05
1.87115e-05
1.86814e-05
1.86515e-05
1.86219e-05
1.85925e-05
1.85633e-05
1.85343e-05
1.85054e-05
1.84766e-05
1.8448e-05
1.84194e-05
1.83908e-05
1.83622e-05
1.83335e-05
1.83049e-05
1.82762e-05
1.82476e-05
1.82189e-05
1.81903e-05
1.81617e-05
1.81332e-05
1.81045e-05
1.80757e-05
1.80465e-05
1.8017e-05
1.7987e-05
1.79567e-05
1.7926e-05
1.7895e-05
1.78638e-05
2.03266e-05
2.03359e-05
2.03454e-05
2.0355e-05
2.03648e-05
2.03747e-05
2.03846e-05
2.03945e-05
2.04043e-05
2.0414e-05
2.04236e-05
2.0433e-05
2.04421e-05
2.04509e-05
2.04592e-05
2.04672e-05
2.04746e-05
2.04815e-05
2.04879e-05
2.04935e-05
2.04985e-05
2.05028e-05
2.05062e-05
2.05088e-05
2.05105e-05
2.05112e-05
2.0511e-05
2.05098e-05
2.05077e-05
2.05044e-05
2.05001e-05
2.04948e-05
2.04883e-05
2.04806e-05
2.04719e-05
2.0462e-05
2.04509e-05
2.04387e-05
2.04253e-05
2.04108e-05
2.03951e-05
2.03782e-05
2.03603e-05
2.03412e-05
2.03211e-05
2.02999e-05
2.02776e-05
2.02544e-05
2.02301e-05
2.0205e-05
2.01788e-05
2.01517e-05
2.01238e-05
2.00953e-05
2.00658e-05
2.00352e-05
2.00041e-05
1.99733e-05
1.99412e-05
1.99076e-05
1.98745e-05
1.98421e-05
1.98077e-05
1.97722e-05
1.97379e-05
1.9704e-05
1.9668e-05
1.96318e-05
1.95969e-05
1.95618e-05
1.95259e-05
1.94901e-05
1.94548e-05
1.94195e-05
1.93841e-05
1.93489e-05
1.93138e-05
1.92789e-05
1.92441e-05
1.92095e-05
1.91751e-05
1.9141e-05
1.91071e-05
1.90735e-05
1.90401e-05
1.90068e-05
1.89738e-05
1.89413e-05
1.89092e-05
1.88774e-05
1.88459e-05
1.88147e-05
1.87837e-05
1.87529e-05
1.87224e-05
1.8692e-05
1.86619e-05
1.86319e-05
1.86021e-05
1.85723e-05
1.85427e-05
1.85131e-05
1.84836e-05
1.8454e-05
1.84244e-05
1.83948e-05
1.8365e-05
1.83352e-05
1.83052e-05
1.82752e-05
1.82451e-05
1.82149e-05
1.81846e-05
1.81541e-05
1.81234e-05
1.80925e-05
1.80613e-05
1.80296e-05
1.79974e-05
1.79648e-05
1.79317e-05
1.78984e-05
1.78648e-05
1.78313e-05
1.77977e-05
2.04721e-05
2.04826e-05
2.04933e-05
2.0504e-05
2.05148e-05
2.05256e-05
2.05364e-05
2.0547e-05
2.05574e-05
2.05677e-05
2.05777e-05
2.05873e-05
2.05966e-05
2.06054e-05
2.06137e-05
2.06215e-05
2.06287e-05
2.06351e-05
2.06409e-05
2.06459e-05
2.06501e-05
2.06534e-05
2.06558e-05
2.06573e-05
2.06576e-05
2.06571e-05
2.06555e-05
2.06528e-05
2.06489e-05
2.06439e-05
2.06377e-05
2.06304e-05
2.06218e-05
2.06121e-05
2.06011e-05
2.05889e-05
2.05755e-05
2.05609e-05
2.05451e-05
2.0528e-05
2.05098e-05
2.04904e-05
2.04698e-05
2.04481e-05
2.04252e-05
2.04013e-05
2.03764e-05
2.03504e-05
2.03234e-05
2.02955e-05
2.02667e-05
2.02369e-05
2.02062e-05
2.0175e-05
2.0143e-05
2.01099e-05
2.0076e-05
2.00427e-05
2.00083e-05
1.99723e-05
1.99365e-05
1.99019e-05
1.98656e-05
1.98278e-05
1.97909e-05
1.9755e-05
1.97174e-05
1.96792e-05
1.96419e-05
1.96051e-05
1.95679e-05
1.95306e-05
1.94935e-05
1.94568e-05
1.94203e-05
1.93839e-05
1.93477e-05
1.93117e-05
1.9276e-05
1.92406e-05
1.92055e-05
1.91707e-05
1.91362e-05
1.91019e-05
1.90679e-05
1.9034e-05
1.90007e-05
1.89679e-05
1.89354e-05
1.89032e-05
1.88712e-05
1.88395e-05
1.88081e-05
1.87768e-05
1.87458e-05
1.87149e-05
1.86842e-05
1.86535e-05
1.8623e-05
1.85925e-05
1.8562e-05
1.85316e-05
1.85011e-05
1.84705e-05
1.84399e-05
1.84093e-05
1.83785e-05
1.83476e-05
1.83165e-05
1.82853e-05
1.82539e-05
1.82222e-05
1.81902e-05
1.8158e-05
1.81253e-05
1.80924e-05
1.80593e-05
1.80256e-05
1.79915e-05
1.7957e-05
1.7922e-05
1.78867e-05
1.78511e-05
1.78152e-05
1.77791e-05
2.06183e-05
2.06298e-05
2.06414e-05
2.06529e-05
2.06643e-05
2.06757e-05
2.06869e-05
2.06979e-05
2.07086e-05
2.07189e-05
2.07289e-05
2.07384e-05
2.07474e-05
2.07559e-05
2.07637e-05
2.07708e-05
2.07772e-05
2.07828e-05
2.07876e-05
2.07914e-05
2.07944e-05
2.07963e-05
2.07972e-05
2.0797e-05
2.07958e-05
2.07934e-05
2.07899e-05
2.07851e-05
2.07791e-05
2.07719e-05
2.07635e-05
2.07537e-05
2.07427e-05
2.07304e-05
2.07168e-05
2.0702e-05
2.06858e-05
2.06684e-05
2.06498e-05
2.06299e-05
2.06088e-05
2.05864e-05
2.05629e-05
2.05382e-05
2.05124e-05
2.04855e-05
2.04575e-05
2.04285e-05
2.03985e-05
2.03676e-05
2.03358e-05
2.03031e-05
2.02695e-05
2.02355e-05
2.02008e-05
2.01649e-05
2.01282e-05
2.00922e-05
2.00552e-05
2.00168e-05
1.99785e-05
1.99414e-05
1.9903e-05
1.98631e-05
1.98241e-05
1.97858e-05
1.97466e-05
1.97068e-05
1.96676e-05
1.96288e-05
1.95902e-05
1.95515e-05
1.95131e-05
1.94751e-05
1.94374e-05
1.94e-05