/*--------------------------------*- C++ -*----------------------------------*\
| =========                 |                                                 |
| \\      /  F ield         | OpenFOAM: The Open Source CFD Toolbox           |
|  \\    /   O peration     | Version:  v1706                                 |
|   \\  /    A nd           | Web:      www.OpenFOAM.com                      |
|    \\/     M anipulation  |                                                 |
\*---------------------------------------------------------------------------*/
FoamFile
{
    version     2.0;
    format      ascii;
    class       volScalarField;
    location    "3.2e-05";
    object      p;
}
// * * * * * * * * * * * * * * * * * * * * * * * * * * * * * * * * * * * * * //

dimensions      [1 -1 -2 0 0 0 0];


internalField   nonuniform List<scalar> 
29871
(
23.5703
23.7713
23.9896
24.2234
24.4765
24.7508
25.044
25.3508
25.6658
25.9853
26.3093
26.6405
26.9821
27.3365
27.7039
28.0831
28.4716
28.8664
29.2662
29.6697
30.1433
30.7641
31.5262
32.4045
33.371
34.4005
35.4709
36.5634
37.6614
38.7505
39.8188
40.8565
41.8562
42.8114
43.7171
44.5697
45.3664
46.1051
46.7837
47.4002
47.9534
48.4429
48.8677
49.2277
49.5255
49.7609
49.9275
50.0307
50.0878
50.0657
49.9878
49.8554
49.6883
49.4736
49.2196
48.9363
48.6121
48.2378
47.8185
47.3544
46.8407
46.2797
45.6748
45.0268
44.3357
43.6026
42.8287
42.0154
41.1637
40.2751
39.3512
38.3938
37.4053
36.3892
35.3497
34.2912
33.2192
32.1411
31.0682
30.0231
29.0724
28.3633
27.8977
27.5134
27.1447
26.778
26.4151
26.0586
25.7108
25.374
25.0481
24.7283
24.4225
24.1594
23.9422
23.7484
23.5671
23.394
23.2259
23.0624
22.905
22.7536
22.6088
22.4779
22.3714
31.5804
32.5585
33.6052
34.7304
35.9345
37.3752
39.1341
41.2308
43.6587
46.3955
49.408
52.6567
56.1004
59.6995
63.417
67.2182
71.0703
74.9425
78.8061
82.6431
86.3656
89.8556
93.0985
96.1054
98.8934
101.478
103.872
106.076
108.093
109.933
111.615
113.159
114.585
115.91
117.141
118.296
119.378
120.39
121.33
122.195
122.98
123.686
124.308
124.844
125.295
125.655
125.912
126.073
126.156
126.119
125.994
125.855
125.591
125.197
124.732
124.217
123.636
122.978
122.259
121.446
120.534
119.546
118.484
117.343
116.122
114.823
113.446
111.991
110.461
108.856
107.175
105.417
103.586
101.687
99.7199
97.6735
95.5373
93.2982
90.9429
88.4599
85.8007
82.8279
79.5121
75.9939
72.3595
68.6489
64.8867
61.0973
57.3119
53.5667
49.8945
46.3354
42.9477
39.7905
36.9318
34.5349
32.7987
31.4936
30.3764
29.3448
28.3698
27.4601
26.6506
25.9627
25.3805
53.8118
58.0833
62.6902
67.583
72.7111
78.0345
83.3488
88.5331
93.537
98.3359
102.918
107.278
111.413
115.316
118.977
122.385
125.529
128.388
130.952
133.238
135.287
137.144
138.833
140.371
141.771
143.043
144.207
145.263
146.185
146.967
147.618
148.145
148.556
148.869
149.1
149.266
149.381
149.454
149.493
149.503
149.488
149.45
149.392
149.312
149.21
149.093
148.965
148.798
148.587
148.361
148.133
147.871
147.584
147.32
147.164
146.889
146.367
145.912
145.564
145.108
144.554
144.045
143.536
142.982
142.395
141.789
141.168
140.533
139.886
139.221
138.537
137.83
137.091
136.304
135.462
134.558
133.573
132.474
131.242
129.873
128.357
126.659
124.757
122.671
120.432
118.057
115.556
112.936
110.204
107.349
104.364
101.229
97.9027
94.3091
90.3674
86.0108
81.1379
75.6493
69.825
63.9861
58.311
52.9028
47.8545
43.2543
39.1996
35.8976
109.08
114.002
118.591
122.835
126.728
130.277
133.466
136.28
138.711
140.778
142.535
144.056
145.412
146.654
147.816
148.914
149.946
150.869
151.633
152.239
152.702
153.056
153.33
153.543
153.709
153.842
153.958
154.077
154.231
154.419
154.629
154.848
155.057
155.238
155.376
155.461
155.493
155.477
155.417
155.32
155.191
155.034
154.853
154.65
154.42
154.175
153.923
153.645
153.33
153.004
152.682
152.309
151.923
151.606
151.426
151.127
150.529
150.021
149.638
149.141
148.536
147.987
147.44
146.848
146.225
145.584
144.926
144.255
143.572
142.87
142.15
141.419
140.682
139.944
139.21
138.469
137.706
136.922
136.154
135.415
134.68
133.95
133.252
132.583
131.917
131.25
130.583
129.886
129.107
128.2
127.152
125.943
124.509
122.815
120.87
118.664
116.171
113.405
110.409
107.218
103.812
100.116
96.0066
91.3403
86.0336
80.0273
143.939
145.937
147.614
149.046
150.293
151.389
152.371
153.247
154.006
154.608
155.034
155.299
155.437
155.477
155.462
155.424
155.391
155.403
155.506
155.72
156.003
156.301
156.561
156.752
156.867
156.911
156.894
156.827
156.72
156.636
156.591
156.576
156.58
156.595
156.609
156.613
156.595
156.544
156.459
156.339
156.181
155.986
155.761
155.519
155.241
154.94
154.635
154.314
153.955
153.575
153.217
152.847
152.391
151.955
151.62
151.449
151.102
150.441
149.919
149.57
149.133
148.537
147.986
147.462
146.928
146.381
145.802
145.212
144.63
144.038
143.42
142.786
142.149
141.499
140.825
140.142
139.459
138.748
138.026
137.344
136.69
136.022
135.355
134.717
134.093
133.451
132.805
132.171
131.519
130.838
130.215
129.628
128.983
128.261
127.659
127.177
126.693
126.205
125.687
125.05
124.227
123.186
121.901
120.345
118.478
116.304
113.84
157.585
157.95
158.15
158.232
158.228
158.171
158.103
158.023
157.968
157.966
158.021
158.088
158.123
158.068
157.948
157.775
157.559
157.315
157.107
157.026
157.014
157.066
157.148
157.224
157.266
157.261
157.2
157.084
156.927
156.715
156.478
156.244
156.029
155.842
155.673
155.517
155.376
155.233
155.077
154.917
154.743
154.53
154.299
154.067
153.789
153.474
153.171
152.863
152.485
152.077
151.722
151.369
150.87
150.4
150.067
149.91
149.498
148.804
148.27
147.907
147.575
146.988
146.32
145.755
145.275
144.784
144.166
143.574
143.054
142.492
141.873
141.258
140.644
139.988
139.317
138.704
138.099
137.437
136.816
136.316
135.811
135.243
134.732
134.286
133.802
133.272
132.782
132.299
131.781
131.249
130.782
130.307
129.759
129.155
128.694
128.315
127.919
127.5
127.064
126.62
126.184
125.795
125.479
125.252
125.208
125.268
124.989
160.651
160.561
160.501
160.481
160.493
160.506
160.461
160.357
160.189
159.984
159.733
159.449
159.215
159.062
158.96
158.87
158.756
158.602
158.404
158.157
157.871
157.539
157.216
156.94
156.728
156.579
156.48
156.411
156.348
156.272
156.173
156.045
155.87
155.656
155.415
155.147
154.884
154.631
154.369
154.123
153.896
153.65
153.407
153.187
152.931
152.65
152.4
152.125
151.778
151.455
151.17
150.789
150.352
149.989
149.678
149.165
148.656
148.314
148.153
147.697
146.993
146.458
146.102
145.841
145.266
144.521
143.925
143.463
143
142.352
141.743
141.257
140.725
140.084
139.485
138.886
138.212
137.58
137.06
136.507
135.875
135.328
134.899
134.444
133.913
133.449
133.068
132.625
132.156
131.739
131.355
130.891
130.441
130.038
129.643
129.223
128.829
128.494
128.218
127.967
127.697
127.395
127.08
126.795
126.56
126.359
126.233
126.292
126.38
126.286
162.39
162.123
161.86
161.599
161.413
161.271
161.13
160.965
160.775
160.536
160.253
159.939
159.603
159.277
158.989
158.747
158.543
158.347
158.146
157.917
157.668
157.377
157.051
156.716
156.396
156.111
155.867
155.66
155.485
155.329
155.179
155.031
154.86
154.662
154.455
154.197
153.91
153.643
153.336
153.005
152.721
152.413
152.066
151.774
151.479
151.112
150.79
150.508
150.116
149.726
149.433
149.058
148.576
148.182
147.896
147.389
146.843
146.469
146.277
145.802
145.106
144.578
144.23
144
143.431
142.655
142.049
141.594
141.142
140.476
139.85
139.367
138.92
138.311
137.688
137.107
136.476
135.899
135.425
134.959
134.406
133.899
133.489
133.098
132.654
132.224
131.849
131.471
131.069
130.685
130.318
129.919
129.51
129.122
128.754
128.4
128.072
127.781
127.534
127.321
127.128
126.931
126.74
126.597
126.504
126.445
126.46
126.568
126.681
126.717
162.886
162.578
162.258
161.918
161.583
161.286
161.033
160.8
160.592
160.372
160.126
159.853
159.552
159.229
158.906
158.603
158.328
158.074
157.836
157.605
157.359
157.099
156.809
156.49
156.152
155.811
155.478
155.161
154.871
154.606
154.351
154.12
153.895
153.647
153.422
153.175
152.864
152.59
152.301
151.919
151.587
151.282
150.866
150.488
150.182
149.758
149.336
149.026
148.614
148.14
147.792
147.429
146.902
146.456
146.155
145.658
145.082
144.666
144.427
143.937
143.254
142.734
142.392
142.167
141.583
140.81
140.221
139.788
139.352
138.671
138.037
137.56
137.199
136.693
136.024
135.434
134.896
134.379
133.919
133.503
133.063
132.615
132.211
131.845
131.468
131.079
130.713
130.362
130.003
129.642
129.285
128.921
128.555
128.201
127.868
127.558
127.278
127.027
126.816
126.655
126.52
126.397
126.292
126.221
126.185
126.192
126.252
126.355
126.473
126.588
162.686
162.426
162.148
161.847
161.529
161.214
160.92
160.651
160.408
160.177
159.944
159.699
159.434
159.145
158.838
158.521
158.207
157.904
157.613
157.335
157.058
156.781
156.495
156.189
155.859
155.51
155.149
154.781
154.419
154.072
153.715
153.389
153.091
152.756
152.451
152.18
151.828
151.499
151.222
150.827
150.438
150.136
149.715
149.263
148.93
148.511
148.01
147.638
147.243
146.711
146.281
145.921
145.378
144.872
144.528
144.041
143.441
142.988
142.704
142.191
141.514
141.005
140.674
140.435
139.809
139.062
138.514
138.126
137.71
137.009
136.377
135.925
135.628
135.224
134.539
133.936
133.45
132.999
132.572
132.18
131.8
131.414
131.036
130.68
130.331
129.978
129.629
129.289
128.95
128.61
128.27
127.933
127.604
127.292
127.003
126.734
126.497
126.305
126.156
126.045
125.963
125.902
125.862
125.845
125.856
125.903
125.985
126.096
126.23
126.382
162.482
162.245
161.999
161.738
161.46
161.167
160.872
160.582
160.305
160.042
159.788
159.536
159.277
159.005
158.716
158.41
158.091
157.766
157.44
157.118
156.801
156.486
156.171
155.849
155.515
155.164
154.795
154.409
154.016
153.619
153.206
152.809
152.435
152.023
151.628
151.295
150.895
150.484
150.163
149.764
149.311
148.97
148.57
148.067
147.678
147.288
146.752
146.301
145.923
145.384
144.872
144.494
143.975
143.412
143.011
142.548
141.936
141.444
141.121
140.596
139.922
139.418
139.103
138.83
138.154
137.448
136.952
136.626
136.218
135.492
134.876
134.452
134.191
133.843
133.172
132.58
132.118
131.709
131.32
130.949
130.592
130.24
129.89
129.547
129.211
128.878
128.546
128.218
127.896
127.577
127.265
126.964
126.678
126.407
126.165
125.958
125.787
125.656
125.564
125.505
125.471
125.459
125.465
125.49
125.538
125.613
125.717
125.848
126.006
126.188
162.592
162.339
162.096
161.855
161.61
161.355
161.088
160.808
160.522
160.234
159.95
159.671
159.397
159.123
158.845
158.557
158.256
157.94
157.61
157.27
156.923
156.573
156.222
155.87
155.516
155.156
154.787
154.406
154.008
153.6
153.177
152.737
152.299
151.867
151.403
150.947
150.54
150.087
149.6
149.211
148.786
148.273
147.859
147.458
146.928
146.46
146.071
145.543
145.011
144.614
144.111
143.533
143.102
142.635
142.039
141.56
141.132
140.537
139.996
139.631
139.122
138.457
137.944
137.632
137.316
136.615
135.952
135.502
135.232
134.811
134.073
133.477
133.075
132.844
132.49
131.841
131.287
130.851
130.466
130.101
129.748
129.404
129.067
128.735
128.408
128.085
127.767
127.454
127.147
126.85
126.565
126.288
126.027
125.792
125.582
125.401
125.257
125.149
125.077
125.036
125.022
125.029
125.054
125.095
125.153
125.231
125.334
125.463
125.619
125.803
126.011
162.495
162.237
161.985
161.737
161.491
161.242
160.986
160.719
160.442
160.156
159.865
159.571
159.277
158.983
158.687
158.386
158.077
157.756
157.423
157.076
156.717
156.348
155.971
155.589
155.202
154.81
154.413
154.006
153.59
153.163
152.722
152.265
151.803
151.334
150.839
150.348
149.879
149.378
148.844
148.387
147.914
147.356
146.866
146.43
145.885
145.334
144.907
144.397
143.8
143.34
142.874
142.27
141.751
141.318
140.741
140.173
139.742
139.206
138.617
138.181
137.722
137.085
136.541
136.203
135.858
135.17
134.535
134.111
133.873
133.435
132.707
132.128
131.733
131.51
131.12
130.526
130.019
129.607
129.239
128.889
128.549
128.216
127.891
127.574
127.264
126.96
126.665
126.381
126.105
125.839
125.596
125.37
125.164
124.986
124.837
124.72
124.634
124.581
124.557
124.558
124.58
124.619
124.673
124.741
124.827
124.933
125.063
125.219
125.402
125.611
125.839
126.083
126.335
162.401
162.146
161.891
161.638
161.385
161.132
160.875
160.612
160.34
160.057
159.766
159.466
159.16
158.85
158.535
158.216
157.891
157.558
157.214
156.858
156.489
156.108
155.715
155.311
154.899
154.479
154.052
153.617
153.175
152.724
152.261
151.785
151.303
150.809
150.295
149.779
149.269
148.732
148.174
147.66
147.139
146.551
145.998
145.511
144.951
144.334
143.844
143.335
142.708
142.158
141.692
141.108
140.497
140.034
139.512
138.887
138.38
137.916
137.321
136.784
136.35
135.785
135.204
134.79
134.435
133.805
133.188
132.755
132.518
132.055
131.376
130.827
130.414
130.104
129.74
129.257
128.796
128.395
128.033
127.691
127.363
127.044
126.736
126.437
126.152
125.876
125.608
125.359
125.126
124.909
124.713
124.54
124.392
124.272
124.18
124.116
124.08
124.071
124.083
124.116
124.165
124.228
124.305
124.398
124.51
124.643
124.8
124.983
125.19
125.418
125.663
125.919
126.18
162.783
162.544
162.3
162.051
161.799
161.544
161.287
161.028
160.765
160.498
160.224
159.941
159.649
159.346
159.033
158.713
158.384
158.049
157.706
157.356
156.997
156.626
156.245
155.852
155.445
155.026
154.595
154.153
153.702
153.242
152.773
152.296
151.808
151.311
150.806
150.289
149.757
149.221
148.682
148.122
147.545
146.991
146.433
145.826
145.23
144.691
144.11
143.459
142.899
142.369
141.742
141.103
140.6
140.043
139.383
138.833
138.346
137.732
137.125
136.657
136.121
135.51
135.011
134.533
133.954
133.439
133.03
132.512
131.94
131.461
131.113
130.677
130.121
129.607
129.167
128.784
128.416
128.015
127.607
127.226
126.874
126.543
126.229
125.928
125.643
125.369
125.109
124.868
124.643
124.435
124.246
124.078
123.932
123.81
123.713
123.642
123.597
123.575
123.577
123.599
123.639
123.695
123.765
123.849
123.949
124.066
124.202
124.361
124.543
124.749
124.976
125.22
125.475
125.738
126.005
162.67
162.434
162.195
161.951
161.701
161.447
161.188
160.924
160.656
160.382
160.103
159.815
159.518
159.211
158.893
158.564
158.225
157.877
157.52
157.153
156.777
156.391
155.994
155.586
155.165
154.731
154.285
153.826
153.356
152.874
152.383
151.882
151.37
150.85
150.321
149.782
149.231
148.674
148.112
147.532
146.94
146.356
145.77
145.151
144.525
143.943
143.343
142.679
142.055
141.496
140.875
140.183
139.613
139.066
138.412
137.766
137.259
136.69
136.027
135.477
134.992
134.387
133.796
133.313
132.789
132.226
131.731
131.267
130.763
130.261
129.812
129.383
128.921
128.451
128.009
127.601
127.219
126.845
126.477
126.124
125.792
125.48
125.186
124.907
124.643
124.4
124.176
123.972
123.786
123.619
123.473
123.349
123.247
123.168
123.113
123.08
123.069
123.078
123.106
123.152
123.212
123.288
123.377
123.482
123.604
123.745
123.905
124.088
124.291
124.514
124.755
125.007
125.269
125.535
125.805
126.08
164.168
163.941
163.713
163.484
163.255
163.025
162.794
162.562
162.328
162.09
161.847
161.599
161.345
161.084
160.817
160.544
160.264
159.977
159.682
159.378
159.065
158.74
158.404
158.057
157.698
157.329
156.948
156.557
156.155
155.742
155.318
154.882
154.433
153.971
153.497
153.01
152.511
152.001
151.479
150.947
150.405
149.854
149.293
148.722
148.144
147.56
146.963
146.353
145.746
145.138
144.507
143.861
143.244
142.627
141.961
141.29
140.695
140.077
139.374
138.725
138.171
137.544
136.84
136.265
135.729
135.077
134.437
133.933
133.375
132.742
132.191
131.691
131.146
130.61
130.122
129.646
129.16
128.684
128.237
127.8
127.366
126.943
126.54
126.159
125.796
125.45
125.122
124.813
124.524
124.249
123.993
123.76
123.548
123.357
123.185
123.034
122.904
122.795
122.707
122.64
122.594
122.569
122.564
122.578
122.61
122.658
122.721
122.8
122.893
123.002
123.128
123.272
123.435
123.618
123.82
124.04
124.275
124.522
124.778
125.04
125.307
125.579
125.859
164.037
163.816
163.594
163.371
163.146
162.919
162.69
162.458
162.223
161.985
161.742
161.493
161.237
160.974
160.704
160.427
160.141
159.847
159.545
159.233
158.912
158.579
158.235
157.88
157.512
157.131
156.739
156.335
155.918
155.491
155.051
154.599
154.135
153.658
153.168
152.666
152.151
151.625
151.086
150.536
149.975
149.404
148.824
148.233
147.635
147.03
146.415
145.789
145.161
144.533
143.89
143.229
142.583
141.95
141.284
140.584
139.949
139.33
138.64
137.925
137.342
136.739
136.032
135.373
134.837
134.225
133.537
132.962
132.435
131.817
131.214
130.684
130.162
129.628
129.116
128.632
128.157
127.688
127.235
126.802
126.382
125.978
125.589
125.22
124.87
124.541
124.233
123.943
123.67
123.418
123.189
122.983
122.798
122.634
122.491
122.369
122.268
122.187
122.127
122.087
122.066
122.064
122.08
122.113
122.163
122.227
122.308
122.403
122.514
122.642
122.787
122.951
123.134
123.335
123.552
123.783
124.025
124.274
124.53
124.79
125.056
125.331
125.616
163.917
163.699
163.481
163.262
163.04
162.815
162.587
162.355
162.12
161.88
161.635
161.384
161.126
160.86
160.587
160.304
160.013
159.713
159.404
159.084
158.754
158.413
158.061
157.696
157.319
156.929
156.526
156.109
155.681
155.24
154.786
154.319
153.84
153.348
152.844
152.327
151.797
151.255
150.701
150.135
149.558
148.97
148.372
147.764
147.148
146.524
145.892
145.25
144.603
143.956
143.3
142.627
141.957
141.306
140.638
139.925
139.248
138.624
137.949
137.202
136.57
135.981
135.299
134.578
134.003
133.427
132.744
132.097
131.553
130.97
130.359
129.793
129.264
128.741
128.226
127.731
127.255
126.794
126.346
125.917
125.506
125.113
124.739
124.384
124.049
123.736
123.443
123.165
122.911
122.682
122.476
122.292
122.129
121.987
121.867
121.767
121.688
121.629
121.59
121.57
121.568
121.585
121.618
121.668
121.734
121.815
121.912
122.025
122.153
122.298
122.461
122.64
122.836
123.048
123.275
123.514
123.76
124.014
124.272
124.535
124.803
125.081
125.37
163.804
163.589
163.374
163.156
162.936
162.712
162.485
162.253
162.016
161.775
161.527
161.273
161.011
160.742
160.465
160.178
159.881
159.575
159.258
158.931
158.593
158.244
157.882
157.508
157.122
156.722
156.309
155.883
155.443
154.989
154.523
154.043
153.55
153.044
152.526
151.994
151.45
150.894
150.325
149.745
149.153
148.55
147.937
147.313
146.681
146.041
145.393
144.735
144.072
143.407
142.738
142.054
141.363
140.694
140.023
139.303
138.589
137.955
137.291
136.537
135.851
135.265
134.606
133.861
133.232
132.67
132.012
131.328
130.738
130.174
129.58
128.999
128.453
127.929
127.417
126.921
126.444
125.985
125.544
125.121
124.718
124.335
123.973
123.631
123.311
123.011
122.727
122.465
122.231
122.02
121.832
121.666
121.521
121.397
121.294
121.212
121.15
121.108
121.085
121.08
121.094
121.126
121.175
121.24
121.322
121.421
121.535
121.665
121.811
121.973
122.15
122.342
122.548
122.766
122.995
123.233
123.478
123.731
123.989
124.255
124.528
124.81
125.104
125.413
125.736
163.696
163.484
163.27
163.054
162.834
162.611
162.383
162.15
161.912
161.668
161.418
161.16
160.895
160.622
160.339
160.048
159.746
159.433
159.11
158.776
158.43
158.072
157.702
157.32
156.923
156.514
156.092
155.655
155.205
154.741
154.263
153.771
153.266
152.748
152.216
151.671
151.114
150.544
149.962
149.368
148.762
148.145
147.518
146.881
146.234
145.579
144.917
144.246
143.568
142.887
142.205
141.511
140.803
140.116
139.439
138.714
137.972
137.325
136.665
135.911
135.186
134.59
133.943
133.198
132.525
131.95
131.311
130.629
130.005
129.429
128.851
128.273
127.716
127.185
126.673
126.179
125.703
125.248
124.812
124.396
124.001
123.628
123.276
122.947
122.639
122.346
122.074
121.83
121.611
121.416
121.243
121.092
120.962
120.853
120.765
120.698
120.651
120.624
120.615
120.625
120.653
120.698
120.76
120.839
120.934
121.045
121.173
121.316
121.474
121.647
121.833
122.033
122.244
122.464
122.692
122.928
123.173
123.426
123.686
123.956
124.237
124.528
124.831
125.146
125.474
163.593
163.382
163.169
162.953
162.733
162.509
162.281
162.047
161.807
161.56
161.307
161.046
160.777
160.499
160.212
159.915
159.608
159.289
158.96
158.619
158.265
157.9
157.522
157.13
156.725
156.307
155.875
155.429
154.969
154.495
154.007
153.504
152.988
152.458
151.915
151.358
150.788
150.206
149.611
149.004
148.386
147.757
147.117
146.466
145.807
145.139
144.464
143.78
143.089
142.395
141.701
140.995
140.273
139.573
138.887
138.154
137.397
136.737
136.071
135.315
134.573
133.96
133.308
132.57
131.881
131.276
130.643
129.982
129.346
128.75
128.173
127.603
127.045
126.509
125.995
125.5
125.026
124.572
124.14
123.728
123.339
122.974
122.632
122.313
122.01
121.725
121.467
121.237
121.031
120.848
120.687
120.548
120.431
120.335
120.26
120.205
120.171
120.156
120.16
120.182
120.223
120.28
120.354
120.445
120.552
120.674
120.812
120.965
121.131
121.311
121.503
121.706
121.92
122.143
122.375
122.616
122.865
123.123
123.39
123.666
123.952
124.249
124.556
124.872
125.202
163.7
163.493
163.283
163.07
162.854
162.634
162.409
162.179
161.943
161.701
161.452
161.195
160.931
160.658
160.375
160.083
159.781
159.468
159.144
158.809
158.461
158.101
157.727
157.341
156.942
156.529
156.102
155.661
155.206
154.737
154.254
153.756
153.244
152.717
152.177
151.623
151.055
150.474
149.88
149.274
148.656
148.026
147.385
146.733
146.071
145.4
144.72
144.033
143.338
142.635
141.929
141.225
140.508
139.774
139.063
138.368
137.625
136.863
136.194
135.514
134.75
134.018
133.387
132.71
131.978
131.296
130.654
130.009
129.366
128.732
128.119
127.532
126.963
126.407
125.87
125.355
124.86
124.386
123.935
123.506
123.098
122.715
122.357
122.024
121.712
121.413
121.137
120.891
120.673
120.478
120.306
120.155
120.027
119.92
119.835
119.772
119.728
119.705
119.701
119.716
119.75
119.802
119.871
119.957
120.059
120.178
120.311
120.459
120.62
120.794
120.979
121.176
121.383
121.6
121.826
122.061
122.304
122.557
122.82
123.091
123.37
123.66
123.961
124.274
124.598
124.93
163.602
163.395
163.186
162.973
162.756
162.535
162.309
162.077
161.839
161.595
161.343
161.083
160.815
160.538
160.251
159.954
159.647
159.329
158.999
158.658
158.303
157.937
157.557
157.164
156.757
156.336
155.901
155.452
154.989
154.511
154.018
153.512
152.99
152.454
151.905
151.341
150.763
150.172
149.568
148.951
148.322
147.682
147.03
146.368
145.696
145.014
144.323
143.624
142.92
142.207
141.493
140.78
140.053
139.314
138.597
137.885
137.13
136.372
135.688
134.982
134.209
133.496
132.839
132.129
131.409
130.741
130.074
129.409
128.773
128.144
127.523
126.927
126.354
125.799
125.263
124.749
124.256
123.785
123.337
122.911
122.508
122.13
121.779
121.455
121.148
120.855
120.588
120.353
120.145
119.96
119.798
119.657
119.538
119.442
119.367
119.314
119.281
119.268
119.274
119.3
119.344
119.406
119.485
119.58
119.691
119.818
119.959
120.113
120.279
120.458
120.648
120.849
121.059
121.279
121.507
121.745
121.992
122.248
122.512
122.787
123.073
123.369
123.676
123.993
124.318
124.651
124.992
125.341
163.506
163.299
163.09
162.876
162.659
162.437
162.209
161.976
161.735
161.488
161.234
160.971
160.699
160.418
160.127
159.826
159.514
159.191
158.855
158.508
158.148
157.775
157.389
156.989
156.575
156.147
155.705
155.248
154.777
154.291
153.79
153.275
152.745
152.201
151.642
151.07
150.483
149.883
149.27
148.643
148.005
147.355
146.695
146.024
145.343
144.653
143.955
143.248
142.534
141.811
141.087
140.361
139.622
138.877
138.149
137.42
136.657
135.905
135.204
134.471
133.699
132.996
132.315
131.583
130.872
130.212
129.535
128.856
128.218
127.594
126.97
126.37
125.796
125.24
124.704
124.191
123.699
123.229
122.783
122.36
121.961
121.587
121.242
120.924
120.624
120.336
120.077
119.851
119.651
119.475
119.32
119.188
119.078
118.991
118.925
118.88
118.856
118.852
118.867
118.901
118.954
119.023
119.11
119.213
119.331
119.464
119.61
119.769
119.94
120.123
120.316
120.52
120.734
120.958
121.19
121.432
121.683
121.943
122.212
122.492
122.783
123.083
123.392
123.71
124.036
124.37
124.712
125.061
163.411
163.205
162.995
162.781
162.563
162.339
162.11
161.875
161.632
161.383
161.125
160.859
160.584
160.299
160.005
159.699
159.382
159.054
158.714
158.361
157.996
157.617
157.225
156.818
156.398
155.964
155.514
155.05
154.572
154.078
153.571
153.048
152.51
151.958
151.391
150.811
150.217
149.609
148.988
148.354
147.708
147.052
146.386
145.708
145.018
144.317
143.607
142.89
142.163
141.431
140.698
139.96
139.212
138.461
137.722
136.979
136.214
135.469
134.75
134.002
133.241
132.535
131.833
131.095
130.385
129.719
129.038
128.353
127.708
127.082
126.456
125.855
125.278
124.718
124.182
123.669
123.179
122.71
122.264
121.844
121.448
121.077
120.736
120.424
120.13
119.849
119.597
119.377
119.184
119.015
118.869
118.744
118.642
118.561
118.503
118.466
118.449
118.453
118.475
118.516
118.576
118.652
118.745
118.854
118.977
119.114
119.265
119.428
119.603
119.79
119.987
120.194
120.411
120.638
120.874
121.119
121.373
121.636
121.909
122.192
122.483
122.784
123.093
123.409
123.733
124.066
124.407
124.757
163.318
163.112
162.902
162.687
162.468
162.243
162.012
161.775
161.53
161.278
161.018
160.749
160.471
160.182
159.883
159.574
159.253
158.92
158.575
158.218
157.847
157.463
157.065
156.653
156.227
155.786
155.331
154.86
154.375
153.875
153.361
152.832
152.288
151.728
151.154
150.569
149.971
149.359
148.732
148.089
147.432
146.764
146.088
145.402
144.705
143.996
143.279
142.553
141.819
141.078
140.334
139.587
138.832
138.078
137.331
136.575
135.809
135.062
134.326
133.569
132.815
132.101
131.383
130.645
129.935
129.259
128.575
127.888
127.241
126.61
125.982
125.381
124.799
124.232
123.693
123.18
122.69
122.222
121.778
121.36
120.967
120.599
120.26
119.951
119.665
119.392
119.144
118.929
118.742
118.58
118.439
118.321
118.225
118.152
118.1
118.069
118.059
118.068
118.097
118.144
118.208
118.289
118.386
118.498
118.625
118.765
118.918
119.084
119.261
119.45
119.649
119.858
120.078
120.308
120.548
120.797
121.054
121.321
121.596
121.88
122.174
122.475
122.785
123.102
123.427
123.76
124.104
124.457
124.821
163.02
162.81
162.594
162.374
162.147
161.915
161.676
161.429
161.175
160.912
160.639
160.358
160.067
159.765
159.452
159.127
158.79
158.441
158.078
157.703
157.314
156.911
156.493
156.061
155.616
155.156
154.68
154.188
153.682
153.163
152.632
152.085
151.521
150.939
150.344
149.738
149.118
148.484
147.836
147.174
146.494
145.803
145.105
144.4
143.686
142.963
142.233
141.494
140.746
139.993
139.237
138.475
137.715
136.958
136.193
135.425
134.673
133.924
133.162
132.411
131.687
130.959
130.222
129.511
128.826
128.137
127.453
126.803
126.167
125.538
124.937
124.353
123.783
123.24
122.724
122.232
121.764
121.321
120.904
120.513
120.149
119.812
119.504
119.224
118.961
118.717
118.505
118.322
118.165
118.031
117.918
117.828
117.759
117.712
117.685
117.679
117.692
117.724
117.774
117.841
117.926
118.027
118.143
118.274
118.418
118.575
118.744
118.925
119.117
119.319
119.531
119.755
119.988
120.23
120.482
120.742
121.011
121.289
121.575
121.87
122.173
122.485
122.804
123.132
123.47
123.816
124.172
124.537
162.93
162.719
162.503
162.281
162.054
161.82
161.579
161.33
161.073
160.808
160.534
160.249
159.955
159.649
159.332
159.004
158.664
158.31
157.944
157.564
157.171
156.764
156.342
155.905
155.455
154.992
154.516
154.022
153.51
152.984
152.445
151.892
151.323
150.738
150.131
149.509
148.876
148.234
147.581
146.915
146.233
145.536
144.83
144.115
143.392
142.661
141.923
141.176
140.424
139.668
138.907
138.14
137.375
136.609
135.838
135.069
134.309
133.55
132.786
132.035
131.299
130.562
129.828
129.115
128.419
127.726
127.044
126.39
125.747
125.117
124.515
123.931
123.362
122.818
122.301
121.806
121.336
120.894
120.477
120.087
119.725
119.389
119.083
118.805
118.551
118.315
118.104
117.923
117.77
117.639
117.53
117.442
117.376
117.332
117.309
117.308
117.325
117.362
117.416
117.487
117.576
117.681
117.801
117.935
118.083
118.244
118.417
118.601
118.797
119.002
119.218
119.443
119.677
119.92
120.172
120.433
120.702
120.98
121.266
121.56
121.863
122.173
122.492
122.82
123.158
123.504
123.861
124.228
162.63
162.413
162.19
161.962
161.726
161.483
161.233
160.975
160.707
160.43
160.143
159.846
159.538
159.217
158.885
158.542
158.186
157.816
157.432
157.036
156.629
156.206
155.767
155.312
154.844
154.362
153.864
153.349
152.811
152.258
151.692
151.115
150.526
149.917
149.291
148.652
148.001
147.339
146.664
145.979
145.282
144.573
143.854
143.125
142.388
141.644
140.892
140.136
139.374
138.606
137.834
137.063
136.289
135.513
134.74
133.973
133.205
132.439
131.685
130.939
130.197
129.462
128.744
128.04
127.343
126.662
126.003
125.355
124.726
124.121
123.532
122.963
122.423
121.905
121.407
120.936
120.493
120.076
119.686
119.324
118.991
118.685
118.408
118.158
117.931
117.721
117.539
117.386
117.259
117.154
117.07
117.009
116.969
116.95
116.953
116.975
117.016
117.074
117.15
117.241
117.347
117.468
117.604
117.752
117.914
118.088
118.273
118.47
118.676
118.893
119.119
119.354
119.597
119.85
120.11
120.38
120.657
120.943
121.237
121.54
121.851
122.17
122.499
122.837
123.184
123.542
123.91
162.325
162.101
161.871
161.635
161.391
161.138
160.878
160.609
160.329
160.04
159.741
159.431
159.108
158.773
158.428
158.072
157.702
157.316
156.918
156.506
156.081
155.639
155.176
154.694
154.199
153.693
153.173
152.633
152.076
151.505
150.92
150.322
149.712
149.087
148.447
147.792
147.125
146.446
145.756
145.055
144.341
143.616
142.882
142.14
141.389
140.632
139.869
139.101
138.327
137.55
136.772
135.992
135.211
134.433
133.658
132.885
132.116
131.355
130.603
129.856
129.119
128.396
127.686
126.986
126.304
125.639
124.988
124.358
123.748
123.157
122.592
122.051
121.531
121.031
120.559
120.116
119.699
119.308
118.946
118.612
118.307
118.028
117.779
117.556
117.355
117.174
117.022
116.898
116.797
116.719
116.661
116.624
116.607
116.61
116.633
116.675
116.735
116.811
116.904
117.011
117.134
117.27
117.42
117.582
117.757
117.942
118.139
118.346
118.563
118.789
119.023
119.267
119.519
119.78
120.049
120.326
120.612
120.906
121.209
121.52
121.84
122.169
122.507
122.856
123.214
123.582
123.961
124.351
162.239
162.014
161.783
161.546
161.3
161.046
160.785
160.514
160.234
159.942
159.642
159.332
159.011
158.675
158.329
157.97
157.599
157.211
156.802
156.378
155.941
155.492
155.026
154.542
154.043
153.53
153.003
152.464
151.91
151.338
150.751
150.15
149.536
148.907
148.262
147.604
146.932
146.248
145.552
144.845
144.125
143.396
142.656
141.908
141.152
140.389
139.62