/*--------------------------------*- C++ -*----------------------------------*\
| =========                 |                                                 |
| \\      /  F ield         | OpenFOAM: The Open Source CFD Toolbox           |
|  \\    /   O peration     | Version:  v1706                                 |
|   \\  /    A nd           | Web:      www.OpenFOAM.com                      |
|    \\/     M anipulation  |                                                 |
\*---------------------------------------------------------------------------*/
FoamFile
{
    version     2.0;
    format      ascii;
    class       volScalarField;
    location    "3.2e-05";
    object      Tt;
}
// * * * * * * * * * * * * * * * * * * * * * * * * * * * * * * * * * * * * * //

dimensions      [0 0 0 1 0 0 0];


internalField   nonuniform List<scalar> 
29871
(
151.557
152.326
153.143
154.006
154.93
155.941
157.052
158.255
159.537
160.882
162.277
163.71
165.17
166.646
168.125
169.597
171.047
172.467
173.853
175.233
176.788
178.667
180.785
183.041
185.352
187.655
189.907
192.073
194.129
196.059
197.854
199.512
201.035
202.426
203.689
204.833
205.863
206.785
207.603
208.32
208.939
209.463
209.894
210.234
210.491
210.664
210.738
210.715
210.632
210.485
210.254
209.949
209.599
209.187
208.724
208.221
207.659
207.028
206.331
205.566
204.725
203.81
202.824
201.766
200.633
199.424
198.137
196.771
195.325
193.797
192.185
190.486
188.698
186.821
184.855
182.798
180.647
178.406
176.089
173.736
171.454
169.519
168.059
166.769
165.501
164.215
162.908
161.585
160.252
158.918
157.589
156.27
154.98
153.767
152.671
151.711
150.891
150.172
149.506
148.873
148.271
147.706
147.187
146.731
146.349
183.309
186.736
190.236
193.799
197.466
201.515
205.994
210.823
215.894
221.092
226.307
231.439
236.408
241.149
245.615
249.774
253.607
257.107
260.279
263.134
265.659
267.841
269.704
271.273
272.575
273.64
274.493
275.155
275.646
275.993
276.226
276.372
276.454
276.489
276.478
276.447
276.4
276.342
276.271
276.182
276.073
275.943
275.791
275.615
275.416
275.189
274.93
274.637
274.317
273.981
273.624
273.281
272.891
272.446
271.993
271.533
271.06
270.567
270.06
269.522
268.954
268.367
267.76
267.13
266.477
265.804
265.112
264.403
263.678
262.94
262.189
261.426
260.652
259.869
259.069
258.235
257.344
256.362
255.243
253.922
252.297
250.251
247.777
244.957
241.828
238.389
234.624
230.521
226.081
221.31
216.225
210.849
205.225
199.433
193.659
188.246
183.72
179.887
176.368
172.978
169.665
166.46
163.45
160.731
158.368
239.231
245.749
252.02
257.951
263.48
268.557
273.102
277.118
280.64
283.712
286.385
288.709
290.731
292.487
294.002
295.291
296.363
297.221
297.876
298.358
298.705
298.949
299.114
299.216
299.257
299.232
299.169
299.05
298.867
298.624
298.325
297.976
297.586
297.161
296.714
296.25
295.777
295.3
294.823
294.35
293.882
293.419
292.96
292.505
292.054
291.608
291.162
290.709
290.254
289.803
289.36
288.908
288.469
288.045
287.658
287.222
286.699
286.231
285.804
285.334
284.846
284.395
283.955
283.509
283.066
282.634
282.216
281.813
281.429
281.066
280.726
280.411
280.119
279.845
279.59
279.35
279.109
278.847
278.545
278.187
277.746
277.197
276.526
275.743
274.856
273.866
272.772
271.573
270.27
268.856
267.312
265.601
263.664
261.412
258.736
255.529
251.67
247.05
241.735
235.828
229.395
222.481
215.151
207.537
199.893
192.695
295.74
298.33
300.53
302.386
303.932
305.198
306.206
306.979
307.543
307.936
308.204
308.397
308.55
308.684
308.807
308.921
309.014
309.055
309.03
308.955
308.829
308.663
308.467
308.25
308.014
307.766
307.514
307.266
307.031
306.804
306.573
306.33
306.064
305.768
305.438
305.073
304.677
304.255
303.813
303.356
302.888
302.413
301.934
301.449
300.963
300.481
299.999
299.507
299.009
298.517
298.034
297.546
297.077
296.63
296.22
295.754
295.186
294.685
294.23
293.727
293.197
292.708
292.231
291.75
291.272
290.803
290.343
289.894
289.457
289.03
288.613
288.208
287.814
287.426
287.035
286.633
286.213
285.774
285.32
284.849
284.357
283.849
283.339
282.832
282.323
281.819
281.322
280.824
280.312
279.775
279.207
278.59
277.89
277.09
276.185
275.161
274.015
272.76
271.4
269.907
268.221
266.243
263.827
260.787
256.946
252.153
313.603
314.055
314.394
314.661
314.879
315.061
315.21
315.322
315.374
315.349
315.265
315.123
314.94
314.733
314.521
314.319
314.139
313.999
313.914
313.876
313.848
313.8
313.713
313.578
313.398
313.18
312.934
312.667
312.394
312.127
311.867
311.608
311.348
311.083
310.807
310.515
310.201
309.862
309.499
309.111
308.7
308.267
307.821
307.363
306.885
306.398
305.911
305.416
304.905
304.391
303.886
303.378
302.849
302.36
301.898
301.478
300.977
300.381
299.874
299.415
298.912
298.351
297.825
297.324
296.829
296.338
295.841
295.353
294.876
294.401
293.921
293.44
292.96
292.477
291.99
291.503
291.01
290.5
289.981
289.469
288.955
288.43
287.908
287.403
286.906
286.407
285.916
285.438
284.962
284.474
283.982
283.458
282.888
282.274
281.682
281.123
280.572
280.057
279.584
279.119
278.634
278.1
277.491
276.775
275.919
274.904
273.753
319.823
319.78
319.69
319.567
319.427
319.286
319.157
319.038
318.938
318.866
318.805
318.723
318.599
318.43
318.228
318
317.761
317.531
317.348
317.202
317.094
317.007
316.919
316.813
316.678
316.51
316.307
316.079
315.822
315.545
315.266
314.993
314.727
314.467
314.209
313.947
313.679
313.4
313.103
312.792
312.463
312.105
311.73
311.345
310.931
310.497
310.058
309.609
309.127
308.635
308.154
307.67
307.133
306.64
306.173
305.753
305.212
304.6
304.083
303.588
303.085
302.467
301.851
301.296
300.772
300.241
299.664
299.107
298.579
298.029
297.457
296.886
296.311
295.726
295.142
294.574
293.997
293.402
292.827
292.295
291.758
291.204
290.69
290.209
289.719
289.22
288.744
288.267
287.774
287.27
286.78
286.272
285.729
285.164
284.649
284.169
283.699
283.252
282.829
282.397
281.937
281.459
280.977
280.506
280.141
279.869
279.499
323.028
322.929
322.851
322.788
322.734
322.659
322.551
322.404
322.226
322.041
321.851
321.671
321.531
321.421
321.323
321.217
321.09
320.937
320.756
320.549
320.324
320.094
319.886
319.716
319.58
319.473
319.379
319.287
319.184
319.061
318.916
318.744
318.542
318.318
318.08
317.831
317.582
317.333
317.076
316.818
316.558
316.283
315.998
315.708
315.393
315.056
314.716
314.353
313.955
313.552
313.15
312.699
312.229
311.771
311.323
310.789
310.294
309.832
309.413
308.849
308.235
307.719
307.211
306.705
306.039
305.359
304.768
304.211
303.644
303.007
302.401
301.832
301.234
300.588
299.954
299.316
298.657
298.019
297.412
296.781
296.127
295.521
294.95
294.371
293.775
293.22
292.701
292.161
291.62
291.097
290.583
290.034
289.494
288.966
288.433
287.888
287.358
286.854
286.383
285.944
285.521
285.098
284.671
284.241
283.807
283.369
282.976
282.682
282.44
282.157
325.632
325.453
325.289
325.149
325.045
324.951
324.848
324.725
324.585
324.42
324.24
324.054
323.876
323.721
323.595
323.492
323.401
323.304
323.195
323.065
322.918
322.747
322.566
322.39
322.232
322.097
321.983
321.883
321.791
321.698
321.596
321.48
321.34
321.175
320.992
320.779
320.547
320.315
320.061
319.792
319.53
319.253
318.954
318.662
318.359
318.02
317.683
317.347
316.958
316.562
316.182
315.757
315.292
314.845
314.421
313.898
313.394
312.933
312.506
311.934
311.326
310.813
310.304
309.793
309.1
308.387
307.774
307.189
306.591
305.908
305.268
304.667
304.06
303.372
302.678
302.005
301.319
300.661
300.028
299.391
298.727
298.099
297.503
296.915
296.313
295.728
295.165
294.604
294.036
293.472
292.913
292.34
291.762
291.188
290.615
290.042
289.482
288.946
288.439
287.96
287.506
287.059
286.613
286.18
285.753
285.337
284.965
284.658
284.395
284.137
327.849
327.668
327.487
327.314
327.168
327.053
326.959
326.871
326.787
326.692
326.581
326.456
326.322
326.188
326.066
325.964
325.879
325.805
325.733
325.657
325.566
325.46
325.332
325.189
325.039
324.892
324.753
324.624
324.506
324.397
324.286
324.176
324.057
323.917
323.768
323.597
323.388
323.177
322.949
322.677
322.41
322.142
321.824
321.51
321.209
320.854
320.493
320.154
319.765
319.35
318.959
318.55
318.073
317.618
317.195
316.681
316.162
315.686
315.242
314.672
314.067
313.554
313.04
312.523
311.813
311.094
310.476
309.874
309.25
308.529
307.871
307.259
306.654
305.962
305.212
304.515
303.844
303.183
302.538
301.904
301.263
300.63
300.018
299.418
298.815
298.213
297.62
297.033
296.443
295.85
295.256
294.655
294.049
293.443
292.841
292.245
291.664
291.101
290.571
290.071
289.588
289.115
288.648
288.19
287.744
287.316
286.926
286.582
286.275
285.988
330.005
329.891
329.767
329.638
329.515
329.408
329.322
329.254
329.2
329.149
329.094
329.029
328.951
328.863
328.77
328.68
328.598
328.526
328.463
328.403
328.339
328.269
328.184
328.083
327.964
327.833
327.694
327.551
327.41
327.273
327.132
326.997
326.865
326.712
326.558
326.401
326.202
325.996
325.79
325.528
325.255
324.996
324.68
324.345
324.034
323.679
323.288
322.925
322.54
322.098
321.677
321.269
320.78
320.301
319.86
319.35
318.81
318.312
317.846
317.269
316.665
316.146
315.62
315.09
314.364
313.662
313.051
312.444
311.8
311.045
310.381
309.776
309.173
308.492
307.705
306.995
306.335
305.686
305.042
304.408
303.779
303.152
302.532
301.919
301.305
300.69
300.076
299.464
298.849
298.23
297.607
296.979
296.349
295.722
295.102
294.49
293.899
293.333
292.791
292.272
291.772
291.284
290.805
290.334
289.875
289.436
289.028
288.651
288.302
287.97
332.368
332.309
332.244
332.173
332.096
332.021
331.954
331.9
331.859
331.829
331.805
331.779
331.748
331.707
331.656
331.598
331.537
331.475
331.417
331.361
331.306
331.248
331.184
331.109
331.018
330.911
330.789
330.652
330.505
330.351
330.188
330.024
329.862
329.681
329.497
329.322
329.113
328.888
328.676
328.421
328.136
327.869
327.565
327.214
326.883
326.537
326.127
325.733
325.35
324.893
324.439
324.015
323.525
323.016
322.546
322.039
321.479
320.953
320.464
319.879
319.268
318.736
318.196
317.645
316.906
316.23
315.631
315.027
314.36
313.579
312.915
312.311
311.706
311.037
310.237
309.522
308.863
308.219
307.577
306.941
306.31
305.68
305.051
304.423
303.794
303.162
302.527
301.891
301.253
300.611
299.965
299.32
298.676
298.035
297.411
296.802
296.211
295.644
295.098
294.573
294.064
293.567
293.077
292.596
292.126
291.674
291.245
290.84
290.455
290.086
334.981
334.951
334.929
334.909
334.887
334.862
334.833
334.804
334.778
334.758
334.746
334.742
334.741
334.74
334.735
334.723
334.701
334.67
334.631
334.587
334.539
334.488
334.434
334.376
334.309
334.232
334.141
334.033
333.908
333.767
333.61
333.437
333.256
333.066
332.859
332.644
332.434
332.199
331.941
331.701
331.433
331.124
330.832
330.525
330.16
329.801
329.451
329.036
328.61
328.212
327.759
327.272
326.819
326.338
325.803
325.294
324.792
324.219
323.662
323.146
322.56
321.934
321.378
320.825
320.25
319.509
318.853
318.259
317.66
316.963
316.17
315.506
314.888
314.283
313.602
312.805
312.095
311.433
310.784
310.137
309.493
308.85
308.208
307.565
306.921
306.273
305.622
304.969
304.313
303.656
302.999
302.339
301.686
301.041
300.405
299.783
299.18
298.596
298.033
297.489
296.961
296.445
295.938
295.438
294.945
294.463
293.995
293.546
293.114
292.7
292.3
337.756
337.756
337.763
337.777
337.796
337.815
337.832
337.846
337.858
337.871
337.885
337.902
337.922
337.943
337.963
337.978
337.985
337.982
337.969
337.946
337.912
337.871
337.821
337.764
337.698
337.622
337.534
337.431
337.311
337.174
337.017
336.842
336.652
336.445
336.218
335.979
335.735
335.468
335.179
334.901
334.602
334.263
333.933
333.602
333.219
332.822
332.449
332.029
331.569
331.139
330.687
330.177
329.683
329.203
328.656
328.106
327.589
327.02
326.429
325.873
325.297
324.657
324.065
323.491
322.901
322.166
321.511
320.906
320.308
319.59
318.794
318.121
317.482
316.866
316.158
315.383
314.676
314.007
313.347
312.688
312.03
311.372
310.713
310.053
309.391
308.727
308.061
307.394
306.724
306.057
305.395
304.737
304.085
303.445
302.818
302.206
301.611
301.035
300.476
299.93
299.397
298.871
298.352
297.838
297.331
296.833
296.349
295.878
295.424
294.984
294.556
294.138
293.729
340.729
340.762
340.803
340.85
340.903
340.959
341.015
341.07
341.122
341.171
341.217
341.26
341.303
341.344
341.383
341.418
341.446
341.465
341.471
341.465
341.448
341.418
341.375
341.32
341.253
341.173
341.08
340.972
340.848
340.707
340.546
340.366
340.167
339.947
339.706
339.448
339.176
338.881
338.565
338.248
337.912
337.542
337.169
336.801
336.392
335.952
335.54
335.1
334.61
334.133
333.666
333.142
332.601
332.093
331.548
330.959
330.398
329.839
329.221
328.616
328.035
327.394
326.758
326.148
325.55
324.828
324.155
323.524
322.916
322.18
321.395
320.703
320.037
319.376
318.677
317.935
317.222
316.535
315.859
315.185
314.511
313.836
313.161
312.485
311.81
311.133
310.457
309.784
309.113
308.445
307.784
307.131
306.488
305.857
305.24
304.637
304.049
303.476
302.914
302.362
301.818
301.278
300.742
300.211
299.687
299.172
298.669
298.178
297.701
297.235
296.779
296.33
295.885
343.74
343.807
343.877
343.951
344.028
344.111
344.197
344.286
344.376
344.466
344.553
344.636
344.713
344.786
344.852
344.914
344.969
345.019
345.061
345.094
345.115
345.119
345.112
345.091
345.054
345
344.931
344.845
344.743
344.625
344.489
344.335
344.162
343.968
343.755
343.52
343.262
342.985
342.689
342.368
342.027
341.675
341.303
340.901
340.488
340.077
339.633
339.155
338.693
338.221
337.703
337.17
336.668
336.126
335.542
334.983
334.428
333.815
333.2
332.616
331.993
331.339
330.713
330.082
329.409
328.753
328.12
327.429
326.728
326.054
325.399
324.686
323.929
323.207
322.506
321.809
321.104
320.382
319.664
318.96
318.267
317.577
316.888
316.199
315.512
314.824
314.141
313.461
312.783
312.108
311.438
310.775
310.119
309.473
308.838
308.215
307.603
307.004
306.415
305.837
305.266
304.7
304.139
303.581
303.026
302.476
301.933
301.399
300.875
300.361
299.859
299.364
298.875
298.388
297.903
346.964
347.073
347.185
347.299
347.415
347.533
347.653
347.773
347.894
348.013
348.13
348.241
348.346
348.443
348.532
348.612
348.682
348.744
348.795
348.834
348.861
348.87
348.865
348.845
348.808
348.752
348.677
348.582
348.468
348.335
348.181
348.008
347.815
347.601
347.365
347.108
346.827
346.526
346.203
345.855
345.485
345.099
344.692
344.258
343.806
343.351
342.869
342.354
341.839
341.326
340.774
340.192
339.636
339.067
338.451
337.829
337.239
336.609
335.943
335.304
334.673
333.985
333.301
332.644
331.96
331.258
330.574
329.885
329.173
328.459
327.755
327.041
326.303
325.563
324.834
324.112
323.39
322.665
321.942
321.226
320.517
319.813
319.111
318.41
317.714
317.024
316.338
315.655
314.977
314.303
313.636
312.977
312.326
311.684
311.052
310.429
309.816
309.211
308.614
308.022
307.434
306.85
306.268
305.689
305.114
304.543
303.978
303.422
302.873
302.333
301.798
301.268
300.739
300.208
299.675
299.138
349.462
349.566
349.676
349.795
349.92
350.052
350.191
350.335
350.482
350.633
350.784
350.937
351.089
351.24
351.389
351.537
351.681
351.82
351.953
352.078
352.194
352.299
352.393
352.474
352.543
352.598
352.638
352.663
352.667
352.658
352.633
352.587
352.52
352.433
352.323
352.191
352.037
351.861
351.663
351.443
351.2
350.935
350.646
350.335
350.001
349.645
349.264
348.86
348.437
347.992
347.521
347.029
346.528
346.005
345.452
344.885
344.325
343.735
343.11
342.49
341.885
341.236
340.557
339.909
339.256
338.552
337.849
337.179
336.474
335.738
335.028
334.325
333.595
332.865
332.142
331.412
330.673
329.934
329.196
328.451
327.7
326.953
326.211
325.472
324.736
324.003
323.275
322.552
321.834
321.119
320.413
319.714
319.019
318.329
317.644
316.964
316.291
315.624
314.965
314.313
313.669
313.033
312.403
311.78
311.162
310.548
309.936
309.328
308.721
308.116
307.513
306.914
306.32
305.731
305.147
304.568
303.993
303.419
302.845
302.268
301.686
301.099
300.507
352.677
352.824
352.977
353.137
353.302
353.473
353.648
353.828
354.01
354.194
354.379
354.562
354.743
354.921
355.095
355.264
355.427
355.583
355.731
355.869
355.996
356.109
356.209
356.294
356.363
356.415
356.449
356.463
356.458
356.436
356.395
356.331
356.245
356.135
356.002
355.845
355.664
355.458
355.228
354.973
354.695
354.392
354.065
353.714
353.339
352.941
352.519
352.073
351.606
351.118
350.604
350.068
349.518
348.949
348.353
347.734
347.121
346.489
345.823
345.139
344.484
343.8
343.075
342.358
341.667
340.933
340.17
339.439
338.713
337.941
337.176
336.429
335.674
334.909
334.146
333.385
332.621
331.854
331.089
330.324
329.558
328.794
328.035
327.28
326.53
325.785
325.043
324.305
323.575
322.855
322.142
321.435
320.734
320.038
319.348
318.665
317.987
317.316
316.651
315.992
315.339
314.691
314.047
313.407
312.77
312.134
311.5
310.867
310.235
309.604
308.976
308.35
307.727
307.108
306.491
305.874
305.256
304.634
304.007
303.374
302.734
302.089
301.439
356.008
356.194
356.387
356.584
356.787
356.993
357.202
357.413
357.625
357.837
358.047
358.255
358.459
358.657
358.849
359.033
359.208
359.373
359.527
359.669
359.797
359.911
360.007
360.086
360.147
360.187
360.205
360.201
360.18
360.135
360.068
359.977
359.861
359.72
359.554
359.362
359.144
358.9
358.63
358.333
358.01
357.662
357.288
356.889
356.466
356.018
355.545
355.049
354.531
353.99
353.426
352.839
352.234
351.614
350.969
350.298
349.623
348.946
348.233
347.491
346.775
346.052
345.284
344.5
343.754
342.989
342.18
341.384
340.615
339.818
339.007
338.21
337.419
336.622
335.824
335.028
334.234
333.441
332.65
331.862
331.077
330.296
329.52
328.75
327.985
327.225
326.467
325.718
324.98
324.251
323.528
322.812
322.102
321.398
320.7
320.008
319.321
318.64
317.964
317.292
316.624
315.96
315.297
314.637
313.977
313.317
312.657
311.997
311.337
310.678
310.019
309.362
308.705
308.049
307.392
306.73
306.062
305.385
304.7
304.006
303.304
302.595
301.883
359.429
359.651
359.878
360.109
360.343
360.578
360.815
361.052
361.287
361.521
361.75
361.974
362.192
362.402
362.603
362.793
362.972
363.138
363.289
363.426
363.546
363.648
363.731
363.793
363.834
363.852
363.846
363.819
363.767
363.69
363.588
363.459
363.303
363.121
362.912
362.675
362.41
362.118
361.798
361.45
361.075
360.673
360.244
359.788
359.308
358.802
358.271
357.716
357.138
356.538
355.916
355.27
354.605
353.926
353.226
352.498
351.759
351.028
350.265
349.468
348.684
347.916
347.102
346.26
345.45
344.648
343.798
342.943
342.118
341.291
340.445
339.603
338.771
337.94
337.11
336.282
335.458
334.638
333.823
333.012
332.207
331.408
330.616
329.83
329.049
328.272
327.502
326.745
325.997
325.257
324.524
323.797
323.076
322.361
321.652
320.948
320.249
319.554
318.862
318.174
317.488
316.804
316.12
315.438
314.755
314.071
313.384
312.696
312.007
311.316
310.623
309.929
309.232
308.532
307.827
307.118
306.402
305.676
304.939
304.193
303.437
302.674
301.907
301.142
300.377
362.91
363.162
363.418
363.676
363.935
364.193
364.451
364.705
364.956
365.202
365.442
365.674
365.896
366.108
366.309
366.495
366.667
366.823
366.962
367.082
367.183
367.264
367.322
367.357
367.365
367.352
367.314
367.25
367.157
367.037
366.889
366.713
366.508
366.274
366.011
365.719
365.398
365.048
364.668
364.26
363.823
363.358
362.866
362.346
361.8
361.228
360.632
360.01
359.366
358.699
358.011
357.301
356.569
355.826
355.064
354.275
353.469
352.677
351.859
351.006
350.156
349.334
348.473
347.578
346.705
345.854
344.965
344.062
343.183
342.314
341.436
340.556
339.684
338.82
337.96
337.105
336.254
335.41
334.572
333.741
332.919
332.104
331.297
330.496
329.699
328.908
328.131
327.365
326.608
325.857
325.113
324.375
323.643
322.917
322.196
321.479
320.766
320.055
319.348
318.642
317.936
317.232
316.526
315.821
315.114
314.405
313.696
312.983
312.267
311.548
310.825
310.096
309.362
308.621
307.872
307.117
306.356
305.586
304.806
304.015
303.215
302.408
301.595
300.777
299.954
366.418
366.694
366.971
367.247
367.523
367.796
368.065
368.329
368.586
368.836
369.076
369.305
369.522
369.726
369.914
370.086
370.241
370.376
370.491
370.584
370.655
370.702
370.723
370.718
370.69
370.633
370.548
370.435
370.291
370.118
369.915
369.68
369.416
369.12
368.794
368.437
368.05
367.632
367.184
366.706
366.199
365.663
365.099
364.507
363.888
363.244
362.575
361.881
361.164
360.424
359.664
358.883
358.081
357.269
356.441
355.586
354.712
353.855
352.977
352.064
351.152
350.273
349.361
348.417
347.49
346.585
345.656
344.717
343.789
342.874
341.962
341.051
340.146
339.25
338.363
337.483
336.613
335.751
334.897
334.053
333.217
332.392
331.574
330.762
329.954
329.157
328.375
327.603
326.838
326.08
325.328
324.582
323.842
323.107
322.376
321.649
320.925
320.202
319.481
318.761
318.04
317.318
316.595
315.87
315.142
314.412
313.68
312.945
312.205
311.459
310.707
309.947
309.18
308.403
307.616
306.818
306.007
305.187
304.357
303.517
302.67
301.815
300.954
300.087
299.216
369.623
369.914
370.206
370.496
370.783
371.066
371.344
371.615
371.878
372.131
372.374
372.603
372.819
373.02
373.203
373.369
373.515
373.64
373.743
373.822
373.877
373.906
373.906
373.883
373.831
373.749
373.637
373.495
373.322
373.116
372.879
372.61
372.309
371.975
371.608
371.209
370.779
370.316
369.822
369.297
368.742
368.157
367.543
366.9
366.229
365.531
364.807
364.06
363.289
362.494
361.677
360.84
359.984
359.108
358.225
357.328
356.405
355.466
354.544
353.603
352.63
351.664
350.724
349.759
348.776
347.812
346.859
345.897
344.933
343.973
343.022
342.081
341.147
340.219
339.301
338.394
337.497
336.61
335.736
334.871
334.017
333.174
332.342
331.518
330.7
329.886
329.089
328.305
327.53
326.762
326
325.244
324.494
323.75
323.009
322.273
321.539
320.807
320.076
319.346
318.615
317.883
317.149
316.412
315.672
314.927
314.178
313.422
312.66
311.891
311.114
310.329
309.534
308.729
307.913
307.085
306.246
305.396
304.536
303.666
302.789
301.904
301.013
300.115
299.209
298.296
373.061
373.361
373.659
373.952
374.24
374.521
374.793
375.055
375.306
375.545
375.769
375.977
376.168
376.34
376.493
376.624
376.732
376.816
376.874
376.908
376.909
376.888
376.836
376.753
376.64
376.495
376.318
376.108
375.864
375.587
375.277
374.933
374.554
374.142
373.696
373.217
372.704
372.159
371.582
370.973
370.333
369.663
368.965
368.237
367.481
366.698
365.89
365.06
364.209
363.334
362.438
361.524
360.591
359.641
358.685
357.721
356.74
355.749
354.773
353.779
352.759
351.753
350.761
349.749
348.733
347.739
346.745
345.75
344.765
343.784
342.808
341.846
340.896
339.954
339.023
338.104
337.197
336.301
335.417
334.546
333.687
332.841
332.008
331.182
330.361
329.549
328.755
327.973
327.2
326.433
325.672
324.917
324.167
323.421
322.679
321.94
321.202
320.466
319.729
318.992
318.253
317.512
316.767
316.017
315.263
314.503
313.735
312.96
312.177
311.385
310.583
309.771
308.948
308.114
307.269
306.412
305.545
304.667
303.78
302.885
301.982
301.071
300.152
299.226
298.292
297.352
296.405
295.455
376.418
376.718
377.011
377.298
377.575
377.843
378.099
378.341
378.569
378.781
378.976
379.151
379.306
379.438
379.548
379.632
379.691
379.724
379.724
379.701
379.646
379.56
379.441
379.29
379.106
378.888
378.635
378.348
378.025
377.668
377.275
376.847
376.384
375.886
375.353
374.785
374.184
373.551
372.884
372.184
371.453
370.694
369.907
369.091
368.246
367.376
366.483
365.567
364.634
363.687
362.724
361.746
360.75
359.739
358.722
357.698
356.661
355.622
354.594
353.552
352.494
351.454
350.42
349.368
348.322
347.296
346.266
345.241
344.235
343.236
342.243
341.265
340.303
339.352
338.414
337.49
336.58
335.683
334.8
333.932
333.078
332.238
331.411
330.593
329.78
328.977
328.193
327.421
326.657
325.898
325.146
324.398
323.655
322.915
322.179
321.444
320.71
319.976
319.241
318.503
317.763
317.018
316.269
315.514
314.753
313.984
313.206
312.42
311.624
310.817
310
309.172
308.332
307.482
306.621
305.748
304.866
303.974
303.073
302.165
301.25
300.327
299.397
298.46
297.518
296.57
295.617
294.664
379.655
379.943
380.223
380.491
380.748
380.991
381.219
381.431
381.625
381.799
381.952
382.083
382.19
382.272
382.328
382.355
382.352
382.323
382.262
382.169
382.043
381.883
381.689
381.46
381.195
380.895
380.559
380.186
379.777
379.331
378.848
378.329
377.774
377.184
376.557
375.895
375.2
374.472
373.712
372.918
372.094
371.242
370.363
369.462
368.541
367.598
366.632
365.645
364.64
363.624
362.596
361.555
360.5
359.435
358.364
357.283
356.19
355.1
354.018
352.927
351.832
350.757
349.684
348.602
347.535
346.486
345.437
344.395
343.376
342.371
341.372
340.391
339.428
338.478
337.546
336.629
335.728
334.842
333.972
333.117
332.278
331.454
330.644
329.844
329.049
328.265
327.498
326.745
325.999
325.258
324.522
323.791
323.063
322.339
321.616
320.894
320.172
319.449
318.723
317.994
317.261
316.522
315.778
315.027
314.268
313.501
312.724
311.936
311.138
310.328
309.508
308.677
307.835
306.982
306.119
305.245
304.361
303.469
302.569
301.662
300.75
299.833
298.91
297.983
297.053
296.12
295.185
294.248
382.734
383
383.254
383.494
383.719
383.927
384.116
384.286
384.434
384.56
384.661
384.736
384.786
384.805
384.796
384.758
384.688
384.585
384.448
384.277
384.071
383.83
383.551
383.236
382.884
382.494
382.066
381.6
381.098
380.557
379.978
379.361
378.709
378.022
377.298
376.538
375.745
374.92
374.07
373.194
372.29
371.36
370.402
369.424
368.426
367.41
366.373
365.319
364.248
363.16
362.062
360.956
359.84
358.719
357.595
356.464
355.329
354.199
353.076
351.951
350.83
349.728
348.63
347.533
346.454
345.394
344.34
343.296
342.277
341.274
340.282
339.311
338.359
337.424
336.509
335.613
334.733
333.87
333.024
332.195
331.382
330.585
329.802
329.03
328.266
327.51
326.77
326.044
325.326
324.612
323.903
323.198
322.495
321.794
321.095
320.396
319.696
318.994
318.288
317.577
316.861
316.14
315.411
314.675
313.93
313.175
312.411
311.636
310.85
310.054
309.244
308.422
307.589
306.746
305.892
305.028
304.156
303.277
302.39
301.497
300.6
299.7
298.796
297.89
296.984
296.08
295.177
294.274
293.373
385.851
386.069
386.27
386.452
386.614
386.754
386.871
386.964
387.03
387.07
387.078
387.06
387.011
386.929
386.814
386.665
386.481
386.261
386.004
385.711
385.379
385.009
384.601
384.155
383.669
383.143
382.578
381.976
381.336
380.657
379.94
379.186
378.401
377.589
376.745
375.869
374.961
374.026
373.068
372.084
371.076
370.046
368.991
367.916
366.822
365.713
364.588
363.451
362.302
361.145
359.984
358.818
357.651
356.484
355.316
354.15
352.993
351.843
350.697
349.564
348.448
347.34
346.242
345.165
344.107
343.06
342.029
341.024
340.037
339.065
338.117
337.189
336.28
335.394
334.53
333.683
332.855
332.045
331.253
330.477
329.718
328.973
328.24
327.517
326.799
326.096
325.407
324.726
324.05
323.378
322.709
322.042
321.375
320.71
320.044
319.377
318.707
318.032
317.351
316.661
315.963
315.257
314.542
313.818
313.084
312.34
311.586
310.822
310.047
309.261
308.462
307.653
306.833
306.003
305.165
304.319
303.466
302.607
301.743
300.876
300.006
299.135
298.264
297.395
296.529
295.669
294.817
293.973
388.464
388.636
388.787
388.917
389.023
389.103
389.158
389.186
389.182
389.152
389.089
388.994
388.865
388.701
388.502
388.267
387.994
387.683
387.334
386.946
386.519
386.051
385.543
384.997
384.411
383.783
383.115
382.41
381.674
380.906
380.103
379.263
378.39
377.489
376.56
375.603
374.618
373.602
372.558
371.49
370.4
369.291
368.163
367.017
365.857
364.684
363.5
362.308
361.108
359.903
358.697
357.491
356.288
355.09
353.896
352.711
351.538
350.376
349.225
348.091
346.976
345.875
344.79
343.729
342.689
341.666
340.663
339.687
338.73
337.795
336.884
335.995
335.127
334.282
333.46
332.658
331.875
331.113
330.368
329.64
328.929
328.232
327.549
326.876
326.21
325.553
324.91
324.276
323.648
323.023
322.401
321.78
321.158
320.532
319.903
319.271
318.636
317.996
317.351
316.695
316.031
315.357
314.674
313.981
313.278
312.565
311.842
311.109
310.367
309.616
308.856
308.087
307.309
306.523
305.729
304.929
304.122
303.312
302.498
301.682
300.865
300.049
299.235
298.426
297.623
296.828
296.043
295.271
390.928
391.02
391.087
391.128
391.139
391.123
391.078
391
390.889
390.745
390.565
390.35
390.098
389.807
389.479
389.112
388.704
388.256
387.769
387.242
386.672
386.06
385.41
384.727
384.01
383.255
382.461
381.634
380.776
379.888
378.967
378.012
377.021
376.001
374.955
373.884
372.788
371.667
370.524
369.361
368.18
366.984
365.775
364.555
363.327
362.093
360.854
359.613
358.373
357.135
355.903
354.679
353.464
352.26
351.07
349.896
348.738
347.597
346.477
345.38
344.302
343.246
342.215
341.209
340.225
339.265
338.332
337.422
336.537
335.678
334.841
334.027
333.237
332.468
331.721
330.995
330.29
329.603
328.933
328.279
327.641
327.016
326.403
325.797
325.199
324.611
324.033
323.459
322.883
322.308
321.733
321.159
320.579
319.994
319.406
318.812
318.213
317.609
317
316.383
315.757
315.122
314.477
313.822
313.157
312.483
311.8
311.107
310.407
309.7
308.985
308.264
307.536
306.802
306.063
305.32
304.575
303.828
303.081
302.335
301.592
300.854
300.122
299.397
298.683
297.981
297.291
392.945
392.94
392.91
392.847
392.752
392.625
392.464
392.267
392.034
391.764
391.457
391.109
390.722
390.296
389.83
389.321
388.77
388.179
387.554
386.894
386.194
385.454
384.679
383.873
383.033
382.156
381.24
380.288
379.306
378.294
377.251
376.177
375.075
373.946
372.794
371.62
370.427
369.215
367.987
366.745
365.492
364.23
362.963
361.692
360.419
359.147
357.879
356.617
355.362
354.119
352.889
351.673
350.474
349.295
348.135
346.998
345.883
344.793
343.729
342.689
341.677
340.692
339.734
338.803
337.9
337.024
336.174
335.352
334.556
333.784
333.035
332.308
331.605
330.923
330.264
329.625
329.004
328.401
327.814
327.242
326.684
326.138
325.599
325.062
324.528
324.002
323.483
322.963
322.44
321.917
321.393
320.87
320.344
319.812
319.276
318.733
318.185
317.631
317.07
316.501
315.924
315.338
314.743
314.139
313.527
312.906
312.278
311.643
311.001
310.354
309.701
309.044
308.384
307.72
307.055
306.389
305.723
305.058
304.397
303.741
303.09
302.448
301.814
301.191
300.58
299.983
299.399
298.831
394.549
394.468
394.356
394.21
394.031
393.816
393.566
393.277
392.949
392.583
392.18
391.733
391.244
390.716
390.151
389.551
388.912
388.231
387.515
386.766
385.98
385.156
384.29
383.388
382.452
381.482
380.477
379.438
378.367
377.266
376.139
374.985
373.805
372.602
371.379
370.138
368.881
367.61
366.328
365.037
363.739
362.438
361.136
359.835
358.538
357.248
355.967
354.698
353.442
352.202