/*--------------------------------*- C++ -*----------------------------------*\
| =========                 |                                                 |
| \\      /  F ield         | OpenFOAM: The Open Source CFD Toolbox           |
|  \\    /   O peration     | Version:  v1706                                 |
|   \\  /    A nd           | Web:      www.OpenFOAM.com                      |
|    \\/     M anipulation  |                                                 |
\*---------------------------------------------------------------------------*/
FoamFile
{
    version     2.0;
    format      ascii;
    class       volScalarField;
    location    "3.2e-05";
    object      Tv;
}
// * * * * * * * * * * * * * * * * * * * * * * * * * * * * * * * * * * * * * //

dimensions      [0 0 0 1 0 0 0];


internalField   nonuniform List<scalar> 
29871
(
144.4
144.4
144.4
144.4
144.4
144.4
144.4
144.4
144.4
144.4
144.4
144.4
144.4
144.4
144.4
144.4
144.4
144.4
144.4
144.4
144.4
144.4
144.4
144.4
144.4
144.4
144.4
144.4
144.4
144.4
144.4
144.4
144.4
144.4
144.4
144.4
144.4
144.4
144.4
144.4
144.4
144.4
144.4
144.4
144.4
144.4
144.4
144.4
144.4
144.4
144.4
144.4
144.4
144.4
144.4
144.4
144.4
144.4
144.4
144.4
144.4
144.4
144.4
144.4
144.4
144.4
144.4
144.4
144.4
144.4
144.4
144.4
144.4
144.4
144.4
144.4
144.4
144.4
144.4
144.4
144.4
144.4
144.4
144.4
144.4
144.4
144.4
144.4
144.4
144.4
144.4
144.4
144.4
144.4
144.4
144.4
144.4
144.4
144.4
144.4
144.4
144.4
144.4
144.4
144.4
144.4
144.4
144.4
144.4
144.4
144.4
144.4
144.4
144.4
144.4
144.4
144.4
144.4
144.4
144.4
144.4
144.4
144.4
144.4
144.4
144.4
144.4
144.4
144.4
144.4
144.4
144.4
144.4
144.4
144.4
144.4
144.4
144.4
144.4
144.4
144.4
144.4
144.4
144.4
144.4
144.4
144.4
144.4
144.4
144.4
144.4
144.4
144.4
144.4
144.4
144.4
144.4
144.4
144.4
144.4
144.4
144.4
144.4
144.4
144.4
144.4
144.4
144.4
144.4
144.4
144.4
144.4
144.4
144.4
144.4
144.4
144.4
144.4
144.4
144.4
144.4
144.4
144.4
144.4
144.4
144.4
144.4
144.4
144.4
144.4
144.4
144.4
144.4
144.4
144.4
144.4
144.4
144.4
144.4
144.4
144.4
144.4
144.4
144.4
144.4
144.4
144.4
144.4
144.4
144.4
144.4
144.4
144.4
144.4
144.4
144.4
144.4
144.4
144.4
144.4
144.401
144.401
144.401
144.401
144.401
144.401
144.401
144.401
144.401
144.401
144.401
144.401
144.401
144.401
144.401
144.401
144.401
144.401
144.402
144.402
144.402
144.402
144.402
144.402
144.402
144.402
144.402
144.402
144.402
144.402
144.402
144.402
144.402
144.402
144.402
144.402
144.402
144.402
144.402
144.402
144.402
144.402
144.402
144.402
144.402
144.402
144.401
144.401
144.401
144.401
144.401
144.401
144.401
144.401
144.401
144.401
144.401
144.401
144.401
144.401
144.401
144.401
144.4
144.4
144.4
144.4
144.4
144.4
144.4
144.4
144.4
144.4
144.4
144.4
144.4
144.4
144.4
144.4
144.4
144.4
144.4
144.4
144.4
144.4
144.4
144.4
144.4
144.4
144.4
144.4
144.4
144.4
144.4
144.4
144.4
144.4
144.401
144.401
144.401
144.401
144.401
144.401
144.401
144.401
144.402
144.402
144.402
144.402
144.402
144.402
144.402
144.403
144.403
144.403
144.403
144.403
144.404
144.404
144.404
144.404
144.404
144.405
144.405
144.405
144.405
144.405
144.405
144.406
144.406
144.406
144.406
144.406
144.406
144.406
144.406
144.407
144.407
144.407
144.407
144.407
144.407
144.407
144.406
144.406
144.406
144.406
144.406
144.406
144.406
144.406
144.405
144.405
144.405
144.405
144.405
144.404
144.404
144.404
144.404
144.403
144.403
144.403
144.403
144.403
144.402
144.402
144.402
144.402
144.402
144.402
144.401
144.401
144.401
144.401
144.401
144.401
144.401
144.401
144.401
144.4
144.4
144.4
144.4
144.4
144.4
144.4
144.4
144.4
144.4
144.4
144.4
144.4
144.4
144.4
144.4
144.4
144.4
144.4
144.4
144.4
144.4
144.4
144.402
144.402
144.403
144.403
144.403
144.403
144.404
144.404
144.404
144.405
144.405
144.406
144.406
144.406
144.407
144.407
144.408
144.409
144.409
144.41
144.41
144.411
144.412
144.412
144.413
144.413
144.414
144.415
144.415
144.416
144.416
144.417
144.418
144.418
144.419
144.419
144.419
144.42
144.42
144.42
144.42
144.421
144.421
144.421
144.421
144.421
144.421
144.42
144.42
144.42
144.419
144.419
144.419
144.418
144.418
144.417
144.417
144.416
144.415
144.415
144.414
144.413
144.413
144.412
144.411
144.411
144.41
144.409
144.409
144.408
144.407
144.407
144.406
144.406
144.405
144.405
144.404
144.404
144.403
144.403
144.403
144.402
144.402
144.402
144.401
144.401
144.401
144.401
144.401
144.401
144.401
144.4
144.4
144.4
144.4
144.4
144.4
144.4
144.4
144.4
144.4
144.4
144.4
144.4
144.4
144.4
144.4
144.407
144.407
144.408
144.408
144.409
144.41
144.411
144.412
144.413
144.414
144.415
144.416
144.418
144.419
144.42
144.422
144.423
144.425
144.426
144.428
144.43
144.432
144.433
144.435
144.437
144.439
144.441
144.442
144.444
144.446
144.448
144.449
144.451
144.452
144.454
144.455
144.456
144.457
144.458
144.459
144.46
144.46
144.46
144.46
144.46
144.46
144.46
144.459
144.459
144.458
144.457
144.456
144.455
144.453
144.452
144.45
144.449
144.447
144.445
144.443
144.441
144.439
144.437
144.435
144.433
144.431
144.429
144.427
144.425
144.424
144.422
144.42
144.418
144.417
144.415
144.414
144.412
144.411
144.41
144.409
144.408
144.407
144.406
144.405
144.405
144.404
144.403
144.403
144.403
144.402
144.402
144.402
144.401
144.401
144.401
144.401
144.401
144.4
144.4
144.4
144.4
144.4
144.4
144.4
144.4
144.4
144.4
144.414
144.415
144.417
144.418
144.42
144.422
144.424
144.426
144.428
144.43
144.433
144.436
144.438
144.442
144.445
144.448
144.452
144.455
144.459
144.463
144.468
144.472
144.476
144.481
144.486
144.491
144.495
144.5
144.505
144.51
144.515
144.52
144.524
144.529
144.533
144.538
144.542
144.545
144.549
144.552
144.555
144.557
144.559
144.561
144.563
144.564
144.564
144.564
144.564
144.563
144.561
144.56
144.558
144.555
144.552
144.549
144.546
144.542
144.537
144.533
144.528
144.523
144.518
144.513
144.508
144.502
144.497
144.491
144.486
144.481
144.475
144.47
144.465
144.46
144.456
144.451
144.447
144.443
144.439
144.435
144.431
144.428
144.425
144.422
144.42
144.417
144.415
144.413
144.412
144.41
144.409
144.407
144.406
144.405
144.404
144.404
144.403
144.403
144.402
144.402
144.401
144.401
144.401
144.401
144.401
144.4
144.4
144.4
144.4
144.4
144.437
144.441
144.444
144.448
144.453
144.457
144.462
144.468
144.473
144.48
144.486
144.493
144.5
144.508
144.516
144.525
144.534
144.543
144.553
144.563
144.574
144.585
144.596
144.607
144.619
144.631
144.643
144.656
144.668
144.68
144.692
144.704
144.715
144.726
144.737
144.748
144.757
144.767
144.775
144.783
144.79
144.796
144.801
144.806
144.809
144.811
144.812
144.812
144.811
144.809
144.806
144.802
144.797
144.791
144.785
144.777
144.768
144.759
144.748
144.737
144.726
144.714
144.701
144.688
144.675
144.661
144.648
144.635
144.621
144.608
144.595
144.582
144.569
144.557
144.545
144.533
144.522
144.511
144.501
144.492
144.483
144.475
144.467
144.46
144.453
144.447
144.441
144.436
144.431
144.427
144.424
144.42
144.417
144.415
144.412
144.411
144.409
144.407
144.406
144.405
144.404
144.403
144.403
144.402
144.402
144.401
144.401
144.401
144.401
144.401
144.494
144.502
144.512
144.522
144.532
144.544
144.556
144.569
144.583
144.597
144.613
144.63
144.647
144.666
144.685
144.705
144.727
144.749
144.772
144.796
144.82
144.846
144.871
144.898
144.925
144.952
144.98
145.007
145.035
145.062
145.09
145.116
145.142
145.167
145.191
145.214
145.235
145.256
145.274
145.291
145.306
145.32
145.331
145.34
145.347
145.352
145.355
145.354
145.352
145.348
145.342
145.333
145.322
145.308
145.293
145.276
145.257
145.236
145.213
145.189
145.163
145.136
145.108
145.078
145.048
145.018
144.987
144.957
144.926
144.895
144.865
144.835
144.806
144.777
144.749
144.722
144.696
144.672
144.648
144.625
144.604
144.584
144.565
144.548
144.532
144.517
144.503
144.491
144.48
144.47
144.46
144.452
144.445
144.438
144.433
144.428
144.423
144.419
144.416
144.413
144.411
144.409
144.407
144.406
144.405
144.404
144.403
144.402
144.402
144.401
144.626
144.645
144.667
144.689
144.714
144.74
144.768
144.797
144.829
144.862
144.897
144.934
144.973
145.014
145.056
145.101
145.147
145.195
145.244
145.295
145.347
145.4
145.454
145.509
145.565
145.621
145.677
145.733
145.788
145.843
145.897
145.95
146.001
146.05
146.097
146.141
146.183
146.222
146.257
146.29
146.318
146.343
146.364
146.381
146.394
146.403
146.406
146.405
146.401
146.392
146.379
146.361
146.339
146.314
146.284
146.25
146.212
146.171
146.126
146.078
146.028
145.974
145.918
145.859
145.799
145.738
145.676
145.613
145.55
145.486
145.424
145.362
145.3
145.24
145.181
145.123
145.068
145.015
144.963
144.914
144.868
144.824
144.783
144.744
144.708
144.675
144.644
144.615
144.59
144.566
144.545
144.526
144.509
144.493
144.48
144.468
144.458
144.448
144.441
144.434
144.428
144.423
144.419
144.415
144.413
144.41
144.408
144.406
144.405
144.404
144.912
144.955
145.001
145.05
145.102
145.157
145.216
145.278
145.343
145.411
145.483
145.558
145.636
145.718
145.802
145.889
145.979
146.071
146.165
146.261
146.359
146.458
146.558
146.658
146.758
146.858
146.958
147.056
147.153
147.248
147.34
147.43
147.516
147.599
147.677
147.751
147.819
147.883
147.94
147.992
148.038
148.077
148.11
148.136
148.155
148.168
148.171
148.168
148.159
148.143
148.12
148.09
148.052
148.008
147.958
147.9
147.837
147.767
147.69
147.609
147.522
147.43
147.332
147.23
147.125
147.017
146.908
146.795
146.681
146.566
146.452
146.338
146.223
146.11
145.999
145.89
145.784
145.681
145.581
145.485
145.393
145.305
145.222
145.143
145.069
145
144.936
144.876
144.822
144.772
144.726
144.685
144.647
144.614
144.584
144.558
144.534
144.514
144.496
144.481
144.467
144.456
144.446
144.438
144.431
144.425
144.42
144.416
144.413
144.41
145.409
145.489
145.575
145.665
145.761
145.861
145.967
146.078
146.194
146.315
146.441
146.571
146.706
146.845
146.988
147.134
147.283
147.435
147.589
147.746
147.903
148.061
148.22
148.378
148.535
148.691
148.844
148.995
149.143
149.287
149.426
149.561
149.691
149.814
149.932
150.043
150.146
150.242
150.329
150.408
150.479
150.541
150.593
150.636
150.669
150.693
150.706
150.707
150.701
150.685
150.659
150.624
150.578
150.523
150.458
150.383
150.299
150.206
150.103
149.991
149.871
149.742
149.606
149.46
149.308
149.149
148.986
148.818
148.644
148.466
148.286
148.105
147.922
147.737
147.553
147.369
147.188
147.009
146.834
146.662
146.494
146.331
146.174
146.024
145.88
145.743
145.613
145.492
145.378
145.272
145.174
145.084
145.001
144.926
144.858
144.797
144.742
144.694
144.651
144.613
144.58
144.551
144.527
144.505
144.487
144.472
144.459
144.448
144.439
144.431
144.425
146.398
146.542
146.694
146.852
147.017
147.189
147.367
147.552
147.742
147.938
148.139
148.345
148.555
148.768
148.985
149.204
149.425
149.647
149.87
150.093
150.314
150.535
150.753
150.969
151.181
151.388
151.591
151.789
151.981
152.166
152.344
152.514
152.677
152.831
152.976
153.112
153.237
153.353
153.458
153.552
153.635
153.707
153.767
153.815
153.852
153.876
153.885
153.882
153.87
153.845
153.809
153.76
153.699
153.625
153.54
153.442
153.333
153.211
153.078
152.933
152.776
152.609
152.43
152.24
152.039
151.83
151.613
151.387
151.152
150.91
150.663
150.413
150.157
149.897
149.634
149.37
149.106
148.843
148.581
148.322
148.065
147.813
147.566
147.325
147.092
146.866
146.65
146.444
146.249
146.064
145.891
145.73
145.58
145.442
145.315
145.2
145.096
145.003
144.919
144.844
144.779
144.721
144.671
144.627
144.59
144.557
144.53
144.507
144.487
144.471
144.457
144.446
144.437
148.017
148.244
148.478
148.72
148.969
149.224
149.485
149.752
150.023
150.299
150.578
150.86
151.144
151.429
151.716
152.002
152.287
152.571
152.853
153.131
153.406
153.677
153.942
154.202
154.456
154.703
154.942
155.173
155.395
155.609
155.813
156.006
156.19
156.362
156.524
156.673
156.811
156.937
157.051
157.151
157.239
157.314
157.375
157.423
157.458
157.478
157.479
157.471
157.451
157.417
157.368
157.306
157.23
157.14
157.036
156.918
156.787
156.641
156.482
156.309
156.122
155.922
155.709
155.481
155.242
154.99
154.727
154.453
154.167
153.871
153.568
153.257
152.937
152.61
152.276
151.938
151.597
151.253
150.908
150.561
150.214
149.868
149.525
149.185
148.851
148.524
148.206
147.896
147.598
147.312
147.039
146.78
146.536
146.307
146.095
145.898
145.717
145.552
145.402
145.267
145.146
145.039
144.944
144.861
144.788
144.725
144.671
144.625
144.585
144.552
144.524
144.501
144.481
149.736
150.034
150.34
150.652
150.97
151.294
151.623
151.956
152.293
152.632
152.974
153.317
153.661
154.005
154.348
154.689
155.029
155.365
155.698
156.026
156.349
156.667
156.977
157.281
157.578
157.866
158.145
158.416
158.676
158.926
159.166
159.395
159.612
159.817
160.01
160.191
160.358
160.513
160.654
160.782
160.897
160.997
161.083
161.155
161.212
161.254
161.282
161.292
161.288
161.271
161.241
161.195
161.134
161.058
160.968
160.862
160.742
160.606
160.456
160.29
160.11
159.914
159.703
159.477
159.236
158.98
158.709
158.425
158.127
157.816
157.491
157.154
156.805
156.447
156.077
155.697
155.308
154.91
154.506
154.096
153.68
153.259
152.834
152.406
151.977
151.548
151.12
150.695
150.275
149.861
149.456
149.06
148.677
148.306
147.951
147.612
147.29
146.987
146.704
146.44
146.197
145.974
145.771
145.587
145.423
145.276
145.146
145.032
144.932
144.846
144.772
144.708
144.654
144.608
144.57
152.536
152.911
153.29
153.674
154.061
154.451
154.843
155.236
155.63
156.024
156.417
156.808
157.198
157.584
157.967
158.346
158.72
159.089
159.451
159.807
160.155
160.495
160.827
161.149
161.462
161.765
162.057
162.339
162.609
162.867
163.113
163.347
163.568
163.775
163.97
164.15
164.317
164.47
164.608
164.732
164.841
164.935
165.015
165.08
165.129
165.162
165.179
165.178
165.166
165.139
165.096
165.038
164.964
164.874
164.77
164.649
164.513
164.362
164.195
164.011
163.812
163.597
163.366
163.119
162.856
162.577
162.282
161.972
161.648
161.308
160.953
160.585
160.203
159.808
159.401
158.982
158.551
158.108
157.657
157.196
156.726
156.249
155.763
155.271
154.774
154.272
153.767
153.261
152.755
152.252
151.751
151.257
150.77
150.292
149.826
149.374
148.938
148.519
148.119
147.74
147.383
147.05
146.74
146.454
146.193
145.956
145.742
145.551
145.382
145.233
145.102
144.989
144.891
144.808
144.737
144.677
152.914
153.316
153.723
154.136
154.554
154.977
155.403
155.833
156.265
156.699
157.134
157.57
158.006
158.441
158.875
159.307
159.736
160.162
160.585
161.002
161.415
161.822
162.223
162.616
163.003
163.381
163.751
164.112
164.463
164.804
165.134
165.454
165.761
166.057
166.341
166.612
166.871
167.116
167.347
167.565
167.769
167.958
168.134
168.294
168.439
168.57
168.685
168.786
168.871
168.94
168.994
169.032
169.053
169.055
169.047
169.023
168.983
168.927
168.855
168.768
168.664
168.545
168.411
168.26
168.093
167.91
167.711
167.495
167.262
167.014
166.749
166.467
166.169
165.855
165.524
165.178
164.816
164.438
164.046
163.638
163.216
162.781
162.331
161.869
161.394
160.907
160.408
159.899
159.379
158.849
158.309
157.762
157.206
156.644
156.077
155.505
154.931
154.356
153.782
153.211
152.644
152.083
151.532
150.991
150.464
149.952
149.458
148.984
148.531
148.103
147.7
147.324
146.976
146.655
146.362
146.098
145.86
145.649
145.462
145.298
145.155
145.032
144.926
156.188
156.646
157.108
157.573
158.04
158.509
158.979
159.449
159.92
160.39
160.859
161.326
161.791
162.254
162.713
163.168
163.618
164.063
164.503
164.936
165.363
165.783
166.194
166.597
166.991
167.376
167.751
168.116
168.469
168.812
169.142
169.461
169.767
170.06
170.34
170.606
170.859
171.098
171.322
171.532
171.727
171.907
172.073
172.223
172.358
172.477
172.581
172.669
172.742
172.799
172.84
172.864
172.869
172.862
172.84
172.803
172.749
172.679
172.593
172.492
172.374
172.24
172.091
171.926
171.744
171.546
171.332
171.101
170.853
170.588
170.307
170.009
169.694
169.363
169.015
168.651
168.27
167.874
167.461
167.034
166.591
166.133
165.66
165.174
164.673
164.16
163.633
163.094
162.543
161.98
161.406
160.821
160.227
159.623
159.011
158.393
157.768
157.138
156.505
155.871
155.236
154.602
153.973
153.348
152.732
152.126
151.532
150.953
150.392
149.851
149.332
148.838
148.371
147.933
147.524
147.147
146.8
146.485
146.201
145.947
145.721
145.522
145.348
159.756
160.253
160.752
161.251
161.75
162.249
162.747
163.243
163.738
164.23
164.72
165.206
165.688
166.166
166.638
167.106
167.567
168.022
168.47
168.91
169.342
169.766
170.18
170.585
170.98
171.365
171.738
172.101
172.451
172.789
173.114
173.427
173.726
174.011
174.283
174.54
174.783
175.011
175.225
175.423
175.606
175.774
175.926
176.063
176.184
176.29
176.38
176.454
176.512
176.554
176.58
176.587
176.581
176.56
176.524
176.472
176.403
176.319
176.218
176.102
175.97
175.822
175.659
175.479
175.283
175.071
174.842
174.596
174.334
174.055
173.759
173.446
173.116
172.77
172.406
172.027
171.63
171.218
170.789
170.344
169.883
169.407
168.916
168.411
167.89
167.356
166.807
166.246
165.671
165.084
164.484
163.873
163.25
162.616
161.973
161.32
160.659
159.991
159.317
158.637
157.954
157.268
156.582
155.896
155.214
154.536
153.865
153.204
152.554
151.919
151.301
150.703
150.127
149.576
149.053
148.56
148.097
147.668
147.272
146.909
146.58
146.284
146.02
163.489
164.011
164.533
165.054
165.573
166.09
166.605
167.117
167.625
168.13
168.63
169.126
169.616
170.101
170.58
171.052
171.517
171.975
172.424
172.865
173.297
173.719
174.131
174.532
174.923
175.302
175.67
176.025
176.367
176.697
177.013
177.315
177.604
177.878
178.137
178.382
178.611
178.826
179.025
179.209
179.377
179.53
179.667
179.788
179.894
179.983
180.057
180.115
180.158
180.183
180.191
180.185
180.165
180.129
180.077
180.01
179.926
179.826
179.711
179.581
179.435
179.272
179.095
178.901
178.691
178.465
178.222
177.963
177.687
177.394
177.084
176.758
176.414
176.054
175.677
175.283
174.873
174.446
174.002
173.543
173.068
172.576
172.07
171.548
171.011
170.46
169.895
169.315
168.722
168.116
167.497
166.866
166.222
165.567
164.901
164.225
163.539
162.844
162.141
161.43
160.714
159.992
159.267
158.54
157.811
157.083
156.358
155.638
154.924
154.219
153.525
152.846
152.183
151.54
150.919
150.323
149.754
149.215
148.707
148.233
147.793
147.388
147.019
146.684
146.382
167.298
167.836
168.371
168.905
169.435
169.962
170.486
171.005
171.52
172.03
172.535
173.034
173.527
174.013
174.493
174.964
175.428
175.883
176.329
176.765
177.192
177.608
178.013
178.407
178.79
179.16
179.517
179.861
180.193
180.51
180.813
181.102
181.376
181.636
181.88
182.11
182.323
182.522
182.704
182.871
183.022
183.158
183.278
183.381
183.469
183.542
183.598
183.639
183.663
183.67
183.663
183.643
183.607
183.555
183.487
183.404
183.306
183.191
183.061
182.917
182.756
182.58
182.388
182.181
181.958
181.719
181.463
181.19
180.902
180.596
180.273
179.934
179.577
179.204
178.815
178.408
177.985
177.545
177.089
176.617
176.128
175.624
175.104
174.569
174.018
173.453
172.873
172.28
171.673
171.052
170.418
169.772
169.113
168.442
167.76
167.067
166.364
165.651
164.929
164.198
163.461
162.716
161.966
161.212
160.454
159.694
158.934
158.175
157.419
156.667
155.923
155.187
154.463
153.753
153.059
152.385
151.731
151.102
150.5
149.926
149.384
148.874
148.398
147.957
147.551
171.125
171.671
172.213
172.753
173.288
173.819
174.346
174.868
175.384
175.895
176.399
176.897
177.387
177.871
178.346
178.813
179.271
179.719
180.158
180.587
181.004
181.411
181.806
182.189
182.559
182.917
183.261
183.592
183.909
184.211
184.499
184.771
185.029
185.272
185.498
185.71
185.905
186.085
186.249
186.397
186.53
186.646
186.747
186.832
186.901
186.955
186.993
187.015
187.019
187.011
186.989
186.952
186.899
186.83
186.747
186.649
186.536
186.407
186.263
186.104
185.93
185.74
185.536
185.316
185.08
184.827
184.559
184.274
183.973
183.655
183.321
182.969
182.601
182.216
181.815
181.396
180.961
180.51
180.042
179.558
179.057
178.541
178.01
177.463
176.901
176.324
175.733
175.128
174.509
173.877
173.232
172.575
171.905
171.223
170.53
169.826
169.112
168.388
167.654
166.911
166.161
165.403
164.639
163.87
163.096
162.318
161.539
160.759
159.979
159.201
158.427
157.659
156.898
156.146
155.406
154.68
153.97
153.278
152.606
151.958
151.336
150.74
150.174
149.638
149.135
174.379
174.931
175.48
176.025
176.566
177.102
177.633
178.158
178.678
179.191
179.698
180.198
180.691
181.176
181.652
182.12
182.578
183.027
183.466
183.895
184.312
184.718
185.112
185.494
185.863
186.219
186.561
186.89
187.204
187.503
187.788
188.058
188.312
188.551
188.774
188.981
189.173
189.348
189.508
189.651
189.779
189.891
189.987
190.068
190.133
190.183
190.216
190.235
190.236
190.226
190.201
190.162
190.107
190.038
189.954
189.855
189.742
189.614
189.471
189.314
189.142
188.955
188.753
188.535
188.303
188.055
187.791
187.511
187.214
186.902
186.572
186.227
185.864
185.485
185.088
184.676
184.246
183.8
183.338
182.859
182.364
181.853
181.326
180.784
180.227
179.655
179.069
178.468
177.854
177.226
176.586
175.933
175.267
174.59
173.901
173.201
172.491
171.771
171.04
170.301
169.553
168.798
168.035
167.265
166.49
165.711
164.927
164.141
163.353
162.565
161.777
160.991
160.209
159.432
158.661
157.899
157.147
156.406
155.679
154.968
154.274
153.599
152.946
152.316
151.711
151.132
178.14
178.693
179.241
179.784
180.322
180.855
181.382
181.902
182.417
182.924
183.424
183.916
184.401
184.877
185.343
185.801
186.248
186.685
187.112
187.527
187.93
188.322
188.701
189.067
189.419
189.758
190.082
190.393
190.688
190.968
191.233
191.482
191.716
191.934
192.136
192.322
192.492
192.646
192.784
192.906
193.012
193.102
193.177
193.237
193.281
193.31
193.324
193.322
193.309
193.28
193.238
193.181
193.11
193.025
192.925
192.812
192.685
192.543
192.387
192.217
192.032
191.833
191.619
191.39
191.146
190.886
190.611
190.32
190.012
189.689
189.348
188.992
188.618
188.228
187.822
187.398
186.959
186.502
186.029
185.541
185.036
184.515
183.979
183.428
182.862
182.281
181.686
181.078
180.457
179.823
179.176
178.517
177.847
177.166
176.473
175.771
175.058
174.336
173.605
172.865
172.118
171.363
170.602
169.835
169.062
168.286
167.506
166.723
165.939
165.154
164.369
163.586
162.806
162.029
161.258
160.493
159.735
158.987
158.249
157.522
156.809
156.111
155.429
154.765
154.119
153.494
152.891
152.309
181.842
182.391
182.935
183.473
184.006
184.532
185.052
185.565
186.071
186.57
187.06
187.542
188.015
188.48
188.934
189.378
189.812
190.235
190.646
191.046
191.433
191.808
192.169
192.516
192.85
193.169
193.474
193.764
194.038
194.297
194.54
194.768
194.979
195.174
195.353
195.516
195.663
195.794
195.91
196.009
196.093
196.161
196.215
196.253
196.276
196.284
196.278
196.26
196.228
196.182
196.122
196.049
195.962
195.862
195.748
195.621
195.48
195.326
195.157
194.975
194.779
194.568
194.343
194.103
193.848
193.577
193.291
192.989
192.672
192.337
191.987
191.62
191.236
190.836
190.419
189.986
189.536
189.07
188.588
188.09
187.576
187.046
186.502
185.942
185.369
184.781
184.18
183.566
182.939
182.3
181.65
180.989
180.316
179.634
178.941
178.239
177.528
176.809
176.081
175.347
174.605
173.857
173.103
172.345
171.582
170.816
170.048
169.277
168.506
167.735
166.964
166.195
165.428
164.666
163.907
163.154
162.408
161.669
160.939
160.218
159.507
158.808
158.121
157.448
156.789
156.145
155.517
154.906
185.471
186.014
186.551
187.081
187.606
188.123
188.634
189.137
189.632
190.119
190.598
191.067
191.527
191.977
192.417
192.846
193.263
193.67
194.064
194.445
194.814
195.169
195.511
195.838
196.151
196.449
196.732
196.999
197.251
197.486
197.706
197.91
198.097
198.269
198.424
198.563
198.686
198.793
198.885
198.961
199.022
199.068
199.099
199.117
199.117
199.108
199.084
199.048
198.997
198.934
198.858
198.769
198.667
198.553
198.426
198.286
198.133
197.966
197.787
197.593
197.386
197.165
196.929
196.679
196.414
196.133
195.837
195.525
195.197
194.853
194.493
194.116
193.722
193.312
192.886
192.443
191.983
191.508
191.017
190.51
189.988
189.45
188.898
188.332
187.752
187.159
186.553
185.935
185.306
184.665
184.013
183.352
182.68
182
181.31
180.613
179.907
179.195
178.475
177.75
177.019
176.283
175.543
174.799
174.052
173.303
172.553
171.802
171.052
170.302
169.553
168.807
168.064
167.325
166.59
165.861
165.138
164.421
163.712
163.01
162.318
161.634
160.96
160.297
159.644
159.003
158.373
157.756
189.018
189.552
190.08
190.601
191.115
191.621
192.12
192.61
193.093
193.566
194.03
194.484
194.929
195.363
195.786
196.197
196.597
196.984
197.359
197.721
198.069
198.403
198.723
199.028
199.318
199.593
199.852
200.096
200.323
200.534
200.729
200.908
201.07
201.217
201.347
201.461
201.56
201.643
201.71
201.763
201.801
201.825
201.834
201.83
201.814
201.785
201.742
201.688
201.621
201.542
201.45
201.347
201.232
201.105
200.965
200.813
200.649
200.472
200.282
200.079
199.862
199.63
199.385
199.125
198.85
198.56
198.254
197.933
197.595
197.241
196.871
196.484
196.081
195.662
195.226
194.774
194.306
193.822
193.322
192.807
192.278
191.734
191.175
190.604
190.019
189.422
188.813
188.193
187.563
186.922
186.272
185.613
184.946
184.271
183.588
182.898
182.203
181.501
180.794
180.082
179.366
178.647
177.926
177.202
176.477
175.751
175.025
174.299
173.575
172.853
172.134
171.418
170.705
169.997
169.293
168.595
167.903
167.217
166.538
165.865
165.2
164.543
163.893
163.252
162.619
161.994
161.378
160.771
160.172
193
193.516
194.025
194.526
195.019
195.504
195.98
196.447
196.905
197.353
197.79
198.217
198.633
199.037
199.429
199.809
200.176
200.53
200.87
201.195
201.507
201.803
202.084
202.35
202.6
202.834
203.052
203.254
203.439
203.609
203.761
203.898
204.018
204.123
204.212
204.286
204.344
204.388
204.417
204.433
204.434
204.424
204.401
204.365
204.318
204.258
204.187
204.105
204.011
203.906
203.79
203.663
203.524
203.373
203.211
203.037
202.85
202.65
202.438
202.212
201.971
201.717
201.448
201.164
200.864
200.549
200.218
199.871
199.508
199.128
198.732
198.32
197.891
197.446
196.986
196.509
196.017
195.51
194.988
194.452
193.903
193.339
192.764
192.176
191.577
190.968
190.348
189.719
189.081
188.436
187.783
187.122
186.456
185.783
185.105
184.423
183.736
183.045
182.352
181.656
180.958
180.259
179.56
178.861
178.163
177.466
176.771
176.079
175.39
174.704
174.022
173.345
172.672
172.005
171.343
170.687
170.036
169.392
168.754
168.122
167.496
166.877
166.265
165.658
165.058
164.464
163.876
163.294
196.351
196.854
197.349
197.836
198.314
198.783
199.243
199.693
200.133
200.563
200.982
201.389
201.785
202.169
202.54
202.898
203.242
203.573
203.89
204.192
204.478
204.75
205.006
205.246
205.47
205.678
205.869
206.044
206.203
206.345
206.471
206.581
206.676
206.755
206.818
206.867
206.901
206.922
206.927
206.922
206.904
206.874
206.832
206.778
206.714
206.639
206.553
206.457
206.35
206.233
206.105
205.967
205.818
205.658
205.487
205.303
205.108
204.9
204.678
204.444
204.195
203.932
203.654
203.361
203.053
202.728
202.388
202.032
201.66
201.271
200.866
200.444
200.007
199.554
199.085
198.601
198.102
197.588
197.06
196.519
195.965
195.399
194.821
194.232
193.633
193.025
192.409
191.784
191.152
190.514
189.869
189.219
188.565
187.906
187.243
186.578
185.909
185.239
184.568
183.896
183.223
182.552
181.881
181.212
180.545
179.881
179.22
178.563
177.91
177.261
176.616
175.977
175.343
174.714
174.09
173.472
172.859
172.252
171.65
171.054
170.463
169.876
169.295
168.718
168.146
167.578
167.014
166.453
200.09
200.569
201.04
201.501
201.953
202.395
202.826
203.247
203.657
204.056
204.443
204.817
205.178
205.527
205.862
206.182
206.489
206.781
207.057
207.318
207.563
207.793
208.006
208.203
208.383
208.547
208.695
208.826
208.941
209.04
209.124
209.192
209.245
209.283
209.308
209.318
209.315
209.302
209.276
209.238
209.189
209.13
209.06
208.981
208.891
208.792
208.684
208.566
208.438
208.301
208.154
207.996
207.828
207.648
207.457
207.253
207.037
206.808
206.565
206.308
206.037
205.751
205.449
205.132
204.799
204.45
204.085
203.703
203.305
202.892
202.462
202.016
201.555
201.079
200.588
200.083
199.564
199.032
198.487
197.931
197.363
196.785
196.197
195.601
194.997
194.386
193.768
193.145
192.517
191.885
191.248
190.609
189.967
189.323
188.678
188.032
187.386
186.74
186.095
185.451
184.809
184.17
183.534
182.902
182.273
181.648
181.028
180.412
179.801
179.195
178.595
177.999
177.409
176.824
176.244
175.669
175.098
174.533
173.971
173.414
172.86
172.31
171.763
171.218
170.677
170.137
169.599
203.684
204.137
204.58
205.013
205.435
205.847
206.247
206.636
207.012
207.377
207.728
208.066
208.39
208.7
208.996
209.277
209.542
209.792
210.026
210.244
210.446
210.631
210.8
210.952
211.088
211.208
211.311
211.399
211.471
211.528
211.57
211.597
211.612
211.612
211.601
211.578
211.544
211.499
211.443
211.378
211.303
211.219
211.126
211.024
210.914
210.796
210.668
210.532
210.386
210.231
210.066
209.89
209.703
209.505
209.294
209.071
208.835
208.584
208.319
208.04
207.746
207.435
207.11
206.768
206.41
206.036
205.646
205.24
204.818
204.38
203.927
203.459
202.977
202.48
201.971
201.448
200.913
200.367
199.81
199.243
198.667
198.083
197.492
196.894
196.291
195.684
195.072
194.458
193.84
193.221
192.6
191.978
191.356
190.735
190.114
189.494
188.876
188.261
187.648
187.039
186.433
185.832
185.234
184.642
184.054
183.471
182.893
182.321
181.753
181.19
180.633
180.08
179.532
178.988
178.449
177.914
177.382
176.853
176.327
175.804
175.283
174.763
174.245
173.728
173.211
172.695
172.178
171.66
206.692
207.125
207.548
207.961
208.362
208.753
209.131
209.497
209.85
210.191
210.518
210.831
211.13
211.414
211.683
211.937
212.176
212.398
212.604
212.794
212.967
213.124
213.264
213.387
213.495
213.586
213.662
213.722
213.768
213.798
213.816
213.817
213.809
213.789
213.757
213.714
213.661
213.599
213.527
213.447
213.359
213.263
213.159
213.047
212.928
212.801
212.666
212.522
212.37
212.208
212.036
211.854
211.661
211.456
211.239
211.009
210.765
210.508
210.235
209.948
209.645
209.327
208.993
208.643
208.277
207.894
207.496
207.082
206.653
206.208
205.749
205.275
204.788
204.287
203.775
203.25
202.714
202.168
201.613
201.049
200.478
199.9
199.317
198.729
198.137
197.543
196.946
196.347
195.748
195.148
194.549
193.95
193.352
192.756
192.163
191.572
190.984
190.4
189.819
189.244
188.672
188.106
187.544
186.988
186.437
185.89
185.349
184.813
184.282
183.755
183.234
182.716
182.202
181.692
181.186