/*--------------------------------*- C++ -*----------------------------------*\
| =========                 |                                                 |
| \\      /  F ield         | OpenFOAM: The Open Source CFD Toolbox           |
|  \\    /   O peration     | Version:  v1706                                 |
|   \\  /    A nd           | Web:      www.OpenFOAM.com                      |
|    \\/     M anipulation  |                                                 |
\*---------------------------------------------------------------------------*/
FoamFile
{
    version     2.0;
    format      ascii;
    class       volVectorField;
    location    "3.2e-05";
    object      U;
}
// * * * * * * * * * * * * * * * * * * * * * * * * * * * * * * * * * * * * * //

dimensions      [0 1 -1 0 0 0 0];


internalField   nonuniform List<vector> 
29871
(
(970.389 10.1357 7.04393e-15)
(969.684 11.0917 4.55161e-15)
(968.991 12.099 5.09203e-15)
(968.278 13.1802 4.13113e-15)
(967.527 14.3256 2.6064e-15)
(966.64 15.6205 3.27178e-15)
(965.521 17.1499 4.14341e-15)
(964.121 18.9719 4.31136e-15)
(962.439 21.1076 4.7522e-15)
(960.521 23.5299 4.6776e-15)
(958.451 26.1805 5.00783e-15)
(956.317 28.9942 6.44924e-15)
(954.185 31.9023 5.49348e-15)
(952.092 34.8393 5.40068e-15)
(950.055 37.7536 3.95564e-15)
(948.087 40.6102 2.56875e-15)
(946.199 43.3843 3.05661e-15)
(944.396 46.0659 3.73172e-15)
(942.706 48.6165 3.94179e-15)
(941.037 51.1704 3.51093e-15)
(939.199 53.929 3.68794e-15)
(937.004 57.0934 3.73535e-15)
(934.553 60.609 2.76222e-15)
(931.993 64.3252 3.83699e-15)
(929.43 68.1232 5.15192e-15)
(926.93 71.9261 4.72831e-15)
(924.531 75.6859 5.75886e-15)
(922.257 79.3681 3.40771e-15)
(920.122 82.944 2.75669e-15)
(918.133 86.3908 4.32794e-15)
(916.291 89.693 4.43211e-15)
(914.587 92.8421 2.74345e-15)
(913.013 95.8349 3.91257e-15)
(911.555 98.6706 6.35103e-15)
(910.204 101.347 4.01763e-15)
(908.95 103.868 1.22571e-15)
(907.784 106.235 7.06072e-16)
(906.703 108.45 3.31485e-15)
(905.704 110.511 3.45968e-15)
(904.791 112.413 4.2586e-15)
(903.965 114.154 4.90064e-15)
(903.23 115.728 5.42973e-15)
(902.591 117.13 6.10573e-15)
(902.048 118.357 3.99371e-15)
(901.606 119.406 3.05782e-15)
(901.277 120.273 4.09994e-15)
(901.072 120.936 2.61626e-15)
(900.953 121.426 -2.41176e-16)
(900.938 121.753 2.83671e-16)
(901.216 121.704 4.32591e-15)
(901.455 121.624 4.13769e-15)
(901.81 121.388 1.75109e-15)
(902.226 120.913 2.0679e-15)
(902.792 120.226 4.03206e-15)
(903.48 119.413 3.36576e-15)
(904.239 118.492 3.30035e-15)
(905.106 117.413 4.2133e-15)
(906.103 116.158 4.4978e-15)
(907.202 114.751 3.57556e-15)
(908.406 113.178 3.12318e-15)
(909.734 111.416 1.9106e-15)
(911.175 109.484 1.47512e-15)
(912.716 107.394 1.92772e-15)
(914.353 105.149 -5.00078e-16)
(916.084 102.753 3.52512e-15)
(917.904 100.208 4.61647e-15)
(919.807 97.5205 2.87696e-15)
(921.783 94.6996 2.83037e-15)
(923.823 91.758 1.71097e-15)
(925.917 88.7078 2.52351e-15)
(928.055 85.5606 3.31587e-15)
(930.228 82.3313 3.28647e-15)
(932.421 79.0412 1.90743e-15)
(934.618 75.7109 2.52839e-15)
(936.808 72.3544 2.52584e-15)
(938.99 68.9831 4.50643e-15)
(941.159 65.6115 1.5655e-15)
(943.31 62.2581 2.63959e-15)
(945.423 58.9416 2.48153e-15)
(947.472 55.6318 5.11899e-15)
(949.436 52.2313 5.20617e-15)
(951.143 49.1517 3.84829e-15)
(952.568 46.807 4.22998e-15)
(953.96 44.7226 3.05232e-15)
(955.386 42.6081 5.25502e-15)
(956.853 40.3693 4.8747e-15)
(958.349 38.0014 4.09804e-15)
(959.866 35.5125 5.00545e-15)
(961.404 32.8991 5.78765e-15)
(962.964 30.1699 4.73651e-15)
(964.505 27.3787 4.9265e-15)
(965.982 24.5354 2.82294e-15)
(967.516 21.4939 4.6904e-15)
(969.256 18.3501 4.90662e-15)
(970.972 15.3886 3.62499e-15)
(972.327 12.8917 3.7437e-15)
(973.346 11.0678 3.90369e-15)
(974.202 9.67381 3.92071e-15)
(974.917 8.49073 3.81483e-15)
(975.515 7.41555 3.70613e-15)
(976.005 6.43969 4.7216e-15)
(976.364 5.61398 3.82154e-15)
(976.574 4.96447 2.09524e-15)
(976.689 4.43219 3.30915e-15)
(976.815 3.92101 1.32008e-15)
(929.43 56.5299 1.15629e-14)
(924.351 62.7524 1.17185e-14)
(919.137 69.2474 1.38399e-14)
(913.901 75.8582 1.31822e-14)
(908.385 82.8319 1.22275e-14)
(902.45 90.2058 1.35632e-14)
(895.98 98.1643 1.24766e-14)
(889.103 106.678 1.19036e-14)
(881.975 115.634 1.19925e-14)
(874.704 124.927 1.12039e-14)
(867.369 134.479 1.01801e-14)
(860.031 144.226 1.01893e-14)
(852.75 154.101 1.10552e-14)
(845.588 164.026 6.16014e-15)
(838.607 173.914 6.13174e-15)
(831.868 183.675 7.37951e-15)
(825.429 193.223 9.56232e-15)
(819.339 202.48 7.85326e-15)
(813.63 211.39 6.76634e-15)
(808.328 219.905 4.92364e-15)
(803.532 227.938 5.42946e-15)
(799.271 235.441 7.20662e-15)
(795.464 242.421 7.97649e-15)
(792.048 248.898 6.94179e-15)
(788.988 254.878 5.01123e-15)
(786.262 260.376 4.84814e-15)
(783.86 265.405 6.27921e-15)
(781.795 269.97 5.73356e-15)
(780.076 274.079 5.7701e-15)
(778.696 277.741 4.44575e-15)
(777.634 280.973 7.25751e-15)
(776.866 283.788 2.53087e-15)
(776.36 286.21 6.63902e-15)
(776.089 288.263 8.00618e-15)
(776.016 289.979 7.25305e-15)
(776.119 291.393 6.18237e-15)
(776.373 292.541 3.65765e-15)
(776.758 293.456 5.8836e-15)
(777.258 294.171 3.17655e-15)
(777.855 294.713 4.89438e-15)
(778.531 295.109 4.13981e-15)
(779.269 295.39 2.44209e-15)
(780.063 295.566 3.09525e-15)
(780.897 295.652 3.18139e-15)
(781.742 295.695 2.705e-15)
(782.605 295.703 3.70976e-15)
(783.508 295.63 4.65403e-15)
(784.411 295.551 8.22357e-16)
(785.297 295.507 2.94137e-15)
(786.24 295.429 1.02033e-15)
(787.196 295.316 7.27724e-16)
(788.355 295.015 3.08541e-15)
(788.831 294.953 2.97648e-15)
(789.436 295.074 2.23775e-15)
(790.164 295.114 2.26108e-15)
(790.967 295.031 1.11868e-15)
(791.74 295.009 2.32677e-15)
(792.471 295 1.26573e-15)
(793.244 294.897 -7.35952e-16)
(794.077 294.769 5.89124e-16)
(794.913 294.661 7.55533e-16)
(795.752 294.528 4.70059e-16)
(796.629 294.34 1.786e-15)
(797.555 294.091 1.69015e-15)
(798.529 293.769 2.71323e-15)
(799.552 293.365 3.25256e-15)
(800.631 292.866 2.17696e-15)
(801.781 292.245 4.86081e-15)
(803.029 291.466 5.56796e-15)
(804.404 290.498 3.81766e-15)
(805.937 289.312 5.76152e-15)
(807.679 287.857 2.81849e-15)
(809.707 286.063 3.27671e-15)
(812.072 283.878 6.19328e-15)
(814.78 281.254 3.8801e-15)
(817.863 278.114 5.35236e-15)
(821.376 274.353 4.20987e-15)
(825.366 269.872 4.85998e-15)
(829.864 264.588 5.02832e-15)
(834.909 258.443 6.09772e-15)
(840.498 251.481 5.71738e-15)
(846.609 243.747 4.89618e-15)
(853.161 235.145 5.17656e-15)
(859.893 225.857 6.07399e-15)
(866.694 216.066 6.52139e-15)
(873.553 205.838 7.70481e-15)
(880.453 195.205 7.29895e-15)
(887.357 184.206 6.81987e-15)
(894.229 172.884 7.83347e-15)
(901.037 161.299 8.11313e-15)
(907.749 149.49 7.21635e-15)
(914.344 137.458 6.59495e-15)
(920.799 125.326 1.10516e-14)
(926.964 113.457 9.82726e-15)
(932.536 102.038 8.97715e-15)
(937.292 91.2222 8.54282e-15)
(941.215 82.0658 9.17152e-15)
(944.929 74.328 1.0216e-14)
(948.663 67.1642 9.4655e-15)
(952.381 60.1142 5.85461e-15)
(955.991 53.0463 9.36328e-15)
(959.488 45.8778 1.09299e-14)
(962.892 38.6659 7.94471e-15)
(965.931 31.9383 8.51174e-15)
(968.267 26.3828 6.52793e-15)
(847.714 146.75 2.21883e-14)
(837.324 159.174 2.03458e-14)
(826.903 171.863 1.55833e-14)
(816.584 184.659 1.93618e-14)
(806.5 197.393 2.04169e-14)
(796.809 209.881 1.65884e-14)
(787.796 221.864 1.74153e-14)
(779.566 233.131 1.6226e-14)
(772.142 243.558 1.70976e-14)
(765.541 253.055 1.5719e-14)
(759.758 261.573 1.33048e-14)
(754.755 269.114 1.17499e-14)
(750.466 275.732 9.76736e-15)
(746.817 281.52 1.31065e-14)
(743.735 286.582 1.44657e-14)
(741.15 291.031 1.31988e-14)
(739.003 294.969 1.18483e-14)
(737.271 298.47 1.14931e-14)
(735.959 301.57 1.10112e-14)
(735.045 304.293 1.1171e-14)
(734.489 306.641 1.09848e-14)
(734.253 308.632 8.19798e-15)
(734.3 310.317 1.1319e-14)
(734.589 311.744 1.24765e-14)
(735.083 312.943 6.79764e-15)
(735.738 313.94 1.06778e-14)
(736.53 314.755 9.35788e-15)
(737.416 315.413 8.64362e-15)
(738.43 315.979 7.4508e-15)
(739.561 316.527 8.05228e-15)
(740.753 317.113 7.52325e-15)
(741.952 317.772 7.49236e-15)
(743.123 318.511 6.96688e-15)
(744.249 319.312 7.72848e-15)
(745.334 320.142 7.18994e-15)
(746.39 320.965 7.55953e-15)
(747.432 321.753 6.09775e-15)
(748.473 322.484 5.90171e-15)
(749.524 323.145 6.05759e-15)
(750.593 323.732 6.71809e-15)
(751.688 324.237 5.62885e-15)
(752.815 324.659 4.3445e-15)
(753.967 325.017 4.68454e-15)
(755.151 325.304 3.81569e-15)
(756.374 325.511 4.3004e-15)
(757.618 325.677 3.73992e-15)
(758.874 325.792 5.6683e-15)
(760.171 325.823 4.61246e-15)
(761.532 325.865 3.73115e-15)
(762.918 325.99 1.58042e-15)
(764.339 326.07 2.31766e-15)
(765.66 325.897 4.26874e-15)
(767.011 325.729 3.45405e-15)
(768.337 325.752 2.7563e-15)
(769.921 325.795 4.91474e-15)
(770.946 325.62 5.68777e-15)
(771.972 325.679 4.62829e-15)
(773.339 325.767 6.9408e-15)
(774.641 325.621 4.34593e-15)
(775.679 325.652 1.95926e-15)
(776.947 325.629 2.40109e-15)
(778.382 325.475 5.39635e-16)
(779.691 325.345 3.84547e-15)
(781.006 325.227 2.31716e-15)
(782.381 325.047 5.7979e-16)
(783.78 324.8 6.80559e-16)
(785.191 324.495 1.64133e-15)
(786.624 324.125 1.33674e-15)
(788.082 323.693 1.76826e-15)
(789.57 323.205 2.60046e-15)
(791.097 322.659 2.8296e-15)
(792.672 322.053 3.19682e-15)
(794.293 321.415 2.95774e-15)
(795.944 320.798 3.87281e-15)
(797.634 320.26 4.88096e-15)
(799.357 319.782 3.48782e-15)
(801.095 319.37 6.37449e-15)
(802.814 319.069 7.82783e-15)
(804.467 318.898 5.18107e-15)
(806.047 318.801 6.7111e-15)
(807.583 318.737 7.6316e-15)
(809.069 318.712 7.25473e-15)
(810.47 318.664 6.98247e-15)
(811.803 318.431 6.53007e-15)
(813.138 317.883 8.15401e-15)
(814.567 316.969 7.83014e-15)
(816.178 315.637 5.49374e-15)
(818.082 313.771 5.84764e-15)
(820.433 311.205 6.02167e-15)
(823.43 307.837 5.15951e-15)
(827.141 303.618 6.8537e-15)
(831.561 298.43 5.41218e-15)
(836.75 292.079 7.07906e-15)
(842.743 284.413 9.00311e-15)
(849.518 275.328 9.80646e-15)
(857.013 264.692 9.45615e-15)
(865.162 252.427 9.352e-15)
(873.953 238.35 1.19646e-14)
(883.013 222.718 1.24543e-14)
(892.015 206.111 1.1819e-14)
(900.909 188.851 1.1841e-14)
(909.705 171.02 1.27197e-14)
(918.313 152.777 1.32121e-14)
(926.415 134.657 1.23775e-14)
(933.556 117.306 1.2886e-14)
(939.461 101.347 1.3664e-14)
(741.5 268.471 2.53432e-14)
(735.554 276.38 2.52432e-14)
(730.425 283.292 2.16045e-14)
(726.034 289.308 2.22678e-14)
(722.284 294.551 2.17088e-14)
(719.109 299.119 2.01225e-14)
(716.447 303.163 2.18645e-14)
(714.255 306.79 2.04767e-14)
(712.508 310.059 1.65112e-14)
(711.18 312.992 1.72047e-14)
(710.227 315.578 1.99297e-14)
(709.599 317.794 1.90645e-14)
(709.247 319.617 1.75531e-14)
(709.142 321.046 1.63199e-14)
(709.267 322.099 1.65271e-14)
(709.612 322.8 1.38964e-14)
(710.154 323.204 1.7298e-14)
(710.896 323.435 1.55462e-14)
(711.817 323.685 1.66905e-14)
(712.795 324.093 1.54762e-14)
(713.741 324.682 1.65256e-14)
(714.637 325.395 1.90662e-14)
(715.509 326.164 1.66243e-14)
(716.387 326.942 1.49421e-14)
(717.296 327.697 1.41158e-14)
(718.254 328.401 1.32849e-14)
(719.266 329.049 1.51101e-14)
(720.349 329.582 1.06481e-14)
(721.439 330.073 1.1065e-14)
(722.54 330.536 1.17167e-14)
(723.688 330.956 1.1899e-14)
(724.905 331.329 1.1507e-14)
(726.199 331.67 1.01098e-14)
(727.561 331.996 1.17135e-14)
(728.977 332.326 9.53938e-15)
(730.432 332.668 9.59467e-15)
(731.916 333.022 8.43541e-15)
(733.419 333.384 6.57e-15)
(734.943 333.746 7.07893e-15)
(736.483 334.105 5.21345e-15)
(738.04 334.453 8.20633e-15)
(739.623 334.79 8.4897e-15)
(741.22 335.111 6.23955e-15)
(742.826 335.404 7.27015e-15)
(744.47 335.692 6.07078e-15)
(746.15 335.991 5.49875e-15)
(747.835 336.25 4.2532e-15)
(749.507 336.431 4.88315e-15)
(751.19 336.658 8.12565e-15)
(752.909 336.973 3.25481e-15)
(754.677 337.15 3.97484e-15)
(756.427 337.177 3.50813e-15)
(758.162 337.322 5.02382e-15)
(759.778 337.519 5.68451e-15)
(761.638 337.603 3.44141e-15)
(762.949 337.394 4.9252e-15)
(764.269 337.416 6.43779e-15)
(765.91 337.615 5.53115e-15)
(767.527 337.607 4.48645e-15)
(768.799 337.679 5.07704e-15)
(770.289 337.78 5.68938e-15)
(771.985 337.854 2.94257e-15)
(773.531 337.916 2.25903e-15)
(775.073 337.992 2.76711e-15)
(776.662 338.052 2.73132e-15)
(778.268 338.104 3.43512e-15)
(779.884 338.151 3.3326e-15)
(781.511 338.201 2.76444e-15)
(783.156 338.275 2.84956e-15)
(784.83 338.37 2.43278e-15)
(786.533 338.48 4.98768e-15)
(788.255 338.617 3.59656e-15)
(789.987 338.778 3.8593e-15)
(791.7 338.883 4.25507e-15)
(793.308 338.831 1.77648e-15)
(794.83 338.709 3.43585e-15)
(796.309 338.57 5.01564e-15)
(797.785 338.357 5.56627e-15)
(799.259 338.047 6.12812e-15)
(800.702 337.737 8.26044e-15)
(802.139 337.459 5.61254e-15)
(803.638 337.124 5.22324e-15)
(805.21 336.684 4.07414e-15)
(806.802 336.154 6.3083e-15)
(808.429 335.508 6.76057e-15)
(810.156 334.692 3.95494e-15)
(811.993 333.722 7.73182e-15)
(813.906 332.672 9.3158e-15)
(815.858 331.674 8.14369e-15)
(817.824 330.945 6.27771e-15)
(819.854 330.491 6.8532e-15)
(821.939 330.174 6.43127e-15)
(823.952 330.04 6.97452e-15)
(825.744 330.091 8.05819e-15)
(827.341 330.014 5.55145e-15)
(828.892 329.495 7.21271e-15)
(830.554 328.303 1.17164e-14)
(832.523 326.14 1.01082e-14)
(835.074 322.759 9.99363e-15)
(838.418 318.034 1.2007e-14)
(842.699 311.87 1.28789e-14)
(847.994 304.151 1.31664e-14)
(854.277 294.756 1.52834e-14)
(861.442 283.547 1.52702e-14)
(869.338 270.393 1.3955e-14)
(877.861 255.181 1.5399e-14)
(698.687 312.977 2.79748e-14)
(697.237 315.685 2.80418e-14)
(696.151 318.009 2.62676e-14)
(695.363 319.957 2.54729e-14)
(694.835 321.543 2.65487e-14)
(694.533 322.809 2.35546e-14)
(694.429 323.78 2.46359e-14)
(694.519 324.491 2.49897e-14)
(694.774 325.02 2.63389e-14)
(695.188 325.498 2.26754e-14)
(695.729 326.091 2.03601e-14)
(696.291 326.866 2.06495e-14)
(696.816 327.79 2.06811e-14)
(697.333 328.781 1.90796e-14)
(697.854 329.763 2.00747e-14)
(698.4 330.681 2.09898e-14)
(698.984 331.497 2.00465e-14)
(699.637 332.141 1.99984e-14)
(700.333 332.611 1.83208e-14)
(701.05 332.961 1.61558e-14)
(701.869 333.2 1.68428e-14)
(702.818 333.399 1.70898e-14)
(703.878 333.626 1.74468e-14)
(705.018 333.912 1.91805e-14)
(706.216 334.263 1.35896e-14)
(707.46 334.673 1.42587e-14)
(708.746 335.134 1.38122e-14)
(710.083 335.622 9.07458e-15)
(711.476 336.171 1.19511e-14)
(712.83 336.579 1.3584e-14)
(714.13 336.813 1.30394e-14)
(715.406 336.907 1.39169e-14)
(716.694 336.893 1.34388e-14)
(718.029 336.796 1.25422e-14)
(719.432 336.641 1.35712e-14)
(720.909 336.468 1.13385e-14)
(722.459 336.297 1.22504e-14)
(724.075 336.144 1.21168e-14)
(725.74 336.032 7.94952e-15)
(727.445 335.958 9.62149e-15)
(729.179 335.916 1.15424e-14)
(730.927 335.898 1.0314e-14)
(732.726 335.952 8.72882e-15)
(734.517 335.996 6.70907e-15)
(736.305 336.023 9.71477e-15)
(738.104 336.118 7.53126e-15)
(739.918 336.266 6.70582e-15)
(741.759 336.367 5.6068e-15)
(743.606 336.392 4.0541e-15)
(745.443 336.539 4.82442e-15)
(747.293 336.844 3.47711e-15)
(749.175 336.921 3.66254e-15)
(751.052 336.873 5.34094e-15)
(752.977 337.101 7.02297e-15)
(754.761 337.387 5.94841e-15)
(756.872 337.532 5.48248e-15)
(758.321 337.38 4.63651e-15)
(760.002 337.481 5.84367e-15)
(761.856 337.842 5.61295e-15)
(763.678 338.121 4.26193e-15)
(765.211 338.263 5.68193e-15)
(766.806 338.539 7.12878e-15)
(768.644 338.889 6.29884e-15)
(770.405 339.132 5.64229e-15)
(772.148 339.379 6.36315e-15)
(773.829 339.642 6.01883e-15)
(775.477 339.928 4.22478e-15)
(777.161 340.2 3.85038e-15)
(778.798 340.489 4.2662e-15)
(780.389 340.823 7.28272e-15)
(781.992 341.169 6.17066e-15)
(783.597 341.496 6.19626e-15)
(785.164 341.826 9.12041e-15)
(786.701 342.16 6.05947e-15)
(788.239 342.462 6.99702e-15)
(789.788 342.77 7.09995e-15)
(791.307 343.129 6.96832e-15)
(792.814 343.507 7.06022e-15)
(794.362 343.799 7.94913e-15)
(795.979 343.984 7.58539e-15)
(797.587 344.15 9.24471e-15)
(799.198 344.297 8.50563e-15)
(800.884 344.363 7.43052e-15)
(802.635 344.356 6.45659e-15)
(804.378 344.356 8.90849e-15)
(806.158 344.374 9.47975e-15)
(808.058 344.391 9.51292e-15)
(810.033 344.474 8.89176e-15)
(812.012 344.722 1.07295e-14)
(814.045 345.05 8.68125e-15)
(815.998 345.192 1.1058e-14)
(817.636 345.108 1.14749e-14)
(819.081 344.977 9.39322e-15)
(820.514 344.604 1.0599e-14)
(822.24 344.058 9.7736e-15)
(823.857 343.453 8.95674e-15)
(825.398 342.649 9.88233e-15)
(827.139 341.55 9.71809e-15)
(828.94 340.214 8.50819e-15)
(830.714 339.005 1.09454e-14)
(832.526 338.172 1.08622e-14)
(834.317 337.719 9.37407e-15)
(836.006 337.489 1.20182e-14)
(837.566 337.245 1.42884e-14)
(839.073 336.604 1.46129e-14)
(840.76 334.972 1.64302e-14)
(842.956 332.059 1.89096e-14)
(684.223 325.416 3.08298e-14)
(684.565 325.996 2.98996e-14)
(684.899 326.749 2.84857e-14)
(685.212 327.608 2.77776e-14)
(685.489 328.512 2.83033e-14)
(685.828 329.398 2.84454e-14)
(686.196 330.225 2.9882e-14)
(686.564 330.971 2.5876e-14)
(687.001 331.565 2.62113e-14)
(687.513 332.048 2.53635e-14)
(688.05 332.477 2.13927e-14)
(688.653 332.881 2.43032e-14)
(689.317 333.305 2.20605e-14)
(690.122 333.832 2.09705e-14)
(690.968 334.425 2.28543e-14)
(691.808 335.061 1.88143e-14)
(692.691 335.722 1.83957e-14)
(693.59 336.42 1.81652e-14)
(694.568 337.019 1.89271e-14)
(695.314 337.268 1.93024e-14)
(696.131 337.333 1.79318e-14)
(697.006 337.24 1.92499e-14)
(697.968 337.053 1.84644e-14)
(699.035 336.847 1.73798e-14)
(700.201 336.673 1.28947e-14)
(701.442 336.563 1.53122e-14)
(702.735 336.514 1.46533e-14)
(704.117 336.557 1.5526e-14)
(705.488 336.638 1.72347e-14)
(706.921 336.78 1.60711e-14)
(708.42 336.954 1.54482e-14)
(709.938 337.092 1.48724e-14)
(711.456 337.18 1.50806e-14)
(712.969 337.218 1.34656e-14)
(714.498 337.189 1.58285e-14)
(716.052 337.12 1.31901e-14)
(717.629 337.033 1.18694e-14)
(719.255 336.915 1.11244e-14)
(720.925 336.794 1.21729e-14)
(722.63 336.718 1.30479e-14)
(724.377 336.636 1.23494e-14)
(726.152 336.54 1.27582e-14)
(727.962 336.549 1.22889e-14)
(729.803 336.585 1.05842e-14)
(731.658 336.54 1.29753e-14)
(733.533 336.574 1.01045e-14)
(735.408 336.734 8.53227e-15)
(737.326 336.83 8.71761e-15)
(739.249 336.793 7.10273e-15)
(741.195 336.927 9.3283e-15)
(743.133 337.286 6.3957e-15)
(745.114 337.378 5.32497e-15)
(747.047 337.271 6.88772e-15)
(749.112 337.526 9.58867e-15)
(750.973 337.815 9.87956e-15)
(753.228 337.903 7.05689e-15)
(754.657 337.766 4.91158e-15)
(756.581 337.879 1.64894e-15)
(758.611 338.239 2.69826e-15)
(760.482 338.551 4.18678e-15)
(762.439 338.667 4.95525e-15)
(763.949 338.951 3.98261e-15)
(765.929 339.193 5.58106e-15)
(767.927 339.508 7.34438e-15)
(769.889 339.86 4.38515e-15)
(771.729 340.045 7.89096e-15)
(773.408 340.29 1.0742e-14)
(775.308 340.59 6.02917e-15)
(777.155 340.888 4.75357e-15)
(778.792 341.221 7.1581e-15)
(780.491 341.573 6.79614e-15)
(782.26 341.874 4.55759e-15)
(783.949 342.199 6.79305e-15)
(785.566 342.616 7.20351e-15)
(787.196 342.987 8.88719e-15)
(788.851 343.355 7.71133e-15)
(790.419 343.808 9.68219e-15)
(791.988 344.219 8.63329e-15)
(793.635 344.564 8.39177e-15)
(795.287 345.036 5.7813e-15)
(796.839 345.37 6.41866e-15)
(798.424 345.634 8.97758e-15)
(800.149 346.006 9.23049e-15)
(801.849 346.357 8.20176e-15)
(803.404 346.711 6.94666e-15)
(805.018 347.091 7.92493e-15)
(806.766 347.546 7.59097e-15)
(808.387 348.017 9.86454e-15)
(809.948 348.555 9.37737e-15)
(811.534 348.949 9.45731e-15)
(813.218 349.292 1.04461e-14)
(814.772 349.598 9.75201e-15)
(816.257 349.97 1.02744e-14)
(817.813 350.066 1.2842e-14)
(819.516 350.231 1.24722e-14)
(821.189 350.208 1.0744e-14)
(822.857 350.024 1.20035e-14)
(824.639 349.866 1.33247e-14)
(826.441 349.806 1.25968e-14)
(828.08 349.7 1.26331e-14)
(829.616 349.394 1.55294e-14)
(831.144 348.943 1.51211e-14)
(832.614 348.368 1.49988e-14)
(834.093 347.748 1.43915e-14)
(836.072 347.009 1.21341e-14)
(838.249 345.463 1.46386e-14)
(839.451 344.255 1.69097e-14)
(676.644 329.242 3.61501e-14)
(676.924 329.881 3.70051e-14)
(677.222 330.451 3.71364e-14)
(677.554 330.88 3.35534e-14)
(677.943 331.245 3.56932e-14)
(678.37 331.593 3.41508e-14)
(678.949 332.025 3.68975e-14)
(679.527 332.514 3.56893e-14)
(680.164 333.051 3.49007e-14)
(680.821 333.649 3.27438e-14)
(681.472 334.271 3.03654e-14)
(682.128 334.87 3.093e-14)
(682.858 335.406 3.10945e-14)
(683.503 335.718 2.77639e-14)
(684.133 335.899 2.80323e-14)
(684.825 336.011 2.84632e-14)
(685.608 336.141 2.82404e-14)
(686.465 336.322 2.74239e-14)
(687.371 336.569 2.57013e-14)
(688.3 336.878 2.76141e-14)
(689.267 337.223 2.49483e-14)
(690.22 337.625 2.44499e-14)
(691.225 337.986 2.41101e-14)
(692.236 338.267 2.24401e-14)
(693.237 338.431 2.34267e-14)
(694.245 338.475 2.46997e-14)
(695.285 338.429 2.41289e-14)
(696.375 338.33 2.2991e-14)
(697.528 338.22 2.17996e-14)
(698.745 338.128 2.05631e-14)
(700.021 338.084 1.95073e-14)
(701.347 338.086 1.93357e-14)
(702.717 338.14 2.02841e-14)
(704.144 338.287 1.93589e-14)
(705.617 338.46 1.82482e-14)
(707.124 338.622 1.48532e-14)
(708.657 338.816 1.31932e-14)
(710.214 338.965 1.31384e-14)
(711.799 339.041 1.39381e-14)
(713.408 339.135 1.37162e-14)
(715.047 339.188 1.45285e-14)
(716.724 339.146 1.34492e-14)
(718.436 339.154 1.2483e-14)
(720.182 339.171 1.48055e-14)
(721.96 339.065 1.54756e-14)
(723.784 339.032 1.51335e-14)
(725.63 339.108 1.52099e-14)
(727.505 339.031 1.52702e-14)
(729.416 338.937 1.57283e-14)
(731.334 339.077 1.45453e-14)
(733.309 339.195 1.21981e-14)
(735.24 339.03 1.18609e-14)
(737.274 339.077 1.11427e-14)
(739.262 339.419 1.25346e-14)
(741.348 339.535 1.1384e-14)
(743.234 339.312 8.08981e-15)
(745.435 339.527 8.17511e-15)
(747.39 339.812 1.10474e-14)
(749.704 339.838 9.75469e-15)
(751.131 339.717 7.3735e-15)
(753.201 339.82 8.66064e-15)
(755.36 340.165 8.68018e-15)
(757.293 340.43 5.87008e-15)
(759.486 340.452 7.36918e-15)
(760.929 340.649 7.25373e-15)
(763.006 340.896 7.95626e-15)
(765.124 341.326 1.06967e-14)
(767.156 341.718 8.71291e-15)
(769.112 341.864 9.19631e-15)
(770.859 342.095 9.09519e-15)
(772.873 342.445 6.7964e-15)
(774.82 342.829 8.31312e-15)
(776.545 343.12 6.48725e-15)
(778.266 343.488 8.00663e-15)
(780.214 343.885 8.13826e-15)
(781.996 344.231 9.74745e-15)
(783.699 344.599 8.65733e-15)
(785.497 344.961 8.41549e-15)
(787.224 345.41 8.01588e-15)
(788.813 345.751 9.75991e-15)
(790.493 345.992 9.66951e-15)
(792.284 346.376 1.08374e-14)
(794.004 346.771 1.02893e-14)
(795.621 346.869 1.0472e-14)
(797.359 347.011 1.23907e-14)
(799.134 347.441 1.08952e-14)
(800.921 347.8 1.25108e-14)
(802.545 347.943 1.08264e-14)
(804.253 348.311 9.54246e-15)
(805.927 348.796 9.7302e-15)
(807.582 349.169 1.01364e-14)
(809.013 349.479 1.1062e-14)
(810.512 349.932 1.08689e-14)
(811.971 350.371 8.10495e-15)
(813.445 350.739 1.19058e-14)
(814.872 351.11 1.30798e-14)
(816.272 351.5 1.26762e-14)
(817.664 351.799 1.38968e-14)
(819.1 352.032 1.27644e-14)
(820.605 352.281 1.22337e-14)
(822.113 352.564 1.18533e-14)
(823.585 352.895 1.25028e-14)
(825.07 353.277 1.48587e-14)
(826.584 353.588 1.26482e-14)
(828.122 353.686 1.71834e-14)
(829.686 353.641 1.43507e-14)
(831.436 353.658 1.69596e-14)
(833.369 353.537 1.54043e-14)
(835.427 353.374 1.46448e-14)
(837.212 353.255 1.63694e-14)
(671.697 332.042 4.19944e-14)
(672.264 332.612 4.47059e-14)
(672.81 333.152 4.40166e-14)
(673.326 333.577 4.31004e-14)
(673.877 333.845 4.42592e-14)
(674.361 334.019 4.42997e-14)
(674.909 334.15 4.4401e-14)
(675.533 334.294 4.10083e-14)
(676.252 334.487 4.28182e-14)
(676.939 334.727 3.95964e-14)
(677.662 335.067 4.00686e-14)
(678.385 335.452 4.0781e-14)
(679.135 335.856 3.939e-14)
(679.904 336.242 3.52833e-14)
(680.658 336.547 3.35412e-14)
(681.447 336.766 3.62301e-14)
(682.247 336.983 3.71647e-14)
(683.066 337.176 3.58214e-14)
(683.938 337.419 3.44337e-14)
(684.833 337.664 3.12081e-14)
(685.794 338.001 3.24842e-14)
(686.749 338.365 3.2001e-14)
(687.739 338.817 3.38097e-14)
(688.756 339.277 3.31846e-14)
(689.797 339.679 2.95012e-14)
(690.858 340.024 2.95341e-14)
(691.926 340.286 3.08224e-14)
(693.019 340.458 2.96181e-14)
(694.149 340.56 2.64117e-14)
(695.327 340.601 2.36218e-14)
(696.557 340.615 2.43456e-14)
(697.84 340.632 2.61414e-14)
(699.171 340.622 2.52983e-14)
(700.554 340.671 2.15085e-14)
(701.993 340.784 2.30704e-14)
(703.449 340.826 2.46457e-14)
(704.963 340.962 2.36524e-14)
(706.526 341.164 2.25051e-14)
(708.08 341.21 2.086e-14)
(709.702 341.317 2.27753e-14)
(711.361 341.513 2.10716e-14)
(713.015 341.512 1.74745e-14)
(714.737 341.521 1.90919e-14)
(716.494 341.682 1.74661e-14)
(718.262 341.653 1.76611e-14)
(720.074 341.553 1.63212e-14)
(721.932 341.695 1.87465e-14)
(723.832 341.727 1.67095e-14)
(725.691 341.528 1.46959e-14)
(727.665 341.628 1.58571e-14)
(729.671 341.829 1.47531e-14)
(731.569 341.63 1.58526e-14)
(733.632 341.57 1.33005e-14)
(735.665 341.876 1.72969e-14)
(737.823 342.013 1.56006e-14)
(739.622 341.752 1.52745e-14)
(741.882 341.88 1.60672e-14)
(743.938 342.168 1.37573e-14)
(746.261 342.175 1.50967e-14)
(747.75 342.044 1.51837e-14)
(749.89 342.122 1.2923e-14)
(752.12 342.438 1.43753e-14)
(754.116 342.653 1.1761e-14)
(756.444 342.573 1.05266e-14)
(757.892 342.67 8.54408e-15)
(760.046 342.907 1.31915e-14)
(762.22 343.389 1.1066e-14)
(764.267 343.786 9.19562e-15)
(766.28 343.905 1.20479e-14)
(768.071 344.124 1.1798e-14)
(770.182 344.463 9.93739e-15)
(772.096 344.91 9.08422e-15)
(774.029 345.182 9.25558e-15)
(775.661 345.499 1.00826e-14)
(777.645 345.895 6.15281e-15)
(779.564 346.205 8.1737e-15)
(781.349 346.441 9.73237e-15)
(783.237 346.816 8.74573e-15)
(785.001 347.277 9.7108e-15)
(786.726 347.477 9.03382e-15)
(788.468 347.608 8.92403e-15)
(790.305 347.98 1.01715e-14)
(792.055 348.349 1.26716e-14)
(793.826 348.502 1.3022e-14)
(795.628 348.684 1.46268e-14)
(797.428 349.069 1.63963e-14)
(799.187 349.41 1.49239e-14)
(800.914 349.673 1.22768e-14)
(802.608 350.037 1.47614e-14)
(804.262 350.456 1.52884e-14)
(805.876 350.813 1.64787e-14)
(807.395 351.184 1.55212e-14)
(808.856 351.609 1.74563e-14)
(810.261 351.995 1.40791e-14)
(811.646 352.321 1.56691e-14)
(813.029 352.616 1.3726e-14)
(814.408 352.885 1.47338e-14)
(815.791 353.122 1.3885e-14)
(817.198 353.337 1.31562e-14)
(818.653 353.594 1.53864e-14)
(820.132 353.938 1.58241e-14)
(821.564 354.339 1.52651e-14)
(822.97 354.748 1.4352e-14)
(824.387 355.093 1.31688e-14)
(825.788 355.325 1.51269e-14)
(827.229 355.502 1.40087e-14)
(828.786 355.637 1.63986e-14)
(830.479 355.78 1.70281e-14)
(832.251 356.142 1.8749e-14)
(833.962 356.711 1.74168e-14)
(668.141 332.797 5.13962e-14)
(668.745 333.046 5.02646e-14)
(669.337 333.34 4.92437e-14)
(669.927 333.69 5.1341e-14)
(670.54 334.038 4.99791e-14)
(671.139 334.323 4.84371e-14)
(671.732 334.546 4.60186e-14)
(672.332 334.744 4.99404e-14)
(673.009 334.943 4.75229e-14)
(673.681 335.189 4.65995e-14)
(674.377 335.502 4.4563e-14)
(675.096 335.876 4.36152e-14)
(675.838 336.312 4.23209e-14)
(676.603 336.791 4.10188e-14)
(677.375 337.277 4.3224e-14)
(678.155 337.732 4.20692e-14)
(678.949 338.139 4.09001e-14)
(679.756 338.489 4.08588e-14)
(680.617 338.815 3.96257e-14)
(681.502 339.139 3.95302e-14)
(682.418 339.465 4.06348e-14)
(683.39 339.818 3.68398e-14)
(684.376 340.207 3.57207e-14)
(685.392 340.644 3.51073e-14)
(686.439 341.096 3.43268e-14)
(687.513 341.532 3.44471e-14)
(688.608 341.929 3.23321e-14)
(689.732 342.264 3.25351e-14)
(690.895 342.552 3.43233e-14)
(692.081 342.77 2.97044e-14)
(693.304 342.917 3.25379e-14)
(694.584 343.058 3.13803e-14)
(695.894 343.121 3.37122e-14)
(697.254 343.146 3.19371e-14)
(698.687 343.273 3.06284e-14)
(700.124 343.289 3.01767e-14)
(701.609 343.293 2.94955e-14)
(703.183 343.501 2.85247e-14)
(704.734 343.547 2.76957e-14)
(706.308 343.531 2.74455e-14)
(707.991 343.766 2.70575e-14)
(709.676 343.853 2.46282e-14)
(711.311 343.781 2.51751e-14)
(713.098 343.972 2.12348e-14)
(714.92 344.092 2.01248e-14)
(716.612 343.955 2.18697e-14)
(718.51 344.065 2.22475e-14)
(720.451 344.24 2.01494e-14)
(722.213 344.072 2.09059e-14)
(724.209 344.076 2.22972e-14)
(726.219 344.326 2.36489e-14)
(728.141 344.228 2.13673e-14)
(730.12 344.082 1.86962e-14)
(732.203 344.341 1.93566e-14)
(734.388 344.488 2.06762e-14)
(736.15 344.276 1.99195e-14)
(738.382 344.323 1.73629e-14)
(740.483 344.594 1.80283e-14)
(742.807 344.617 1.72141e-14)
(744.414 344.481 1.92085e-14)
(746.576 344.52 1.53136e-14)
(748.822 344.813 1.60552e-14)
(750.847 344.99 1.70464e-14)
(753.229 344.8 1.59591e-14)
(754.72 344.841 1.56954e-14)
(756.963 345.038 1.59451e-14)
(759.146 345.521 1.60804e-14)
(761.211 345.89 1.53996e-14)
(763.246 345.947 1.53485e-14)
(765.055 346.141 1.32334e-14)
(767.242 346.48 1.61252e-14)
(769.158 346.904 1.50693e-14)
(771.207 347.223 1.4801e-14)
(772.826 347.357 1.52171e-14)
(774.7 347.601 1.11719e-14)
(776.737 347.948 9.97123e-15)
(778.663 348.186 1.23179e-14)
(780.573 348.44 1.03972e-14)
(782.426 348.757 1.07982e-14)
(784.263 348.996 1.2809e-14)
(786.118 349.161 1.17709e-14)
(787.991 349.438 1.31066e-14)
(789.812 349.747 1.39859e-14)
(791.631 349.992 1.65106e-14)
(793.47 350.234 1.22576e-14)
(795.285 350.553 1.48593e-14)
(797.049 350.887 1.4695e-14)
(798.779 351.221 1.97681e-14)
(800.463 351.593 1.75329e-14)
(802.09 351.988 2.00287e-14)
(803.662 352.383 1.65311e-14)
(805.17 352.799 2.11402e-14)
(806.607 353.224 1.92725e-14)
(807.982 353.613 1.93284e-14)
(809.325 353.95 2.02285e-14)
(810.669 354.253 1.97513e-14)
(812.027 354.539 2.01115e-14)
(813.389 354.825 1.61448e-14)
(814.833 355.157 1.63348e-14)
(816.3 355.502 1.7271e-14)
(817.766 355.867 1.78231e-14)
(819.207 356.241 1.74069e-14)
(820.621 356.571 1.9904e-14)
(822.024 356.818 1.68313e-14)
(823.436 356.994 1.80089e-14)
(824.891 357.136 1.66827e-14)
(826.426 357.296 1.62273e-14)
(828.047 357.58 1.84192e-14)
(829.691 358.056 1.9221e-14)
(831.276 358.667 1.92831e-14)
(664.954 332.843 5.64109e-14)
(665.519 333.107 5.72954e-14)
(666.098 333.425 5.76223e-14)
(666.691 333.81 5.86159e-14)
(667.293 334.246 5.84056e-14)
(667.892 334.689 5.78711e-14)
(668.488 335.105 5.31081e-14)
(669.086 335.487 5.52075e-14)
(669.708 335.834 5.4531e-14)
(670.357 336.168 5.26869e-14)
(671.031 336.513 5.08842e-14)
(671.734 336.885 5.02161e-14)
(672.465 337.298 4.99735e-14)
(673.224 337.754 4.71885e-14)
(674.006 338.244 4.77423e-14)
(674.805 338.746 4.81489e-14)