/*--------------------------------*- C++ -*----------------------------------*\
| =========                 |                                                 |
| \\      /  F ield         | OpenFOAM: The Open Source CFD Toolbox           |
|  \\    /   O peration     | Version:  v1706                                 |
|   \\  /    A nd           | Web:      www.OpenFOAM.com                      |
|    \\/     M anipulation  |                                                 |
\*---------------------------------------------------------------------------*/
FoamFile
{
    version     2.0;
    format      ascii;
    class       volScalarField;
    location    "3.2e-05";
    object      wallHeatFlux;
}
// * * * * * * * * * * * * * * * * * * * * * * * * * * * * * * * * * * * * * //

dimensions      [1 0 -3 0 0 0 0];


internalField   uniform 0;

boundaryField
{
    cone
    {
        type            calculated;
        value           nonuniform List<scalar> 
181
(
1649.12
1628.33
1604.94
1580.29
1555.85
1533.22
1514.13
1500.47
1493.66
1495.62
1506.35
1526.85
1558.6
1602.37
1658.17
1725.49
1803.29
1889.88
1982.77
2078.57
2172.84
2260.13
2334.03
2387.39
2412.77
2404.01
2357.28
2264.22
2122.12
1932.86
1701.29
1435.22
1144.55
840.346
533.445
233.084
-53.5108
-321.299
-567.292
-790.203
-990.017
-1167.59
-1324.32
-1461.86
-1581.92
-1686.22
-1776.39
-1853.9
-1919.75
-1976.08
-2023.81
-2062.98
-2094.57
-2119.52
-2138.49
-2152.2
-2161.32
-2165.95
-2166.49
-2163.49
-2157.25
-2148.07
-2136.22
-2121.95
-2105.5
-2087.08
-2066.88
-2045.04
-2021.69
-1996.96
-1970.94
-1943.7
-1915.31
-1885.84
-1855.35
-1823.91
-1791.56
-1758.4
-1724.48
-1689.91
-1654.77
-1619.16
-1583.18
-1546.95
-1510.58
-1474.18
-1437.88
-1401.78
-1366.01
-1330.69
-1295.96
-1261.95
-1228.82
-1196.72
-1165.85
-1136.41
-1108.63
-1082.77
-1059.1
-1037.93
-1019.55
-1004.32
-992.526
-984.508
-980.542
-980.885
-985.898
-995.671
-1010.21
-1029.49
-1053.4
-1081.72
-1114.11
-1150.14
-1189.29
-1230.97
-1274.53
-1319.28
-1364.4
-1409.36
-1453.58
-1496.23
-1536.71
-1574.57
-1609.36
-1640.69
-1668.26
-1691.84
-1711.25
-1726.34
-1737.23
-1743.98
-1746.38
-1744.51
-1738.6
-1728.76
-1715.12
-1697.86
-1677.17
-1653.25
-1626.35
-1596.71
-1564.6
-1530.34
-1494.23
-1456.65
-1417.99
-1378.67
-1339.17
-1299.99
-1261.66
-1224.75
-1189.84
-1157.51
-1128.34
-1102.88
-1081.65
-1065.09
-1053.57
-1047.31
-1045.89
-1049.21
-1057.42
-1069.69
-1085.14
-1103.5
-1124.23
-1146.6
-1169.97
-1193.73
-1217.34
-1240.34
-1262.36
-1283.1
-1302.37
-1320.05
-1336.11
-1350.57
-1363.49
-1374.97
-1385.13
)
;
    }
    inlet
    {
        type            calculated;
        value           uniform 0;
    }
    rWedge
    {
        type            wedge;
    }
    lWedge
    {
        type            wedge;
    }
    outlet
    {
        type            calculated;
        value           nonuniform 0();
    }
    procBoundary1to0
    {
        type            processor;
        value           uniform 0;
    }
    procBoundary1to2
    {
        type            processor;
        value           uniform 0;
    }
}


// ************************************************************************* //
