/*--------------------------------*- C++ -*----------------------------------*\
| =========                 |                                                 |
| \\      /  F ield         | OpenFOAM: The Open Source CFD Toolbox           |
|  \\    /   O peration     | Version:  v1706                                 |
|   \\  /    A nd           | Web:      www.OpenFOAM.com                      |
|    \\/     M anipulation  |                                                 |
\*---------------------------------------------------------------------------*/
FoamFile
{
    version     2.0;
    format      ascii;
    class       volScalarField;
    location    "1.6e-05";
    object      kappatr;
}
// * * * * * * * * * * * * * * * * * * * * * * * * * * * * * * * * * * * * * //

dimensions      [1 1 -3 -1 0 0 0];


internalField   nonuniform List<scalar> 
30038
(
0.014593
0.014593
0.014593
0.014593
0.014593
0.014593
0.014593
0.014593
0.014593
0.014593
0.014593
0.014593
0.014593
0.014593
0.014593
0.014593
0.014593
0.014593
0.014593
0.014593
0.014593
0.014593
0.014593
0.014593
0.014593
0.014593
0.014593
0.014593
0.014593
0.014593
0.014593
0.014593
0.014593
0.014593
0.014593
0.014593
0.014593
0.014593
0.014593
0.014593
0.014593
0.014593
0.014593
0.014593
0.014593
0.014593
0.014593
0.014593
0.014593
0.014593
0.014593
0.014593
0.014593
0.014593
0.014593
0.014593
0.014593
0.014593
0.014593
0.014593
0.014593
0.014593
0.014593
0.014593
0.014593
0.014593
0.014593
0.014593
0.014593
0.014593
0.014593
0.014593
0.014593
0.014593
0.014593
0.014593
0.014593
0.014593
0.014593
0.014593
0.014593
0.014593
0.014593
0.014593
0.014593
0.014593
0.014593
0.014593
0.014593
0.014593
0.014593
0.014593
0.014593
0.014593
0.014593
0.014593
0.014593
0.014593
0.014593
0.014593
0.014593
0.014593
0.014593
0.014593
0.014593
0.014593
0.014593
0.014593
0.014593
0.014593
0.014593
0.014593
0.014593
0.014593
0.014593
0.014593
0.014593
0.014593
0.014593
0.014593
0.014593
0.014593
0.014593
0.014593
0.014593
0.014593
0.014593
0.014593
0.014593
0.014593
0.014593
0.014593
0.014593
0.014593
0.014593
0.014593
0.014593
0.014593
0.014593
0.014593
0.014593
0.014593
0.014593
0.014593
0.014593
0.014593
0.014593
0.014593
0.014593
0.014593
0.014593
0.014593
0.014593
0.014593
0.014593
0.014593
0.014593
0.014593
0.014593
0.014593
0.014593
0.014593
0.014593
0.014593
0.014593
0.014593
0.014593
0.014593
0.014593
0.014593
0.014593
0.014593
0.014593
0.014593
0.014593
0.014593
0.014593
0.014593
0.014593
0.014593
0.014593
0.014593
0.014593
0.014593
0.014593
0.014593
0.014593
0.014593
0.014593
0.014593
0.014593
0.014593
0.014593
0.014593
0.014593
0.014593
0.014593
0.014593
0.014593
0.014593
0.014593
0.014593
0.014593
0.014593
0.014593
0.014593
0.014593
0.014593
0.014593
0.014593
0.014593
0.014593
0.014593
0.014593
0.014593
0.014593
0.014593
0.014593
0.014593
0.014593
0.014593
0.014593
0.014593
0.014593
0.014593
0.014593
0.014593
0.014593
0.014593
0.014593
0.014593
0.014593
0.014593
0.014593
0.014593
0.014593
0.014593
0.014593
0.014593
0.014593
0.014593
0.014593
0.014593
0.014593
0.014593
0.014593
0.014593
0.014593
0.014593
0.014593
0.014593
0.014593
0.014593
0.014593
0.014593
0.014593
0.014593
0.014593
0.014593
0.014593
0.014593
0.014593
0.014593
0.014593
0.014593
0.014593
0.014593
0.014593
0.014593
0.014593
0.014593
0.014593
0.014593
0.014593
0.014593
0.014593
0.014593
0.014593
0.014593
0.014593
0.014593
0.014593
0.014593
0.014593
0.014593
0.014593
0.014593
0.014593
0.014593
0.014593
0.014593
0.014593
0.014593
0.014593
0.014593
0.014593
0.014593
0.014593
0.014593
0.014593
0.014593
0.014593
0.014593
0.014593
0.014593
0.014593
0.014593
0.014593
0.014593
0.014593
0.014593
0.014593
0.014593
0.014593
0.014593
0.014593
0.014593
0.014593
0.014593
0.014593
0.014593
0.014593
0.014593
0.014593
0.014593
0.014593
0.014593
0.014593
0.014593
0.014593
0.014593
0.014593
0.014593
0.014593
0.014593
0.014593
0.014593
0.014593
0.014593
0.014593
0.014593
0.014593
0.014593
0.014593
0.014593
0.014593
0.014593
0.014593
0.014593
0.014593
0.014593
0.014593
0.014593
0.014593
0.014593
0.014593
0.014593
0.014593
0.014593
0.014593
0.014593
0.014593
0.014593
0.014593
0.014593
0.014593
0.014593
0.014593
0.014593
0.014593
0.014593
0.014593
0.014593
0.014593
0.014593
0.014593
0.014593
0.014593
0.014593
0.014593
0.014593
0.014593
0.014593
0.014593
0.014593
0.014593
0.014593
0.014593
0.014593
0.014593
0.014593
0.014593
0.014593
0.014593
0.014593
0.014593
0.014593
0.014593
0.014593
0.014593
0.014593
0.014593
0.014593
0.014593
0.014593
0.014593
0.014593
0.014593
0.014593
0.014593
0.014593
0.014593
0.014593
0.014593
0.014593
0.014593
0.014593
0.014593
0.014593
0.014593
0.014593
0.014593
0.014593
0.014593
0.014593
0.014593
0.014593
0.014593
0.014593
0.014593
0.014593
0.014593
0.014593
0.014593
0.014593
0.014593
0.014593
0.014593
0.014593
0.014593
0.014593
0.014593
0.014593
0.014593
0.014593
0.014593
0.014593
0.014593
0.014593
0.014593
0.014593
0.014593
0.014593
0.014593
0.014593
0.014593
0.014593
0.014593
0.014593
0.014593
0.014593
0.014593
0.014593
0.014593
0.014593
0.014593
0.014593
0.014593
0.014593
0.014593
0.014593
0.014593
0.014593
0.014593
0.014593
0.014593
0.014593
0.014593
0.014593
0.014593
0.014593
0.014593
0.014593
0.014593
0.014593
0.014593
0.014593
0.014593
0.014593
0.014593
0.014593
0.014593
0.014593
0.014593
0.014593
0.014593
0.014593
0.014593
0.014593
0.014593
0.014593
0.014593
0.014593
0.014593
0.014593
0.014593
0.014593
0.014593
0.014593
0.014593
0.014593
0.014593
0.014593
0.014593
0.014593
0.014593
0.014593
0.014593
0.014593
0.014593
0.014593
0.014593
0.014593
0.014593
0.014593
0.014593
0.014593
0.014593
0.014593
0.014593
0.014593
0.014593
0.014593
0.014593
0.014593
0.014593
0.014593
0.014593
0.014593
0.014593
0.014593
0.014593
0.014593
0.014593
0.014593
0.014593
0.014593
0.014593
0.014593
0.014593
0.014593
0.014593
0.014593
0.014593
0.014593
0.014593
0.014593
0.014593
0.014593
0.014593
0.014593
0.014593
0.014593
0.014593
0.014593
0.014593
0.014593
0.014593
0.014593
0.014593
0.014593
0.014593
0.014593
0.014593
0.014593
0.014593
0.014593
0.014593
0.014593
0.014593
0.014593
0.014593
0.014593
0.014593
0.014593
0.014593
0.014593
0.014593
0.014593
0.014593
0.014593
0.014593
0.014593
0.014593
0.014593
0.014593
0.014593
0.014593
0.014593
0.014593
0.014593
0.014593
0.014593
0.014593
0.014593
0.014593
0.014593
0.014593
0.014593
0.014593
0.014593
0.014593
0.014593
0.014593
0.014593
0.014593
0.014593
0.014593
0.014593
0.014593
0.014593
0.014593
0.014593
0.014593
0.014593
0.014593
0.014593
0.014593
0.014593
0.014593
0.014593
0.014593
0.014593
0.014593
0.014593
0.014593
0.014593
0.014593
0.014593
0.014593
0.014593
0.014593
0.014593
0.014593
0.014593
0.014593
0.014593
0.014593
0.014593
0.014593
0.014593
0.014593
0.014593
0.014593
0.014593
0.014593
0.014593
0.014593
0.014593
0.014593
0.014593
0.014593
0.014593
0.014593
0.014593
0.014593
0.014593
0.014593
0.014593
0.014593
0.014593
0.014593
0.014593
0.014593
0.014593
0.014593
0.014593
0.014593
0.014593
0.014593
0.014593
0.014593
0.014593
0.014593
0.014593
0.014593
0.014593
0.014593
0.014593
0.014593
0.014593
0.014593
0.014593
0.014593
0.014593
0.014593
0.014593
0.014593
0.014593
0.014593
0.014593
0.014593
0.014593
0.014593
0.014593
0.014593
0.014593
0.014593
0.014593
0.014593
0.014593
0.014593
0.014593
0.014593
0.014593
0.014593
0.014593
0.014593
0.014593
0.014593
0.014593
0.014593
0.014593
0.014593
0.014593
0.014593
0.014593
0.014593
0.014593
0.014593
0.014593
0.014593
0.014593
0.014593
0.014593
0.014593
0.014593
0.014593
0.014593
0.014593
0.014593
0.014593
0.014593
0.014593
0.014593
0.014593
0.014593
0.014593
0.014593
0.014593
0.014593
0.014593
0.014593
0.014593
0.014593
0.014593
0.014593
0.014593
0.014593
0.014593
0.014593
0.014593
0.014593
0.014593
0.014593
0.014593
0.014593
0.014593
0.014593
0.014593
0.014593
0.014593
0.014593
0.014593
0.014593
0.014593
0.014593
0.014593
0.014593
0.014593
0.014593
0.014593
0.014593
0.014593
0.014593
0.014593
0.014593
0.014593
0.014593
0.014593
0.014593
0.014593
0.014593
0.014593
0.014593
0.014593
0.014593
0.014593
0.014593
0.014593
0.014593
0.014593
0.014593
0.014593
0.014593
0.014593
0.014593
0.014593
0.014593
0.014593
0.014593
0.014593
0.014593
0.014593
0.014593
0.014593
0.014593
0.014593
0.014593
0.014593
0.014593
0.014593
0.014593
0.014593
0.014593
0.014593
0.014593
0.014593
0.014593
0.014593
0.014593
0.014593
0.014593
0.014593
0.014593
0.014593
0.014593
0.014593
0.014593
0.014593
0.014593
0.014593
0.014593
0.014593
0.014593
0.014593
0.014593
0.014593
0.014593
0.014593
0.014593
0.014593
0.014593
0.014593
0.014593
0.014593
0.014593
0.014593
0.014593
0.014593
0.014593
0.014593
0.014593
0.014593
0.014593
0.014593
0.014593
0.014593
0.014593
0.014593
0.014593
0.014593
0.014593
0.014593
0.014593
0.014593
0.014593
0.014593
0.014593
0.014593
0.014593
0.014593
0.014593
0.014593
0.014593
0.014593
0.014593
0.014593
0.014593
0.014593
0.014593
0.014593
0.014593
0.014593
0.014593
0.014593
0.014593
0.014593
0.014593
0.014593
0.014593
0.014593
0.014593
0.014593
0.014593
0.014593
0.014593
0.014593
0.014593
0.014593
0.014593
0.014593
0.014593
0.014593
0.014593
0.014593
0.014593
0.014593
0.014593
0.014593
0.014593
0.014593
0.014593
0.014593
0.014593
0.014593
0.014593
0.014593
0.014593
0.014593
0.014593
0.014593
0.014593
0.014593
0.014593
0.014593
0.014593
0.014593
0.014593
0.014593
0.014593
0.014593
0.014593
0.014593
0.014593
0.014593
0.014593
0.014593
0.014593
0.014593
0.014593
0.014593
0.014593
0.014593
0.014593
0.014593
0.014593
0.014593
0.014593
0.014593
0.014593
0.014593
0.014593
0.014593
0.014593
0.014593
0.014593
0.014593
0.014593
0.014593
0.014593
0.014593
0.014593
0.014593
0.014593
0.014593
0.014593
0.014593
0.014593
0.014593
0.014593
0.014593
0.014593
0.014593
0.014593
0.014593
0.014593
0.014593
0.014593
0.014593
0.014593
0.014593
0.014593
0.014593
0.014593
0.014593
0.014593
0.014593
0.014593
0.014593
0.014593
0.014593
0.014593
0.014593
0.014593
0.014593
0.014593
0.014593
0.014593
0.014593
0.014593
0.014593
0.014593
0.014593
0.014593
0.014593
0.014593
0.014593
0.014593
0.014593
0.014593
0.014593
0.014593
0.014593
0.014593
0.014593
0.014593
0.014593
0.014593
0.014593
0.014593
0.014593
0.014593
0.014593
0.014593
0.014593
0.014593
0.014593
0.014593
0.014593
0.014593
0.014593
0.014593
0.014593
0.014593
0.014593
0.014593
0.014593
0.014593
0.014593
0.014593
0.014593
0.014593
0.014593
0.014593
0.014593
0.014593
0.014593
0.014593
0.014593
0.014593
0.014593
0.014593
0.014593
0.014593
0.014593
0.014593
0.014593
0.014593
0.014593
0.014593
0.014593
0.014593
0.014593
0.014593
0.014593
0.014593
0.014593
0.014593
0.014593
0.014593
0.014593
0.014593
0.014593
0.014593
0.014593
0.014593
0.014593
0.014593
0.014593
0.014593
0.014593
0.014593
0.014593
0.014593
0.014593
0.014593
0.014593
0.014593
0.014593
0.014593
0.014593
0.014593
0.014593
0.014593
0.014593
0.014593
0.014593
0.014593
0.014593
0.014593
0.014593
0.014593
0.014593
0.014593
0.014593
0.014593
0.014593
0.014593
0.014593
0.014593
0.014593
0.014593
0.014593
0.014593
0.014593
0.014593
0.014593
0.014593
0.014593
0.014593
0.014593
0.014593
0.014593
0.014593
0.014593
0.014593
0.014593
0.014593
0.014593
0.014593
0.014593
0.014593
0.014593
0.014593
0.014593
0.014593
0.014593
0.014593
0.014593
0.014593
0.014593
0.014593
0.014593
0.014593
0.014593
0.014593
0.014593
0.014593
0.014593
0.014593
0.014593
0.014593
0.014593
0.014593
0.014593
0.014593
0.014593
0.014593
0.014593
0.014593
0.014593
0.014593
0.014593
0.014593
0.014593
0.014593
0.014593
0.014593
0.014593
0.014593
0.014593
0.014593
0.014593
0.014593
0.014593
0.014593
0.014593
0.014593
0.014593
0.014593
0.014593
0.014593
0.014593
0.014593
0.014593
0.014593
0.014593
0.014593
0.014593
0.014593
0.014593
0.014593
0.014593
0.014593
0.014593
0.014593
0.014593
0.014593
0.014593
0.014593
0.014593
0.014593
0.014593
0.014593
0.014593
0.014593
0.014593
0.014593
0.014593
0.014593
0.014593
0.014593
0.014593
0.014593
0.014593
0.014593
0.014593
0.014593
0.014593
0.014593
0.014593
0.014593
0.014593
0.014593
0.014593
0.014593
0.014593
0.014593
0.014593
0.014593
0.014593
0.014593
0.014593
0.014593
0.014593
0.014593
0.014593
0.014593
0.014593
0.014593
0.014593
0.014593
0.014593
0.014593
0.014593
0.014593
0.014593
0.014593
0.014593
0.014593
0.014593
0.014593
0.014593
0.014593
0.014593
0.014593
0.014593
0.014593
0.014593
0.014593
0.014593
0.014593
0.014593
0.014593
0.014593
0.014593
0.014593
0.014593
0.014593
0.014593
0.014593
0.014593
0.014593
0.014593
0.014593
0.014593
0.014593
0.014593
0.014593
0.014593
0.014593
0.014593
0.014593
0.014593
0.014593
0.014593
0.014593
0.014593
0.014593
0.014593
0.014593
0.014593
0.014593
0.014593
0.014593
0.014593
0.014593
0.014593
0.014593
0.014593
0.014593
0.014593
0.014593
0.014593
0.014593
0.014593
0.014593
0.014593
0.014593
0.014593
0.014593
0.014593
0.014593
0.014593
0.014593
0.014593
0.014593
0.014593
0.014593
0.014593
0.014593
0.014593
0.014593
0.014593
0.014593
0.014593
0.014593
0.014593
0.014593
0.014593
0.014593
0.014593
0.014593
0.014593
0.014593
0.014593
0.014593
0.014593
0.014593
0.014593
0.014593
0.014593
0.014593
0.014593
0.014593
0.014593
0.014593
0.014593
0.014593
0.014593
0.014593
0.014593
0.014593
0.014593
0.014593
0.014593
0.014593
0.014593
0.014593
0.014593
0.014593
0.014593
0.014593
0.014593
0.014593
0.014593
0.014593
0.014593
0.014593
0.014593
0.014593
0.014593
0.014593
0.014593
0.014593
0.014593
0.014593
0.014593
0.014593
0.014593
0.0145931
0.014593
0.014593
0.014593
0.014593
0.014593
0.014593
0.014593
0.014593
0.014593
0.014593
0.014593
0.014593
0.014593
0.014593
0.014593
0.014593
0.014593
0.014593
0.014593
0.014593
0.014593
0.014593
0.014593
0.014593
0.014593
0.014593
0.014593
0.014593
0.014593
0.014593
0.014593
0.014593
0.014593
0.014593
0.014593
0.014593
0.014593
0.014593
0.014593
0.014593
0.014593
0.014593
0.014593
0.014593
0.014593
0.014593
0.014593
0.0145931
0.0145931
0.0145933
0.014593
0.014593
0.014593
0.014593
0.014593
0.014593
0.014593
0.014593
0.014593
0.014593
0.014593
0.014593
0.014593
0.014593
0.014593
0.014593
0.014593
0.014593
0.014593
0.014593
0.014593
0.014593
0.014593
0.014593
0.014593
0.014593
0.014593
0.014593
0.014593
0.014593
0.014593
0.014593
0.014593
0.014593
0.014593
0.014593
0.014593
0.014593
0.014593
0.014593
0.014593
0.014593
0.014593
0.0145931
0.0145931
0.0145931
0.0145932
0.0145934
0.0145937
0.0145943
0.014593
0.014593
0.014593
0.014593
0.014593
0.014593
0.014593
0.014593
0.014593
0.014593
0.014593
0.014593
0.014593
0.014593
0.014593
0.014593
0.014593
0.014593
0.014593
0.014593
0.014593
0.014593
0.014593
0.014593
0.014593
0.014593
0.014593
0.014593
0.014593
0.014593
0.014593
0.014593
0.014593
0.014593
0.014593
0.014593
0.014593
0.014593
0.014593
0.014593
0.0145931
0.0145931
0.0145931
0.0145932
0.0145934
0.0145937
0.0145943
0.0145952
0.0145968
0.0146
0.014593
0.014593
0.014593
0.014593
0.014593
0.014593
0.014593
0.014593
0.014593
0.014593
0.014593
0.014593
0.014593
0.014593
0.014593
0.014593
0.014593
0.014593
0.014593
0.014593
0.014593
0.014593
0.014593
0.014593
0.014593
0.014593
0.014593
0.014593
0.014593
0.014593
0.014593
0.014593
0.014593
0.014593
0.014593
0.014593
0.014593
0.0145931
0.0145931
0.0145932
0.0145933
0.0145934
0.0145938
0.0145943
0.0145952
0.0145968
0.0145995
0.0146043
0.0146127
0.0146285
0.014593
0.014593
0.014593
0.014593
0.014593
0.014593
0.014593
0.014593
0.014593
0.014593
0.014593
0.014593
0.014593
0.014593
0.014593
0.014593
0.014593
0.014593
0.014593
0.014593
0.014593
0.014593
0.014593
0.014593
0.014593
0.014593
0.014593
0.014593
0.014593
0.014593
0.014593
0.014593
0.014593
0.014593
0.0145931
0.0145931
0.0145932
0.0145933
0.0145935
0.0145938
0.0145943
0.0145953
0.0145969
0.0145996
0.0146042
0.0146122
0.014626
0.0146498
0.0146917
0.0147686
0.014593
0.014593
0.014593
0.014593
0.014593
0.014593
0.014593
0.014593
0.014593
0.014593
0.014593
0.014593
0.014593
0.014593
0.014593
0.014593
0.014593
0.014593
0.014593
0.014593
0.014593
0.014593
0.014593
0.014593
0.014593
0.014593
0.014593
0.014593
0.014593
0.014593
0.014593
0.0145931
0.0145931
0.0145932
0.0145933
0.0145935
0.0145939
0.0145945
0.0145954
0.0145971
0.0145998
0.0146045
0.0146124
0.0146259
0.0146489
0.0146882
0.0147555
0.0148708
0.0150688
0.0154169
0.014593
0.014593
0.014593
0.014593
0.014593
0.014593
0.014593
0.014593
0.014593
0.014593
0.014593
0.014593
0.014593
0.014593
0.014593
0.014593
0.014593
0.014593
0.014593
0.014593
0.014593
0.014593
0.014593
0.014593
0.014593
0.014593
0.014593
0.0145931
0.0145931
0.0145931
0.0145932
0.0145934
0.0145936
0.014594
0.0145946
0.0145956
0.0145974
0.0146003
0.0146051
0.0146132
0.0146267
0.0146496
0.0146882
0.0147535
0.0148634
0.0150482
0.0153563
0.0158629
0.0166806
0.0179751
0.014593
0.014593
0.014593
0.014593
0.014593
0.014593
0.014593
0.014593
0.014593
0.014593
0.014593
0.014593
0.014593
0.014593
0.014593
0.014593
0.014593
0.014593
0.014593
0.014593
0.014593
0.014593
0.014593
0.014593
0.0145931
0.0145931
0.0145932
0.0145933
0.0145934
0.0145937
0.0145941
0.0145948
0.014596
0.0145978
0.0146009
0.014606
0.0146145
0.0146285
0.0146519
0.0146909
0.0147558
0.014864
0.0150436
0.0153392
0.0158192
0.0165808
0.01775
0.0194672
0.0218633
0.0250293
0.014593
0.014593
0.014593
0.014593
0.014593
0.014593
0.014593
0.014593
0.014593
0.014593
0.014593
0.014593
0.014593
0.014593
0.014593
0.014593
0.014593
0.014593
0.014593
0.014593
0.0145931
0.0145931
0.0145931
0.0145932
0.0145933
0.0145935
0.0145938
0.0145943
0.0145951
0.0145964
0.0145985
0.0146019
0.0146075
0.0146166
0.0146315
0.014656
0.0146963
0.0147627
0.014872
0.015051
0.0153423
0.0158098
0.0165438
0.0176602
0.0192874
0.021539
0.0244818
0.0281144
0.0323746
0.0371489
0.014593
0.014593
0.014593
0.014593
0.014593
0.014593
0.014593
0.014593
0.014593
0.014593
0.014593
0.014593
0.014593
0.014593
0.014593
0.014593
0.014593
0.0145931
0.0145931
0.0145932
0.0145933
0.0145934
0.0145936
0.014594
0.0145946
0.0145955
0.014597
0.0145994
0.0146033
0.0146095
0.0146195
0.0146357
0.0146621
0.0147049
0.0147746
0.0148877
0.0150709
0.015365
0.0158312
0.0165548
0.0176442
0.0192188
0.0213851
0.0242068
0.0276839
0.0317519
0.0363009
0.0412021
0.0463338
0.0515784
0.014593
0.014593
0.014593
0.014593
0.014593
0.014593
0.014593
0.014593
0.014593
0.014593
0.014593
0.014593
0.014593
0.014593
0.0145931
0.0145931
0.0145931
0.0145932
0.0145933
0.0145935
0.0145938
0.0145943
0.014595
0.0145961
0.0145979
0.0146007
0.0146051
0.0146122
0.0146235
0.0146417
0.0146707
0.0147174
0.0147923
0.0149125
0.0151045
0.0154087
0.0158846
0.0166137
0.017698
0.019249
0.021365
0.0241054
0.0274719
0.0314069
0.0358092
0.0405563
0.0455242
0.0506006
0.0556922
0.0607226
0.0656161
0.014593
0.014593
0.014593
0.014593
0.014593
0.014593
0.014593
0.014593
0.014593
0.014593
0.0145931
0.0145931
0.0145931
0.0145932
0.0145933
0.0145935
0.0145937
0.0145941
0.0145946
0.0145955
0.0145969
0.014599
0.0146024
0.0146077
0.014616
0.0146291
0.0146499
0.0146828
0.0147349
0.0148175
0.0149483
0.0151543
0.0154765
0.0159732
0.0167235
0.0178239
0.0193777
0.0214746
0.0241675
0.0274566
0.031289
0.0355717
0.0401925
0.045036
0.049996
0.054979
0.0599055
0.064701
0.0693024
0.0736551
0.0777235
0.014593
0.014593
0.014593
0.014593
0.014593
0.014593
0.014593
0.0145931
0.0145931
0.0145931
0.0145932
0.0145933
0.0145934
0.0145936
0.0145939
0.0145944
0.0145952
0.0145963
0.014598
0.0146007
0.0146048
0.0146113
0.0146213
0.0146369
0.0146612
0.0146993
0.0147589
0.0148522
0.0149979
0.0152244
0.0155733
0.0161031
0.0168908
0.0180281
0.0196102
0.0217169
0.0243928
0.0276343
0.0313902
0.0355744
0.0400832
0.0448108
0.0496586
0.0545392
0.059378
0.0641081
0.068664
0.0729892
0.0770332
0.0807426
0.0840481
0.0869124
0.014593
0.014593
0.014593
0.0145931
0.0145931
0.0145931
0.0145932
0.0145933
0.0145934
0.0145936
0.0145939
0.0145943
0.0145949
0.0145959
0.0145974
0.0145996
0.014603
0.0146083
0.0146163
0.0146286
0.0146475
0.0146768
0.014722
0.0147918
0.0148997
0.0150659
0.0153205
0.0157065
0.0162832
0.0171258
0.0183213
0.0199562
0.0220997
0.0247863
0.0280067
0.0317098
0.0358144
0.0402252
0.0448451
0.0495839
0.0543615
0.0591083
0.0637634
0.0682672
0.0725645
0.0766063
0.080345
0.0837224
0.0866735
0.0891521
0.0911387
0.0926905
0.0145931
0.0145931
0.0145932
0.0145933
0.0145934
0.0145936
0.0145938
0.0145942
0.0145948
0.0145957
0.014597
0.014599
0.0146019
0.0146064
0.0146132
0.0146234
0.0146389
0.0146625
0.0146985
0.0147534
0.0148371
0.0149648
0.0151585
0.0154507
0.0158865
0.016526
0.017443
0.0187188
0.0204307
0.0226359
0.0253578
0.0285802
0.0322508
0.0362927
0.0406177
0.0451377
0.0497707
0.0544435
0.0590923
0.0636612
0.0680974
0.0723485
0.0763679
0.0801133
0.0835361
0.0865782
0.0891848
0.0913257
0.0930072
0.0942781
0.0951991
0.0958667
0.0145934
0.0145936
0.0145939
0.0145942
0.0145948
0.0145956
0.0145969
0.0145987
0.0146014
0.0146054
0.0146113
0.0146202
0.0146336
0.0146536
0.0146837
0.014729
0.0147972
0.0148999
0.0150541
0.0152848
0.0156269
0.0161281
0.0168492
0.0178618
0.019241
0.0210533
0.0233427
0.0261209
0.0293642
0.0330186
0.0370111
0.0412606
0.0456871
0.0502168
0.054784
0.0593304
0.063805
0.0681609
0.0723503
0.0763289
0.0800569
0.0834936
0.0865891
0.08929
0.0915569
0.0933798
0.0947843
0.0958254
0.0965695
0.0970911
0.0974446
0.0976923
0.0145949
0.0145957
0.0145969
0.0145987
0.0146012
0.014605
0.0146105
0.0146187
0.0146307
0.0146485
0.0146749
0.0147141
0.0147724
0.014859
0.0149876
0.0151779
0.0154578
0.0158655
0.0164511
0.0172758
0.0184077
0.0199139
0.0218485
0.0242417
0.027093
0.0303713
0.0340216
0.0379745
0.0421559
0.0464938
0.0509227
0.0553835
0.059824
0.0641979
0.068463
0.0725769
0.0764977
0.0801881
0.0836122
0.0867283
0.0894875
0.0918467
0.0937846
0.0953107
0.0964653
0.0973058
0.0978981
0.0983048
0.0985756
0.0987553
0.098867
0.0989332
0.0146015
0.0146052
0.0146106
0.0146184
0.0146298
0.0146464
0.0146707
0.0147063
0.0147585
0.0148351
0.0149474
0.0151116
0.0153507
0.0156961
0.0161894
0.0168827
0.0178362
0.0191127
0.020769
0.0228454
0.0253576
0.0282936
0.031616
0.0352693
0.0391883
0.0433058
0.0475579
0.0518865
0.0562396
0.0605707
0.064838
0.0690036
0.0730302
0.0768791
0.080515
0.0839053
0.0870145
0.0897998
0.0922187
0.094243
0.0958697
0.0971246
0.0980562
0.0987224
0.0991846
0.0994937
0.0996952
0.0998222
0.0998882
0.0999221
0.0999501
0.0999553
0.0146307
0.0146469
0.0146704
0.0147043
0.0147533
0.0148242
0.0149269
0.0150752
0.0152886
0.0155938
0.0160262
0.0166302
0.0174586
0.0185687
0.0200153
0.0218426
0.0240761
0.0267173
0.0297437
0.0331134
0.0367716
0.0406581
0.0447128
0.0488794
0.0531073
0.057351
0.0615693
0.0657249
0.0697838
0.073713
0.0774775
0.081044
0.0843822
0.0874617
0.0902458
0.0926943
0.0947758
0.096479
0.0978178
0.0988301
0.0995662
0.100082
0.100433
0.10066
0.100802
0.10088
0.100911
0.100926
0.100926
0.1009
0.10085
0.100786
0.0148246
0.0149228
0.0150629
0.0152621
0.0155436
0.0159382
0.0164847
0.0172297
0.0182243
0.0195197
0.0211601
0.0231751
0.0255748
0.0283478
0.0314637
0.0348779
0.0385381
0.0423895
0.0463793
0.0504588
0.0545839
0.0587154
0.062817
0.0668559
0.0708013
0.074624
0.0782927
0.0817766
0.0850477
0.0880787
0.0908381
0.0932894
0.0954011
0.0971562
0.0985594
0.0996383
0.100436
0.101004
0.101393
0.101648
0.101805
0.101896
0.101933
0.101934
0.101928
0.101906
0.101855
0.101783
0.101697
0.101603
0.101509
0.0155378
0.015913
0.0164272
0.0171216
0.0180421
0.0192353
0.020743
0.0225955
0.0248074
0.0273742
0.0302743
0.0334718
0.036922
0.0405764
0.0443865
0.0483065
0.0522947
0.0563135
0.0603291
0.0643098
0.0682267
0.0720524
0.0757608
0.0793241
0.0827141
0.0859044
0.0888706
0.0915854
0.0940166
0.0961335
0.0979161
0.0993627
0.100493
0.101342
0.101955
0.10238
0.102662
0.102835
0.102935
0.102979
0.102975
0.10296
0.102935
0.102884
0.102809
0.10272
0.102619
0.102512
0.102404
0.102298
0.102193
0.0180013
0.0191336
0.0205555
0.022296
0.0243703
0.0267782
0.0295036
0.0325175
0.0357819
0.0392543
0.0428912
0.0466506
0.0504936
0.0543849
0.0582927
0.0621879
0.0660432
0.069833
0.073533
0.07712
0.0805692
0.0838547
0.0869524
0.0898397
0.092493
0.0948837
0.0969832
0.0987709
0.100241
0.101405
0.102292
0.102941
0.103397
0.103703
0.103891
0.104
0.104051
0.104046
0.104021
0.103987
0.103936
0.10386
0.103767
0.103661
0.103545
0.103426
0.103308
0.10319
0.103072
0.102956
0.102842
0.0265283
0.0291198
0.0319851
0.0350919
0.0384028
0.0418795
0.0454841
0.0491812
0.0529382
0.0567256
0.0605165
0.0642862
0.068011
0.0716684
0.0752369
0.0786957
0.0820228
0.0851945
0.0881889
0.0909852
0.0935624
0.0958954
0.0979581
0.09973
0.101202
0.102382
0.103294
0.10397
0.10445
0.104774
0.104977
0.105093
0.105147
0.105143
0.105113
0.105067
0.10501
0.104933
0.104836
0.104725
0.104603
0.104475
0.104346
0.104217
0.104088
0.10396
0.103833
0.103705
0.103579
0.103454
0.0380038
0.0413367
0.0447968
0.0483524
0.051974
0.0556348
0.0593102
0.0629778
0.0666163
0.0702053
0.0737251
0.0771565
0.0804809
0.0836787
0.0867284
0.0896099
0.0923043
0.0947927
0.0970531
0.0990617
0.100799
0.102255
0.103435
0.104355
0.105045
0.105541
0.10588
0.106093
0.106215
0.10627
0.106268
0.106233
0.106176
0.106109
0.10603
0.105928
0.105812
0.105685
0.105548
0.105409
0.105269
0.10513
0.104991
0.104853
0.104715
0.104577
0.10444
0.104302
0.104165
0.104029
0.0514894
0.0550219
0.0585757
0.0621307
0.065668
0.0691695
0.0726173
0.0759941
0.0792829
0.0824671
0.0855289
0.0884491
0.0912091
0.093792
0.0961805
0.0983553
0.100295
0.101981
0.103404
0.104566
0.105482
0.106175
0.106677
0.107023
0.107241
0.107367
0.107423
0.107418
0.10738
0.107314
0.107235
0.107149
0.107044
0.106921
0.106788
0.106645
0.106496
0.106346
0.106196
0.106047
0.105898
0.10575
0.105601
0.105454
0.105306
0.105158
0.10501
0.104862
0.104714
0.104567
0.0651764
0.0685764
0.0719347
0.0752357
0.0784642
0.0816052
0.0846436
0.0875635
0.0903473
0.0929783
0.0954411
0.0977201
0.099798
0.101656
0.103276
0.104651
0.105781
0.106677
0.107361
0.10786
0.108205
0.108425
0.108551
0.108603
0.108595
0.108554
0.10848
0.108388
0.108291
0.108183
0.108053
0.107913
0.107764
0.107606
0.107446
0.107286
0.107126
0.106967
0.106808
0.10665
0.106491
0.106334
0.106176
0.106018
0.10586
0.105702
0.105544
0.105385
0.105226
0.105067
0.0780481
0.0811233
0.0841113
0.0869989
0.0897712
0.0924123
0.0949075
0.0972426
0.0994036
0.101375
0.103139
0.104682
0.105995
0.107079
0.107942
0.108606
0.109092
0.109429
0.109645
0.109766
0.109812
0.1098
0.109754
0.10967
0.109567
0.10946
0.109344
0.109208
0.109059
0.108904
0.108739
0.108569
0.108399
0.108229
0.108059
0.107889
0.107721
0.107553
0.107385
0.107217
0.10705
0.106882
0.106715
0.106547
0.106379
0.10621
0.106041
0.105871
0.105702
0.105532
0.0895192
0.0921388
0.0946318
0.096985
0.0991857
0.101221
0.103078
0.104739
0.106193
0.107433
0.108459
0.109278
0.10991
0.110375
0.110697
0.110901
0.111014
0.111051
0.111033
0.110979
0.110887
0.110774
0.110653
0.110526
0.110386
0.110229
0.110065
0.109893
0.109714
0.109534
0.109353
0.109173
0.108993
0.108814
0.108636
0.108458
0.108281
0.108104
0.107927
0.107749
0.107572
0.107395
0.107217
0.107039
0.106861
0.106681
0.106502
0.106321
0.106141
0.10596
0.0991976
0.101258
0.103162
0.104896
0.106446
0.107802
0.108959
0.109916
0.110682
0.111273
0.111709
0.112007
0.112195
0.112295
0.11232
0.112293
0.112229
0.112129
0.112004
0.111871
0.111732
0.111584
0.111419
0.111246
0.111068
0.11088
0.11069
0.1105
0.110309
0.110119
0.10993
0.109741
0.109553
0.109366
0.109179
0.108992
0.108806
0.10862
0.108433
0.108246
0.108059
0.107872
0.107684
0.107496
0.107307
0.107117
0.106927
0.106736
0.106544
0.106353
0.10825
0.1095
0.110565
0.111446
0.11215
0.112692
0.113089
0.113358
0.113526
0.113609
0.113617
0.11358
0.113504
0.113393
0.113256
0.113113
0.112962
0.112802
0.112631
0.112449
0.112261
0.112066
0.111866
0.111666
0.111466
0.111266
0.111066
0.110868
0.11067
0.110472
0.110276
0.110079
0.109883
0.109688
0.109492
0.109296
0.1091
0.108904
0.108708
0.108511
0.108314
0.108116
0.107917
0.107718
0.107518
0.107317
0.107115
0.106913
0.10671
0.113041
0.113676
0.114162
0.114514
0.11475
0.114891
0.114952
0.114942
0.114892
0.114803
0.114679
0.114533
0.114376
0.114212
0.114042
0.113863
0.113671
0.113473
0.113271
0.113062
0.112852
0.112642
0.112432
0.112222
0.112014
0.111806
0.111599
0.111393
0.111187
0.110981
0.110776
0.110571
0.110366
0.110162
0.109957
0.109752
0.109546
0.109341
0.109134
0.108928
0.10872
0.108512
0.108303
0.108094
0.107883
0.107672
0.107459
0.107247
0.107033
0.11598
0.116178
0.116288
0.116322
0.116296
0.116228
0.116123
0.115987
0.115829
0.115659
0.115483
0.115301
0.115112
0.114912
0.114704
0.114494
0.114277
0.114056
0.113837
0.113617
0.113398
0.113179
0.112962
0.112745
0.112529
0.112313
0.112099
0.111884
0.11167
0.111456
0.111243
0.111029
0.110815
0.110601
0.110387
0.110173
0.109958
0.109742
0.109526
0.10931
0.109092
0.108874
0.108655
0.108435
0.108214
0.107992
0.107769
0.107546
0.107321
0.117673
0.117586
0.117464
0.117314
0.117144
0.116961
0.116772
0.116579
0.116379
0.11617
0.115953
0.115733
0.115508
0.115278
0.115049
0.114821
0.114591
0.114363
0.114136
0.113909
0.113684
0.113459
0.113235
0.113011
0.112788
0.112565
0.112342
0.11212
0.111898
0.111675
0.111453
0.11123
0.111007
0.110783
0.110559
0.110335
0.11011
0.109884
0.109657
0.10943
0.109202
0.108972
0.108742
0.108511
0.108279
0.108045
0.107811
0.107576
0.118659
0.118475
0.118279
0.118079
0.117874
0.117663
0.117444
0.117218
0.116988
0.116755
0.116516
0.116277
0.11604
0.115801
0.115563
0.115327
0.115091
0.114856
0.114622
0.114388
0.114156
0.113923
0.113692
0.11346
0.113229
0.112998
0.112767
0.112536
0.112305
0.112074
0.111842
0.111611
0.111378
0.111146
0.110912
0.110678
0.110443
0.110208
0.109971
0.109734
0.109496
0.109256
0.109016
0.108774
0.108531
0.108288
0.108043
0.107797
0.119184
0.118961
0.118733
0.118498
0.118258
0.118016
0.117769
0.117521
0.117274
0.117027
0.116779
0.116533
0.116289
0.116044
0.115801
0.115559
0.115317
0.115076
0.114835
0.114595
0.114355
0.114116
0.113876
0.113637
0.113398
0.113158
0.112919
0.112679
0.112439
0.112199
0.111958
0.111716
0.111474
0.111231
0.110988
0.110743
0.110498
0.110252
0.110004
0.109756
0.109506
0.109256
0.109004
0.108751
0.108497
0.108242
0.107986
0.119791
0.119542
0.11929
0.119035
0.118778
0.118522
0.118266
0.11801
0.117755
0.117501
0.117248
0.116996
0.116745
0.116494