/*--------------------------------*- C++ -*----------------------------------*\
| =========                 |                                                 |
| \\      /  F ield         | OpenFOAM: The Open Source CFD Toolbox           |
|  \\    /   O peration     | Version:  v1706                                 |
|   \\  /    A nd           | Web:      www.OpenFOAM.com                      |
|    \\/     M anipulation  |                                                 |
\*---------------------------------------------------------------------------*/
FoamFile
{
    version     2.0;
    format      ascii;
    class       volScalarField;
    location    "1.6e-05";
    object      Mach;
}
// * * * * * * * * * * * * * * * * * * * * * * * * * * * * * * * * * * * * * //

dimensions      [0 0 0 0 0 0 0];


internalField   nonuniform List<scalar> 
30038
(
11.2859
11.2859
11.2859
11.2859
11.2859
11.2859
11.2859
11.2859
11.2859
11.2859
11.2859
11.2859
11.2859
11.2859
11.2859
11.2859
11.2859
11.2859
11.2859
11.2859
11.2859
11.2859
11.2859
11.2859
11.2859
11.2859
11.2859
11.2859
11.2859
11.2859
11.2859
11.2859
11.2859
11.2859
11.2859
11.2859
11.2859
11.2859
11.2859
11.2859
11.2859
11.2859
11.2859
11.2859
11.2859
11.2859
11.2859
11.2859
11.2859
11.2859
11.2859
11.2859
11.2859
11.2859
11.2859
11.2859
11.2859
11.2859
11.2859
11.2859
11.2859
11.2859
11.2859
11.2859
11.2859
11.2859
11.2859
11.2859
11.2859
11.2859
11.2859
11.2859
11.2859
11.2859
11.2859
11.2859
11.2859
11.2859
11.2859
11.2859
11.2859
11.2859
11.2859
11.2859
11.2859
11.2859
11.2859
11.2859
11.2859
11.2859
11.2859
11.2859
11.2859
11.2859
11.2859
11.2859
11.2859
11.2859
11.2859
11.2859
11.2859
11.2859
11.2859
11.2859
11.2859
11.2859
11.2859
11.2859
11.2859
11.2859
11.2859
11.2859
11.2859
11.2859
11.2859
11.2859
11.2859
11.2859
11.2859
11.2859
11.2859
11.2859
11.2859
11.2859
11.2859
11.2859
11.2859
11.2859
11.2859
11.2859
11.2859
11.2859
11.2859
11.2859
11.2859
11.2859
11.2859
11.2859
11.2859
11.2859
11.2859
11.2859
11.2859
11.2859
11.2859
11.2859
11.2859
11.2859
11.2859
11.2859
11.2859
11.2859
11.2859
11.2859
11.2859
11.2859
11.2859
11.2859
11.2859
11.2859
11.2859
11.2859
11.2859
11.2859
11.2859
11.2859
11.2859
11.2859
11.2859
11.2859
11.2859
11.2859
11.2859
11.2859
11.2859
11.2859
11.2859
11.2859
11.2859
11.2859
11.2859
11.2859
11.2859
11.2859
11.2859
11.2859
11.2859
11.2859
11.2859
11.2859
11.2859
11.2859
11.2859
11.2859
11.2859
11.2859
11.2859
11.2859
11.2859
11.2859
11.2859
11.2859
11.2859
11.2859
11.2859
11.2859
11.2859
11.2859
11.2859
11.2859
11.2859
11.2859
11.2859
11.2859
11.2859
11.2859
11.2859
11.2859
11.2859
11.2859
11.2859
11.2859
11.2859
11.2859
11.2859
11.2859
11.2859
11.2859
11.2859
11.2859
11.2859
11.2859
11.2859
11.2859
11.2859
11.2859
11.2859
11.2859
11.2859
11.2859
11.2859
11.2859
11.2859
11.2859
11.2859
11.2859
11.2859
11.2859
11.2859
11.2859
11.2859
11.2859
11.2859
11.2859
11.2859
11.2859
11.2859
11.2859
11.2859
11.2859
11.2859
11.2859
11.2859
11.2859
11.2859
11.2859
11.2859
11.2859
11.2859
11.2859
11.2859
11.2859
11.2859
11.2859
11.2859
11.2859
11.2859
11.2859
11.2859
11.2859
11.2859
11.2859
11.2859
11.2859
11.2859
11.2859
11.2859
11.2859
11.2859
11.2859
11.2859
11.2859
11.2859
11.2859
11.2859
11.2859
11.2859
11.2859
11.2859
11.2859
11.2859
11.2859
11.2859
11.2859
11.2859
11.2859
11.2859
11.2859
11.2859
11.2859
11.2859
11.2859
11.2859
11.2859
11.2859
11.2859
11.2859
11.2859
11.2859
11.2859
11.2859
11.2859
11.2859
11.2859
11.2859
11.2859
11.2859
11.2859
11.2859
11.2859
11.2859
11.2859
11.2859
11.2859
11.2859
11.2859
11.2859
11.2859
11.2859
11.2859
11.2859
11.2859
11.2859
11.2859
11.2859
11.2859
11.2859
11.2859
11.2859
11.2859
11.2859
11.2859
11.2859
11.2859
11.2859
11.2859
11.2859
11.2859
11.2859
11.2859
11.2859
11.2859
11.2859
11.2859
11.2859
11.2859
11.2859
11.2859
11.2859
11.2859
11.2859
11.2859
11.2859
11.2859
11.2859
11.2859
11.2859
11.2859
11.2859
11.2859
11.2859
11.2859
11.2859
11.2859
11.2859
11.2859
11.2859
11.2859
11.2859
11.2859
11.2859
11.2859
11.2859
11.2859
11.2859
11.2859
11.2859
11.2859
11.2859
11.2859
11.2859
11.2859
11.2859
11.2859
11.2859
11.2859
11.2859
11.2859
11.2859
11.2859
11.2859
11.2859
11.2859
11.2859
11.2859
11.2859
11.2859
11.2859
11.2859
11.2859
11.2859
11.2859
11.2859
11.2859
11.2859
11.2859
11.2859
11.2859
11.2859
11.2859
11.2859
11.2859
11.2859
11.2859
11.2859
11.2859
11.2859
11.2859
11.2859
11.2859
11.2859
11.2859
11.2859
11.2859
11.2859
11.2859
11.2859
11.2859
11.2859
11.2859
11.2859
11.2859
11.2859
11.2859
11.2859
11.2859
11.2859
11.2859
11.2859
11.2859
11.2859
11.2859
11.2859
11.2859
11.2859
11.2859
11.2859
11.2859
11.2859
11.2859
11.2859
11.2859
11.2859
11.2859
11.2859
11.2859
11.2859
11.2859
11.2859
11.2859
11.2859
11.2859
11.2859
11.2859
11.2859
11.2859
11.2859
11.2859
11.2859
11.2859
11.2859
11.2859
11.2859
11.2859
11.2859
11.2859
11.2859
11.2859
11.2859
11.2859
11.2859
11.2859
11.2859
11.2859
11.2859
11.2859
11.2859
11.2859
11.2859
11.2859
11.2859
11.2859
11.2859
11.2859
11.2859
11.2859
11.2859
11.2859
11.2859
11.2859
11.2859
11.2859
11.2859
11.2859
11.2859
11.2859
11.2859
11.2859
11.2859
11.2859
11.2859
11.2859
11.2859
11.2859
11.2859
11.2859
11.2859
11.2859
11.2859
11.2859
11.2859
11.2859
11.2859
11.2859
11.2859
11.2859
11.2859
11.2859
11.2859
11.2859
11.2859
11.2859
11.2859
11.2859
11.2859
11.2859
11.2859
11.2859
11.2859
11.2859
11.2859
11.2859
11.2859
11.2859
11.2859
11.2859
11.2859
11.2859
11.2859
11.2859
11.2859
11.2859
11.2859
11.2859
11.2859
11.2859
11.2859
11.2859
11.2859
11.2859
11.2859
11.2859
11.2859
11.2859
11.2859
11.2859
11.2859
11.2859
11.2859
11.2859
11.2859
11.2859
11.2859
11.2859
11.2859
11.2859
11.2859
11.2859
11.2859
11.2859
11.2859
11.2859
11.2859
11.2859
11.2859
11.2859
11.2859
11.2859
11.2859
11.2859
11.2859
11.2859
11.2859
11.2859
11.2859
11.2859
11.2859
11.2859
11.2859
11.2859
11.2859
11.2859
11.2859
11.2859
11.2859
11.2859
11.2859
11.2859
11.2859
11.2859
11.2859
11.2859
11.2859
11.2859
11.2859
11.2859
11.2859
11.2859
11.2859
11.2859
11.2859
11.2859
11.2859
11.2859
11.2859
11.2859
11.2859
11.2859
11.2859
11.2859
11.2859
11.2859
11.2859
11.2859
11.2859
11.2859
11.2859
11.2859
11.2859
11.2859
11.2859
11.2859
11.2859
11.2859
11.2859
11.2859
11.2859
11.2859
11.2859
11.2859
11.2859
11.2859
11.2859
11.2859
11.2859
11.2859
11.2859
11.2859
11.2859
11.2859
11.2859
11.2859
11.2859
11.2859
11.2859
11.2859
11.2859
11.2859
11.2859
11.2859
11.2859
11.2859
11.2859
11.2859
11.2859
11.2859
11.2859
11.2859
11.2859
11.2859
11.2859
11.2859
11.2859
11.2859
11.2859
11.2859
11.2859
11.2859
11.2859
11.2859
11.2859
11.2859
11.2859
11.2859
11.2859
11.2859
11.2859
11.2859
11.2859
11.2859
11.2859
11.2859
11.2859
11.2859
11.2859
11.2859
11.2859
11.2859
11.2859
11.2859
11.2859
11.2859
11.2859
11.2859
11.2859
11.2859
11.2859
11.2859
11.2859
11.2859
11.2859
11.2859
11.2859
11.2859
11.2859
11.2859
11.2859
11.2859
11.2859
11.2859
11.2859
11.2859
11.2859
11.2859
11.2859
11.2859
11.2859
11.2859
11.2859
11.2859
11.2859
11.2859
11.2859
11.2859
11.2859
11.2859
11.2859
11.2859
11.2859
11.2859
11.2859
11.2859
11.2859
11.2859
11.2859
11.2859
11.2859
11.2859
11.2859
11.2859
11.2859
11.2859
11.2859
11.2859
11.2859
11.2859
11.2859
11.2859
11.2859
11.2859
11.2859
11.2859
11.2859
11.2859
11.2859
11.2859
11.2859
11.2859
11.2859
11.2859
11.2859
11.2859
11.2859
11.2859
11.2859
11.2859
11.2859
11.2859
11.2859
11.2859
11.2859
11.2859
11.2859
11.2859
11.2859
11.2859
11.2859
11.2859
11.2859
11.2859
11.2859
11.2859
11.2859
11.2859
11.2859
11.2859
11.2859
11.2859
11.2859
11.2859
11.2859
11.2859
11.2859
11.2859
11.2859
11.2859
11.2859
11.2859
11.2859
11.2859
11.2859
11.2859
11.2859
11.2859
11.2859
11.2859
11.2859
11.2859
11.2859
11.2859
11.2859
11.2859
11.2859
11.2859
11.2859
11.2859
11.2859
11.2859
11.2859
11.2859
11.2859
11.2859
11.2859
11.2859
11.2859
11.2859
11.2859
11.2859
11.2859
11.2859
11.2859
11.2859
11.2859
11.2859
11.2859
11.2859
11.2859
11.2859
11.2859
11.2859
11.2859
11.2859
11.2859
11.2859
11.2859
11.2859
11.2859
11.2859
11.2859
11.2859
11.2859
11.2859
11.2859
11.2859
11.2859
11.2859
11.2859
11.2859
11.2859
11.2859
11.2859
11.2859
11.2859
11.2859
11.2859
11.2859
11.2859
11.2859
11.2859
11.2859
11.2859
11.2859
11.2859
11.2859
11.2859
11.2859
11.2859
11.2859
11.2859
11.2859
11.2859
11.2859
11.2859
11.2859
11.2859
11.2859
11.2859
11.2859
11.2859
11.2859
11.2859
11.2859
11.2859
11.2859
11.2859
11.2859
11.2859
11.2859
11.2859
11.2859
11.2859
11.2859
11.2859
11.2859
11.2859
11.2859
11.2859
11.2859
11.2859
11.2859
11.2859
11.2859
11.2859
11.2859
11.2859
11.2859
11.2859
11.2859
11.2859
11.2859
11.2859
11.2859
11.2859
11.2859
11.2859
11.2859
11.2859
11.2859
11.2859
11.2859
11.2859
11.2859
11.2859
11.2859
11.2859
11.2859
11.2859
11.2859
11.2859
11.2859
11.2859
11.2859
11.2859
11.2859
11.2859
11.2859
11.2859
11.2859
11.2859
11.2859
11.2859
11.2859
11.2859
11.2859
11.2859
11.2859
11.2859
11.2859
11.2859
11.2859
11.2859
11.2859
11.2859
11.2859
11.2859
11.2859
11.2859
11.2859
11.2859
11.2859
11.2859
11.2859
11.2859
11.2859
11.2859
11.2859
11.2859
11.2859
11.2859
11.2859
11.2859
11.2859
11.2859
11.2859
11.2859
11.2859
11.2859
11.2859
11.2859
11.2859
11.2859
11.2859
11.2859
11.2859
11.2859
11.2859
11.2859
11.2859
11.2859
11.2859
11.2859
11.2859
11.2859
11.2859
11.2859
11.2859
11.2859
11.2859
11.2859
11.2859
11.2859
11.2859
11.2859
11.2859
11.2859
11.2859
11.2859
11.2859
11.2859
11.2859
11.2859
11.2859
11.2859
11.2859
11.2859
11.2859
11.2859
11.2859
11.2859
11.2859
11.2859
11.2859
11.2859
11.2859
11.2859
11.2859
11.2859
11.2859
11.2859
11.2859
11.2859
11.2859
11.2859
11.2859
11.2859
11.2859
11.2859
11.2859
11.2859
11.2859
11.2859
11.2859
11.2859
11.2859
11.2859
11.2859
11.2859
11.2859
11.2859
11.2859
11.2859
11.2859
11.2859
11.2859
11.2859
11.2859
11.2859
11.2859
11.2859
11.2859
11.2859
11.2859
11.2859
11.2859
11.2859
11.2859
11.2859
11.2859
11.2859
11.2859
11.2859
11.2859
11.2859
11.2859
11.2859
11.2859
11.2859
11.2859
11.2859
11.2859
11.2859
11.2859
11.2859
11.2859
11.2859
11.2859
11.2859
11.2859
11.2859
11.2859
11.2859
11.2859
11.2859
11.2859
11.2859
11.2859
11.2859
11.2859
11.2859
11.2859
11.2859
11.2859
11.2859
11.2859
11.2859
11.2859
11.2859
11.2859
11.2859
11.2859
11.2859
11.2859
11.2859
11.2859
11.2859
11.2859
11.2859
11.2859
11.2859
11.2859
11.2859
11.2859
11.2859
11.2859
11.2859
11.2859
11.2859
11.2859
11.2859
11.2859
11.2859
11.2859
11.2859
11.2859
11.2859
11.2859
11.2859
11.2859
11.2859
11.2859
11.2859
11.2859
11.2859
11.2859
11.2859
11.2859
11.2859
11.2859
11.2859
11.2859
11.2859
11.2859
11.2859
11.2859
11.2859
11.2859
11.2859
11.2859
11.2859
11.2859
11.2859
11.2859
11.2859
11.2859
11.2859
11.2859
11.2859
11.2859
11.2859
11.2859
11.2859
11.2859
11.2859
11.2859
11.2859
11.2859
11.2859
11.2859
11.2859
11.2859
11.2859
11.2859
11.2859
11.2859
11.2859
11.2859
11.2859
11.2859
11.2859
11.2859
11.2859
11.2859
11.2859
11.2859
11.2859
11.2859
11.2859
11.2859
11.2859
11.2859
11.2859
11.2859
11.2859
11.2859
11.2859
11.2859
11.2859
11.2859
11.2859
11.2859
11.2859
11.2859
11.2859
11.2859
11.2859
11.2859
11.2859
11.2859
11.2859
11.2859
11.2859
11.2859
11.2859
11.2859
11.2859
11.2859
11.2859
11.2859
11.2859
11.2859
11.2859
11.2859
11.2859
11.2859
11.2859
11.2859
11.2859
11.2859
11.2859
11.2859
11.2859
11.2859
11.2859
11.2859
11.2859
11.2859
11.2859
11.2859
11.2859
11.2859
11.2859
11.2859
11.2859
11.2859
11.2859
11.2859
11.2859
11.2859
11.2859
11.2859
11.2859
11.2859
11.2859
11.2859
11.2859
11.2859
11.2859
11.2859
11.2859
11.2859
11.2859
11.2859
11.2859
11.2859
11.2859
11.2859
11.2859
11.2859
11.2859
11.2859
11.2859
11.2859
11.2859
11.2859
11.2859
11.2859
11.2859
11.2859
11.2859
11.2859
11.2859
11.2859
11.2859
11.2859
11.2859
11.2859
11.2859
11.2859
11.2859
11.2859
11.2859
11.2859
11.2859
11.2859
11.2859
11.2859
11.2859
11.2859
11.2859
11.2859
11.2859
11.2859
11.2859
11.2859
11.2859
11.2859
11.2859
11.2859
11.2859
11.2859
11.2859
11.2859
11.2859
11.2859
11.2859
11.2859
11.2859
11.2859
11.2859
11.2859
11.2859
11.2859
11.2859
11.2859
11.2859
11.2859
11.2859
11.2859
11.2859
11.2859
11.2858
11.2858
11.2859
11.2859
11.2859
11.2859
11.2859
11.2859
11.2859
11.2859
11.2859
11.2859
11.2859
11.2859
11.2859
11.2859
11.2859
11.2859
11.2859
11.2859
11.2859
11.2859
11.2859
11.2859
11.2859
11.2859
11.2859
11.2859
11.2859
11.2859
11.2859
11.2859
11.2859
11.2859
11.2859
11.2859
11.2859
11.2859
11.2859
11.2859
11.2859
11.2859
11.2859
11.2859
11.2859
11.2859
11.2859
11.2858
11.2858
11.2858
11.2858
11.2857
11.2859
11.2859
11.2859
11.2859
11.2859
11.2859
11.2859
11.2859
11.2859
11.2859
11.2859
11.2859
11.2859
11.2859
11.2859
11.2859
11.2859
11.2859
11.2859
11.2859
11.2859
11.2859
11.2859
11.2859
11.2859
11.2859
11.2859
11.2859
11.2859
11.2859
11.2859
11.2859
11.2859
11.2859
11.2859
11.2859
11.2859
11.2859
11.2859
11.2859
11.2859
11.2859
11.2858
11.2858
11.2858
11.2858
11.2857
11.2856
11.2855
11.2851
11.2859
11.2859
11.2859
11.2859
11.2859
11.2859
11.2859
11.2859
11.2859
11.2859
11.2859
11.2859
11.2859
11.2859
11.2859
11.2859
11.2859
11.2859
11.2859
11.2859
11.2859
11.2859
11.2859
11.2859
11.2859
11.2859
11.2859
11.2859
11.2859
11.2859
11.2859
11.2859
11.2859
11.2859
11.2859
11.2859
11.2859
11.2859
11.2858
11.2858
11.2858
11.2858
11.2858
11.2857
11.2856
11.2855
11.2852
11.2847
11.2838
11.282
11.2859
11.2859
11.2859
11.2859
11.2859
11.2859
11.2859
11.2859
11.2859
11.2859
11.2859
11.2859
11.2859
11.2859
11.2859
11.2859
11.2859
11.2859
11.2859
11.2859
11.2859
11.2859
11.2859
11.2859
11.2859
11.2859
11.2859
11.2859
11.2859
11.2859
11.2859
11.2859
11.2859
11.2859
11.2859
11.2858
11.2858
11.2858
11.2858
11.2858
11.2857
11.2856
11.2854
11.2852
11.2847
11.2838
11.2823
11.2797
11.2751
11.2665
11.2859
11.2859
11.2859
11.2859
11.2859
11.2859
11.2859
11.2859
11.2859
11.2859
11.2859
11.2859
11.2859
11.2859
11.2859
11.2859
11.2859
11.2859
11.2859
11.2859
11.2859
11.2859
11.2859
11.2859
11.2859
11.2859
11.2859
11.2859
11.2859
11.2859
11.2859
11.2859
11.2858
11.2858
11.2858
11.2858
11.2858
11.2857
11.2856
11.2854
11.2851
11.2846
11.2837
11.2823
11.2797
11.2754
11.2679
11.2549
11.2322
11.191
11.2859
11.2859
11.2859
11.2859
11.2859
11.2859
11.2859
11.2859
11.2859
11.2859
11.2859
11.2859
11.2859
11.2859
11.2859
11.2859
11.2859
11.2859
11.2859
11.2859
11.2859
11.2859
11.2859
11.2859
11.2859
11.2859
11.2859
11.2859
11.2858
11.2858
11.2858
11.2858
11.2858
11.2858
11.2857
11.2856
11.2854
11.2851
11.2845
11.2836
11.2821
11.2796
11.2753
11.2679
11.2554
11.2341
11.1979
11.1366
11.033
10.8567
11.2859
11.2859
11.2859
11.2859
11.2859
11.2859
11.2859
11.2859
11.2859
11.2859
11.2859
11.2859
11.2859
11.2859
11.2859
11.2859
11.2859
11.2859
11.2859
11.2859
11.2859
11.2859
11.2859
11.2859
11.2859
11.2858
11.2858
11.2858
11.2858
11.2858
11.2857
11.2857
11.2855
11.2853
11.285
11.2844
11.2835
11.2819
11.2793
11.2748
11.2674
11.255
11.2341
11.199
11.1405
11.0438
10.8868
10.6399
10.2674
9.73649
11.2859
11.2859
11.2859
11.2859
11.2859
11.2859
11.2859
11.2859
11.2859
11.2859
11.2859
11.2859
11.2859
11.2859
11.2859
11.2859
11.2859
11.2859
11.2859
11.2859
11.2859
11.2858
11.2858
11.2858
11.2858
11.2858
11.2858
11.2857
11.2856
11.2855
11.2852
11.2849
11.2842
11.2832
11.2815
11.2787
11.2741
11.2665
11.2538
11.2327
11.1978
11.1402
11.0462
10.8954
10.6608
10.3116
9.82416
9.19707
8.4587
7.66561
11.2859
11.2859
11.2859
11.2859
11.2859
11.2859
11.2859
11.2859
11.2859
11.2859
11.2859
11.2859
11.2859
11.2859
11.2859
11.2859
11.2859
11.2859
11.2858
11.2858
11.2858
11.2858
11.2858
11.2857
11.2857
11.2856
11.2854
11.2851
11.2847
11.284
11.2828
11.281
11.278
11.273
11.2649
11.2516
11.2298
11.1941
11.136
11.0423
10.8939
10.6653
10.328
9.85982
9.25839
8.55128
7.79061
7.03453
6.32521
5.69058
11.2859
11.2859
11.2859
11.2859
11.2859
11.2859
11.2859
11.2859
11.2859
11.2859
11.2859
11.2859
11.2859
11.2859
11.2858
11.2858
11.2858
11.2858
11.2858
11.2858
11.2857
11.2856
11.2855
11.2853
11.285
11.2845
11.2837
11.2823
11.2802
11.2769
11.2714
11.2626
11.2483
11.2251
11.1877
11.1277
11.0321
10.8826
10.6551
10.3232
9.86632
9.28225
8.59599
7.85569
7.11594
6.42041
5.79376
5.24428
4.76687
4.35795
11.2859
11.2859
11.2859
11.2859
11.2859
11.2859
11.2859
11.2859
11.2859
11.2859
11.2859
11.2858
11.2858
11.2858
11.2858
11.2858
11.2858
11.2857
11.2857
11.2856
11.2854
11.2852
11.2848
11.2842
11.2832
11.2817
11.2792
11.2754
11.2692
11.2593
11.2436
11.2184
11.1783
11.1146
11.0148
10.8608
10.6298
10.2974
9.84508
9.27202
8.60207
7.88007
7.15691
6.47395
5.85557
5.31057
4.8374
4.42914
4.07769
3.77296
3.51123
11.2859
11.2859
11.2859
11.2859
11.2859
11.2859
11.2859
11.2858
11.2858
11.2858
11.2858
11.2858
11.2858
11.2858
11.2857
11.2856
11.2855
11.2853
11.285
11.2845
11.2837
11.2825
11.2807
11.2778
11.2733
11.2661
11.2549
11.2371
11.209
11.1649
11.0959
10.9892
10.8272
10.5881
10.2495
9.79566
9.22802
8.57053
7.86553
7.16017
6.49274
5.88617
5.34917
4.88077
4.47502
4.12425
3.82093
3.55828
3.33099
3.13297
2.96305
11.2859
11.2859
11.2859
11.2859
11.2858
11.2858
11.2858
11.2858
11.2858
11.2858
11.2858
11.2857
11.2856
11.2855
11.2853
11.2851
11.2847
11.2841
11.2831
11.2816
11.2794
11.2759
11.2704
11.2619
11.2487
11.2282
11.1961
11.1465
11.07
10.9535
10.7797
10.5277
10.1774
9.71662
9.14967
8.50153
7.81259
7.12627
6.47722
5.88617
5.36106
4.90111
4.50095
4.15352
3.85181
3.58948
3.36134
3.16306
2.99125
2.84395
2.71895
2.61614
11.2858
11.2858
11.2858
11.2858
11.2858
11.2858
11.2858
11.2857
11.2856
11.2855
11.2854
11.2852
11.2848
11.2843
11.2835
11.2822
11.2804
11.2775
11.2731
11.2664
11.2561
11.2403
11.2159
11.1786
11.1214
11.0347
10.905
10.715
10.4452
10.0782
9.60563
9.03572
8.39489
7.72181
7.05598
6.42802
5.85591
5.34632
4.89834
4.50697
4.1657
3.86801
3.60802
3.38084
3.18237
3.00942
2.85968
2.7318
2.62502
2.53878
2.47124
2.42
11.2858
11.2858
11.2858
11.2857
11.2856
11.2855
11.2854
11.2852
11.2849
11.2844
11.2837
11.2826
11.281
11.2785
11.2748
11.2693
11.2608
11.248
11.2286
11.1991
11.1545
11.0873
10.9871
10.8401
10.6291
10.3363
9.94773
9.45972
8.88462
8.25047
7.594
6.95054
6.34636
5.79632
5.30554
4.8727
4.49306
4.1606
3.86931
3.61378
3.38939
3.19242
3.01979
2.8692
2.73918
2.62896
2.53806
2.46566
2.41012
2.36907
2.33952
2.3182
11.2856
11.2855
11.2854
11.2852
11.2849
11.2844
11.2837
11.2827
11.2813
11.2791
11.2758
11.271
11.2637
11.2529
11.2366
11.2122
11.1757
11.1213
11.0408
10.923
10.7537
10.5164
10.1955
9.78132
9.27556
8.69482
8.06832
7.43034
6.81165
6.23397
5.70888
5.23981
4.82491
4.45962
4.13836
3.85562
3.60646
3.38665
3.19275
3.0219
2.87193
2.74128
2.62912
2.53503
2.45852
2.39853
2.35323
2.32017
2.29671
2.28027
2.26891
2.26064
11.2848
11.2844
11.2837
11.2828
11.2813
11.2793
11.2763
11.2718
11.2653
11.2556
11.2413
11.2202
11.1889
11.1429
11.0754
10.9773
10.8367
10.6392
10.3698
10.0162
9.57382
9.05001
8.4653
7.84916
7.23268
6.64167
6.09321
5.59567
5.1508
4.75622
4.40749
4.09948
3.82719
3.58613
3.37249
3.1831
3.01541
2.86735
2.73743
2.62473
2.52885
2.44947
2.38595
2.33697
2.30051
2.27424
2.2558
2.24302
2.23436
2.22824
2.22439
2.22182
11.2812
11.2792
11.2762
11.272
11.2658
11.2568
11.2436
11.2244
11.1964
11.1556
11.0964
11.0112
10.89
10.7202
10.4882
10.1813
9.79155
9.32038
8.78079
8.19612
7.59479
7.00375
6.44362
5.92698
5.45923
5.0406
4.66825
4.3379
4.04486
3.7846
3.55314
3.34704
3.16347
3.00014
2.85516
2.72714
2.61516
2.51876
2.43775
2.37171
2.31976
2.28037
2.25151
2.23099
2.21671
2.20696
2.20044
2.19609
2.19365
2.19207
2.19228
2.19203
11.2653
11.2565
11.2438
11.2255
11.1992
11.1614
11.1072
11.03
10.9212
10.7699
10.5638
10.2907
9.94179
9.51481
9.01743
8.46734
7.88902
7.3083
6.74721
6.22119
5.73869
5.30252
4.91167
4.563
4.25241
3.97565
3.72872
3.50807
3.31068
3.13404
2.97613
2.83527
2.71019
2.59999
2.50421
2.42267
2.35517
2.30111
2.25935
2.2282
2.20575
2.19002
2.17924
2.17204
2.16725
2.16442
2.16303
2.16266
2.1631
2.16371
2.16497
2.16644
11.1612
11.1093
11.0363
10.9346
10.7945
10.605
10.355
10.0355
9.6428
9.18113
8.66389
8.11161
7.54782
6.99428
6.46773
5.97873
5.53219
5.12884
4.76678
4.4427
4.1528
3.89329
3.66063
3.45174
3.264
3.09522
2.94363
2.80777
2.6865
2.579
2.48482
2.40379
2.33579
2.28047
2.237
2.20404
2.17991
2.16281
2.15101
2.14314
2.13805
2.1349
2.13328
2.1327
2.13345
2.13424
2.13544
2.13725
2.13929
2.14117
2.14331
10.7973
10.6169
10.3807
10.0806
9.71219
9.27825
8.78922
8.2624
7.71869
7.17854
6.65873
6.17078
5.72102
5.31157
4.94165
4.60879
4.30975
4.04104
3.79933
3.58158
3.38514
3.20776
3.04756
2.90302
2.77289
2.65618
2.55217
2.46042
2.38077
2.31317
2.25742
2.21295
2.17869
2.15321
2.13495
2.12226
2.11374
2.10823
2.10484
2.10312
2.10262
2.10303
2.10428
2.10552
2.10739
2.10965
2.11198
2.11431
2.11694
2.11953
2.12201
9.72796
9.31363
8.84697
8.34292
7.81995
7.2967
6.78908
6.30863
5.86229
5.45305
5.08101
4.74444
4.44066
4.16659
3.91915
3.69546
3.49295
3.30937
3.14283
2.99175
2.85482
2.73102
2.61948
2.5196
2.43097
2.35346
2.28706
2.23166
2.18685
2.15185
2.12545
2.10628
2.0928
2.08371
2.0779
2.07435
2.07249
2.07192
2.07222
2.07361
2.07524
2.07707
2.07954
2.08214
2.08466
2.08747
2.09042
2.0933
2.0962
2.09908
2.1018
7.34763
6.85616
6.38847
5.9514
5.54827
5.1797
4.84455
4.54062
4.26524
4.01564
3.78917
3.5834
3.39618
3.22563
3.0702
2.92857
2.79967
2.68263
2.57675
2.48151
2.39658
2.32185
2.25732
2.20294
2.15847
2.12328
2.0964
2.07661
2.06258
2.05306
2.04696
2.04323
2.04131
2.04081
2.0412
2.04246
2.04449
2.04641
2.04887
2.05177
2.05466
2.05751
2.06072
2.06389
2.06707
2.07026
2.07341
2.07652
2.07962
2.08257
5.59416
5.2343
4.90549
4.60593
4.33332
4.08521
3.85921
3.65309
3.46484
3.29269
3.13514
2.99089
2.8589
2.73826
2.6283
2.52844
2.43825
2.35748
2.28603
2.22393
2.17119
2.12764
2.0928
2.06587
2.04583
2.0315
2.02167
2.01534
2.01156
2.00966
2.00919
2.00959
2.01088
2.01299
2.01541
2.01786
2.02099
2.02414
2.0272
2.03055
2.03403
2.03745
2.0409
2.04434
2.04774
2.05112
2.05448
2.05779
2.0611
2.06426
4.36836
4.1253
3.90298
3.6994
3.51275
3.34139
3.18392
3.03911
2.90596
2.78361
2.67136
2.56866
2.47505
2.39022
2.31395
2.24619
2.187
2.1364
2.09428
2.06028
2.03376
2.01381
1.99941
1.98947
1.98307
1.97931
1.9774
1.977
1.97757
1.97901
1.98113
1.98386
1.98651
1.98963
1.99314
1.99655
1.99994
2.00367
2.00738
2.01108
2.01479
2.01847
2.02211
2.02574
2.02934
2.03291
2.03646
2.03997
2.04348
2.04685
3.53808
3.36982
3.21455
3.07117
2.93873
2.81644
2.70362
2.59974
2.50437
2.41716
2.33788
2.26637
2.20263
2.1467
2.09866
2.05841
2.0257
1.99998
1.98046
1.96627
1.95646
1.95009
1.94637
1.94457
1.94432
1.94511
1.94661
1.94886
1.95167
1.95489
1.95797
1.96172
1.96541
1.969
1.97289
1.97689
1.98082
1.98478
1.98873
1.99264
1.99653
2.00039
2.00422
2.00803
2.01181
2.01557
2.01931
2.02302
2.02672
2.03029
2.9557
2.83511
2.72333
2.61982
2.52419
2.43612
2.35536
2.28174
2.21517
2.15566
2.10329
2.05814
2.02014
1.98908
1.96451
1.94575
1.93204
1.92253
1.91635
1.91281
1.91126
1.91113
1.91209
1.91374
1.91623
1.91915
1.92264
1.92596
1.92976
1.93386
1.93777
1.94172
1.94596
1.95015
1.95435
1.95857
1.96274
1.96688
1.971
1.97508
1.97914
1.98318
1.98718
1.99117
1.99513
1.99907
2.003
2.00689
2.01077
2.01453
2.53306
2.44548
2.36461
2.29026
2.22234
2.1608
2.10568
2.05708
2.01507
1.97961
1.95051
1.92741
1.9097
1.8967
1.8877
1.88187
1.8786
1.87732
1.87739
1.8786
1.88061
1.8832
1.88629
1.88991
1.89378
1.89752
1.90188
1.90608
1.91017
1.91462
1.91912
1.92354
1.92799
1.93242
1.93681
1.94118
1.94552
1.94982
1.9541
1.95835
1.96258
1.96678
1.97096
1.97512
1.97925
1.98337
1.98746
1.99152
1.99558
1.99952
2.22247
2.16022
2.10374
2.0531
2.00841
1.96973
1.93703
1.91016
1.88877
1.87234
1.86029
1.85197
1.84666
1.84376
1.84281
1.84316
1.84464
1.84694
1.84969
1.85304
1.85677
1.86105
1.86495
1.86947
1.87406
1.87842
1.88295
1.88768
1.89232
1.89701
1.90171
1.90635
1.91096
1.91554
1.92009
1.92461
1.9291
1.93356
1.938
1.94241
1.9468
1.95117
1.95551
1.95983
1.96413
1.96841
1.97267
1.97689
1.98111
1.98521
1.95766
1.92244
1.89267
1.8682
1.84872
1.83378
1.82286
1.81538
1.81071
1.8083
1.80776
1.8085
1.81025
1.81284
1.81584
1.81946
1.82336
1.82777
1.83216
1.83667
1.84161
1.84625
1.85085
1.85586
1.86081
1.86571
1.87063
1.8755
1.88035
1.88518
1.88997
1.89473
1.89945
1.90415
1.90881
1.91345
1.91807
1.92266
1.92722
1.93176
1.93629
1.94078
1.94526
1.94972
1.95415
1.95856
1.96294
1.9673
1.97156
1.82486
1.80744
1.79415
1.7845
1.77799
1.77408
1.77227
1.77218
1.77334
1.77543
1.77834
1.78171
1.7855
1.78964
1.79427
1.79909
1.80364
1.80875
1.81377
1.81861
1.82375
1.82893
1.834
1.83917
1.84431
1.8494
1.85446
1.85948
1.86446
1.86942
1.87435
1.87924
1.88411
1.88894
1.89375
1.89853
1.90329
1.90803
1.91274
1.91743
1.9221
1.92674
1.93137
1.93597
1.94055
1.9451
1.94962
1.95413
1.95853
1.74534
1.73991
1.73684
1.7357
1.73613
1.73775
1.74022
1.74347
1.74718
1.7512
1.75561
1.76039
1.76549
1.77038
1.77567
1.78101
1.78606
1.79129
1.79673
1.80206
1.80742
1.81279
1.81809
1.82338
1.82864
1.83386
1.83904
1.84418
1.8493
1.85438
1.85944
1.86447
1.86946
1.87444
1.87938
1.8843
1.8892
1.89408
1.89893
1.90376
1.90856
1.91335
1.91811
1.92285
1.92756
1.93225
1.9369
1.94154
1.94608
1.69966
1.70178
1.70466
1.70825
1.71232
1.71661
1.72128
1.72626
1.73157
1.73685
1.74221
1.74782
1.7532
1.75853
1.76423
1.76982
1.77537
1.78095
1.78649
1.792
1.79747
1.80291
1.80831
1.81368
1.81901
1.82431
1.82958
1.83482
1.84003
1.84521
1.85036
1.85549
1.86059
1.86567
1.87072
1.87575
1.88076
1.88574
1.8907
1.89564
1.90055
1.90544
1.91031
1.91515
1.91996
1.92474
1.9295
1.93416
1.67275
1.67716
1.68175
1.68668
1.69191
1.69746
1.70301
1.70857
1.71438
1.72006
1.72561
1.73145
1.73727
1.743
1.74881
1.75459
1.76031
1.766
1.77166
1.77727
1.78285
1.7884
1.79391
1.79939
1.80484
1.81025
1.81564
1.82099
1.82632
1.83163
1.8369
1.84215
1.84738
1.85258
1.85775
1.86291
1.86804
1.87314
1.87823
1.88328
1.88832
1.89333
1.89832
1.90328
1.90821
1.9131
1.91797
1.92273
1.65733
1.66315
1.6689
1.67473
1.68074
1.68667
1.69245
1.69842
1.70447
1.71043
1.71642
1.72241
1.72833
1.73423
1.74011
1.74594
1.75173
1.75748
1.7632
1.76888
1.77453
1.78015
1.78573
1.79129
1.79682
1.80232
1.80779
1.81323
1.81865
1.82404
1.82941
1.83475
1.84006
1.84536
1.85063
1.85587
1.86109
1.86629
1.87147
1.87662
1.88174
1.88683
1.8919
1.89694
1.90193
1.9069
1.91177
1.64069
1.64691
1.65304
1.65906
1.66518
1.67144
1.67762
1.68379
1.68998
1.69611
1.70221
1.70829
1.71432
1.72031
1.72627
1.73219
1.73807
1.74392
1.74974
1.75552
1.76127
1.76699
1.77268
1.77834
1.78398
1.78958
1.79516
1.80071
1.80624
1.81174
1.81722
1.82267
1.8281
1.8335
1.83888
1.84423
1.84956
1.85487
1.86015
1.8654
1.87063
1.87582
1.88099
1.88612
1.89121
1.89628
1.90123
1.63175
1.6382
1.64459
1.65094
1.65732
1.66366
1.66995
1.67622
1.68245
1.68864
1.69479
1.7009
1.70698
1.71303
1.71904
1.72501
1.73095
1.73686
1.74274
1.74859
1.75441
1.7602
1.76596
1.7717
1.7774
1.78308
1.78874
1.79437
1.79997
1.80555
1.81111
1.81664
1.82214
1.82762
1.83308
1.83851
1.84391
1.84929
1.85464
1.85996
1.86525
1.87051
1.87573
1.8809
1.88605
1.89108
1.6179
1.62446
1.63099
1.63747
1.64393
1.65035
1.65673
1.66307
1.66937
1.67564
1.68187
1.68807
1.69423
1.70036
1.70645
1.71251
1.71854
1.72455
1.73052
1.73646
1.74237
1.74825
1.75411
1.75994
1.76574
1.77152
1.77727
1.783
1.7887
1.79437
1.80003
1.80565
1.81125
1.81683
1.82238
1.8279
1.8334
1.83886
1.8443
1.84971
1.85508
1.86042
1.86572
1.87097
1.87619
1.88129
1.6048
1.61143
1.61804
1.6246
1.63112
1.63761
1.64406
1.65047
1.65685
1.66319
1.6695
1.67577
1.68201
1.68822
1.6944
1.70055
1.70666
1.71275
1.71881
1.72484
1.73084
1.73681
1.74276
1.74868
1.75457
1.76044
1.76628
1.7721
1.77789
1.78366
1.7894
1.79511
1.8008
1.80646
1.8121
1.81771
1.82328
1.82883
1.83435
1.83984
1.84529
1.8507
1.85607
1.86138
1.86666
1.87183
1.59227
1.59897
1.60563
1.61226
1.61885
1.6254
1.63191
1.6384
1.64484
1.65126
1.65764
1.66399
1.67031
1.6766
1.68285
1.68908
1.69528
1.70145
1.70759
1.7137
1.71978
1.72584
1.73187
1.73788
1.74386
1.74981
1.75574
1.76164
1.76751
1.77336
1.77918
1.78498
1.79075
1.79649
1.80221
1.80789
1.81355
1.81917
1.82476
1.83032
1.83583
1.84131
1.84674
1.85211
1.85745
1.86266
1.58026
1.58702
1.59374
1.60042
1.60708
1.61369
1.62027
1.62682
1.63334
1.63983
1.64628
1.6527
1.65909
1.66545
1.67179
1.67809
1.68436
1.69061
1.69683
1.70302
1.70918
1.71532
1.72143
1.72751
1.73357
1.7396
1.7456
1.75158
1.75754
1.76346
1.76936
1.77523
1.78108
1.78689
1.79268
1.79843
1.80416
1.80985
1.8155
1.82112
1.82669
1.83222
1.83771
1.84313
1.8485
1.85376
1.56874
1.57555
1.58233
1.58907
1.59578
1.60246
1.60911
1.61572
1.6223
1.62886
1.63538
1.64187
1.64833
1.65476
1.66116
1.66754
1.67388
1.6802
1.68649
1.69276
1.69899
1.70521
1.71139
1.71755
1.72368
1.72978
1.73586
1.74191
1.74793
1.75393
1.7599
1.76584
1.77175
1.77763
1.78348
1.7893
1.79508
1.80083
1.80654
1.81221
1.81784
1.82341
1.82894
1.8344
1.8398
1.84508
1.55768
1.56454
1.57138
1.57818
1.58495
1.59169
1.59839
1.60507
1.61171
1.61833
1.62491
1.63147
1.638
1.64449
1.65096
1.6574
1.66382
1.6702
1.67656
1.6829
1.6892
1.69548
1.70173
1.70796
1.71415
1.72032
1.72647
1.73258
1.73867
1.74473
1.75076
1.75677
1.76274
1.76868
1.77459
1.78046
1.7863
1.7921
1.79785
1.80356
1.80923
1.81484
1.82039
1.82588
1.83131
1.83661
1.55397
1.56086
1.56772
1.57454
1.58134
1.5881
1.59483
1.60154
1.60821
1.61486
1.62147
1.62806
1.63462
1.64115
1.64766
1.65414
1.66058
1.66701
1.6734
1.67977
1.68611
1.69243
1.69871
1.70497
1.7112
1.71741
1.72358
1.72973
1.73585
1.74194
1.74799
1.75402
1.76001
1.76597
1.77189
1.77777
1.78361
1.7894
1.79514
1.80084
1.80648
1.81207
1.81758
1.82302
1.82834
1.54382
1.55075
1.55766
1.56454
1.57139
1.5782
1.58499
1.59175
1.59848
1.60518
1.61186
1.6185
1.62512
1.63171
1.63828
1.64481
1.65132
1.6578
1.66425
1.67068
1.67708
1.68345
1.68979
1.69611
1.70239
1.70865
1.71488
1.72108
1.72725
1.73339
1.73949
1.74556
1.7516
1.75759
1.76355
1.76946
1.77534
1.78116
1.78694
1.79266
1.79833
1.80393
1.80945
1.81491
1.82023
1.53405
1.54103
1.54799
1.55492
1.56181
1.56868
1.57552
1.58233
1.58912
1.59587
1.6026
1.6093
1.61597
1.62261
1.62923
1.63582
1.64238
1.64891
1.65542
1.6619
1.66835
1.67477
1.68117
1.68753
1.69387
1.70018
1.70645
1.7127
1.71891
1.72508
1.73123
1.73733
1.7434
1.74943
1.75542
1.76137
1.76727
1.77313
1.77892
1.78467
1.79035
1.79596
1.80149
1.80694
1.81225
1.53167
1.53868
1.54565
1.55259
1.55951
1.5664
1.57326
1.58009
1.58689
1.59367
1.60042
1.60714
1.61383
1.6205