/*--------------------------------*- C++ -*----------------------------------*\
| =========                 |                                                 |
| \\      /  F ield         | OpenFOAM: The Open Source CFD Toolbox           |
|  \\    /   O peration     | Version:  v1706                                 |
|   \\  /    A nd           | Web:      www.OpenFOAM.com                      |
|    \\/     M anipulation  |                                                 |
\*---------------------------------------------------------------------------*/
FoamFile
{
    version     2.0;
    format      ascii;
    class       volScalarField;
    location    "1.6e-05";
    object      p;
}
// * * * * * * * * * * * * * * * * * * * * * * * * * * * * * * * * * * * * * //

dimensions      [1 -1 -2 0 0 0 0];


internalField   nonuniform List<scalar> 
30038
(
21.9139
21.9139
21.9139
21.9139
21.9139
21.9139
21.9139
21.9139
21.9139
21.9139
21.9139
21.9139
21.9139
21.9139
21.9139
21.9139
21.9139
21.9139
21.9139
21.9139
21.9139
21.9139
21.9139
21.9139
21.9139
21.9139
21.9139
21.9139
21.9139
21.9139
21.9139
21.9139
21.9139
21.9139
21.9139
21.9139
21.9139
21.9139
21.9139
21.9139
21.9139
21.9139
21.9139
21.9139
21.9139
21.9139
21.9139
21.9139
21.9139
21.9139
21.9139
21.9139
21.9139
21.9139
21.9139
21.9139
21.9139
21.9139
21.9139
21.9139
21.9139
21.9139
21.9139
21.9139
21.9139
21.9139
21.9139
21.9139
21.9139
21.9139
21.9139
21.9139
21.9139
21.9139
21.9139
21.9139
21.9139
21.9139
21.9139
21.9139
21.9139
21.9139
21.9139
21.9139
21.9139
21.9139
21.9139
21.9139
21.9139
21.9139
21.9139
21.9139
21.9139
21.9139
21.9139
21.9139
21.9139
21.9139
21.9139
21.9139
21.9139
21.9139
21.9139
21.9139
21.9139
21.9139
21.9139
21.9139
21.9139
21.9139
21.9139
21.9139
21.9139
21.9139
21.9139
21.9139
21.9139
21.9139
21.9139
21.9139
21.9139
21.9139
21.9139
21.9139
21.9139
21.9139
21.9139
21.9139
21.9139
21.9139
21.9139
21.9139
21.9139
21.9139
21.9139
21.9139
21.9139
21.9139
21.9139
21.9139
21.9139
21.9139
21.9139
21.9139
21.9139
21.9139
21.9139
21.9139
21.9139
21.9139
21.9139
21.9139
21.9139
21.9139
21.9139
21.9139
21.9139
21.9139
21.9139
21.9139
21.9139
21.9139
21.9139
21.9139
21.9139
21.9139
21.9139
21.9139
21.9139
21.9139
21.9139
21.9139
21.9139
21.9139
21.9139
21.9139
21.9139
21.9139
21.9139
21.9139
21.9139
21.9139
21.9139
21.9139
21.9139
21.9139
21.9139
21.9139
21.9139
21.9139
21.9139
21.9139
21.9139
21.9139
21.9139
21.9139
21.9139
21.9139
21.9139
21.9139
21.9139
21.9139
21.9139
21.9139
21.9139
21.9139
21.9139
21.9139
21.9139
21.9139
21.9139
21.9139
21.9139
21.9139
21.9139
21.9139
21.9139
21.9139
21.9139
21.9139
21.9139
21.9139
21.9139
21.9139
21.9139
21.9139
21.9139
21.9139
21.9139
21.9139
21.9139
21.9139
21.9139
21.9139
21.9139
21.9139
21.9139
21.9139
21.9139
21.9139
21.9139
21.9139
21.9139
21.9139
21.9139
21.9139
21.9139
21.9139
21.9139
21.9139
21.9139
21.9139
21.9139
21.9139
21.9139
21.9139
21.9139
21.9139
21.9139
21.9139
21.9139
21.9139
21.9139
21.9139
21.9139
21.9139
21.9139
21.9139
21.9139
21.9139
21.9139
21.9139
21.9139
21.9139
21.9139
21.9139
21.9139
21.9139
21.9139
21.9139
21.9139
21.9139
21.9139
21.9139
21.9139
21.9139
21.9139
21.9139
21.9139
21.9139
21.9139
21.9139
21.9139
21.9139
21.9139
21.9139
21.9139
21.9139
21.9139
21.9139
21.9139
21.9139
21.9139
21.9139
21.9139
21.9139
21.9139
21.9139
21.9139
21.9139
21.9139
21.9139
21.9139
21.9139
21.9139
21.9139
21.9139
21.9139
21.9139
21.9139
21.9139
21.9139
21.9139
21.9139
21.9139
21.9139
21.9139
21.9139
21.9139
21.9139
21.9139
21.9139
21.9139
21.9139
21.9139
21.9139
21.9139
21.9139
21.9139
21.9139
21.9139
21.9139
21.9139
21.9139
21.9139
21.9139
21.9139
21.9139
21.9139
21.9139
21.9139
21.9139
21.9139
21.9139
21.9139
21.9139
21.9139
21.9139
21.9139
21.9139
21.9139
21.9139
21.9139
21.9139
21.9139
21.9139
21.9139
21.9139
21.9139
21.9139
21.9139
21.9139
21.9139
21.9139
21.9139
21.9139
21.9139
21.9139
21.9139
21.9139
21.9139
21.9139
21.9139
21.9139
21.9139
21.9139
21.9139
21.9139
21.9139
21.9139
21.9139
21.9139
21.9139
21.9139
21.9139
21.9139
21.9139
21.9139
21.9139
21.9139
21.9139
21.9139
21.9139
21.9139
21.9139
21.9139
21.9139
21.9139
21.9139
21.9139
21.9139
21.9139
21.9139
21.9139
21.9139
21.9139
21.9139
21.9139
21.9139
21.9139
21.9139
21.9139
21.9139
21.9139
21.9139
21.9139
21.9139
21.9139
21.9139
21.9139
21.9139
21.9139
21.9139
21.9139
21.9139
21.9139
21.9139
21.9139
21.9139
21.9139
21.9139
21.9139
21.9139
21.9139
21.9139
21.9139
21.9139
21.9139
21.9139
21.9139
21.9139
21.9139
21.9139
21.9139
21.9139
21.9139
21.9139
21.9139
21.9139
21.9139
21.9139
21.9139
21.9139
21.9139
21.9139
21.9139
21.9139
21.9139
21.9139
21.9139
21.9139
21.9139
21.9139
21.9139
21.9139
21.9139
21.9139
21.9139
21.9139
21.9139
21.9139
21.9139
21.9139
21.9139
21.9139
21.9139
21.9139
21.9139
21.9139
21.9139
21.9139
21.9139
21.9139
21.9139
21.9139
21.9139
21.9139
21.9139
21.9139
21.9139
21.9139
21.9139
21.9139
21.9139
21.9139
21.9139
21.9139
21.9139
21.9139
21.9139
21.9139
21.9139
21.9139
21.9139
21.9139
21.9139
21.9139
21.9139
21.9139
21.9139
21.9139
21.9139
21.9139
21.9139
21.9139
21.9139
21.9139
21.9139
21.9139
21.9139
21.9139
21.9139
21.9139
21.9139
21.9139
21.9139
21.9139
21.9139
21.9139
21.9139
21.9139
21.9139
21.9139
21.9139
21.9139
21.9139
21.9139
21.9139
21.9139
21.9139
21.9139
21.9139
21.9139
21.9139
21.9139
21.9139
21.9139
21.9139
21.9139
21.9139
21.9139
21.9139
21.9139
21.9139
21.9139
21.9139
21.9139
21.9139
21.9139
21.9139
21.9139
21.9139
21.9139
21.9139
21.9139
21.9139
21.9139
21.9139
21.9139
21.9139
21.9139
21.9139
21.9139
21.9139
21.9139
21.9139
21.9139
21.9139
21.9139
21.9139
21.9139
21.9139
21.9139
21.9139
21.9139
21.9139
21.9139
21.9139
21.9139
21.9139
21.9139
21.9139
21.9139
21.9139
21.9139
21.9139
21.9139
21.9139
21.9139
21.9139
21.9139
21.9139
21.9139
21.9139
21.9139
21.9139
21.9139
21.9139
21.9139
21.9139
21.9139
21.9139
21.9139
21.9139
21.9139
21.9139
21.9139
21.9139
21.9139
21.9139
21.9139
21.9139
21.9139
21.9139
21.9139
21.9139
21.9139
21.9139
21.9139
21.9139
21.9139
21.9139
21.9139
21.9139
21.9139
21.9139
21.9139
21.9139
21.9139
21.9139
21.9139
21.9139
21.9139
21.9139
21.9139
21.9139
21.9139
21.9139
21.9139
21.9139
21.9139
21.9139
21.9139
21.9139
21.9139
21.9139
21.9139
21.9139
21.9139
21.9139
21.9139
21.9139
21.9139
21.9139
21.9139
21.9139
21.9139
21.9139
21.9139
21.9139
21.9139
21.9139
21.9139
21.9139
21.9139
21.9139
21.9139
21.9139
21.9139
21.9139
21.9139
21.9139
21.9139
21.9139
21.9139
21.9139
21.9139
21.9139
21.9139
21.9139
21.9139
21.9139
21.9139
21.9139
21.9139
21.9139
21.9139
21.9139
21.9139
21.9139
21.9139
21.9139
21.9139
21.9139
21.9139
21.9139
21.9139
21.9139
21.9139
21.9139
21.9139
21.9139
21.9139
21.9139
21.9139
21.9139
21.9139
21.9139
21.9139
21.9139
21.9139
21.9139
21.9139
21.9139
21.9139
21.9139
21.9139
21.9139
21.9139
21.9139
21.9139
21.9139
21.9139
21.9139
21.9139
21.9139
21.9139
21.9139
21.9139
21.9139
21.9139
21.9139
21.9139
21.9139
21.9139
21.9139
21.9139
21.9139
21.9139
21.9139
21.9139
21.9139
21.9139
21.9139
21.9139
21.9139
21.9139
21.9139
21.9139
21.9139
21.9139
21.9139
21.9139
21.9139
21.9139
21.9139
21.9139
21.9139
21.9139
21.9139
21.9139
21.9139
21.9139
21.9139
21.9139
21.9139
21.9139
21.9139
21.9139
21.9139
21.9139
21.9139
21.9139
21.9139
21.9139
21.9139
21.9139
21.9139
21.9139
21.9139
21.9139
21.9139
21.9139
21.9139
21.9139
21.9139
21.9139
21.9139
21.9139
21.9139
21.9139
21.9139
21.9139
21.9139
21.9139
21.9139
21.9139
21.9139
21.9139
21.9139
21.9139
21.9139
21.9139
21.9139
21.9139
21.9139
21.9139
21.9139
21.9139
21.9139
21.9139
21.9139
21.9139
21.9139
21.9139
21.9139
21.9139
21.9139
21.9139
21.9139
21.9139
21.9139
21.9139
21.9139
21.9139
21.9139
21.9139
21.9139
21.9139
21.9139
21.9139
21.9139
21.9139
21.9139
21.9139
21.9139
21.9139
21.9139
21.9139
21.9139
21.9139
21.9139
21.9139
21.9139
21.9139
21.9139
21.9139
21.9139
21.9139
21.9139
21.9139
21.9139
21.9139
21.9139
21.9139
21.9139
21.9139
21.9139
21.9139
21.9139
21.9139
21.9139
21.9139
21.9139
21.9139
21.9139
21.9139
21.9139
21.9139
21.9139
21.9139
21.9139
21.9139
21.9139
21.9139
21.9139
21.9139
21.9139
21.9139
21.9139
21.9139
21.9139
21.9139
21.9139
21.9139
21.9139
21.9139
21.9139
21.9139
21.9139
21.9139
21.9139
21.9139
21.9139
21.9139
21.9139
21.9139
21.9139
21.9139
21.9139
21.9139
21.9139
21.9139
21.9139
21.9139
21.9139
21.9139
21.9139
21.9139
21.9139
21.9139
21.9139
21.9139
21.9139
21.9139
21.9139
21.9139
21.9139
21.9139
21.9139
21.9139
21.9139
21.9139
21.9139
21.9139
21.9139
21.9139
21.9139
21.9139
21.9139
21.9139
21.9139
21.9139
21.9139
21.9139
21.9139
21.9139
21.9139
21.9139
21.9139
21.9139
21.9139
21.9139
21.9139
21.9139
21.9139
21.9139
21.9139
21.9139
21.9139
21.9139
21.9139
21.9139
21.9139
21.9139
21.9139
21.9139
21.9139
21.9139
21.9139
21.9139
21.9139
21.9139
21.9139
21.9139
21.9139
21.9139
21.9139
21.9139
21.9139
21.9139
21.9139
21.9139
21.9139
21.9139
21.9139
21.9139
21.9139
21.9139
21.9139
21.9139
21.9139
21.9139
21.9139
21.9139
21.9139
21.9139
21.9139
21.9139
21.9139
21.9139
21.9139
21.9139
21.9139
21.9139
21.9139
21.9139
21.9139
21.9139
21.9139
21.9139
21.9139
21.9139
21.9139
21.9139
21.9139
21.9139
21.9139
21.9139
21.9139
21.9139
21.9139
21.9139
21.9139
21.9139
21.9139
21.9139
21.9139
21.9139
21.9139
21.9139
21.9139
21.9139
21.9139
21.9139
21.9139
21.9139
21.9139
21.9139
21.9139
21.9139
21.9139
21.9139
21.9139
21.9139
21.9139
21.9139
21.9139
21.9139
21.9139
21.9139
21.9139
21.9139
21.9139
21.9139
21.9139
21.9139
21.9139
21.9139
21.9139
21.9139
21.9139
21.9139
21.9139
21.9139
21.9139
21.9139
21.9139
21.9139
21.9139
21.9139
21.9139
21.9139
21.9139
21.9139
21.9139
21.9139
21.9139
21.9139
21.9139
21.9139
21.9139
21.9139
21.9139
21.9139
21.9139
21.9139
21.9139
21.9139
21.9139
21.9139
21.9139
21.9139
21.9139
21.9139
21.9139
21.9139
21.9139
21.9139
21.9139
21.9139
21.9139
21.9139
21.9139
21.9139
21.9139
21.9139
21.9139
21.9139
21.9139
21.9139
21.9139
21.9139
21.9139
21.9139
21.9139
21.9139
21.9139
21.9139
21.9139
21.9139
21.9139
21.9139
21.9139
21.9139
21.9139
21.9139
21.9139
21.9139
21.9139
21.9139
21.9139
21.9139
21.9139
21.9139
21.9139
21.9139
21.9139
21.9139
21.9139
21.9139
21.9139
21.9139
21.9139
21.9139
21.9139
21.9139
21.9139
21.9139
21.9139
21.9139
21.9139
21.9139
21.9139
21.9139
21.9139
21.9139
21.9139
21.9139
21.9139
21.9139
21.9139
21.9139
21.9139
21.9139
21.9139
21.9139
21.9139
21.9139
21.9139
21.9139
21.9139
21.9139
21.9139
21.9139
21.9139
21.9139
21.9139
21.9139
21.9139
21.9139
21.9139
21.9139
21.9139
21.9139
21.9139
21.9139
21.9139
21.9139
21.9139
21.9139
21.9139
21.9139
21.9139
21.9139
21.9139
21.9139
21.9139
21.9139
21.9139
21.9139
21.9139
21.9139
21.9139
21.9139
21.9139
21.9139
21.9139
21.9139
21.9139
21.9139
21.9139
21.9139
21.9139
21.9139
21.9139
21.9139
21.9139
21.9139
21.9139
21.9139
21.9139
21.9139
21.9139
21.9139
21.9139
21.9139
21.9139
21.9139
21.9139
21.9139
21.9139
21.9139
21.9139
21.9139
21.9139
21.9139
21.9139
21.9139
21.9139
21.9139
21.9139
21.9139
21.9139
21.9139
21.9139
21.9139
21.9139
21.9139
21.9139
21.9139
21.9139
21.9139
21.9139
21.9139
21.9139
21.9139
21.9139
21.9139
21.9139
21.9139
21.9139
21.9139
21.9139
21.9139
21.9139
21.9139
21.9139
21.9139
21.9139
21.9139
21.9139
21.9139
21.9139
21.9139
21.9139
21.9139
21.9139
21.9139
21.9139
21.9139
21.9139
21.9139
21.9139
21.9139
21.9139
21.9139
21.9139
21.9139
21.9139
21.9139
21.9139
21.9139
21.9139
21.9139
21.9139
21.9139
21.9139
21.9139
21.9139
21.9139
21.9139
21.9139
21.9139
21.9139
21.9139
21.9139
21.9139
21.9139
21.9139
21.9139
21.9139
21.9139
21.9139
21.9139
21.9139
21.9139
21.9139
21.9139
21.9139
21.9139
21.9139
21.9139
21.9139
21.9139
21.9139
21.9139
21.9139
21.9139
21.9139
21.9139
21.9139
21.9139
21.9139
21.9139
21.9139
21.9139
21.9139
21.9139
21.9139
21.9139
21.9139
21.9139
21.9139
21.9139
21.9139
21.9139
21.9139
21.9139
21.9139
21.9139
21.9139
21.9139
21.9139
21.9139
21.9139
21.9139
21.9139
21.9139
21.9139
21.9139
21.9139
21.9139
21.9139
21.9139
21.9139
21.9139
21.9139
21.9139
21.9139
21.9139
21.9139
21.9139
21.9139
21.9139
21.9139
21.9139
21.9139
21.9139
21.9139
21.914
21.914
21.9139
21.9139
21.9139
21.9139
21.9139
21.9139
21.9139
21.9139
21.9139
21.9139
21.9139
21.9139
21.9139
21.9139
21.9139
21.9139
21.9139
21.9139
21.9139
21.9139
21.9139
21.9139
21.9139
21.9139
21.9139
21.9139
21.9139
21.9139
21.9139
21.9139
21.9139
21.9139
21.9139
21.9139
21.9139
21.9139
21.9139
21.9139
21.9139
21.9139
21.9139
21.9139
21.9139
21.9139
21.9139
21.914
21.914
21.9141
21.9142
21.9144
21.9139
21.9139
21.9139
21.9139
21.9139
21.9139
21.9139
21.9139
21.9139
21.9139
21.9139
21.9139
21.9139
21.9139
21.9139
21.9139
21.9139
21.9139
21.9139
21.9139
21.9139
21.9139
21.9139
21.9139
21.9139
21.9139
21.9139
21.9139
21.9139
21.9139
21.9139
21.9139
21.9139
21.9139
21.9139
21.9139
21.9139
21.9139
21.9139
21.9139
21.9139
21.9139
21.914
21.914
21.9141
21.9142
21.9144
21.9148
21.9155
21.9168
21.9139
21.9139
21.9139
21.9139
21.9139
21.9139
21.9139
21.9139
21.9139
21.9139
21.9139
21.9139
21.9139
21.9139
21.9139
21.9139
21.9139
21.9139
21.9139
21.9139
21.9139
21.9139
21.9139
21.9139
21.9139
21.9139
21.9139
21.9139
21.9139
21.9139
21.9139
21.9139
21.9139
21.9139
21.9139
21.9139
21.9139
21.9139
21.9139
21.914
21.914
21.9141
21.9142
21.9144
21.9148
21.9154
21.9166
21.9185
21.9221
21.9287
21.9139
21.9139
21.9139
21.9139
21.9139
21.9139
21.9139
21.9139
21.9139
21.9139
21.9139
21.9139
21.9139
21.9139
21.9139
21.9139
21.9139
21.9139
21.9139
21.9139
21.9139
21.9139
21.9139
21.9139
21.9139
21.9139
21.9139
21.9139
21.9139
21.9139
21.9139
21.9139
21.9139
21.9139
21.9139
21.9139
21.914
21.914
21.9141
21.9142
21.9145
21.9148
21.9155
21.9166
21.9186
21.9219
21.9277
21.9379
21.9558
21.9894
21.9139
21.9139
21.9139
21.9139
21.9139
21.9139
21.9139
21.9139
21.9139
21.9139
21.9139
21.9139
21.9139
21.9139
21.9139
21.9139
21.9139
21.9139
21.9139
21.9139
21.9139
21.9139
21.9139
21.9139
21.9139
21.9139
21.9139
21.9139
21.9139
21.9139
21.9139
21.9139
21.9139
21.914
21.914
21.9141
21.9143
21.9145
21.9149
21.9156
21.9168
21.9187
21.9221
21.9278
21.9377
21.9546
21.9839
22.0346
22.1235
22.2872
21.9139
21.9139
21.9139
21.9139
21.9139
21.9139
21.9139
21.9139
21.9139
21.9139
21.9139
21.9139
21.9139
21.9139
21.9139
21.9139
21.9139
21.9139
21.9139
21.9139
21.9139
21.9139
21.9139
21.9139
21.9139
21.9139
21.9139
21.9139
21.9139
21.914
21.914
21.9141
21.9141
21.9143
21.9146
21.915
21.9157
21.917
21.919
21.9225
21.9283
21.9382
21.9551
21.9837
22.0325
22.116
22.2591
22.5046
22.9283
23.6805
21.9139
21.9139
21.9139
21.9139
21.9139
21.9139
21.9139
21.9139
21.9139
21.9139
21.9139
21.9139
21.9139
21.9139
21.9139
21.9139
21.9139
21.9139
21.9139
21.9139
21.9139
21.9139
21.9139
21.9139
21.9139
21.9139
21.914
21.914
21.9141
21.9142
21.9144
21.9147
21.9152
21.916
21.9173
21.9195
21.9232
21.9293
21.9395
21.9566
21.9854
22.0339
22.1159
22.2544
22.4885
22.8836
23.547
24.6515
26.4694
29.4446
21.9139
21.9139
21.9139
21.9139
21.9139
21.9139
21.9139
21.9139
21.9139
21.9139
21.9139
21.9139
21.9139
21.9139
21.9139
21.9139
21.9139
21.9139
21.9139
21.9139
21.9139
21.9139
21.914
21.914
21.914
21.9141
21.9143
21.9145
21.9148
21.9154
21.9163
21.9177
21.9202
21.9241
21.9307
21.9415
21.9594
21.9892
22.0387
22.1213
22.2592
22.4894
22.873
23.5091
24.5538
26.243
28.9104
32.9921
39.0132
47.6009
21.9139
21.9139
21.9139
21.9139
21.9139
21.9139
21.9139
21.9139
21.9139
21.9139
21.9139
21.9139
21.9139
21.9139
21.9139
21.9139
21.9139
21.9139
21.9139
21.914
21.914
21.9141
21.9142
21.9143
21.9146
21.915
21.9156
21.9167
21.9184
21.9211
21.9255
21.9328
21.9445
21.9638
21.9953
22.0472
22.1327
22.2736
22.5059
22.8883
23.5146
24.5312
26.1565
28.6964
32.545
38.1596
46.0124
56.5418
70.132
87.2718
21.9139
21.9139
21.9139
21.9139
21.9139
21.9139
21.9139
21.9139
21.9139
21.9139
21.9139
21.9139
21.9139
21.9139
21.9139
21.914
21.914
21.914
21.9141
21.9143
21.9145
21.9148
21.9153
21.916
21.9173
21.9193
21.9224
21.9275
21.9356
21.9487
21.9699
22.0043
22.06
22.1507
22.2985
22.539
22.93
23.5624
24.5763
26.178
28.6538
32.3697
37.7484
45.2247
55.1944
67.9841
83.8574
103.066
125.831
152.976
21.9139
21.9139
21.9139
21.9139
21.9139
21.9139
21.9139
21.9139
21.9139
21.9139
21.9139
21.9139
21.914
21.914
21.914
21.9141
21.9142
21.9144
21.9146
21.915
21.9156
21.9166
21.9181
21.9205
21.9242
21.9301
21.9395
21.9545
21.9785
22.0168
22.0783
22.177
22.3359
22.5914
23.0012
23.6557
24.6912
26.3064
28.7724
32.4323
37.6789
44.9144
54.5038
66.7462
81.877
100.096
121.609
146.683
175.799
209.389
249.256
21.9139
21.9139
21.9139
21.9139
21.9139
21.9139
21.9139
21.9139
21.914
21.914
21.914
21.9141
21.9142
21.9143
21.9145
21.9149
21.9154
21.9161
21.9173
21.9192
21.9221
21.9267
21.9338
21.945
21.9625
21.9902
22.0341
22.1036
22.2138
22.389
22.667
23.1073
23.8009
24.8836
26.5489
29.0574
32.7325
37.9403
45.0518
54.4027
66.2676
80.8622
98.3703
118.976
142.909
170.499
202.252
238.684
280.637
328.898
388.819
21.9139
21.9139
21.9139
21.9139
21.9139
21.914
21.914
21.914
21.9141
21.9142
21.9143
21.9145
21.9148
21.9152
21.9159
21.9169
21.9184
21.9208
21.9245
21.9301
21.9389
21.9525
21.9736
22.0065
22.0579
22.1383
22.2645
22.4623
22.7723
23.2567
24.0092
25.1669
26.9214
29.5249
33.2847
38.5415
45.6358
54.8728
66.5003
80.7122
97.6723
117.546
140.53
166.896
197.073
231.603
271.075
316.4
369.289
432.611
508.172
602.846
21.9139
21.914
21.914
21.914
21.9141
21.9142
21.9143
21.9145
21.9147
21.9151
21.9157
21.9166
21.918
21.92
21.9231
21.9279
21.9351
21.9461
21.963
21.9889
22.0289
22.0907
22.1861
22.3339
22.5628
22.9166
23.4619
24.2968
25.5616
27.448
30.2021
34.1159
39.5062
46.6828
55.9193
67.4361
81.4049
97.9712
117.286
139.527
164.938
193.878
226.869
264.457
307.324
356.715
414.792
484.281
567.285
664.388
770.928
886.327
21.9141
21.9142
21.9143
21.9145
21.9147
21.9151
21.9157
21.9165
21.9177
21.9196
21.9224
21.9265
21.9328
21.9422
21.9564
21.9779
22.0106
22.0604
22.1363
22.2523
22.4295
22.7004
23.1136
23.7412
24.6873
26.0974
28.1645
31.1294
35.2696
40.8773
48.2316
57.5738
69.0969
82.9504
99.2633
118.172
139.842
164.491
192.427
224.119
260.097
300.945
347.571
401.691
465.751
542.19
632.165
734.288
843.517
952.87
1052.49
1139.7
21.9148
21.9151
21.9157
21.9165
21.9177
21.9195
21.9221
21.9259
21.9316
21.94
21.9525
21.9713
21.9994
22.0415
22.1049
22.2005
22.3446
22.5621
22.8901
23.3831
24.1206
25.2143
26.8158
29.1203
32.3627
36.8049
42.7135
50.3358
59.8808
71.5136
85.3631
101.543
120.177
141.421
165.474
192.612
223.239
257.882
297.079
341.537
392.566
452.266
523.056
606.678
702.955
808.74
917.842
1022.47
1114.97
1190.68
1247.08
1285.8
21.9179
21.9196
21.9222
21.9258
21.9313
21.9392
21.9508
21.968
21.9933
22.0308
22.0863
22.169
22.292
22.4751
22.7479
23.1533
23.7537
24.6373
25.9246
27.7739
30.3816
33.9755
38.7994
45.0926
53.0695
62.9074
74.7451
88.6928
104.851
123.334
144.289
167.903
194.426
224.213
257.765
295.598
338.313
386.904
443.119
509.218
587.216
677.77
779.128
886.53
993.102
1091.24
1174.93
1240.61
1288.13
1318.34
1335.95
1342.58
21.9318
21.9396
21.9509
21.9674
21.9913
22.0262
22.0774
22.1523
22.2624
22.4242
22.6619
23.011
23.5223
24.2672
25.3441
26.8831
29.0486
32.0362
36.0632
41.3521
48.1126
56.5261
66.7391
78.8661
93.0008
109.233
127.669
148.448
171.751
197.81
226.944
259.614
296.333
337.638
384.311
437.778
500.071
573.26
658.526
755.136
859.707
966.354
1068.01
1157.97
1231.95
1287.84
1326.53
1349.7
1362.19
1365.34
1367.08
1367.42
21.9931
22.0272
22.0765
22.1478
22.2511
22.4008
22.618
22.9327
23.3881
24.0443
24.9837
26.3155
28.179
30.7425
34.1969
38.7445
44.583
51.8902
60.8148
71.475
83.964
98.3623
114.752
133.234
153.944
177.059
202.797
231.452
263.443
299.274
339.445
384.605
435.906
495.139
564.315
644.898
736.872
837.961
943.36
1046.71
1141.29
1221.89
1285.59
1332.01
1362.37
1379.58
1387.04
1388.54
1389.94
1388.74
1384.32
1375.94
22.4012
22.6089
22.906
23.3303
23.9344
24.7893
25.9895
27.655
29.9318
32.988
37.0047
42.1638
48.6341
56.5612
66.0631
77.2329
90.147
104.876
121.498
140.11
160.848
183.883
209.424
237.747
269.232
304.371
343.64
387.61
437.223
494.037
559.939
636.513
724.218
821.609
924.926
1028.52
1126.06
1211.8
1282.26
1335.73
1372.97
1395.74
1407.94
1411.24
1412.05
1412.52
1409.89
1403.7
1394.06
1382.37
1367.94
23.9204
24.7324
25.8592
27.4066
29.5034
32.2981
35.9524
40.631
46.4903
53.6683
62.279
72.4131
84.1435
97.5344
112.651
129.567
148.383
169.23
192.28
217.735
245.856
276.997
311.63
350.217
393.273
441.589
496.515
559.793
633.022
716.953
810.747
911.497
1014.34
1113.41
1202.94
1278.74
1338.52
1382.18
1410.91
1427.21
1434.16
1435.39
1436.26
1434.81
1430.37
1422.66
1411.98
1399.31
1384.86
1369.99
1354.05
29.4027
32.0467
35.4759
39.8383
45.2758
51.9156
59.8647
69.2089
80.0168
92.347
106.256
121.806
139.073
158.157
179.192
202.349
227.824
255.868
286.815
321.116
359.217
401.594
448.931
502.413
563.631
634.14
714.84
805.321
903.338
1004.78
1104.28
1196.26
1276.19
1341.34
1390.62
1424.88
1445.83
1456.8
1459.55
1459.93
1459.88
1456.88
1450.67
1441.49
1430
1416.5
1401.79
1386.62
1371.04
1355.61
1339.55
51.1624
58.6475
67.4148
77.5272
89.0377
101.996
116.456
132.48
150.147
169.559
190.854
214.201
239.793
267.873
298.76
332.882
370.676
412.587
459.227
511.646
571.297
639.655
717.681
805.237
900.577
1000.21
1099.33
1192.67
1275.6
1344.93
1399.06
1438.43
1464.13
1478.35
1484.08
1484.78
1485.01
1483.05
1478.3
1470.59
1460.19
1447.93
1433.85
1418.98
1403.66
1388.08
1372.48
1356.84
1341.48
1325.6
87.4157
99.6445
113.25
128.286
144.817
162.927
182.723
204.345
227.961
253.763
281.986
312.941
347.037
384.699
426.344
472.535
524.22
582.729
649.445
725.325
810.383
903.242
1000.91
1099.11
1192.91
1277.72
1350.16
1408.4
1452.06
1481.96
1499.79
1508.77
1510.47
1510.28
1509.51
1505.9
1499.28
1490.24
1479
1465.8
1451.33
1436.35
1420.94
1405.36
1389.76
1374.16
1358.65
1343.15
1327.93
1312.23
141.908
158.979
177.574
197.808
219.822
243.786
269.889
298.36
329.506
363.724
401.418
442.983
488.95
540.192
597.939
663.471
737.695
820.697
911.342
1007.04
1103.93
1197.49
1283.29
1357.93
1419.22
1466.35
1500.06
1521.52
1532.99
1536.66
1536.65
1536.21
1533.47
1528.03
1520.06
1509.73
1497.63
1483.78
1469.13
1453.96
1438.47
1422.9
1407.3
1391.73
1376.22
1360.75
1345.38
1330.02
1314.92
1299.35
214.988
237.461
261.85
288.34
317.163
348.621
383.103
420.989
462.655
508.609
559.68
617.008
681.766
754.785
836.157
924.89
1018.69
1114.05
1206.85
1292.9
1368.74
1432.16
1482.14
1518.97
1543.38
1557.4
1563.5
1563.97
1563.15
1561.33
1556.88
1549.66
1540.45
1529.26
1516.2
1501.91
1487.09
1471.8
1456.29
1440.72
1425.12
1409.57
1394.06
1378.6
1363.2
1347.86
1332.6
1317.35
1302.34
1286.9
309.319
338.599
370.494
405.383
443.618
485.559
531.705
582.858
640.083
704.442
776.664
856.795
943.917
1035.94
1129.67
1221.3
1306.94
1383.19
1447.92
1499.9
1538.93
1565.95
1582.57
1590.42
1591.84
1591.09
1589.76
1585.96
1579.54
1571.09
1560.65
1548.49
1534.76
1520.3
1505.28
1489.89
1474.37
1458.8
1443.22
1427.68
1412.17
1396.71
1381.31
1365.95
1350.66
1335.41
1320.24
1305.08
1290.16
1274.83
430.806
469.543
511.932
558.474
609.959
667.38
731.681
803.465
882.705
968.496
1058.88
1150.9
1241.05
1325.73
1401.72
1466.93
1520.06
1560.71
1589.75
1608.33
1617.72
1620.62
1620.03
1618.29
1615.28
1609.77
1601.83
1592.21
1580.89
1567.74
1553.55
1538.83
1523.64
1508.24
1492.73
1477.16
1461.6
1446.06
1430.56
1415.1
1399.69
1384.32
1369
1353.72
1338.51
1323.34
1308.25
1293.18
1278.34
1263.11
589.211
641.276
699.176
763.727
835.392
914.041
998.734
1087.59
1177.83
1266.24
1349.5
1424.59
1489.52
1543.06
1584.66
1615.04
1635.05
1646.01
1649.94
1649.66
1647.92
1645.32
1640.31
1632.64
1623.73
1613.06
1600.65
1586.92
1572.58
1557.64
1542.32
1526.87
1511.35
1495.8
1480.26
1464.73
1449.23
1433.77
1418.34
1402.96
1387.62
1372.32
1357.06
1341.86
1326.72
1311.62
1296.61
1281.61
1266.85
1251.73
872.706
950.999
1034.76
1122.15
1210.56
1296.98
1378.38
1452.02
1516.01
1569.23
1611.05
1642.06
1663.1
1675.24
1679.96
1680.13
1678.47
1675.7
1671.26
1664.31
1655.57
1645.47
1633.84
1620.48
1606.35
1591.69
1576.57
1561.25
1545.81
1530.28
1514.73
1499.19
1483.68
1468.18
1452.72
1437.28
1421.88
1406.52
1391.19
1375.9
1360.66
1345.47
1330.33
1315.26
1300.23
1285.3
1270.38
1255.69
1240.67
1162.66
1249.1
1333.28
1412.42
1484.09
1546.52
1598.74
1640.15
1671.22
1692.71
1705.5
1710.85
1711.43
1709.8
1706.72
1702.73
1696.28
1687.66
1678.04
1666.94
1654.09
1640.3
1626.02
1611.09
1595.84
1580.46
1564.99
1549.48
1533.96
1518.43
1502.92
1487.42
1471.95
1456.5
1441.09
1425.7
1410.34
1395.03
1379.75
1364.52
1349.33
1334.2
1319.13
1304.11
1289.16
1274.29
1259.45
1244.84
1229.92
1451.59
1520.79
1581.1
1631.69
1672.13
1702.64
1724.03
1737.04
1742.82
1743.57
1741.92
1738.88
1734.77
1728.72
1720.16
1710.87
1700.25
1687.95
1674.45
1660.4
1645.72
1630.63
1615.38
1599.98
1584.5
1568.98
1553.46
1537.95
1522.44
1506.95
1491.47
1476.01
1460.58
1445.17
1429.79
1414.44
1399.13
1383.85
1368.62
1353.44
1338.31
1323.23
1308.22
1293.27
1278.38
1263.59
1248.82
1234.28
1219.46
1706.99
1736.39
1757.2
1770.02
1775.83
1776.62
1774.91
1771.85
1767.47
1761.68
1753.52
1744.13
1733.82
1722.12
1708.81
1694.98
1680.58
1665.65
1650.51
1635.2
1619.77
1604.3
1588.8
1573.28
1557.77
1542.26
1526.76
1511.28
1495.81
1480.36
1464.93
1449.52
1434.14
1418.79
1403.48
1388.2
1372.97
1357.79
1342.65
1327.58
1312.56
1297.6
1282.71
1267.89
1253.17
1238.48
1224.01
1209.28
1804.46
1809.96
1810.65
1808.75
1805.58
1800.93
1795.17
1787.31
1777.87
1767.74
1756.39
1743.39
1729.75
1715.69
1700.91
1685.86
1670.66
1655.3
1639.88
1624.41
1608.91
1593.41
1577.9
1562.38
1546.88
1531.38
1515.9
1500.43
1484.98
1469.55
1454.13
1438.75
1423.4
1408.08
1392.8
1377.56
1362.37
1347.23
1332.15
1317.12
1302.16
1287.26
1272.43
1257.68
1243.02
1228.4
1214
1199.37
1840.11
1835.19
1829.24
1821.6
1812.09
1802.03
1790.94
1778.3
1764.8
1750.95
1736.37
1721.43
1706.37
1691.09
1675.72
1660.29
1644.82
1629.33
1613.83
1598.32
1582.81
1567.3
1551.79
1536.29
1520.8
1505.32
1489.86
1474.42
1459.01
1443.62
1428.25
1412.93
1397.64
1382.39
1367.19
1352.04
1336.95
1321.91
1306.93
1292.02
1277.18
1262.42
1247.73
1233.14
1218.59
1204.26
1189.72
1856.42
1846.83
1836.76
1825.84
1813.53
1800.13
1786.42
1772.08
1757.26
1742.31
1727.13
1711.82
1696.45
1681.02
1665.56
1650.07
1634.57
1619.06
1603.54
1588.02
1572.5
1556.99
1541.48
1525.97
1510.48
1495.01
1479.56
1464.13
1448.73
1433.36
1418.02
1402.72
1387.46
1372.25
1357.08
1341.97
1326.92
1311.93
1297
1282.15
1267.36
1252.66
1238.03
1223.5
1209.03
1194.77
1180.32
1849.07
1835.77
1822.16
1808.05
1793.34
1778.48
1763.43
1748.18
1732.88
1717.5
1702.07
1686.61
1671.13
1655.62
1640.11
1624.58
1609.05
1593.52
1577.99
1562.46
1546.93
1531.41
1515.91
1500.42
1484.95
1469.5
1454.09
1438.7
1423.35
1408.03
1392.76
1377.53
1362.35
1347.22
1332.15
1317.14
1302.2
1287.32
1272.51
1257.79
1243.14
1228.57
1214.12
1199.71
1185.52
1171.15
1844.29
1829.7
1814.91
1799.97
1784.81
1769.56
1754.25
1738.86
1723.44
1707.99
1692.5
1677
1661.48
1645.94
1630.4
1614.85
1599.3
1583.74
1568.19
1552.64
1537.11
1521.58
1506.08
1490.59
1475.12
1459.69
1444.28
1428.91
1413.58
1398.28
1383.03
1367.84
1352.69
1337.6
1322.57
1307.6
1292.7
1277.87
1263.12
1248.45
1233.86
1219.36
1204.96
1190.63
1176.5
1162.22
1836.78
1821.7
1806.51
1791.27
1775.93
1760.55
1745.14
1729.68
1714.2
1698.69
1683.16
1667.62
1652.06
1636.49
1620.92
1605.34
1589.76
1574.19
1558.62
1543.06
1527.51
1511.98
1496.47
1480.99
1465.53
1450.1
1434.71
1419.35
1404.04
1388.77
1373.55
1358.38
1343.26
1328.21
1313.22
1298.29
1283.44
1268.66
1253.96
1239.34
1224.81
1210.36
1196.03
1181.77
1167.71
1153.52
1828.56
1813.28
1797.95
1782.58
1767.15
1751.7
1736.22
1720.7
1705.17
1689.62
1674.04
1658.46
1642.86
1627.26
1611.65
1596.05
1580.44
1564.85
1549.26
1533.69
1518.13
1502.6
1487.09
1471.6
1456.15
1440.73
1425.35
1410.01
1394.72
1379.47
1364.28
1349.14
1334.06
1319.04
1304.09
1289.2
1274.39
1259.66
1245.01
1230.44
1215.97
1201.59
1187.33
1173.13
1159.15
1145.04
1820.3
1804.92
1789.5
1774.04
1758.56
1743.04
1727.49
1711.93
1696.34
1680.74
1665.12
1649.49
1633.86
1618.22
1602.59
1586.95
1571.33
1555.71
1540.11
1524.53
1508.97
1493.43
1477.92
1462.44
1446.99
1431.58
1416.22
1400.89
1385.62
1370.4
1355.23
1340.12
1325.07
1310.09
1295.17
1280.33
1265.57
1250.88
1236.28
1221.77
1207.36
1193.04
1178.84
1164.72
1150.81
1136.78
1812.18
1796.72
1781.22
1765.7
1750.14
1734.56
1718.96
1703.34
1687.7
1672.05
1656.39
1640.72
1625.05
1609.38
1593.71
1578.05
1562.41
1546.78
1531.16
1515.57
1500
1484.46
1468.95
1453.47
1438.04
1422.64
1407.29
1391.98
1376.73
1361.53
1346.39
1331.31
1316.29
1301.34
1286.47
1271.67
1256.95
1242.31
1227.77
1213.31
1198.96
1184.7
1170.56
1156.51
1142.65
1128.71
1804.21
1788.68
1773.11
1757.52
1741.9
1726.26
1710.6
1694.92
1679.23
1663.53
1647.83
1632.12
1616.42
1600.72
1585.03
1569.35
1553.68
1538.03
1522.41
1506.81
1491.23
1475.69
1460.18
1444.71
1429.28
1413.9
1398.56
1383.27
1368.04
1352.86
1337.75
1322.7
1307.72
1292.81
1277.97
1263.22
1248.54
1233.96
1219.46
1205.06
1190.76
1176.55
1162.47
1148.48
1134.69
1120.83
1780.8
1765.16
1749.5
1733.82
1718.11
1702.4
1686.67
1670.93
1655.19
1639.45
1623.71
1607.97
1592.24
1576.52
1560.82
1545.14
1529.48
1513.84
1498.23
1482.65
1467.11
1451.61
1436.14
1420.72
1405.35
1390.03
1374.76
1359.55
1344.4
1329.31
1314.3
1299.35
1284.48
1269.68
1254.97
1240.33
1225.79
1211.34
1196.98
1182.73
1168.58
1154.56
1140.64
1126.92
1113.14
1773.07
1757.36
1741.63
1725.89
1710.13
1694.36
1678.58
1662.8
1647.02
1631.23
1615.46
1599.69
1583.94
1568.2
1552.48
1536.78
1521.1
1505.46
1489.84
1474.26
1458.72
1443.22
1427.76
1412.35
1396.99
1381.69
1366.44
1351.26
1336.13
1321.08
1306.09
1291.18
1276.34
1261.57
1246.89
1232.3
1217.8
1203.39
1189.09
1174.89
1160.81
1146.85
1132.99
1119.34
1105.64
1765.47
1749.7
1733.91
1718.11
1702.29
1686.47
1670.65
1654.82
1639
1623.19
1607.38
1591.58
1575.8
1560.04
1544.3
1528.59
1512.9
1497.25
1481.63
1466.05
1450.51
1435.02
1419.57
1404.17
1388.83
1373.55
1358.32
1343.16
1328.06
1313.02
1298.06
1283.17
1268.36
1253.63
1238.99
1224.44
1209.99
1195.63
1181.38
1167.24
1153.21
1139.32
1125.53
1111.94
1098.33
1742.18
1726.33
1710.47
1694.61
1678.74
1662.87
1647.01
1631.15
1615.3
1599.46
1583.64
1567.84
1552.06
1536.3
1520.58
1504.88
1489.22
1473.6