/*--------------------------------*- C++ -*----------------------------------*\
| =========                 |                                                 |
| \\      /  F ield         | OpenFOAM: The Open Source CFD Toolbox           |
|  \\    /   O peration     | Version:  v1706                                 |
|   \\  /    A nd           | Web:      www.OpenFOAM.com                      |
|    \\/     M anipulation  |                                                 |
\*---------------------------------------------------------------------------*/
FoamFile
{
    version     2.0;
    format      ascii;
    class       volScalarField;
    location    "1.6e-05";
    object      Tov;
}
// * * * * * * * * * * * * * * * * * * * * * * * * * * * * * * * * * * * * * //

dimensions      [0 0 0 1 0 0 0];


internalField   nonuniform List<scalar> 
30038
(
144.4
144.4
144.4
144.4
144.4
144.4
144.4
144.4
144.4
144.4
144.4
144.4
144.4
144.4
144.4
144.4
144.4
144.4
144.4
144.4
144.4
144.4
144.4
144.4
144.4
144.4
144.4
144.4
144.4
144.4
144.4
144.4
144.4
144.4
144.4
144.4
144.4
144.4
144.4
144.4
144.4
144.4
144.4
144.4
144.4
144.4
144.4
144.4
144.4
144.4
144.4
144.4
144.4
144.4
144.4
144.4
144.4
144.4
144.4
144.4
144.4
144.4
144.4
144.4
144.4
144.4
144.4
144.4
144.4
144.4
144.4
144.4
144.4
144.4
144.4
144.4
144.4
144.4
144.4
144.4
144.4
144.4
144.4
144.4
144.4
144.4
144.4
144.4
144.4
144.4
144.4
144.4
144.4
144.4
144.4
144.4
144.4
144.4
144.4
144.4
144.4
144.4
144.4
144.4
144.4
144.4
144.4
144.4
144.4
144.4
144.4
144.4
144.4
144.4
144.4
144.4
144.4
144.4
144.4
144.4
144.4
144.4
144.4
144.4
144.4
144.4
144.4
144.4
144.4
144.4
144.4
144.4
144.4
144.4
144.4
144.4
144.4
144.4
144.4
144.4
144.4
144.4
144.4
144.4
144.4
144.4
144.4
144.4
144.4
144.4
144.4
144.4
144.4
144.4
144.4
144.4
144.4
144.4
144.4
144.4
144.4
144.4
144.4
144.4
144.4
144.4
144.4
144.4
144.4
144.4
144.4
144.4
144.4
144.4
144.4
144.4
144.4
144.4
144.4
144.4
144.4
144.4
144.4
144.4
144.4
144.4
144.4
144.4
144.4
144.4
144.4
144.4
144.4
144.4
144.4
144.4
144.4
144.4
144.4
144.4
144.4
144.4
144.4
144.4
144.4
144.4
144.4
144.4
144.4
144.4
144.4
144.4
144.4
144.4
144.4
144.4
144.4
144.4
144.4
144.4
144.4
144.4
144.4
144.4
144.4
144.4
144.4
144.4
144.4
144.4
144.4
144.4
144.4
144.4
144.4
144.4
144.4
144.4
144.4
144.4
144.4
144.4
144.4
144.4
144.4
144.4
144.4
144.4
144.4
144.4
144.4
144.4
144.4
144.4
144.4
144.4
144.4
144.4
144.4
144.4
144.4
144.4
144.4
144.4
144.4
144.4
144.4
144.4
144.4
144.4
144.4
144.4
144.4
144.4
144.4
144.4
144.4
144.4
144.4
144.4
144.4
144.4
144.4
144.4
144.4
144.4
144.4
144.4
144.4
144.4
144.4
144.4
144.4
144.4
144.4
144.4
144.4
144.4
144.4
144.4
144.4
144.4
144.4
144.4
144.4
144.4
144.4
144.4
144.4
144.4
144.4
144.4
144.4
144.4
144.4
144.4
144.4
144.4
144.4
144.4
144.4
144.4
144.4
144.4
144.4
144.4
144.4
144.4
144.4
144.4
144.4
144.4
144.4
144.4
144.4
144.4
144.4
144.4
144.4
144.4
144.4
144.4
144.4
144.4
144.4
144.4
144.4
144.4
144.4
144.4
144.4
144.4
144.4
144.4
144.4
144.4
144.4
144.4
144.4
144.4
144.4
144.4
144.4
144.4
144.4
144.4
144.4
144.4
144.4
144.4
144.4
144.4
144.4
144.4
144.4
144.4
144.4
144.4
144.4
144.4
144.4
144.4
144.4
144.4
144.4
144.4
144.4
144.4
144.4
144.4
144.4
144.4
144.4
144.4
144.4
144.4
144.4
144.4
144.4
144.4
144.4
144.4
144.4
144.4
144.4
144.4
144.4
144.4
144.4
144.4
144.4
144.4
144.4
144.4
144.4
144.4
144.4
144.4
144.4
144.4
144.4
144.4
144.4
144.4
144.4
144.4
144.4
144.4
144.4
144.4
144.4
144.4
144.4
144.4
144.4
144.4
144.4
144.4
144.4
144.4
144.4
144.4
144.4
144.4
144.4
144.4
144.4
144.4
144.4
144.4
144.4
144.4
144.4
144.4
144.4
144.4
144.4
144.4
144.4
144.4
144.4
144.4
144.4
144.4
144.4
144.4
144.4
144.4
144.4
144.4
144.4
144.4
144.4
144.4
144.4
144.4
144.4
144.4
144.4
144.4
144.4
144.4
144.4
144.4
144.4
144.4
144.4
144.4
144.4
144.4
144.4
144.4
144.4
144.4
144.4
144.4
144.4
144.4
144.4
144.4
144.4
144.4
144.4
144.4
144.4
144.4
144.4
144.4
144.4
144.4
144.4
144.4
144.4
144.4
144.4
144.4
144.4
144.4
144.4
144.4
144.4
144.4
144.4
144.4
144.4
144.4
144.4
144.4
144.4
144.4
144.4
144.4
144.4
144.4
144.4
144.4
144.4
144.4
144.4
144.4
144.4
144.4
144.4
144.4
144.4
144.4
144.4
144.4
144.4
144.4
144.4
144.4
144.4
144.4
144.4
144.4
144.4
144.4
144.4
144.4
144.4
144.4
144.4
144.4
144.4
144.4
144.4
144.4
144.4
144.4
144.4
144.4
144.4
144.4
144.4
144.4
144.4
144.4
144.4
144.4
144.4
144.4
144.4
144.4
144.4
144.4
144.4
144.4
144.4
144.4
144.4
144.4
144.4
144.4
144.4
144.4
144.4
144.4
144.4
144.4
144.4
144.4
144.4
144.4
144.4
144.4
144.4
144.4
144.4
144.4
144.4
144.4
144.4
144.4
144.4
144.4
144.4
144.4
144.4
144.4
144.4
144.4
144.4
144.4
144.4
144.4
144.4
144.4
144.4
144.4
144.4
144.4
144.4
144.4
144.4
144.4
144.4
144.4
144.4
144.4
144.4
144.4
144.4
144.4
144.4
144.4
144.4
144.4
144.4
144.4
144.4
144.4
144.4
144.4
144.4
144.4
144.4
144.4
144.4
144.4
144.4
144.4
144.4
144.4
144.4
144.4
144.4
144.4
144.4
144.4
144.4
144.4
144.4
144.4
144.4
144.4
144.4
144.4
144.4
144.4
144.4
144.4
144.4
144.4
144.4
144.4
144.4
144.4
144.4
144.4
144.4
144.4
144.4
144.4
144.4
144.4
144.4
144.4
144.4
144.4
144.4
144.4
144.4
144.4
144.4
144.4
144.4
144.4
144.4
144.4
144.4
144.4
144.4
144.4
144.4
144.4
144.4
144.4
144.4
144.4
144.4
144.4
144.4
144.4
144.4
144.4
144.4
144.4
144.4
144.4
144.4
144.4
144.4
144.4
144.4
144.4
144.4
144.4
144.4
144.4
144.4
144.4
144.4
144.4
144.4
144.4
144.4
144.4
144.4
144.4
144.4
144.4
144.4
144.4
144.4
144.4
144.4
144.4
144.4
144.4
144.4
144.4
144.4
144.4
144.4
144.4
144.4
144.4
144.4
144.4
144.4
144.4
144.4
144.4
144.4
144.4
144.4
144.4
144.4
144.4
144.4
144.4
144.4
144.4
144.4
144.4
144.4
144.4
144.4
144.4
144.4
144.4
144.4
144.4
144.4
144.4
144.4
144.4
144.4
144.4
144.4
144.4
144.4
144.4
144.4
144.4
144.4
144.4
144.4
144.4
144.4
144.4
144.4
144.4
144.4
144.4
144.4
144.4
144.4
144.4
144.4
144.4
144.4
144.4
144.4
144.4
144.4
144.4
144.4
144.4
144.4
144.4
144.4
144.4
144.4
144.4
144.4
144.4
144.4
144.4
144.4
144.4
144.4
144.4
144.4
144.4
144.4
144.4
144.4
144.4
144.4
144.4
144.4
144.4
144.4
144.4
144.4
144.4
144.4
144.4
144.4
144.4
144.4
144.4
144.4
144.4
144.4
144.4
144.4
144.4
144.4
144.4
144.4
144.4
144.4
144.4
144.4
144.4
144.4
144.4
144.4
144.4
144.4
144.4
144.4
144.4
144.4
144.4
144.4
144.4
144.4
144.4
144.4
144.4
144.4
144.4
144.4
144.4
144.4
144.4
144.4
144.4
144.4
144.4
144.4
144.4
144.4
144.4
144.4
144.4
144.4
144.4
144.4
144.4
144.4
144.4
144.4
144.4
144.4
144.4
144.4
144.4
144.4
144.4
144.4
144.4
144.4
144.4
144.4
144.4
144.4
144.4
144.4
144.4
144.4
144.4
144.4
144.4
144.4
144.4
144.4
144.4
144.4
144.4
144.4
144.4
144.4
144.4
144.4
144.4
144.4
144.4
144.4
144.4
144.4
144.4
144.4
144.4
144.4
144.4
144.4
144.4
144.4
144.4
144.4
144.4
144.4
144.4
144.4
144.4
144.4
144.4
144.4
144.4
144.4
144.4
144.4
144.4
144.4
144.4
144.4
144.4
144.4
144.4
144.4
144.4
144.4
144.4
144.4
144.4
144.4
144.4
144.4
144.4
144.4
144.4
144.4
144.4
144.4
144.4
144.4
144.4
144.4
144.4
144.4
144.4
144.4
144.4
144.4
144.4
144.4
144.4
144.4
144.4
144.4
144.4
144.4
144.4
144.4
144.4
144.4
144.4
144.4
144.4
144.4
144.4
144.4
144.4
144.4
144.4
144.4
144.4
144.4
144.4
144.4
144.4
144.4
144.4
144.4
144.4
144.4
144.4
144.4
144.4
144.4
144.4
144.4
144.4
144.4
144.4
144.4
144.4
144.4
144.4
144.4
144.4
144.4
144.4
144.4
144.4
144.4
144.4
144.4
144.4
144.4
144.4
144.4
144.4
144.4
144.4
144.4
144.4
144.4
144.4
144.4
144.4
144.4
144.4
144.4
144.4
144.4
144.4
144.4
144.4
144.4
144.4
144.4
144.4
144.4
144.4
144.4
144.4
144.4
144.4
144.4
144.4
144.4
144.4
144.4
144.4
144.4
144.4
144.4
144.4
144.4
144.4
144.4
144.4
144.4
144.4
144.4
144.4
144.4
144.4
144.4
144.4
144.4
144.4
144.4
144.4
144.4
144.4
144.4
144.4
144.4
144.4
144.4
144.4
144.4
144.4
144.4
144.4
144.4
144.4
144.4
144.4
144.4
144.4
144.4
144.4
144.4
144.4
144.4
144.4
144.4
144.4
144.4
144.4
144.4
144.4
144.4
144.4
144.4
144.4
144.4
144.4
144.4
144.4
144.4
144.4
144.4
144.4
144.4
144.4
144.4
144.4
144.4
144.4
144.4
144.4
144.4
144.4
144.4
144.4
144.4
144.4
144.4
144.4
144.4
144.4
144.4
144.4
144.4
144.4
144.4
144.4
144.4
144.4
144.4
144.4
144.4
144.4
144.4
144.4
144.4
144.4
144.4
144.4
144.4
144.4
144.4
144.4
144.4
144.4
144.4
144.4
144.4
144.4
144.4
144.4
144.4
144.4
144.4
144.4
144.4
144.4
144.4
144.4
144.4
144.4
144.4
144.4
144.4
144.4
144.4
144.4
144.4
144.4
144.4
144.4
144.4
144.4
144.4
144.4
144.4
144.4
144.4
144.4
144.4
144.4
144.4
144.4
144.4
144.4
144.4
144.4
144.4
144.4
144.4
144.4
144.4
144.4
144.4
144.4
144.4
144.4
144.4
144.4
144.4
144.4
144.4
144.4
144.4
144.4
144.4
144.4
144.4
144.4
144.4
144.4
144.4
144.4
144.4
144.4
144.4
144.4
144.4
144.4
144.4
144.4
144.4
144.4
144.4
144.4
144.4
144.4
144.4
144.4
144.4
144.4
144.4
144.4
144.4
144.4
144.4
144.4
144.4
144.4
144.4
144.4
144.4
144.4
144.4
144.4
144.4
144.4
144.4
144.4
144.4
144.4
144.4
144.4
144.4
144.4
144.4
144.4
144.4
144.4
144.4
144.4
144.4
144.4
144.4
144.4
144.4
144.4
144.4
144.4
144.4
144.4
144.4
144.4
144.4
144.4
144.4
144.4
144.4
144.4
144.4
144.4
144.4
144.4
144.4
144.4
144.4
144.4
144.4
144.4
144.4
144.4
144.4
144.4
144.4
144.4
144.4
144.4
144.4
144.4
144.4
144.4
144.4
144.4
144.4
144.4
144.4
144.4
144.4
144.4
144.4
144.4
144.4
144.4
144.4
144.4
144.4
144.4
144.4
144.4
144.4
144.4
144.4
144.4
144.4
144.4
144.4
144.4
144.4
144.4
144.4
144.4
144.4
144.401
144.4
144.4
144.4
144.4
144.4
144.4
144.4
144.4
144.4
144.4
144.4
144.4
144.4
144.4
144.4
144.4
144.4
144.4
144.4
144.4
144.4
144.4
144.4
144.4
144.4
144.4
144.4
144.4
144.4
144.4
144.4
144.4
144.4
144.4
144.4
144.4
144.4
144.4
144.4
144.4
144.4
144.4
144.4
144.4
144.4
144.4
144.401
144.401
144.402
144.403
144.4
144.4
144.4
144.4
144.4
144.4
144.4
144.4
144.4
144.4
144.4
144.4
144.4
144.4
144.4
144.4
144.4
144.4
144.4
144.4
144.4
144.4
144.4
144.4
144.4
144.4
144.4
144.4
144.4
144.4
144.4
144.4
144.4
144.4
144.4
144.4
144.4
144.4
144.4
144.4
144.4
144.4
144.4
144.401
144.401
144.402
144.403
144.406
144.41
144.418
144.4
144.4
144.4
144.4
144.4
144.4
144.4
144.4
144.4
144.4
144.4
144.4
144.4
144.4
144.4
144.4
144.4
144.4
144.4
144.4
144.4
144.4
144.4
144.4
144.4
144.4
144.4
144.4
144.4
144.4
144.4
144.4
144.4
144.4
144.4
144.4
144.4
144.4
144.4
144.4
144.401
144.401
144.402
144.403
144.406
144.41
144.417
144.429
144.451
144.493
144.4
144.4
144.4
144.4
144.4
144.4
144.4
144.4
144.4
144.4
144.4
144.4
144.4
144.4
144.4
144.4
144.4
144.4
144.4
144.4
144.4
144.4
144.4
144.4
144.4
144.4
144.4
144.4
144.4
144.4
144.4
144.4
144.4
144.4
144.4
144.4
144.4
144.401
144.401
144.402
144.403
144.406
144.41
144.417
144.429
144.45
144.487
144.551
144.663
144.875
144.4
144.4
144.4
144.4
144.4
144.4
144.4
144.4
144.4
144.4
144.4
144.4
144.4
144.4
144.4
144.4
144.4
144.4
144.4
144.4
144.4
144.4
144.4
144.4
144.4
144.4
144.4
144.4
144.4
144.4
144.4
144.4
144.4
144.4
144.401
144.401
144.402
144.404
144.406
144.411
144.418
144.43
144.451
144.488
144.55
144.656
144.841
145.16
145.721
146.751
144.4
144.4
144.4
144.4
144.4
144.4
144.4
144.4
144.4
144.4
144.4
144.4
144.4
144.4
144.4
144.4
144.4
144.4
144.4
144.4
144.4
144.4
144.4
144.4
144.4
144.4
144.4
144.4
144.4
144.4
144.401
144.401
144.402
144.403
144.404
144.407
144.412
144.419
144.432
144.454
144.491
144.553
144.659
144.84
145.147
145.674
146.576
148.124
150.795
155.518
144.4
144.4
144.4
144.4
144.4
144.4
144.4
144.4
144.4
144.4
144.4
144.4
144.4
144.4
144.4
144.4
144.4
144.4
144.4
144.4
144.4
144.4
144.4
144.4
144.4
144.4
144.4
144.401
144.401
144.402
144.403
144.405
144.408
144.413
144.421
144.435
144.458
144.497
144.561
144.669
144.851
145.157
145.674
146.548
148.026
150.516
154.692
161.625
172.979
191.354
144.4
144.4
144.4
144.4
144.4
144.4
144.4
144.4
144.4
144.4
144.4
144.4
144.4
144.4
144.4
144.4
144.4
144.4
144.4
144.4
144.4
144.4
144.4
144.401
144.401
144.401
144.402
144.404
144.406
144.409
144.415
144.424
144.44
144.465
144.506
144.574
144.687
144.875
145.188
145.71
146.58
148.034
150.454
154.461
161.024
171.583
188.125
213.12
249.305
299.29
144.4
144.4
144.4
144.4
144.4
144.4
144.4
144.4
144.4
144.4
144.4
144.4
144.4
144.4
144.4
144.4
144.4
144.4
144.4
144.4
144.401
144.401
144.402
144.403
144.404
144.407
144.411
144.418
144.428
144.445
144.473
144.519
144.593
144.715
144.914
145.242
145.782
146.673
148.14
150.555
154.503
160.894
171.065
186.841
210.466
244.324
290.479
350.191
423.751
510.326
144.4
144.4
144.4
144.4
144.4
144.4
144.4
144.4
144.4
144.4
144.4
144.4
144.4
144.4
144.4
144.4
144.401
144.401
144.401
144.402
144.403
144.405
144.409
144.413
144.421
144.434
144.454
144.486
144.537
144.62
144.754
144.971
145.324
145.897
146.832
148.353
150.822
154.812
161.189
171.22
186.613
209.456
241.97
286.08
342.967
412.776
494.649
586.989
687.903
795.183
144.4
144.4
144.4
144.4
144.4
144.4
144.4
144.4
144.4
144.4
144.4
144.4
144.4
144.401
144.401
144.401
144.402
144.403
144.405
144.407
144.411
144.417
144.426
144.441
144.465
144.503
144.562
144.657
144.808
145.051
145.44
146.065
147.07
148.686
151.277
155.407
161.924
172.043
187.383
209.901
241.662
284.463
339.425
406.729
485.617
574.591
671.71
774.88
882.082
991.441
1100.93
144.4
144.4
144.4
144.4
144.4
144.4
144.4
144.4
144.4
144.4
144.401
144.401
144.402
144.403
144.404
144.406
144.409
144.414
144.422
144.434
144.452
144.481
144.526
144.596
144.708
144.883
145.161
145.601
146.299
147.408
149.168
151.952
156.331
163.146
173.581
189.185
211.8
243.34
285.455
339.171
404.668
481.273
567.638
661.995
762.394
866.854
973.457
1080.23
1185.34
1287.06
1384.07
144.4
144.4
144.4
144.4
144.4
144.4
144.4
144.401
144.401
144.402
144.402
144.404
144.405
144.408
144.412
144.419
144.429
144.444
144.467
144.503
144.558
144.644
144.778
144.986
145.312
145.822
146.621
147.875
149.838
152.902
157.653
164.941
175.931
192.12
215.241
247.058
289.058
342.142
406.441
481.323
565.556
657.528
755.451
857.498
961.893
1066.88
1170.61
1271.36
1367.48
1457.22
1538.43
1609.72
144.4
144.4
144.401
144.401
144.401
144.402
144.402
144.404
144.405
144.408
144.412
144.417
144.426
144.439
144.458
144.488
144.534
144.604
144.711
144.876
145.129
145.521
146.126
147.064
148.514
150.756
154.206
159.478
167.437
179.246
196.354
220.389
252.962
295.379
348.389
412.045
485.72
568.267
658.211
753.919
853.725
955.993
1059.13
1161.48
1261.37
1357.25
1447.53
1530.37
1603.74
1666.04
1716.41
1756.04
144.401
144.402
144.402
144.404
144.405
144.408
144.411
144.416
144.424
144.436
144.454
144.48
144.52
144.579
144.669
144.806
145.013
145.329
145.811
146.547
147.672
149.39
152.009
155.98
161.952
170.82
183.746
202.131
227.499
261.29
304.62
358.065
421.575
494.508
575.777
664.024
757.762
855.469
955.645
1056.84
1157.58
1256.3
1351.54
1441.89
1525.77
1601.35
1666.86
1721.17
1764.14
1796.81
1820.57
1837.85
144.405
144.408
144.411
144.417
144.424
144.435
144.452
144.476
144.512
144.565
144.645
144.764
144.943
145.21
145.613
146.22
147.135
148.516
150.597
153.721
158.387
165.287
175.347
189.732
209.788
236.916
272.376
317.074
371.403
435.198
507.786
588.129
674.972
766.96
862.709
960.856
1060.07
1159.04
1256.34
1350.61
1440.52
1524.72
1601.62
1669.51
1727.06
1773.7
1809.85
1836.77
1856.08
1869.64
1878.85
1885.3
144.425
144.436
144.452
144.476
144.51
144.561
144.634
144.743
144.904
145.142
145.496
146.021
146.803
147.967
149.699
152.271
156.076
161.662
169.775
181.371
197.608
219.761
249.088
286.646
333.122
388.722
453.159
525.732
605.443
691.133
781.567
875.495
971.678
1068.9
1165.99
1261.66
1354.65
1443.71
1527.65
1605.1
1674.5
1734.44
1784.09
1823.44
1853.37
1875.23
1890.67
1901.29
1908.37
1913.07
1915.99
1917.72
144.514
144.563
144.635
144.74
144.892
145.114
145.44
145.916
146.616
147.645
149.156
151.374
154.618
159.336
166.138
175.82
189.365
207.9
232.605
264.566
304.621
353.227
410.407
475.764
548.57
627.872
712.597
801.628
893.837
988.106
1083.34
1178.45
1272.33
1363.78
1451.67
1534.89
1612.26
1682.4
1743.94
1795.88
1837.91
1870.5
1894.79
1912.21
1924.32
1932.43
1937.72
1941.05
1942.78
1943.67
1944.39
1944.53
144.904
145.121
145.435
145.889
146.546
147.499
148.88
150.882
153.774
157.935
163.879
172.277
183.97
199.947
221.275
248.999
284.007
326.899
377.911
436.892
503.356
576.56
655.599
739.49
827.226
917.794
1010.19
1103.41
1196.49
1288.43
1378.15
1464.57
1546.69
1623.47
1693.7
1756.1
1809.61
1853.71
1888.56
1915.02
1934.33
1947.89
1957.11
1963.11
1966.84
1968.89
1969.7
1970.08
1970.08
1969.39
1968.07
1966.36
147.503
148.826
150.716
153.414
157.248
162.664
170.245
180.719
194.954
213.906
238.545
269.741
308.153
354.145
407.741
468.648
536.31
609.99
688.84
771.966
858.464
947.428
1037.96
1129.15
1220.13
1310
1397.78
1482.5
1563.2
1638.96
1708.74
1771.35
1825.76
1871.31
1907.93
1936.21
1957.21
1972.17
1982.45
1989.18
1993.33
1995.74
1996.7
1996.72
1996.55
1995.98
1994.63
1992.71
1990.41
1987.94
1985.45
157.169
162.318
169.443
179.19
192.326
209.707
232.215
260.668
295.727
337.81
387.053
443.298
506.144
574.998
649.146
727.805
810.169
895.432
982.789
1071.43
1160.56
1249.36
1337.04
1422.73
1505.51
1584.52
1658.91
1727.76
1790.04
1844.73
1891.11
1928.97
1958.69
1981.1
1997.29
2008.55
2016.03
2020.62
2023.29
2024.43
2024.33
2023.92
2023.25
2021.89
2019.9
2017.54
2014.83
2011.99
2009.11
2006.3
2003.52
191.739
208.211
229.385
256.01
288.71
327.911
373.799
426.307
485.141
549.829
619.771
694.296
772.692
854.241
938.227
1023.94
1110.65
1197.64
1284.18
1369.56
1452.99
1533.64
1610.7
1683.4
1750.94
1812.38
1866.79
1913.45
1952.03
1982.74
2006.22
2023.44
2035.57
2043.7
2048.72
2051.61
2052.96
2052.82
2052.16
2051.24
2049.88
2047.84
2045.36
2042.52
2039.43
2036.26
2033.11
2029.97
2026.83
2023.74
2020.7
323.784
367.245
416.904
472.542
533.774
600.099
670.939
745.677
823.676
904.302
986.922
1070.9
1155.6
1240.38
1324.56
1407.52
1488.53
1566.85
1641.73
1712.47
1778.35
1838.54
1892.19
1938.6
1977.38
2008.61
2032.82
2050.81
2063.61
2072.27
2077.69
2080.81
2082.24
2082.13
2081.31
2080.09
2078.56
2076.49
2073.87
2070.92
2067.64
2064.22
2060.76
2057.31
2053.87
2050.44
2047.04
2043.63
2040.27
2036.93
526.295
589.614
657.277
728.747
803.47
880.884
960.431
1041.56
1123.7
1206.28
1288.72
1370.44
1450.84
1529.29
1605.09
1677.58
1746.11
1810.03
1868.6
1921.06
1966.73
2005.23
2036.55
2061.09
2079.53
2092.8
2101.88
2107.6
2110.87
2112.35
2112.28
2111.34
2109.79
2107.99
2105.87
2103.12
2099.99
2096.59
2092.91
2089.17
2085.43
2081.7
2077.97
2074.26
2070.56
2066.87
2063.19
2059.51
2055.85
2052.21
793.365
867.796
944.394
1022.67
1102.13
1182.29
1262.62
1342.61
1421.73
1499.44
1575.16
1648.28
1718.17
1784.25
1845.93
1902.56
1953.44
1997.96
2035.73
2066.72
2091.2
2109.79
2123.3
2132.6
2138.48
2141.85
2143.36
2143.24
2142.19
2140.41
2138.27
2135.95
2133.1
2129.79
2126.21
2122.34
2118.33
2114.3
2110.27
2106.25
2102.23
2098.25
2094.27
2090.3
2086.33
2082.36
2078.39
2074.42
2070.46
2066.51
1091
1168.61
1246.61
1324.54
1401.93
1478.3
1553.17
1626.01
1696.26
1763.36
1826.77
1885.97
1940.37
1989.34
2032.32
2068.97
2099.21
2123.28
2141.69
2155.17
2164.49
2170.43
2173.83
2175.23
2175.01
2173.9
2171.89
2169.39
2166.77
2163.84
2160.31
2156.52
2152.5
2148.23
2143.9
2139.58
2135.27
2130.96
2126.67
2122.4
2118.14
2113.89
2109.65
2105.4
2101.15
2096.9
2092.64
2088.37
2084.11
2079.86
1391.89
1466.51
1539.98
1611.86
1681.66
1748.87
1812.98
1873.52
1930.01
1981.91
2028.68
2069.79
2104.95
2134.09
2157.39
2175.32
2188.5
2197.64
2203.49
2206.77
2208.02
2207.7
2206.43
2204.14
2201.34
2198.43
2195.26
2191.56
2187.53
2183.32
2178.83
2174.22
2169.61
2165.01
2160.4
2155.81
2151.25
2146.7
2142.17
2137.64
2133.12
2128.6
2124.08
2119.56
2115.02
2110.48
2105.93
2101.37
2096.81
2092.25
1675.28
1741.87
1805.86
1866.82
1924.29
1977.85
2027.03
2071.31
2110.26
2143.62
2171.33
2193.54
2210.7
2223.35
2232.09
2237.67
2240.74
2241.76
2241.25
2239.76
2237.26
2234.16
2230.86
2227.38
2223.56
2219.29
2214.82
2210.14
2205.26
2200.35
2195.45
2190.55
2185.67
2180.81
2175.97
2171.15
2166.34
2161.54
2156.75
2151.96
2147.16
2142.37
2137.57
2132.76
2127.94
2123.11
2118.27
2113.41
2108.55
2103.68
1924.6
1978.82
2029.26
2075.49
2117.05
2153.59
2184.87
2210.85
2231.7
2247.82
2259.71
2267.86
2273.02
2275.75
2276.42
2275.67
2273.91
2271.16
2267.73
2264.09
2260.29
2256.23
2251.71
2246.98
2242.12
2236.99
2231.78
2226.6
2221.41
2216.21
2211.05
2205.93
2200.81
2195.72
2190.64
2185.57
2180.51
2175.45
2170.39
2165.33
2160.27
2155.19
2150.11
2145.02
2139.92
2134.79
2129.66
2124.5
2119.35
2114.18
2165.67
2199.55
2228.51
2252.53
2271.78
2286.63
2297.52
2304.9
2309.51
2311.79
2312
2310.97
2308.89
2305.82
2302.06
2298.1
2293.95
2289.57
2284.86
2279.85
2274.71
2269.36
2263.87
2258.39
2252.92
2247.45
2241.99
2236.57
2231.16
2225.77
2220.41
2215.06
2209.73
2204.4
2199.07
2193.75
2188.43
2183.1
2177.77
2172.43
2167.08
2161.72
2156.34
2150.95
2145.54
2140.11
2134.66
2129.21
2123.74
2296.19
2313.64
2327.02
2336.72
2343.22
2347.1
2348.77
2348.5
2347.12
2344.65
2341.23
2337.17
2332.84
2328.31
2323.61
2318.69
2313.39
2307.95
2302.39
2296.64
2290.85
2285.1
2279.33
2273.57
2267.85
2262.16
2256.49
2250.85
2245.22
2239.6
2233.99
2228.4
2222.82
2217.23
2211.65
2206.07
2200.48
2194.88
2189.28
2183.66
2178.04
2172.39
2166.73
2161.05
2155.35
2149.64
2143.89
2138.15
2132.38
2377.21
2382.69
2385.73
2386.66
2385.94
2384.06
2381.14
2377.35
2372.97
2368.27
2363.38
2358.34
2353.11
2347.56
2341.83
2336.03
2330.03
2323.94
2317.89
2311.85
2305.79
2299.79
2293.81
2287.84
2281.91
2276
2270.11
2264.23
2258.37
2252.52
2246.67
2240.83
2234.99
2229.15
2223.31
2217.46
2211.6
2205.74
2199.86
2193.97
2188.06
2182.14
2176.2
2170.23
2164.24
2158.24
2152.21
2146.17
2140.1
2424.18
2421.74
2418.34
2414.17
2409.42
2404.34
2399.09
2393.7
2388.15
2382.35
2376.33
2370.23
2363.99
2357.62
2351.29
2344.97
2338.63
2332.33
2326.06
2319.81
2313.59
2307.41
2301.23
2295.08
2288.95
2282.83
2276.72
2270.62
2264.53
2258.43
2252.34
2246.25
2240.15
2234.05
2227.93
2221.81
2215.67
2209.52
2203.36
2197.17
2190.97
2184.74
2178.49
2172.22
2165.93
2159.61
2153.28
2146.92
2451.61
2446.49
2441.02
2435.41
2429.68
2423.8
2417.71
2411.41
2405.01
2398.52
2391.89
2385.25
2378.66
2372.04
2365.44
2358.9
2352.37
2345.87
2339.4
2332.96
2326.53
2320.13
2313.74
2307.37
2301
2294.65
2288.31
2281.97
2275.63
2269.28
2262.94
2256.59
2250.24
2243.87
2237.49
2231.1
2224.7
2218.28
2211.83
2205.37
2198.89
2192.38
2185.85
2179.3
2172.72
2166.11
2159.5
2152.84
2466.22
2460
2453.6
2447.04
2440.34
2433.58
2426.69
2419.76
2412.89
2406.01
2399.12
2392.29
2385.5
2378.71
2371.97
2365.25
2358.55
2351.88
2345.23
2338.59
2331.97
2325.36
2318.76
2312.16
2305.58
2298.99
2292.41
2285.82
2279.23
2272.63
2266.03
2259.41
2252.79
2246.15
2239.49
2232.81
2226.12
2219.41
2212.67
2205.91
2199.12
2192.31
2185.47
2178.61
2171.73
2164.83
2157.89
2483.16
2476.17
2469.13
2461.99
2454.79
2447.63
2440.49
2433.33
2426.22
2419.15
2412.09
2405.07
2398.08
2391.12
2384.18
2377.26
2370.36
2363.48
2356.62
2349.76
2342.92
2336.08
2329.25
2322.43
2315.6
2308.78
2301.95
2295.12
2288.28
2281.43
2274.57
2267.69
2260.8
2253.9
2246.98
2240.03
2233.07
2226.08
2219.07
2212.03
2204.97
2197.88
2190.77
2183.63
2176.47
2169.29
2162.07
2490.28
2482.84
2475.44
2468.02
2460.63
2453.3
2445.97
2438.68
2431.43
2424.2
2416.99
2409.82
2402.66
2395.52
2388.4
2381.3
2374.21
2367.13
2360.05
2352.98
2345.92
2338.86
2331.8
2324.74
2317.67
2310.6
2303.52
2296.43
2289.33
2282.21
2275.08
2267.93
2260.76
2253.57
2246.36
2239.13
2231.87
2224.59
2217.28
2209.94
2202.58
2195.2
2187.78
2180.34
2172.89
2165.4
2503.15
2495.5
2487.9
2480.32
2472.77
2465.26
2457.77
2450.3
2442.87
2435.46
2428.06
2420.69
2413.34
2406
2398.67
2391.36
2384.05
2376.75
2369.46
2362.17
2354.87
2347.58
2340.28
2332.98
2325.68
2318.36
2311.03
2303.69
2296.33
2288.96
2281.57
2274.17
2266.74
2259.28
2251.81
2244.31
2236.78
2229.23
2221.66
2214.05
2206.42
2198.76
2191.08
2183.37
2175.65
2167.89
2515.1
2507.28
2499.52
2491.78
2484.06
2476.38
2468.72
2461.08
2453.46
2445.86
2438.27
2430.7
2423.15
2415.61
2408.07
2400.54
2393.02
2385.5
2377.98
2370.47
2362.94
2355.42
2347.89
2340.35
2332.8
2325.23
2317.66
2310.07
2302.46
2294.84
2287.19
2279.52
2271.84
2264.12
2256.39
2248.62
2240.83
2233.02
2225.17
2217.3
2209.41
2201.48
2193.54
2185.57
2177.58
2169.55
2526.2
2518.24
2510.31
2502.41
2494.52
2486.66
2478.82
2471
2463.19
2455.4
2447.62
2439.85
2432.09
2424.34
2416.6
2408.86
2401.12
2393.38
2385.63
2377.89
2370.14
2362.38
2354.61
2346.83
2339.04
2331.23
2323.41
2315.57
2307.71
2299.84
2291.94
2284.02
2276.07
2268.1
2260.1
2252.08
2244.03
2235.95
2227.85
2219.72
2211.56
2203.37
2195.17
2186.94
2178.69
2170.41
2536.48
2528.36
2520.27
2512.19
2504.13
2496.1
2488.07
2480.06
2472.07
2464.08
2456.11
2448.14
2440.17
2432.21
2424.25
2416.3
2408.34
2400.38
2392.41
2384.44
2376.45
2368.46
2360.46
2352.44
2344.41
2336.36
2328.29
2320.21
2312.1
2303.97
2295.82
2287.65
2279.45
2271.22
2262.97
2254.69
2246.38
2238.05
2229.69
2221.3
2212.88
2204.44
2195.98
2187.5
2179.02
2170.5
2545.93
2537.65
2529.38
2521.14
2512.9
2504.68
2496.47
2488.28
2480.09
2471.91
2463.73
2455.56
2447.39
2439.22
2431.04
2422.87
2414.69
2406.51
2398.32
2390.12
2381.9
2373.68
2365.44
2357.18
2348.91
2340.62
2332.31
2323.98
2315.63
2307.26
2298.86
2290.43
2281.98
2273.51
2265
2256.47
2247.91
2239.32
2230.7
2222.06
2213.4
2204.73
2196.03
2187.32
2178.6
2169.85
2554.55
2546.1
2537.66
2529.23
2520.82
2512.42
2504.02
2495.63
2487.25
2478.87
2470.49
2462.11
2453.74
2445.36
2436.97
2428.58
2420.18
2411.78
2403.36
2394.93
2386.49
2378.03
2369.56
2361.07
2352.56
2344.03
2335.49
2326.91
2318.32
2309.7
2301.05
2292.38
2283.68
2274.96
2266.2
2257.42
2248.61
2239.79
2230.94
2222.07
2213.17
2204.26
2195.34
2186.39
2177.44
2168.46
2553.7
2545.09
2536.49
2527.89
2519.3
2510.72
2502.13
2493.56
2484.98
2476.4
2467.81
2459.23
2450.64
2442.04
2433.43
2424.82
2416.19
2407.55
2398.89
2390.22
2381.54
2372.83
2364.11
2355.37
2346.6
2337.81
2329
2320.17
2311.31
2302.42
2293.5
2284.56
2275.59
2266.61
2257.59
2248.55
2239.5
2230.42
2221.32
2212.19
2203.05
2193.89
2184.71
2175.54
2166.33
2560.46
2551.67
2542.89
2534.11
2525.33
2516.56
2507.78
2499.01
2490.23
2481.45
2472.66
2463.87
2455.06
2446.25
2437.43
2428.6
2419.75
2410.88
2402.01
2393.11
2384.2
2375.26
2366.31
2357.33
2348.33
2339.31
2330.26
2321.19
2312.08
2302.97
2293.82
2284.66
2275.46
2266.25
2257.01
2247.75
2238.45
2229.14
2219.81
2210.45
2201.08
2191.7
2182.31
2172.92
2163.5
2566.38
2557.41
2548.45
2539.48
2530.52
2521.55
2512.58
2503.61
2494.63
2485.65
2476.65
2467.65
2458.64
2449.62
2440.58
2431.53
2422.46
2413.38
2404.28
2395.16
2386.02
2376.86
2367.67
2358.46
2349.23
2339.98
2330.71
2321.41
2312.09
2302.75
2293.38
2283.99
2274.58
2265.13
2255.66
2246.17
2236.65
2227.11
2217.56
2207.99
2198.4
2188.81
2179.21
2169.61
2159.99
2562.31
2553.16
2544.01
2534.86
2525.7
2516.54
2507.37
2498.19
2489
2479.8
2470.59
2461.37
2452.14
2442.89
2433.62
2424.34
2415.04
2405.72
2396.37
2387.01
2377.62
2368.22
2358.8
2349.35
2339.88
2330.39
2320.88
2311.34
2301.77
2292.18
2282.56
2272.92
2263.25
2253.56
2243.85
2234.12
2224.36
2214.59
2204.81
2195.02
2185.23
2175.43
2165.63
2155.82
2566.36
2557.03
2547.69
2538.35
2529
2519.64
2510.28
2500.9
2491.51
2482.11
2472.7
2463.27
2453.82
2444.36
2434.88
2425.38
2415.86
2406.33
2396.77
2387.2
2377.6
2367.99
2358.36
2348.7
2339.02
2329.3
2319.57
2309.81
2300.02
2290.21
2280.38
2270.52
2260.64
2250.73
2240.81
2230.87
2220.91
2210.94
2200.96
2190.97
2180.98
2170.99
2161.01
2151.02
2569.58
2560.06
2550.54
2541.01
2531.47
2521.91
2512.35
2502.78
2493.19
2483.59
2473.97
2464.33
2454.67
2445
2435.32
2425.62
2415.9
2406.16
2396.4
2386.63
2376.82
2367
2357.14
2347.27
2337.37
2327.45
2317.5
2307.52
2297.53
2287.51
2277.46
2267.4
2257.31
2247.2
2237.07
2226.93
2216.78
2206.61
2196.44
2186.26
2176.08
2165.92
2155.76
2145.6
2571.95
2562.25
2552.54
2542.82
2533.09
2523.35
2513.59
2503.82
2494.03
2484.23
2474.41
2464.58
2454.73
2444.87
2434.99
2425.09
2415.17
2405.23
2395.26
2385.27
2375.26
2365.22
2355.16
2345.08
2334.97
2324.84
2314.68
2304.51
2294.31
2284.08
2273.84
2263.57
2253.28
2242.98
2232.66
2222.33
2211.98
2201.63
2191.27
2180.92
2170.57
2160.23
2149.91
2139.59
2563.61
2553.71
2543.8
2533.88
2523.95
2514.01
2504.05
2494.08
2484.08
2474.08
2464.06
2454.02
2443.96
2433.88
2423.77
2413.65
2403.5
2393.33
2383.14
2372.93
2362.69
2352.43
2342.14
2331.83
2321.5
2311.15
2300.77
2290.38
2279.96
2269.52
2259.06
2248.59
2238.09
2227.59
2217.07
2206.55
2196.02
2185.49
2174.97
2164.46
2153.96
2143.48
2133.01
2564.14
2554.07
2543.98
2533.88
2523.77
2513.64
2503.51
2493.35
2483.17
2472.97
2462.75
2452.52
2442.26
2431.98
2421.68
2411.36
2401.02
2390.65
2380.26
2369.85
2359.42
2348.96
2338.48
2327.98
2317.46
2306.91
2296.35
2285.76
2275.16
2264.53
2253.89
2243.24
2232.57
2221.89
2211.2
2200.5
2189.81
2179.12
2168.44
2157.77
2147.12
2136.5
2125.89
2563.88
2553.64
2543.38
2533.1
2522.81
2512.5
2502.17
2491.82
2481.45
2471.07
2460.66
2450.23
2439.79
2429.32
2418.83
2408.31
2397.78
2387.22
2376.65
2366.05
2355.43
2344.78
2334.12
2323.43
2312.72
2302
2291.25
2280.48
2269.7
2258.9
2248.08
2237.26
2226.42
2215.57
2204.72
2193.86
2183.01
2172.17
2161.34
2150.53
2139.74
2128.99
2118.25
2552.41
2541.98
2531.52
2521.05
2510.55
2500.04
2489.51
2478.96
2468.39
2457.8
2447.19
2436.56
2425.9
2415.23
2404.53
2393.82
2383.08
2372.32
2361.54
2350.73
2339.91
2329.07
2318.2
2307.32
2296.42
2285.5
2274.56
2263.61
2252.64
2241.66
2230.67
2219.67
2208.66
2197.66
2186.65
2175.66
2164.67
2153.7
2142.76
2131.84
2120.96
2110.11
2550.39
2539.78
2529.15
2518.5
2507.83
2497.14
2486.44
2475.71
2464.96
2454.19
2443.4
2432.59
2421.76
2410.91
2400.04
2389.14
2378.23
2367.29
2356.34
2345.36
2334.37
2323.35
2312.32
2301.27
2290.2
2279.11
2268.01
2256.9
2245.77
2234.63
2223.49
2212.34
2201.19
2190.04
2178.89
2167.76
2156.64
2145.54
2134.47
2123.44
2112.45
2101.49
2547.59
2536.81
2526.01
2515.19
2504.35
2493.49
2482.61
2471.71
2460.79
2449.85
2438.89
2427.91
2416.91
2405.88
2394.84
2383.78
2372.69
2361.59
2350.47
2339.33
2328.17
2316.99
2305.8
2294.58
2283.36
2272.12
2260.86
2249.6
2238.32
2227.04
2215.75
2204.46
2193.17
2181.88
2170.61
2159.35
2148.1
2136.89
2125.71
2114.57
2103.47
2092.42
2544.02
2533.08
2522.11
2511.13
2500.12
2489.1
2478.05
2466.98
2455.9
2444.79
2433.67
2422.52
2411.35
2400.17
2388.96
2377.74
2366.49
2355.23
2343.95
2332.65
2321.34
2310
2298.66
2287.29