/*--------------------------------*- C++ -*----------------------------------*\
| =========                 |                                                 |
| \\      /  F ield         | OpenFOAM: The Open Source CFD Toolbox           |
|  \\    /   O peration     | Version:  v1706                                 |
|   \\  /    A nd           | Web:      www.OpenFOAM.com                      |
|    \\/     M anipulation  |                                                 |
\*---------------------------------------------------------------------------*/
FoamFile
{
    version     2.0;
    format      ascii;
    class       volScalarField;
    location    "1.6e-05";
    object      Tt;
}
// * * * * * * * * * * * * * * * * * * * * * * * * * * * * * * * * * * * * * //

dimensions      [0 0 0 1 0 0 0];


internalField   nonuniform List<scalar> 
30038
(
144.4
144.4
144.4
144.4
144.4
144.4
144.4
144.4
144.4
144.4
144.4
144.4
144.4
144.4
144.4
144.4
144.4
144.4
144.4
144.4
144.4
144.4
144.4
144.4
144.4
144.4
144.4
144.4
144.4
144.4
144.4
144.4
144.4
144.4
144.4
144.4
144.4
144.4
144.4
144.4
144.4
144.4
144.4
144.4
144.4
144.4
144.4
144.4
144.4
144.4
144.4
144.4
144.4
144.4
144.4
144.4
144.4
144.4
144.4
144.4
144.4
144.4
144.4
144.4
144.4
144.4
144.4
144.4
144.4
144.4
144.4
144.4
144.4
144.4
144.4
144.4
144.4
144.4
144.4
144.4
144.4
144.4
144.4
144.4
144.4
144.4
144.4
144.4
144.4
144.4
144.4
144.4
144.4
144.4
144.4
144.4
144.4
144.4
144.4
144.4
144.4
144.4
144.4
144.4
144.4
144.4
144.4
144.4
144.4
144.4
144.4
144.4
144.4
144.4
144.4
144.4
144.4
144.4
144.4
144.4
144.4
144.4
144.4
144.4
144.4
144.4
144.4
144.4
144.4
144.4
144.4
144.4
144.4
144.4
144.4
144.4
144.4
144.4
144.4
144.4
144.4
144.4
144.4
144.4
144.4
144.4
144.4
144.4
144.4
144.4
144.4
144.4
144.4
144.4
144.4
144.4
144.4
144.4
144.4
144.4
144.4
144.4
144.4
144.4
144.4
144.4
144.4
144.4
144.4
144.4
144.4
144.4
144.4
144.4
144.4
144.4
144.4
144.4
144.4
144.4
144.4
144.4
144.4
144.4
144.4
144.4
144.4
144.4
144.4
144.4
144.4
144.4
144.4
144.4
144.4
144.4
144.4
144.4
144.4
144.4
144.4
144.4
144.4
144.4
144.4
144.4
144.4
144.4
144.4
144.4
144.4
144.4
144.4
144.4
144.4
144.4
144.4
144.4
144.4
144.4
144.4
144.4
144.4
144.4
144.4
144.4
144.4
144.4
144.4
144.4
144.4
144.4
144.4
144.4
144.4
144.4
144.4
144.4
144.4
144.4
144.4
144.4
144.4
144.4
144.4
144.4
144.4
144.4
144.4
144.4
144.4
144.4
144.4
144.4
144.4
144.4
144.4
144.4
144.4
144.4
144.4
144.4
144.4
144.4
144.4
144.4
144.4
144.4
144.4
144.4
144.4
144.4
144.4
144.4
144.4
144.4
144.4
144.4
144.4
144.4
144.4
144.4
144.4
144.4
144.4
144.4
144.4
144.4
144.4
144.4
144.4
144.4
144.4
144.4
144.4
144.4
144.4
144.4
144.4
144.4
144.4
144.4
144.4
144.4
144.4
144.4
144.4
144.4
144.4
144.4
144.4
144.4
144.4
144.4
144.4
144.4
144.4
144.4
144.4
144.4
144.4
144.4
144.4
144.4
144.4
144.4
144.4
144.4
144.4
144.4
144.4
144.4
144.4
144.4
144.4
144.4
144.4
144.4
144.4
144.4
144.4
144.4
144.4
144.4
144.4
144.4
144.4
144.4
144.4
144.4
144.4
144.4
144.4
144.4
144.4
144.4
144.4
144.4
144.4
144.4
144.4
144.4
144.4
144.4
144.4
144.4
144.4
144.4
144.4
144.4
144.4
144.4
144.4
144.4
144.4
144.4
144.4
144.4
144.4
144.4
144.4
144.4
144.4
144.4
144.4
144.4
144.4
144.4
144.4
144.4
144.4
144.4
144.4
144.4
144.4
144.4
144.4
144.4
144.4
144.4
144.4
144.4
144.4
144.4
144.4
144.4
144.4
144.4
144.4
144.4
144.4
144.4
144.4
144.4
144.4
144.4
144.4
144.4
144.4
144.4
144.4
144.4
144.4
144.4
144.4
144.4
144.4
144.4
144.4
144.4
144.4
144.4
144.4
144.4
144.4
144.4
144.4
144.4
144.4
144.4
144.4
144.4
144.4
144.4
144.4
144.4
144.4
144.4
144.4
144.4
144.4
144.4
144.4
144.4
144.4
144.4
144.4
144.4
144.4
144.4
144.4
144.4
144.4
144.4
144.4
144.4
144.4
144.4
144.4
144.4
144.4
144.4
144.4
144.4
144.4
144.4
144.4
144.4
144.4
144.4
144.4
144.4
144.4
144.4
144.4
144.4
144.4
144.4
144.4
144.4
144.4
144.4
144.4
144.4
144.4
144.4
144.4
144.4
144.4
144.4
144.4
144.4
144.4
144.4
144.4
144.4
144.4
144.4
144.4
144.4
144.4
144.4
144.4
144.4
144.4
144.4
144.4
144.4
144.4
144.4
144.4
144.4
144.4
144.4
144.4
144.4
144.4
144.4
144.4
144.4
144.4
144.4
144.4
144.4
144.4
144.4
144.4
144.4
144.4
144.4
144.4
144.4
144.4
144.4
144.4
144.4
144.4
144.4
144.4
144.4
144.4
144.4
144.4
144.4
144.4
144.4
144.4
144.4
144.4
144.4
144.4
144.4
144.4
144.4
144.4
144.4
144.4
144.4
144.4
144.4
144.4
144.4
144.4
144.4
144.4
144.4
144.4
144.4
144.4
144.4
144.4
144.4
144.4
144.4
144.4
144.4
144.4
144.4
144.4
144.4
144.4
144.4
144.4
144.4
144.4
144.4
144.4
144.4
144.4
144.4
144.4
144.4
144.4
144.4
144.4
144.4
144.4
144.4
144.4
144.4
144.4
144.4
144.4
144.4
144.4
144.4
144.4
144.4
144.4
144.4
144.4
144.4
144.4
144.4
144.4
144.4
144.4
144.4
144.4
144.4
144.4
144.4
144.4
144.4
144.4
144.4
144.4
144.4
144.4
144.4
144.4
144.4
144.4
144.4
144.4
144.4
144.4
144.4
144.4
144.4
144.4
144.4
144.4
144.4
144.4
144.4
144.4
144.4
144.4
144.4
144.4
144.4
144.4
144.4
144.4
144.4
144.4
144.4
144.4
144.4
144.4
144.4
144.4
144.4
144.4
144.4
144.4
144.4
144.4
144.4
144.4
144.4
144.4
144.4
144.4
144.4
144.4
144.4
144.4
144.4
144.4
144.4
144.4
144.4
144.4
144.4
144.4
144.4
144.4
144.4
144.4
144.4
144.4
144.4
144.4
144.4
144.4
144.4
144.4
144.4
144.4
144.4
144.4
144.4
144.4
144.4
144.4
144.4
144.4
144.4
144.4
144.4
144.4
144.4
144.4
144.4
144.4
144.4
144.4
144.4
144.4
144.4
144.4
144.4
144.4
144.4
144.4
144.4
144.4
144.4
144.4
144.4
144.4
144.4
144.4
144.4
144.4
144.4
144.4
144.4
144.4
144.4
144.4
144.4
144.4
144.4
144.4
144.4
144.4
144.4
144.4
144.4
144.4
144.4
144.4
144.4
144.4
144.4
144.4
144.4
144.4
144.4
144.4
144.4
144.4
144.4
144.4
144.4
144.4
144.4
144.4
144.4
144.4
144.4
144.4
144.4
144.4
144.4
144.4
144.4
144.4
144.4
144.4
144.4
144.4
144.4
144.4
144.4
144.4
144.4
144.4
144.4
144.4
144.4
144.4
144.4
144.4
144.4
144.4
144.4
144.4
144.4
144.4
144.4
144.4
144.4
144.4
144.4
144.4
144.4
144.4
144.4
144.4
144.4
144.4
144.4
144.4
144.4
144.4
144.4
144.4
144.4
144.4
144.4
144.4
144.4
144.4
144.4
144.4
144.4
144.4
144.4
144.4
144.4
144.4
144.4
144.4
144.4
144.4
144.4
144.4
144.4
144.4
144.4
144.4
144.4
144.4
144.4
144.4
144.4
144.4
144.4
144.4
144.4
144.4
144.4
144.4
144.4
144.4
144.4
144.4
144.4
144.4
144.4
144.4
144.4
144.4
144.4
144.4
144.4
144.4
144.4
144.4
144.4
144.4
144.4
144.4
144.4
144.4
144.4
144.4
144.4
144.4
144.4
144.4
144.4
144.4
144.4
144.4
144.4
144.4
144.4
144.4
144.4
144.4
144.4
144.4
144.4
144.4
144.4
144.4
144.4
144.4
144.4
144.4
144.4
144.4
144.4
144.4
144.4
144.4
144.4
144.4
144.4
144.4
144.4
144.4
144.4
144.4
144.4
144.4
144.4
144.4
144.4
144.4
144.4
144.4
144.4
144.4
144.4
144.4
144.4
144.4
144.4
144.4
144.4
144.4
144.4
144.4
144.4
144.4
144.4
144.4
144.4
144.4
144.4
144.4
144.4
144.4
144.4
144.4
144.4
144.4
144.4
144.4
144.4
144.4
144.4
144.4
144.4
144.4
144.4
144.4
144.4
144.4
144.4
144.4
144.4
144.4
144.4
144.4
144.4
144.4
144.4
144.4
144.4
144.4
144.4
144.4
144.4
144.4
144.4
144.4
144.4
144.4
144.4
144.4
144.4
144.4
144.4
144.4
144.4
144.4
144.4
144.4
144.4
144.4
144.4
144.4
144.4
144.4
144.4
144.4
144.4
144.4
144.4
144.4
144.4
144.4
144.4
144.4
144.4
144.4
144.4
144.4
144.4
144.4
144.4
144.4
144.4
144.4
144.4
144.4
144.4
144.4
144.4
144.4
144.4
144.4
144.4
144.4
144.4
144.4
144.4
144.4
144.4
144.4
144.4
144.4
144.4
144.4
144.4
144.4
144.4
144.4
144.4
144.4
144.4
144.4
144.4
144.4
144.4
144.4
144.4
144.4
144.4
144.4
144.4
144.4
144.4
144.4
144.4
144.4
144.4
144.4
144.4
144.4
144.4
144.4
144.4
144.4
144.4
144.4
144.4
144.4
144.4
144.4
144.4
144.4
144.4
144.4
144.4
144.4
144.4
144.4
144.4
144.4
144.4
144.4
144.4
144.4
144.4
144.4
144.4
144.4
144.4
144.4
144.4
144.4
144.4
144.4
144.4
144.4
144.4
144.4
144.4
144.4
144.4
144.4
144.4
144.4
144.4
144.4
144.4
144.4
144.4
144.4
144.4
144.4
144.4
144.4
144.4
144.4
144.4
144.4
144.4
144.4
144.4
144.4
144.4
144.4
144.4
144.4
144.4
144.4
144.4
144.4
144.4
144.4
144.4
144.4
144.4
144.4
144.4
144.4
144.4
144.4
144.4
144.4
144.4
144.4
144.4
144.4
144.4
144.4
144.4
144.4
144.4
144.4
144.4
144.4
144.4
144.4
144.4
144.4
144.4
144.4
144.4
144.4
144.4
144.4
144.4
144.4
144.4
144.4
144.4
144.4
144.4
144.4
144.4
144.4
144.4
144.4
144.4
144.4
144.4
144.4
144.4
144.4
144.4
144.4
144.4
144.4
144.4
144.4
144.4
144.4
144.4
144.4
144.4
144.4
144.4
144.4
144.4
144.4
144.4
144.4
144.4
144.4
144.4
144.4
144.4
144.4
144.4
144.4
144.4
144.4
144.4
144.4
144.4
144.4
144.4
144.4
144.4
144.4
144.4
144.4
144.4
144.4
144.4
144.4
144.4
144.4
144.4
144.4
144.4
144.4
144.4
144.4
144.4
144.4
144.4
144.4
144.4
144.4
144.4
144.4
144.4
144.4
144.4
144.4
144.4
144.4
144.4
144.4
144.4
144.4
144.4
144.4
144.4
144.4
144.4
144.4
144.4
144.4
144.4
144.4
144.4
144.4
144.4
144.4
144.4
144.4
144.4
144.4
144.4
144.4
144.4
144.4
144.4
144.4
144.4
144.4
144.4
144.4
144.4
144.4
144.4
144.4
144.4
144.4
144.4
144.4
144.4
144.4
144.4
144.4
144.4
144.4
144.4
144.4
144.4
144.4
144.4
144.4
144.4
144.4
144.4
144.4
144.4
144.4
144.4
144.4
144.4
144.4
144.4
144.4
144.4
144.4
144.4
144.4
144.4
144.4
144.4
144.4
144.4
144.4
144.4
144.4
144.4
144.4
144.4
144.4
144.4
144.4
144.4
144.4
144.4
144.4
144.4
144.4
144.4
144.4
144.4
144.4
144.4
144.4
144.4
144.4
144.4
144.4
144.4
144.4
144.4
144.4
144.4
144.4
144.4
144.4
144.4
144.4
144.4
144.4
144.4
144.4
144.4
144.4
144.4
144.4
144.4
144.4
144.4
144.4
144.4
144.4
144.4
144.4
144.4
144.4
144.4
144.4
144.401
144.4
144.4
144.4
144.4
144.4
144.4
144.4
144.4
144.4
144.4
144.4
144.4
144.4
144.4
144.4
144.4
144.4
144.4
144.4
144.4
144.4
144.4
144.4
144.4
144.4
144.4
144.4
144.4
144.4
144.4
144.4
144.4
144.4
144.4
144.4
144.4
144.4
144.4
144.4
144.4
144.4
144.4
144.4
144.4
144.4
144.4
144.401
144.401
144.402
144.403
144.4
144.4
144.4
144.4
144.4
144.4
144.4
144.4
144.4
144.4
144.4
144.4
144.4
144.4
144.4
144.4
144.4
144.4
144.4
144.4
144.4
144.4
144.4
144.4
144.4
144.4
144.4
144.4
144.4
144.4
144.4
144.4
144.4
144.4
144.4
144.4
144.4
144.4
144.4
144.4
144.4
144.4
144.4
144.401
144.401
144.402
144.403
144.406
144.41
144.418
144.4
144.4
144.4
144.4
144.4
144.4
144.4
144.4
144.4
144.4
144.4
144.4
144.4
144.4
144.4
144.4
144.4
144.4
144.4
144.4
144.4
144.4
144.4
144.4
144.4
144.4
144.4
144.4
144.4
144.4
144.4
144.4
144.4
144.4
144.4
144.4
144.4
144.4
144.4
144.4
144.401
144.401
144.402
144.403
144.406
144.41
144.417
144.429
144.451
144.493
144.4
144.4
144.4
144.4
144.4
144.4
144.4
144.4
144.4
144.4
144.4
144.4
144.4
144.4
144.4
144.4
144.4
144.4
144.4
144.4
144.4
144.4
144.4
144.4
144.4
144.4
144.4
144.4
144.4
144.4
144.4
144.4
144.4
144.4
144.4
144.4
144.4
144.401
144.401
144.402
144.403
144.406
144.41
144.417
144.429
144.45
144.487
144.551
144.663
144.875
144.4
144.4
144.4
144.4
144.4
144.4
144.4
144.4
144.4
144.4
144.4
144.4
144.4
144.4
144.4
144.4
144.4
144.4
144.4
144.4
144.4
144.4
144.4
144.4
144.4
144.4
144.4
144.4
144.4
144.4
144.4
144.4
144.4
144.4
144.401
144.401
144.402
144.404
144.406
144.411
144.418
144.43
144.451
144.488
144.55
144.656
144.841
145.16
145.721
146.751
144.4
144.4
144.4
144.4
144.4
144.4
144.4
144.4
144.4
144.4
144.4
144.4
144.4
144.4
144.4
144.4
144.4
144.4
144.4
144.4
144.4
144.4
144.4
144.4
144.4
144.4
144.4
144.4
144.4
144.4
144.401
144.401
144.402
144.403
144.404
144.407
144.412
144.419
144.432
144.454
144.491
144.553
144.659
144.84
145.147
145.674
146.576
148.124
150.795
155.518
144.4
144.4
144.4
144.4
144.4
144.4
144.4
144.4
144.4
144.4
144.4
144.4
144.4
144.4
144.4
144.4
144.4
144.4
144.4
144.4
144.4
144.4
144.4
144.4
144.4
144.4
144.4
144.401
144.401
144.402
144.403
144.405
144.408
144.413
144.421
144.435
144.458
144.497
144.561
144.669
144.851
145.157
145.674
146.548
148.026
150.516
154.692
161.625
172.979
191.354
144.4
144.4
144.4
144.4
144.4
144.4
144.4
144.4
144.4
144.4
144.4
144.4
144.4
144.4
144.4
144.4
144.4
144.4
144.4
144.4
144.4
144.4
144.4
144.401
144.401
144.401
144.402
144.404
144.406
144.409
144.415
144.424
144.44
144.465
144.506
144.574
144.687
144.875
145.188
145.71
146.58
148.034
150.454
154.461
161.024
171.583
188.125
213.12
249.305
299.29
144.4
144.4
144.4
144.4
144.4
144.4
144.4
144.4
144.4
144.4
144.4
144.4
144.4
144.4
144.4
144.4
144.4
144.4
144.4
144.4
144.401
144.401
144.402
144.403
144.404
144.407
144.411
144.418
144.428
144.445
144.473
144.519
144.593
144.715
144.914
145.242
145.782
146.673
148.14
150.555
154.503
160.894
171.065
186.841
210.466
244.324
290.479
350.191
423.751
510.327
144.4
144.4
144.4
144.4
144.4
144.4
144.4
144.4
144.4
144.4
144.4
144.4
144.4
144.4
144.4
144.4
144.401
144.401
144.401
144.402
144.403
144.405
144.409
144.413
144.421
144.434
144.454
144.486
144.537
144.62
144.754
144.971
145.324
145.897
146.832
148.353
150.822
154.812
161.189
171.22
186.613
209.456
241.97
286.08
342.967
412.776
494.649
586.99
687.904
795.184
144.4
144.4
144.4
144.4
144.4
144.4
144.4
144.4
144.4
144.4
144.4
144.4
144.4
144.401
144.401
144.401
144.402
144.403
144.405
144.407
144.411
144.417
144.426
144.441
144.465
144.503
144.562
144.657
144.808
145.051
145.44
146.065
147.07
148.686
151.277
155.407
161.924
172.043
187.383
209.901
241.662
284.463
339.425
406.729
485.617
574.591
671.71
774.881
882.084
991.443
1100.93
144.4
144.4
144.4
144.4
144.4
144.4
144.4
144.4
144.4
144.4
144.401
144.401
144.402
144.403
144.404
144.406
144.409
144.414
144.422
144.434
144.452
144.481
144.526
144.596
144.708
144.883
145.161
145.601
146.299
147.408
149.168
151.952
156.331
163.146
173.581
189.185
211.8
243.34
285.455
339.171
404.668
481.273
567.638
661.996
762.395
866.855
973.459
1080.24
1185.35
1287.06
1384.08
144.4
144.4
144.4
144.4
144.4
144.4
144.4
144.401
144.401
144.402
144.402
144.404
144.405
144.408
144.412
144.419
144.429
144.444
144.467
144.503
144.558
144.644
144.778
144.986
145.312
145.822
146.621
147.875
149.838
152.902
157.653
164.941
175.931
192.12
215.241
247.058
289.058
342.142
406.441
481.323
565.556
657.529
755.452
857.499
961.895
1066.88
1170.62
1271.36
1367.48
1457.23
1538.44
1609.73
144.4
144.4
144.401
144.401
144.401
144.402
144.402
144.404
144.405
144.408
144.412
144.417
144.426
144.439
144.458
144.488
144.534
144.604
144.711
144.876
145.129
145.521
146.126
147.064
148.514
150.756
154.206
159.478
167.437
179.246
196.354
220.389
252.962
295.379
348.389
412.045
485.72
568.268
658.212
753.92
853.727
955.996
1059.14
1161.48
1261.38
1357.25
1447.54
1530.39
1603.75
1666.05
1716.44
1756.06
144.401
144.402
144.402
144.404
144.405
144.408
144.411
144.416
144.424
144.436
144.454
144.48
144.52
144.579
144.669
144.806
145.013
145.329
145.811
146.547
147.672
149.39
152.009
155.98
161.952
170.82
183.746
202.131
227.499
261.29
304.62
358.065
421.575
494.508
575.778
664.025
757.763
855.471
955.648
1056.85
1157.58
1256.31
1351.55
1441.9
1525.79
1601.37
1666.88
1721.19
1764.17
1796.84
1820.61
1837.89
144.405
144.408
144.411
144.417
144.424
144.435
144.452
144.476
144.512
144.565
144.645
144.764
144.943
145.21
145.613
146.22
147.135
148.516
150.597
153.721
158.387
165.287
175.347
189.732
209.788
236.916
272.376
317.074
371.403
435.198
507.786
588.13
674.973
766.961
862.712
960.859
1060.08
1159.04
1256.35
1350.62
1440.53
1524.74
1601.64
1669.53
1727.08
1773.72
1809.89
1836.81
1856.12
1869.69
1878.9
1885.36
144.425
144.436
144.452
144.476
144.51
144.561
144.634
144.743
144.904
145.142
145.496
146.021
146.803
147.967
149.699
152.271
156.076
161.662
169.775
181.371
197.608
219.761
249.088
286.646
333.122
388.722
453.16
525.732
605.444
691.134
781.569
875.497
971.682
1068.91
1165.99
1261.67
1354.66
1443.72
1527.66
1605.12
1674.52
1734.47
1784.12
1823.48
1853.4
1875.27
1890.72
1901.34
1908.43
1913.14
1916.06
1917.8
144.514
144.563
144.635
144.74
144.892
145.114
145.44
145.916
146.616
147.645
149.156
151.374
154.618
159.336
166.138
175.82
189.365
207.9
232.605
264.566
304.621
353.227
410.407
475.765
548.571
627.873
712.598
801.63
893.84
988.11
1083.34
1178.45
1272.34
1363.79
1451.68
1534.91
1612.28
1682.42
1743.97
1795.91
1837.94
1870.54
1894.83
1912.26
1924.37
1932.49
1937.78
1941.12
1942.86
1943.75
1944.48
1944.62
144.904
145.121
145.435
145.889
146.546
147.499
148.88
150.882
153.774
157.935
163.879
172.277
183.97
199.947
221.275
248.999
284.007
326.899
377.911
436.893
503.357
576.561
655.6
739.492
827.228
917.797
1010.19
1103.42
1196.5
1288.44
1378.16
1464.59
1546.71
1623.49
1693.72
1756.13
1809.64
1853.74
1888.6
1915.07
1934.38
1947.95
1957.17
1963.17
1966.91
1968.97
1969.78
1970.17
1970.17
1969.49
1968.18
1966.48
147.503
148.826
150.716
153.414
157.248
162.664
170.245
180.719
194.954
213.906
238.545
269.741
308.154
354.145
407.741
468.648
536.311
609.991
688.841
771.968
858.467
947.432
1037.96
1129.16
1220.14
1310.01
1397.8
1482.51
1563.22
1638.98
1708.76
1771.38
1825.8
1871.35
1907.97
1936.26
1957.26
1972.23
1982.52
1989.25
1993.41
1995.83
1996.79
1996.81
1996.65
1996.09
1994.75
1992.83
1990.54
1988.08
1985.59
157.169
162.318
169.443
179.19
192.326
209.707
232.215
260.668
295.727
337.811
387.053
443.299
506.145
574.999
649.147
727.807
810.172
895.436
982.793
1071.44
1160.56
1249.37
1337.05
1422.74
1505.53
1584.54
1658.93
1727.79
1790.07
1844.76
1891.15
1929.02
1958.74
1981.16
1997.36
2008.62
2016.1
2020.7
2023.37
2024.52
2024.43
2024.03
2023.37
2022.01
2020.02
2017.67
2014.97
2012.14
2009.27
2006.46
2003.7
191.739
208.211
229.385
256.01
288.71
327.911
373.799
426.307
485.142
549.829
619.772
694.298
772.695
854.244
938.231
1023.94
1110.65
1197.65
1284.2
1369.58
1453.01
1533.66
1610.72
1683.43
1750.97
1812.42
1866.83
1913.49
1952.08
1982.79
2006.28
2023.51
2035.64
2043.78
2048.8
2051.7
2053.06
2052.92
2052.27
2051.36
2050.01
2047.97
2045.5
2042.67
2039.58
2036.43
2033.28
2030.15
2027.02
2023.94
2020.9
323.785
367.245
416.904
472.543
533.775
600.1
670.94
745.679
823.679
904.306
986.927
1070.91
1155.61
1240.39
1324.58
1407.53
1488.55
1566.87
1641.75
1712.5
1778.38
1838.58
1892.24
1938.65
1977.43
2008.67
2032.88
2050.88
2063.69
2072.36
2077.78
2080.9
2082.35
2082.24
2081.43
2080.22
2078.69
2076.63
2074.02
2071.08
2067.8
2064.39
2060.94
2057.5
2054.07
2050.65
2047.25
2043.86
2040.5
2037.17
526.295
589.615
657.278
728.749
803.472
880.888
960.436
1041.56
1123.7
1206.29
1288.74
1370.46
1450.86
1529.31
1605.12
1677.61
1746.14
1810.06
1868.64
1921.11
1966.78
2005.29
2036.62
2061.16
2079.61
2092.88
2101.98
2107.7
2110.97
2112.46
2112.4
2111.47
2109.93
2108.13
2106.02
2103.28
2100.16
2096.76
2093.09
2089.36
2085.62
2081.91
2078.19
2074.49
2070.8
2067.11
2063.44
2059.77
2056.12
2052.49
793.367
867.8
944.398
1022.68
1102.14
1182.3
1262.63
1342.63
1421.75
1499.46
1575.19
1648.3
1718.2
1784.28
1845.97
1902.61
1953.49
1998.02
2035.8
2066.79
2091.28
2109.87
2123.39
2132.69
2138.58
2141.97
2143.48
2143.36
2142.33
2140.55
2138.42
2136.11
2133.27
2129.96
2126.4
2122.53
2118.53
2114.5
2110.49
2106.47
2102.47
2098.49
2094.52
2090.56
2086.6
2082.64
2078.69
2074.72
2070.77
2066.84
1091.01
1168.62
1246.62
1324.55
1401.95
1478.32
1553.19
1626.04
1696.29
1763.39
1826.81
1886.02
1940.42
1989.4
2032.39
2069.04
2099.29
2123.36
2141.79
2155.27
2164.59
2170.54
2173.95
2175.36
2175.14
2174.05
2172.04
2169.54
2166.94
2164.01
2160.5
2156.71
2152.7
2148.44
2144.12
2139.8
2135.5
2131.2
2126.92
2122.66
2118.41
2114.17
2109.94
2105.7
2101.47
2097.22
2092.97
2088.71
2084.47
2080.22
1391.91
1466.53
1540.01
1611.89
1681.69
1748.9
1813.02
1873.57
1930.06
1981.97
2028.74
2069.86
2105.03
2134.18
2157.48
2175.42
2188.61
2197.75
2203.61
2206.9
2208.16
2207.84
2206.59
2204.31
2201.51
2198.6
2195.44
2191.75
2187.73
2183.54
2179.05
2174.45
2169.85
2165.26
2160.66
2156.08
2151.53
2146.99
2142.46
2137.95
2133.43
2128.93
2124.42
2119.9
2115.38
2110.85
2106.31
2101.75
2097.21
2092.66
1675.32
1741.91
1805.91
1866.87
1924.35
1977.91
2027.09
2071.38
2110.34
2143.71
2171.43
2193.65
2210.81
2223.47
2232.22
2237.81
2240.88
2241.91
2241.41
2239.92
2237.43
2234.35
2231.05
2227.58
2223.77
2219.5
2215.04
2210.37
2205.5
2200.6
2195.71
2190.82
2185.95
2181.1
2176.27
2171.45
2166.66
2161.87
2157.08
2152.3
2147.52
2142.74
2137.95
2133.15
2128.34
2123.52
2118.69
2113.84
2108.99
2104.14
1924.65
1978.89
2029.33
2075.57
2117.14
2153.68
2184.96
2210.96
2231.82
2247.95
2259.84
2268
2273.16
2275.91
2276.58
2275.85
2274.09
2271.35
2267.93
2264.29
2260.5
2256.46
2251.94
2247.22
2242.36
2237.24
2232.05
2226.87
2221.69
2216.51
2211.36
2206.24
2201.14
2196.05
2190.99
2185.92
2180.87
2175.82
2170.77
2165.72
2160.67
2155.61
2150.54
2145.46
2140.36
2135.25
2130.13
2124.98
2119.84
2114.68
2165.76
2199.66
2228.62
2252.65
2271.91
2286.77
2297.66
2305.06
2309.67
2311.96
2312.18
2311.16
2309.08
2306.02
2302.27
2298.32
2294.18
2289.81
2285.11
2280.11
2274.97
2269.64
2264.16
2258.69
2253.23
2247.76
2242.31
2236.9
2231.5
2226.12
2220.77
2215.43
2210.11
2204.79
2199.47
2194.16
2188.85
2183.53
2178.21
2172.88
2167.54
2162.19
2156.83
2151.45
2146.05
2140.63
2135.19
2129.75
2124.29
2296.32
2313.78
2327.18
2336.88
2343.39
2347.27
2348.96
2348.7
2347.33
2344.87
2341.45
2337.4
2333.08
2328.56
2323.87
2318.96
2313.67
2308.24
2302.68
2296.94
2291.16
2285.42
2279.66
2273.91
2268.2
2262.52
2256.86
2251.23
2245.61
2240
2234.4
2228.82
2223.25
2217.67
2212.1
2206.53
2200.95
2195.36
2189.77
2184.17
2178.55
2172.92
2167.27
2161.6
2155.91
2150.2
2144.47
2138.74
2132.98
2377.39
2382.88
2385.93
2386.86
2386.15
2384.28
2381.37
2377.59
2373.22
2368.53
2363.65
2358.61
2353.4
2347.86
2342.14
2336.35
2330.35
2324.27
2318.24
2312.2
2306.16
2300.16
2294.19
2288.23
2282.31
2276.41
2270.53
2264.66
2258.81
2252.97
2247.13
2241.3
2235.47
2229.64
2223.81
2217.97
2212.13
2206.27
2200.41
2194.53
2188.63
2182.72
2176.78
2170.83
2164.85
2158.86
2152.84
2146.81
2140.75
2424.41
2421.99
2418.59
2414.43
2409.7
2404.62
2399.39
2394.01
2388.46
2382.68
2376.66
2370.57
2364.34
2357.98
2351.65
2345.35
2339.02
2332.72
2326.47
2320.23
2314.02
2307.84
2301.68
2295.54
2289.41
2283.3
2277.2
2271.11
2265.03
2258.95
2252.86
2246.78
2240.69
2234.6
2228.5
2222.39
2216.26
2210.12
2203.97
2197.79
2191.6
2185.38
2179.14
2172.88
2166.6
2160.29
2153.97
2147.62
2451.9
2446.79
2441.32
2435.73
2430.01
2424.13
2418.06
2411.77
2405.38
2398.89
2392.27
2385.64
2379.06
2372.46
2365.86
2359.33
2352.82
2346.32
2339.86
2333.43
2327.01
2320.62
2314.24
2307.87
2301.52
2295.18
2288.85
2282.51
2276.18
2269.85
2263.52
2257.18
2250.84
2244.48
2238.11
2231.73
2225.34
2218.93
2212.5
2206.04
2199.57
2193.07
2186.55
2180.01
2173.44
2166.85
2160.24
2153.6
2466.58
2460.37
2453.98
2447.42
2440.73
2433.98
2427.1
2420.19
2413.32
2406.45
2399.57
2392.75
2385.97
2379.19
2372.45
2365.75
2359.06
2352.4
2345.75
2339.13
2332.51
2325.91
2319.32
2312.74
2306.16
2299.59
2293.01
2286.44
2279.86
2273.27
2266.68
2260.07
2253.45
2246.82
2240.18
2233.51
2226.83
2220.12
2213.39
2206.64
2199.87
2193.07
2186.24
2179.39
2172.51
2165.62
2158.7
2483.58
2476.6
2469.57
2462.44
2455.24
2448.09
2440.96
2433.81
2426.71
2419.65
2412.6
2405.59
2398.61
2391.66
2384.73
2377.82
2370.93
2364.06
2357.2
2350.36
2343.53
2336.7
2329.88
2323.06
2316.25
2309.43
2302.61
2295.79
2288.96
2282.12
2275.27
2268.41
2261.53
2254.63
2247.72
2240.78
2233.83
2226.85
2219.85
2212.82
2205.77
2198.69
2191.59
2184.46
2177.3
2170.13
2162.93
2490.77
2483.34
2475.95
2468.54
2461.16
2453.84
2446.52
2439.24
2432
2424.77
2417.58
2410.41
2403.26
2396.13
2389.02
2381.93
2374.85
2367.77
2360.71
2353.65
2346.6
2339.55
2332.5
2325.44
2318.39
2311.32
2304.25
2297.17
2290.08
2282.97
2275.85
2268.71
2261.55
2254.37
2247.17
2239.94
2232.7
2225.42
2218.12
2210.8
2203.44
2196.07
2188.66
2181.23
2173.79
2166.3
2503.71
2496.06
2488.48
2480.91
2473.36
2465.86
2458.38
2450.92
2443.5
2436.1
2428.71
2421.35
2414
2406.67
2399.36
2392.05
2384.75
2377.46
2370.18
2362.9
2355.61
2348.33
2341.04
2333.75
2326.45
2319.14
2311.82
2304.49
2297.15
2289.78
2282.4
2275
2267.58
2260.14
2252.67
2245.18
2237.66
2230.12
2222.55
2214.96
2207.33
2199.68
2192.01
2184.31
2176.59
2168.84
2515.73
2507.92
2500.16
2492.44
2484.73
2477.05
2469.4
2461.76
2454.16
2446.56
2438.99
2431.43
2423.88
2416.35
2408.82
2401.3
2393.79
2386.28
2378.77
2371.26
2363.75
2356.23
2348.7
2341.17
2333.63
2326.08
2318.51
2310.93
2303.33
2295.71
2288.08
2280.42
2272.74
2265.03
2257.3
2249.55
2241.77
2233.96
2226.12
2218.26
2210.37
2202.46
2194.52
2186.55
2178.57
2170.56
2526.9
2518.95
2511.02
2503.13
2495.25
2487.4
2479.57
2471.76
2463.96
2456.17
2448.4
2440.64
2432.89
2425.15
2417.41
2409.68
2401.95
2394.22
2386.48
2378.74
2371
2363.25
2355.49
2347.72
2339.93
2332.14
2324.32
2316.49
2308.64
2300.77
2292.88
2284.97
2277.03
2269.06
2261.08
2253.06
2245.02
2236.95
2228.85
2220.72
2212.57
2204.4
2196.2
2187.97
2179.73
2171.46
2537.26
2529.14
2521.05
2512.99
2504.94
2496.91
2488.89
2480.89
2472.9
2464.93
2456.96
2449
2441.04
2433.09
2425.14
2417.19
2409.24
2401.28
2393.32
2385.36
2377.38
2369.4
2361.4
2353.39
2345.37
2337.32
2329.27
2321.19
2313.09
2304.97
2296.82
2288.66
2280.46
2272.24
2264
2255.72
2247.43
2239.1
2230.74
2222.36
2213.95
2205.51
2197.06
2188.58
2180.11
2171.6
2546.78
2538.51
2530.25
2522.01
2513.78
2505.57
2497.37
2489.18
2480.99
2472.82
2464.65
2456.48
2448.32
2440.16
2431.99
2423.83
2415.66
2407.48
2399.3
2391.1
2382.89
2374.68
2366.44
2358.2
2349.93
2341.65
2333.35
2325.02
2316.68
2308.31
2299.92
2291.5
2283.05
2274.58
2266.08
2257.55
2249
2240.42
2231.81
2223.17
2214.52
2205.85
2197.16
2188.45
2179.74
2170.99
2555.47
2547.03
2538.6
2530.18
2521.77
2513.38
2504.99
2496.61
2488.23
2479.85
2471.48
2463.11
2454.74
2446.37
2437.99
2429.61
2421.21
2412.81
2404.4
2395.98
2387.55
2379.1
2370.63
2362.15
2353.64
2345.12
2336.58
2328.01
2319.42
2310.81
2302.17
2293.5
2284.81
2276.09
2267.34
2258.56
2249.75
2240.93
2232.09
2223.22
2214.33
2205.43
2196.51
2187.57
2178.61
2169.64
2554.71
2546.1
2537.51
2528.92
2520.33
2511.76
2503.18
2494.61
2486.03
2477.46
2468.88
2460.3
2451.72
2443.12
2434.52
2425.91
2417.29
2408.66
2400.01
2391.34
2382.66
2373.96
2365.24
2356.51
2347.74
2338.96
2330.16
2321.32
2312.47
2303.58
2294.67
2285.73
2276.77
2267.79
2258.78
2249.75
2240.69
2231.62
2222.52
2213.4
2204.25
2195.1
2185.93
2176.75
2167.55
2561.55
2552.77
2543.99
2535.21
2526.44
2517.67
2508.9
2500.13
2491.36
2482.58
2473.8
2465.01
2456.21
2447.4
2438.59
2429.76
2420.91
2412.06
2403.18
2394.29
2385.38
2376.45
2367.5
2358.53
2349.53
2340.52
2331.47
2322.4
2313.3
2304.18
2295.05
2285.88
2276.69
2267.48
2258.25
2248.98
2239.69
2230.38
2221.05
2211.7
2202.33
2192.96
2183.57
2174.17
2164.76
2567.55
2558.58
2549.62
2540.66
2531.7
2522.74
2513.77
2504.8
2495.83
2486.85
2477.86
2468.86
2459.85
2450.83
2441.8
2432.75
2423.69
2414.61
2405.52
2396.4
2387.26
2378.1
2368.92
2359.72
2350.49
2341.24
2331.97
2322.68
2313.36
2304.02
2294.66
2285.27
2275.85
2266.41
2256.94
2247.45
2237.94
2228.4
2218.85
2209.28
2199.69
2190.1
2180.5
2170.9
2161.29
2563.56
2554.41
2545.26
2536.11
2526.96
2517.8
2508.63
2499.46
2490.27
2481.08
2471.87
2462.65
2453.42
2444.17
2434.91
2425.63
2416.33
2407.01
2397.67
2388.31
2378.92
2369.52
2360.1
2350.66
2341.19
2331.7
2322.19
2312.66
2303.09
2293.5
2283.88
2274.24
2264.58
2254.89
2245.18
2235.44
2225.69
2215.92
2206.14
2196.35
2186.55
2176.75
2166.96
2157.15
2567.69
2558.36
2549.02
2539.68
2530.33
2520.98
2511.61
2502.24
2492.85
2483.45
2474.04
2464.61
2455.17
2445.71
2436.23
2426.73
2417.21
2407.68
2398.13
2388.56
2378.96
2369.35
2359.72
2350.06
2340.38
2330.67
2320.93
2311.18
2301.39
2291.58
2281.74
2271.89
2262
2252.1
2242.18
2232.24
2222.28
2212.3
2202.32
2192.33
2182.34
2172.35
2162.37
2152.38
2570.97
2561.46
2551.94
2542.41
2532.87
2523.32
2513.75
2504.18
2494.59
2484.99
2475.37
2465.74
2456.08
2446.41
2436.73
2427.03
2417.31
2407.57
2397.82
2388.04
2378.24
2368.41
2358.56
2348.68
2338.78
2328.86
2318.91
2308.94
2298.94
2288.92
2278.87
2268.8
2258.72
2248.61
2238.48
2228.34
2218.18
2208.01
2197.83
2187.66
2177.48
2167.31
2157.15
2146.99
2573.42
2563.72
2554.01
2544.29
2534.56
2524.82
2515.06
2505.29
2495.5
2485.7
2475.88
2466.05
2456.2
2446.34
2436.46
2426.56
2416.64
2406.69
2396.72
2386.73
2376.72
2366.68
2356.62
2346.54
2336.43
2326.3
2316.14
2305.96
2295.76
2285.53
2275.29
2265.02
2254.73
2244.42
2234.1
2223.77
2213.42
2203.06
2192.71
2182.35
2172
2161.65
2151.33
2141.01
2565.15
2555.25
2545.34
2535.42
2525.49
2515.54
2505.58
2495.61
2485.61
2475.61
2465.59
2455.55
2445.49
2435.4
2425.3
2415.17
2405.02
2394.85
2384.66
2374.44
2364.2
2353.94
2343.65
2333.34
2323.01
2312.65
2302.27
2291.87
2281.45
2271.01
2260.55
2250.07
2239.57
2229.07
2218.55
2208.02
2197.49
2186.96
2176.43
2165.91
2155.41
2144.93
2134.45
2565.75
2555.67
2545.59
2535.48
2525.37
2515.24
2505.1
2494.94
2484.76
2474.56
2464.34
2454.1
2443.84
2433.56
2423.25
2412.93
2402.58
2392.22
2381.82
2371.41
2360.97
2350.51
2340.03
2329.53
2319
2308.45
2297.89
2287.3
2276.69
2266.06
2255.41
2244.75
2234.08
2223.39
2212.7
2202
2191.3
2180.61
2169.92
2159.25
2148.6
2137.97
2127.36
2565.55
2555.31
2545.05
2534.77
2524.47
2514.15
2503.82
2493.47
2483.1
2472.71
2462.3
2451.87
2441.42
2430.94
2420.45
2409.93
2399.4
2388.84
2378.26
2367.65
2357.03
2346.38
2335.71
2325.02
2314.31
2303.57
2292.82
2282.05
2271.26
2260.46
2249.64
2238.8
2227.96
2217.11
2206.25
2195.39
2184.53
2173.68
2162.85
2152.03
2141.24
2130.48
2119.73
2554.15
2543.71
2533.25
2522.77
2512.27
2501.75
2491.22
2480.66
2470.09
2459.49
2448.88
2438.24
2427.58
2416.9
2406.2
2395.48
2384.74
2373.97
2363.18
2352.38
2341.55
2330.7
2319.83
2308.94
2298.03
2287.1
2276.16
2265.2
2254.23
2243.24
2232.24
2221.24
2210.23
2199.21
2188.2
2177.2
2166.21
2155.23
2144.28
2133.36
2122.47
2111.61
2552.19
2541.57
2530.93
2520.28
2509.6
2498.91
2488.2
2477.46
2466.71
2455.93
2445.14
2434.32
2423.48
2412.63
2401.75
2390.85
2379.93
2368.98
2358.02
2347.04
2336.04
2325.02
2313.98
2302.92
2291.84
2280.75
2269.64
2258.52
2247.39
2236.24
2225.09
2213.94
2202.78
2191.62
2180.47
2169.32
2158.2
2147.09
2136.02
2124.97
2113.98
2103.01
2549.45
2538.66
2527.85
2517.02
2506.17
2495.31
2484.42
2473.51
2462.59
2451.64
2440.67
2429.68
2418.67
2407.64
2396.59
2385.52
2374.43
2363.32
2352.19
2341.04
2329.87
2318.69
2307.49
2296.27
2285.03
2273.78
2262.52
2251.25
2239.96
2228.67
2217.38
2206.08
2194.78
2183.48
2172.2
2160.93
2149.68
2138.45
2127.27
2116.11
2105.01
2093.95
2545.93
2534.98
2524
2513.01
2501.99
2490.96
2479.91
2468.83
2457.74
2446.62
2435.49
2424.34
2413.16
2401.97
2390.75
2379.52
2368.27
2356.99
2345.71
2334.4
2323.07
2311.73
2300.38
2289.01