/*--------------------------------*- C++ -*----------------------------------*\
| =========                 |                                                 |
| \\      /  F ield         | OpenFOAM: The Open Source CFD Toolbox           |
|  \\    /   O peration     | Version:  v1706                                 |
|   \\  /    A nd           | Web:      www.OpenFOAM.com                      |
|    \\/     M anipulation  |                                                 |
\*---------------------------------------------------------------------------*/
FoamFile
{
    version     2.0;
    format      ascii;
    class       volScalarField;
    location    "1.6e-05";
    object      Tv;
}
// * * * * * * * * * * * * * * * * * * * * * * * * * * * * * * * * * * * * * //

dimensions      [0 0 0 1 0 0 0];


internalField   nonuniform List<scalar> 
30038
(
144.4
144.4
144.4
144.4
144.4
144.4
144.4
144.4
144.4
144.4
144.4
144.4
144.4
144.4
144.4
144.4
144.4
144.4
144.4
144.4
144.4
144.4
144.4
144.4
144.4
144.4
144.4
144.4
144.4
144.4
144.4
144.4
144.4
144.4
144.4
144.4
144.4
144.4
144.4
144.4
144.4
144.4
144.4
144.4
144.4
144.4
144.4
144.4
144.4
144.4
144.4
144.4
144.4
144.4
144.4
144.4
144.4
144.4
144.4
144.4
144.4
144.4
144.4
144.4
144.4
144.4
144.4
144.4
144.4
144.4
144.4
144.4
144.4
144.4
144.4
144.4
144.4
144.4
144.4
144.4
144.4
144.4
144.4
144.4
144.4
144.4
144.4
144.4
144.4
144.4
144.4
144.4
144.4
144.4
144.4
144.4
144.4
144.4
144.4
144.4
144.4
144.4
144.4
144.4
144.4
144.4
144.4
144.4
144.4
144.4
144.4
144.4
144.4
144.4
144.4
144.4
144.4
144.4
144.4
144.4
144.4
144.4
144.4
144.4
144.4
144.4
144.4
144.4
144.4
144.4
144.4
144.4
144.4
144.4
144.4
144.4
144.4
144.4
144.4
144.4
144.4
144.4
144.4
144.4
144.4
144.4
144.4
144.4
144.4
144.4
144.4
144.4
144.4
144.4
144.4
144.4
144.4
144.4
144.4
144.4
144.4
144.4
144.4
144.4
144.4
144.4
144.4
144.4
144.4
144.4
144.4
144.4
144.4
144.4
144.4
144.4
144.4
144.4
144.4
144.4
144.4
144.4
144.4
144.4
144.4
144.4
144.4
144.4
144.4
144.4
144.4
144.4
144.4
144.4
144.4
144.4
144.4
144.4
144.4
144.4
144.4
144.4
144.4
144.4
144.4
144.4
144.4
144.4
144.4
144.4
144.4
144.4
144.4
144.4
144.4
144.4
144.4
144.4
144.4
144.4
144.4
144.4
144.4
144.4
144.4
144.4
144.4
144.4
144.4
144.4
144.4
144.4
144.4
144.4
144.4
144.4
144.4
144.4
144.4
144.4
144.4
144.4
144.4
144.4
144.4
144.4
144.4
144.4
144.4
144.4
144.4
144.4
144.4
144.4
144.4
144.4
144.4
144.4
144.4
144.4
144.4
144.4
144.4
144.4
144.4
144.4
144.4
144.4
144.4
144.4
144.4
144.4
144.4
144.4
144.4
144.4
144.4
144.4
144.4
144.4
144.4
144.4
144.4
144.4
144.4
144.4
144.4
144.4
144.4
144.4
144.4
144.4
144.4
144.4
144.4
144.4
144.4
144.4
144.4
144.4
144.4
144.4
144.4
144.4
144.4
144.4
144.4
144.4
144.4
144.4
144.4
144.4
144.4
144.4
144.4
144.4
144.4
144.4
144.4
144.4
144.4
144.4
144.4
144.4
144.4
144.4
144.4
144.4
144.4
144.4
144.4
144.4
144.4
144.4
144.4
144.4
144.4
144.4
144.4
144.4
144.4
144.4
144.4
144.4
144.4
144.4
144.4
144.4
144.4
144.4
144.4
144.4
144.4
144.4
144.4
144.4
144.4
144.4
144.4
144.4
144.4
144.4
144.4
144.4
144.4
144.4
144.4
144.4
144.4
144.4
144.4
144.4
144.4
144.4
144.4
144.4
144.4
144.4
144.4
144.4
144.4
144.4
144.4
144.4
144.4
144.4
144.4
144.4
144.4
144.4
144.4
144.4
144.4
144.4
144.4
144.4
144.4
144.4
144.4
144.4
144.4
144.4
144.4
144.4
144.4
144.4
144.4
144.4
144.4
144.4
144.4
144.4
144.4
144.4
144.4
144.4
144.4
144.4
144.4
144.4
144.4
144.4
144.4
144.4
144.4
144.4
144.4
144.4
144.4
144.4
144.4
144.4
144.4
144.4
144.4
144.4
144.4
144.4
144.4
144.4
144.4
144.4
144.4
144.4
144.4
144.4
144.4
144.4
144.4
144.4
144.4
144.4
144.4
144.4
144.4
144.4
144.4
144.4
144.4
144.4
144.4
144.4
144.4
144.4
144.4
144.4
144.4
144.4
144.4
144.4
144.4
144.4
144.4
144.4
144.4
144.4
144.4
144.4
144.4
144.4
144.4
144.4
144.4
144.4
144.4
144.4
144.4
144.4
144.4
144.4
144.4
144.4
144.4
144.4
144.4
144.4
144.4
144.4
144.4
144.4
144.4
144.4
144.4
144.4
144.4
144.4
144.4
144.4
144.4
144.4
144.4
144.4
144.4
144.4
144.4
144.4
144.4
144.4
144.4
144.4
144.4
144.4
144.4
144.4
144.4
144.4
144.4
144.4
144.4
144.4
144.4
144.4
144.4
144.4
144.4
144.4
144.4
144.4
144.4
144.4
144.4
144.4
144.4
144.4
144.4
144.4
144.4
144.4
144.4
144.4
144.4
144.4
144.4
144.4
144.4
144.4
144.4
144.4
144.4
144.4
144.4
144.4
144.4
144.4
144.4
144.4
144.4
144.4
144.4
144.4
144.4
144.4
144.4
144.4
144.4
144.4
144.4
144.4
144.4
144.4
144.4
144.4
144.4
144.4
144.4
144.4
144.4
144.4
144.4
144.4
144.4
144.4
144.4
144.4
144.4
144.4
144.4
144.4
144.4
144.4
144.4
144.4
144.4
144.4
144.4
144.4
144.4
144.4
144.4
144.4
144.4
144.4
144.4
144.4
144.4
144.4
144.4
144.4
144.4
144.4
144.4
144.4
144.4
144.4
144.4
144.4
144.4
144.4
144.4
144.4
144.4
144.4
144.4
144.4
144.4
144.4
144.4
144.4
144.4
144.4
144.4
144.4
144.4
144.4
144.4
144.4
144.4
144.4
144.4
144.4
144.4
144.4
144.4
144.4
144.4
144.4
144.4
144.4
144.4
144.4
144.4
144.4
144.4
144.4
144.4
144.4
144.4
144.4
144.4
144.4
144.4
144.4
144.4
144.4
144.4
144.4
144.4
144.4
144.4
144.4
144.4
144.4
144.4
144.4
144.4
144.4
144.4
144.4
144.4
144.4
144.4
144.4
144.4
144.4
144.4
144.4
144.4
144.4
144.4
144.4
144.4
144.4
144.4
144.4
144.4
144.4
144.4
144.4
144.4
144.4
144.4
144.4
144.4
144.4
144.4
144.4
144.4
144.4
144.4
144.4
144.4
144.4
144.4
144.4
144.4
144.4
144.4
144.4
144.4
144.4
144.4
144.4
144.4
144.4
144.4
144.4
144.4
144.4
144.4
144.4
144.4
144.4
144.4
144.4
144.4
144.4
144.4
144.4
144.4
144.4
144.4
144.4
144.4
144.4
144.4
144.4
144.4
144.4
144.4
144.4
144.4
144.4
144.4
144.4
144.4
144.4
144.4
144.4
144.4
144.4
144.4
144.4
144.4
144.4
144.4
144.4
144.4
144.4
144.4
144.4
144.4
144.4
144.4
144.4
144.4
144.4
144.4
144.4
144.4
144.4
144.4
144.4
144.4
144.4
144.4
144.4
144.4
144.4
144.4
144.4
144.4
144.4
144.4
144.4
144.4
144.4
144.4
144.4
144.4
144.4
144.4
144.4
144.4
144.4
144.4
144.4
144.4
144.4
144.4
144.4
144.4
144.4
144.4
144.4
144.4
144.4
144.4
144.4
144.4
144.4
144.4
144.4
144.4
144.4
144.4
144.4
144.4
144.4
144.4
144.4
144.4
144.4
144.4
144.4
144.4
144.4
144.4
144.4
144.4
144.4
144.4
144.4
144.4
144.4
144.4
144.4
144.4
144.4
144.4
144.4
144.4
144.4
144.4
144.4
144.4
144.4
144.4
144.4
144.4
144.4
144.4
144.4
144.4
144.4
144.4
144.4
144.4
144.4
144.4
144.4
144.4
144.4
144.4
144.4
144.4
144.4
144.4
144.4
144.4
144.4
144.4
144.4
144.4
144.4
144.4
144.4
144.4
144.4
144.4
144.4
144.4
144.4
144.4
144.4
144.4
144.4
144.4
144.4
144.4
144.4
144.4
144.4
144.4
144.4
144.4
144.4
144.4
144.4
144.4
144.4
144.4
144.4
144.4
144.4
144.4
144.4
144.4
144.4
144.4
144.4
144.4
144.4
144.4
144.4
144.4
144.4
144.4
144.4
144.4
144.4
144.4
144.4
144.4
144.4
144.4
144.4
144.4
144.4
144.4
144.4
144.4
144.4
144.4
144.4
144.4
144.4
144.4
144.4
144.4
144.4
144.4
144.4
144.4
144.4
144.4
144.4
144.4
144.4
144.4
144.4
144.4
144.4
144.4
144.4
144.4
144.4
144.4
144.4
144.4
144.4
144.4
144.4
144.4
144.4
144.4
144.4
144.4
144.4
144.4
144.4
144.4
144.4
144.4
144.4
144.4
144.4
144.4
144.4
144.4
144.4
144.4
144.4
144.4
144.4
144.4
144.4
144.4
144.4
144.4
144.4
144.4
144.4
144.4
144.4
144.4
144.4
144.4
144.4
144.4
144.4
144.4
144.4
144.4
144.4
144.4
144.4
144.4
144.4
144.4
144.4
144.4
144.4
144.4
144.4
144.4
144.4
144.4
144.4
144.4
144.4
144.4
144.4
144.4
144.4
144.4
144.4
144.4
144.4
144.4
144.4
144.4
144.4
144.4
144.4
144.4
144.4
144.4
144.4
144.4
144.4
144.4
144.4
144.4
144.4
144.4
144.4
144.4
144.4
144.4
144.4
144.4
144.4
144.4
144.4
144.4
144.4
144.4
144.4
144.4
144.4
144.4
144.4
144.4
144.4
144.4
144.4
144.4
144.4
144.4
144.4
144.4
144.4
144.4
144.4
144.4
144.4
144.4
144.4
144.4
144.4
144.4
144.4
144.4
144.4
144.4
144.4
144.4
144.4
144.4
144.4
144.4
144.4
144.4
144.4
144.4
144.4
144.4
144.4
144.4
144.4
144.4
144.4
144.4
144.4
144.4
144.4
144.4
144.4
144.4
144.4
144.4
144.4
144.4
144.4
144.4
144.4
144.4
144.4
144.4
144.4
144.4
144.4
144.4
144.4
144.4
144.4
144.4
144.4
144.4
144.4
144.4
144.4
144.4
144.4
144.4
144.4
144.4
144.4
144.4
144.4
144.4
144.4
144.4
144.4
144.4
144.4
144.4
144.4
144.4
144.4
144.4
144.4
144.4
144.4
144.4
144.4
144.4
144.4
144.4
144.4
144.4
144.4
144.4
144.4
144.4
144.4
144.4
144.4
144.4
144.4
144.4
144.4
144.4
144.4
144.4
144.4
144.4
144.4
144.4
144.4
144.4
144.4
144.4
144.4
144.4
144.4
144.4
144.4
144.4
144.4
144.4
144.4
144.4
144.4
144.4
144.4
144.4
144.4
144.4
144.4
144.4
144.4
144.4
144.4
144.4
144.4
144.4
144.4
144.4
144.4
144.4
144.4
144.4
144.4
144.4
144.4
144.4
144.4
144.4
144.4
144.4
144.4
144.4
144.4
144.4
144.4
144.4
144.4
144.4
144.4
144.4
144.4
144.4
144.4
144.4
144.4
144.4
144.4
144.4
144.4
144.4
144.4
144.4
144.4
144.4
144.4
144.4
144.4
144.4
144.4
144.4
144.4
144.4
144.4
144.4
144.4
144.4
144.4
144.4
144.4
144.4
144.4
144.4
144.4
144.4
144.4
144.4
144.4
144.4
144.4
144.4
144.4
144.4
144.4
144.4
144.4
144.4
144.4
144.4
144.4
144.4
144.4
144.4
144.4
144.4
144.4
144.4
144.4
144.4
144.4
144.4
144.4
144.4
144.4
144.4
144.4
144.4
144.4
144.4
144.4
144.4
144.4
144.4
144.4
144.4
144.4
144.4
144.4
144.4
144.4
144.4
144.4
144.4
144.4
144.4
144.4
144.4
144.4
144.4
144.4
144.4
144.4
144.4
144.4
144.4
144.4
144.4
144.4
144.4
144.4
144.4
144.4
144.4
144.4
144.4
144.4
144.4
144.4
144.4
144.4
144.4
144.4
144.4
144.4
144.4
144.4
144.4
144.4
144.4
144.4
144.4
144.4
144.4
144.4
144.4
144.4
144.4
144.4
144.4
144.4
144.4
144.4
144.4
144.4
144.4
144.4
144.4
144.4
144.4
144.4
144.4
144.4
144.4
144.4
144.4
144.4
144.4
144.4
144.4
144.4
144.4
144.4
144.4
144.4
144.4
144.4
144.4
144.4
144.4
144.4
144.4
144.4
144.4
144.4
144.4
144.4
144.4
144.4
144.4
144.4
144.4
144.4
144.4
144.4
144.4
144.4
144.4
144.4
144.4
144.4
144.4
144.4
144.4
144.4
144.4
144.4
144.4
144.4
144.4
144.401
144.401
144.403
144.4
144.4
144.4
144.4
144.4
144.4
144.4
144.4
144.4
144.4
144.4
144.4
144.4
144.4
144.4
144.4
144.4
144.4
144.4
144.4
144.4
144.4
144.4
144.4
144.4
144.4
144.4
144.4
144.4
144.4
144.4
144.4
144.4
144.4
144.4
144.4
144.4
144.4
144.4
144.4
144.4
144.4
144.4
144.4
144.401
144.401
144.402
144.405
144.41
144.422
144.4
144.4
144.4
144.4
144.4
144.4
144.4
144.4
144.4
144.4
144.4
144.4
144.4
144.4
144.4
144.4
144.4
144.4
144.4
144.4
144.4
144.4
144.4
144.4
144.4
144.4
144.4
144.4
144.4
144.4
144.4
144.4
144.4
144.4
144.4
144.4
144.4
144.4
144.4
144.4
144.4
144.401
144.401
144.403
144.405
144.41
144.421
144.441
144.484
144.585
144.4
144.4
144.4
144.4
144.4
144.4
144.4
144.4
144.4
144.4
144.4
144.4
144.4
144.4
144.4
144.4
144.4
144.4
144.4
144.4
144.4
144.4
144.4
144.4
144.4
144.4
144.4
144.4
144.4
144.4
144.4
144.4
144.4
144.4
144.4
144.4
144.4
144.4
144.401
144.402
144.403
144.406
144.411
144.423
144.444
144.488
144.573
144.742
145.078
145.802
144.4
144.4
144.4
144.4
144.4
144.4
144.4
144.4
144.4
144.4
144.4
144.4
144.4
144.4
144.4
144.4
144.4
144.4
144.4
144.4
144.4
144.4
144.4
144.4
144.4
144.4
144.4
144.4
144.4
144.4
144.4
144.4
144.4
144.4
144.401
144.401
144.402
144.404
144.407
144.413
144.425
144.449
144.496
144.586
144.762
145.096
145.718
146.817
148.637
151.584
144.4
144.4
144.4
144.4
144.4
144.4
144.4
144.4
144.4
144.4
144.4
144.4
144.4
144.4
144.4
144.4
144.4
144.4
144.4
144.4
144.4
144.4
144.4
144.4
144.4
144.4
144.4
144.4
144.4
144.4
144.4
144.401
144.401
144.402
144.404
144.408
144.416
144.43
144.457
144.509
144.608
144.796
145.15
145.793
146.906
148.689
151.287
154.721
158.936
164.079
144.4
144.4
144.4
144.4
144.4
144.4
144.4
144.4
144.4
144.4
144.4
144.4
144.4
144.4
144.4
144.4
144.4
144.4
144.4
144.4
144.4
144.4
144.4
144.4
144.4
144.4
144.4
144.4
144.401
144.402
144.403
144.406
144.41
144.419
144.436
144.468
144.527
144.639
144.849
145.233
145.919
147.078
148.897
151.497
154.885
158.971
163.635
168.773
174.321
180.386
144.4
144.4
144.4
144.4
144.4
144.4
144.4
144.4
144.4
144.4
144.4
144.4
144.4
144.4
144.4
144.4
144.4
144.4
144.4
144.4
144.4
144.4
144.4
144.4
144.401
144.401
144.402
144.404
144.407
144.413
144.425
144.445
144.484
144.554
144.685
144.925
145.356
146.106
147.342
149.233
151.875
155.262
159.304
163.888
168.914
174.294
179.943
185.771
191.698
197.725
144.4
144.4
144.4
144.4
144.4
144.4
144.4
144.4
144.4
144.4
144.4
144.4
144.4
144.4
144.4
144.4
144.4
144.4
144.4
144.4
144.401
144.401
144.402
144.403
144.406
144.41
144.418
144.432
144.459
144.506
144.593
144.751
145.033
145.53
146.37
147.716
149.712
152.431
155.847
159.872
164.403
169.349
174.632
180.171
185.879
191.655
197.399
203.025
208.483
213.779
144.4
144.4
144.4
144.4
144.4
144.4
144.4
144.4
144.4
144.4
144.4
144.4
144.4
144.4
144.4
144.4
144.4
144.401
144.401
144.403
144.405
144.408
144.414
144.425
144.444
144.478
144.54
144.65
144.845
145.187
145.773
146.735
148.224
150.36
153.183
156.654
160.683
165.179
170.063
175.263
180.707
186.312
191.987
197.635
203.168
208.516
213.636
218.51
223.155
227.612
144.4
144.4
144.4
144.4
144.4
144.4
144.4
144.4
144.4
144.4
144.4
144.4
144.4
144.4
144.401
144.401
144.402
144.404
144.407
144.412
144.42
144.435
144.462
144.508
144.59
144.733
144.981
145.406
146.112
147.232
148.9
151.203
154.154
157.697
161.748
166.225
171.059
176.188
181.545
187.054
192.629
198.179
203.622
208.89
213.94
218.749
223.312
227.641
231.756
235.697
239.509
144.4
144.4
144.4
144.4
144.4
144.4
144.4
144.4
144.4
144.4
144.401
144.401
144.402
144.404
144.406
144.41
144.418
144.43
144.452
144.489
144.554
144.665
144.856
145.181
145.72
146.584
147.902
149.781
152.276
155.369
158.997
163.08
167.55
172.347
177.414
182.691
188.107
193.58
199.027
204.371
209.549
214.519
219.259
223.762
228.037
232.099
235.967
239.665
243.216
246.657
250.035
144.4
144.4
144.4
144.4
144.4
144.4
144.4
144.401
144.401
144.402
144.404
144.406
144.41
144.416
144.428
144.446
144.478
144.533
144.625
144.781
145.043
145.475
146.169
147.237
148.793
150.913
153.613
156.856
160.573
164.696
169.167
173.934
178.947
184.149
189.473
194.843
200.182
205.417
210.493
215.37
220.027
224.458
228.67
232.675
236.493
240.143
243.644
247.016
250.276
253.444
256.55
259.647
144.4
144.4
144.401
144.401
144.401
144.402
144.404
144.406
144.41
144.416
144.427
144.444
144.474
144.522
144.604
144.739
144.963
145.328
145.911
146.81
148.132
149.962
152.34
155.25
158.64
162.447
166.612
171.089
175.831
180.795
185.925
191.157
196.421
201.644
206.763
211.725
216.496
221.056
225.401
229.536
233.474
237.231
240.826
244.276
247.6
250.813
253.931
256.969
259.938
262.85
265.724
268.619
144.402
144.403
144.404
144.407
144.411
144.417
144.428
144.445
144.474
144.52
144.596
144.721
144.924
145.251
145.766
146.557
147.719
149.339
151.468
154.107
157.219
160.747
164.639
168.846
173.33
178.051
182.966
188.023
193.161
198.314
203.416
208.408
213.245
217.898
222.348
226.594
230.641
234.499
238.185
241.714
245.106
248.374
251.535
254.604
257.593
260.513
263.375
266.185
268.948
271.666
274.347
277.051
144.412
144.419
144.431
144.449
144.478
144.526
144.602
144.724
144.919
145.228
145.709
146.437
147.501
148.982
150.933
153.364
156.252
159.547
163.201
167.169
171.415
175.905
180.604
185.469
190.45
195.489
200.523
205.494
210.35
215.051
219.574
223.903
228.038
231.984
235.752
239.357
242.812
246.136
249.341
252.444
255.457
258.393
261.262
264.073
266.834
269.55
272.221
274.848
277.428
279.959
282.445
284.947
144.489
144.54
144.62
144.747
144.945
145.254
145.727
146.433
147.449
148.85
150.688
152.975
155.693
158.803
162.259
166.022
170.057
174.336
178.828
183.5
188.31
193.208
198.139
203.045
207.875
212.584
217.139
221.52
225.718
229.731
233.566
237.234
240.747
244.12
247.368
250.504
253.542
256.493
259.371
262.184
264.941
267.65
270.315
272.938
275.52
278.059
280.55
282.992
285.381
287.719
290.013
292.32
145.008
145.335
145.824
146.54
147.553
148.928
150.71
152.91
155.513
158.484
161.783
165.376
169.23
173.322
177.626
182.113
186.75
191.494
196.298
201.109
205.876
210.554
215.105
219.503
223.733
227.788
231.67
235.385
238.943
242.357
245.639
248.803
251.863
254.83
257.715
260.529
263.282
265.981
268.634
271.245
273.817
276.35
278.843
281.293
283.696
286.05
288.352
290.605
292.808
294.965
297.084
299.219
147.823
149.22
150.996
153.16
155.696
158.572
161.753
165.209
168.914
172.844
176.98
181.298
185.768
190.358
195.023
199.717
204.394
209.008
213.521
217.903
222.134
226.203
230.107
233.849
237.435
240.876
244.183
247.368
250.443
253.42
256.31
259.123
261.869
264.558
267.195
269.788
272.342
274.859
277.34
279.784
282.189
284.549
286.864
289.129
291.346
293.515
295.636
297.714
299.75
301.748
303.715
305.7
159.064
162.162
165.513
169.095
172.89
176.88
181.045
185.362
189.8
194.323
198.891
203.458
207.984
212.43
216.765
220.967
225.021
228.922
232.667
236.261
239.712
243.029
246.223
249.304
252.283
255.172
257.98
260.718
263.392
266.012
268.584
271.115
273.608
276.067
278.493
280.885
283.24
285.554
287.826
290.051
292.229
294.361
296.446
298.488
300.489
302.449
304.374
306.265
308.124
309.958
311.812
173.455
177.32
181.351
185.528
189.823
194.206
198.641
203.087
207.506
211.862
216.125
220.271
224.283
228.153
231.878
235.458
238.899
242.209
245.397
248.472
251.444
254.323
257.119
259.842
262.498
265.097
267.645
270.149
272.614
275.044
277.442
279.81
282.146
284.448
286.714
288.938
291.12
293.257
295.348
297.395
299.398
301.361
303.285
305.173
307.026
308.848
310.639
312.402
314.14
315.859
317.597
190.427
194.675
198.975
203.293
207.593
211.842
216.01
220.075
224.021
227.835
231.515
235.058
238.469
241.753
244.918
247.972
250.924
253.784
256.559
259.259
261.891
264.464
266.983
269.456
271.889
274.285
276.65
278.985
281.292
283.57
285.816
288.029
290.204
292.339
294.431
296.48
298.485
300.448
302.37
304.255
306.104
307.919
309.702
311.455
313.181
314.88
316.555
318.206
319.837
321.453
323.089
212.383
216.439
220.403
224.259
227.995
231.605
235.09
238.449
241.688
244.813
247.83
250.748
253.575
256.319
258.987
261.587
264.126
266.612
269.05
271.445
273.804
276.13
278.426
280.696
282.939
285.156
287.345
289.502
291.625
293.71
295.754
297.757
299.718
301.638
303.518
305.362
307.169
308.944
310.687
312.401
314.087
315.747
317.383
318.996
320.587
322.159
323.712
325.247
326.771
328.316
228.65
232.171
235.575
238.862
242.037
245.103
248.067
250.936
253.717
256.417
259.043
261.601
264.1
266.544
268.941
271.295
273.61
275.893
278.146
280.372
282.574
284.753
286.907
289.035
291.134
293.201
295.233
297.228
299.182
301.096
302.971
304.807
306.606
308.371
310.102
311.804
313.476
315.121
316.741
318.336
319.91
321.462
322.994
324.508
326.004
327.483
328.947
330.397
331.837
333.297
242.815
245.806
248.7
251.505
254.226
256.869
259.442
261.949
264.398
266.793
269.142
271.447
273.715
275.95
278.154
280.333
282.487
284.62
286.731
288.821
290.886
292.925
294.934
296.911
298.852
300.755
302.62
304.447
306.236
307.989
309.709
311.397
313.054
314.683
316.285
317.863
319.417
320.949
322.46
323.951
325.425
326.881
328.322
329.746
331.156
332.552
333.935
335.306
336.669
338.05
255.115
257.689
260.197
262.642
265.032
267.37
269.663
271.914
274.128
276.309
278.46
280.586
282.689
284.77
286.832
288.875
290.898
292.898
294.875
296.824
298.743
300.628
302.478
304.291
306.068
307.808
309.513
311.186
312.827
314.439
316.023
317.581
319.115
320.625
322.114
323.583
325.033
326.465
327.88
329.28
330.664
332.034
333.391
334.735
336.066
337.385
338.693
339.99
341.28
342.588
266.012
268.284
270.513
272.702
274.856
276.978
279.072
281.14
283.186
285.212
287.22
289.21
291.182
293.137
295.072
296.984
298.871
300.729
302.557
304.35
306.109
307.833
309.522
311.178
312.801
314.394
315.959
317.496
319.008
320.496
321.962
323.407
324.832
326.238
327.628
329.001
330.358
331.701
333.031
334.347
335.651
336.942
338.223
339.492
340.75
341.997
343.235
344.463
345.685
346.924
275.907
277.964
279.995
282.001
283.986
285.952
287.9
289.833
291.75
293.652
295.537
297.405
299.251
301.074
302.87
304.637
306.373
308.075
309.744
311.38
312.983
314.556
316.099
317.614
319.103
320.567
322.009
323.428
324.827
326.207
327.569
328.914
330.244
331.558
332.859
334.146
335.42
336.683
337.934
339.174
340.404
341.623
342.832
344.032
345.221
346.401
347.573
348.735
349.893
351.066
285.093
286.994
288.88
290.75
292.608
294.452
296.282
298.097
299.896
301.675
303.432
305.165
306.869
308.544
310.188
311.8
313.38
314.929
316.449
317.94
319.404
320.844
322.259
323.652
325.024
326.376
327.71
329.026
330.325
331.61
332.88
334.137
335.381
336.613
337.833
339.042
340.241
341.43
342.609
343.779
344.939
346.091
347.233
348.367
349.492
350.608
351.717
352.817
353.914
355.024
295.542
297.312
299.07
300.814
302.543
304.254
305.944
307.611
309.252
310.865
312.448
314.001
315.524
317.017
318.481
319.919
321.331
322.718
324.083
325.426
326.749
328.053
329.338
330.607
331.861
333.099
334.324
335.536
336.735
337.923
339.101
340.267
341.424
342.571
343.709
344.838
345.958
347.07
348.174
349.269
350.357
351.436
352.508
353.571
354.627
355.676
356.717
357.755
358.805
303.686
305.345
306.986
308.608
310.208
311.783
313.332
314.852
316.345
317.808
319.244
320.652
322.034
323.392
324.726
326.038
327.33
328.603
329.857
331.094
332.315
333.52
334.712
335.89
337.056
338.21
339.353
340.486
341.609
342.722
343.827
344.922
346.01
347.089
348.16
349.224
350.28
351.329
352.37
353.405
354.431
355.451
356.464
357.469
358.467
359.458
360.442
361.423
362.416
311.421
312.952
314.461
315.944
317.401
318.83
320.233
321.609
322.959
324.285
325.587
326.866
328.125
329.364
330.585
331.788
332.975
334.147
335.304
336.447
337.578
338.697
339.805
340.902
341.99
343.068
344.137
345.198
346.25
347.295
348.332
349.362
350.385
351.401
352.41
353.412
354.408
355.396
356.379
357.355
358.324
359.286
360.242
361.191
362.134
363.07
363.999
364.926
365.863
320.09
321.456
322.796
324.111
325.402
326.669
327.914
329.138
330.342
331.527
332.695
333.846
334.982
336.103
337.21
338.304
339.387
340.458
341.519
342.569
343.611
344.643
345.667
346.683
347.692
348.693
349.688
350.675
351.656
352.631
353.599
354.561
355.517
356.467
357.411
358.349
359.281
360.207
361.127
362.041
362.949
363.851
364.746
365.635
366.518
367.395
368.269
369.153
326.748
327.977
329.185
330.372
331.539
332.687
333.817
334.931
336.029
337.113
338.182
339.239
340.283
341.316
342.339
343.351
344.354
345.348
346.335
347.313
348.284
349.247
350.204
351.155
352.099
353.038
353.97
354.897
355.818
356.734
357.644
358.549
359.448
360.342
361.23
362.114
362.991
363.863
364.73
365.591
366.446
367.296
368.139
368.977
369.808
370.635
371.458
372.29
334.067
335.158
336.233
337.291
338.336
339.366
340.383
341.388
342.382
343.365
344.338
345.301
346.256
347.203
348.142
349.073
349.998
350.916
351.828
352.734
353.635
354.53
355.419
356.304
357.183
358.057
358.927
359.791
360.651
361.506
362.356
363.202
364.042
364.878
365.708
366.534
367.354
368.169
368.979
369.784
370.583
371.377
372.165
372.947
373.724
374.499
375.281
339.774
340.763
341.74
342.704
343.657
344.599
345.531
346.454
347.368
348.274
349.172
350.063
350.947
351.825
352.697
353.564
354.425
355.281
356.131
356.977
357.819
358.655
359.488
360.316
361.139
361.959
362.774
363.585
364.391
365.194
365.992
366.785
367.575
368.359
369.14
369.915
370.686
371.451
372.212
372.968
373.719
374.464
375.204
375.939
376.669
377.396
378.13
346.042
346.932
347.813
348.685
349.549
350.406
351.255
352.098
352.934
353.765
354.59
355.41
356.225
357.036
357.842
358.644
359.441
360.235
361.025
361.81
362.592
363.371
364.145
364.916
365.683
366.447
367.206
367.962
368.714
369.462
370.206
370.946
371.682
372.414
373.141
373.864
374.582
375.295
376.004
376.708
377.407
378.101
378.789
379.473
380.155
380.843
351.03
351.843
352.65
353.45
354.244
355.032
355.815
356.593
357.366
358.135
358.9
359.661
360.418
361.171
361.921
362.667
363.41
364.15
364.887
365.62
366.35
367.077
367.801
368.521
369.239
369.953
370.663
371.371
372.074
372.774
373.471
374.163
374.852
375.537
376.218
376.894
377.566
378.234
378.897
379.556
380.21
380.859
381.503
382.142
382.78
383.423
355.754
356.499
357.238
357.973
358.704
359.43
360.152
360.871
361.586
362.298
363.006
363.712
364.414
365.114
365.811
366.505
367.197
367.886
368.572
369.256
369.936
370.614
371.29
371.962
372.632
373.298
373.962
374.622
375.279
375.933
376.584
377.231
377.874
378.514
379.15
379.782
380.409
381.033
381.652
382.267
382.877
383.483
384.084
384.681
385.275
385.875
360.238
360.921
361.6
362.275
362.947
363.616
364.282
364.946
365.607
366.265
366.921
367.575
368.227
368.876
369.523
370.168
370.81
371.451
372.089
372.725
373.358
373.99
374.618
375.245
375.868
376.489
377.108
377.723
378.336
378.945
379.551
380.154
380.754
381.35
381.943
382.531
383.116
383.697
384.274
384.846
385.414
385.978
386.538
387.093
387.646
388.203
364.501
365.127
365.75
366.37
366.988
367.604
368.218
368.83
369.44
370.049
370.655
371.26
371.863
372.464
373.064
373.662
374.258
374.852
375.444
376.035
376.623
377.209
377.793
378.375
378.955
379.532
380.107
380.679
381.248
381.815
382.378
382.939
383.496
384.05
384.601
385.148
385.691
386.231
386.766
387.298
387.825
388.349
388.868
389.383
389.896
390.413
368.558
369.131
369.702
370.271
370.839
371.405
371.97
372.534
373.096
373.657
374.216
374.775
375.332
375.887
376.442
376.994
377.546
378.096
378.644
379.191
379.736
380.279
380.82
381.359
381.897
382.432
382.964
383.494
384.022
384.547
385.07
385.589
386.105
386.619
387.129
387.636
388.139
388.638
389.134
389.626
390.114
390.598
391.079
391.555
392.029
392.507
372.422
372.946
373.468
373.989
374.51
375.029
375.547
376.065
376.582
377.098
377.612
378.126
378.64
379.152
379.663
380.172
380.681
381.189
381.695
382.199
382.703
383.204
383.704
384.202
384.698
385.193
385.685
386.175
386.662
387.147
387.63
388.109
388.586
389.06
389.531
389.999
390.463
390.924
391.382
391.836
392.286
392.732
393.174
393.613
394.05
394.49
376.581
377.057
377.533
378.009
378.484
378.958
379.432
379.905
380.378
380.851
381.322
381.793
382.263
382.733
383.201
383.669
384.136
384.601
385.065
385.528
385.99
386.45
386.909
387.365
387.82
388.273
388.724
389.173
389.619
390.063
390.504
390.943
391.379
391.812
392.242
392.669
393.093
393.513
393.93
394.343
394.753
395.159
395.561
395.962
396.365
380.045
380.478
380.911
381.344
381.777
382.209
382.641
383.073
383.505
383.937
384.368
384.798
385.229
385.658
386.087
386.515
386.942
387.369
387.794
388.218
388.641
389.063
389.483
389.902
390.319
390.734
391.147
391.558
391.967
392.374
392.778
393.18
393.58
393.976
394.37
394.76
395.148
395.532
395.913
396.291
396.665
397.036
397.403
397.769
398.137
383.346
383.738
384.13
384.522
384.915
385.307
385.699
386.092
386.484
386.877
387.269
387.661
388.052
388.444
388.834
389.224
389.614
390.002
390.39
390.777
391.163
391.547
391.93
392.312
392.692
393.071
393.448
393.823
394.196
394.567
394.935
395.301
395.665
396.026
396.385
396.74
397.093
397.443
397.789
398.132
398.472
398.809
399.143
399.474
399.808
386.844
387.197
387.55
387.904
388.258
388.612
388.967
389.321
389.676
390.031
390.385
390.74
391.094
391.448
391.801
392.154
392.506
392.858
393.209
393.558
393.907
394.255
394.601
394.946
395.289
395.631
395.971
396.309
396.645
396.979
397.311
397.64
397.967
398.292
398.613
398.932
399.248
399.561
399.871
400.178
400.482
400.783
401.082
401.383
389.801
390.117
390.433
390.75
391.067
391.384
391.702
392.021
392.339
392.658
392.977
393.295
393.614
393.932
394.251
394.568
394.885
395.202
395.518
395.833
396.147
396.46
396.772
397.083
397.392
397.7
398.006
398.31
398.613
398.913
399.212
399.508
399.802
400.094
400.383
400.669
400.953
401.234
401.512
401.787
402.059
402.328
402.595
402.864
392.616
392.896
393.176
393.457
393.739
394.022
394.304
394.588
394.872
395.156
395.44
395.724
396.008
396.292
396.577
396.86
397.144
397.426
397.709
397.99
398.271
398.551
398.83
399.107
399.384
399.659
399.932
400.204
400.474
400.742
401.009
401.273
401.535
401.795
402.052
402.307
402.56
402.809
403.056
403.3
403.542
403.78
404.017
404.256
395.293
395.539
395.785
396.032
396.28
396.528
396.777
397.027
397.277
397.528
397.779
398.03
398.281
398.532
398.783
399.034
399.285
399.535
399.785
400.034
400.283
400.53
400.777
401.023
401.268
401.511
401.753
401.993
402.232
402.469
402.705
402.938
403.169
403.398
403.625
403.85
404.072
404.292
404.509
404.723
404.935
405.144
405.352
405.56
398.05
398.264
398.478
398.693
398.909
399.125
399.343
399.561
399.779
399.998
400.217
400.436
400.655
400.875
401.094
401.313
401.532
401.751
401.969
402.186
402.403
402.619
402.834
403.048
403.26
403.472
403.682
403.891
404.098
404.303
404.507
404.708
404.908
405.105
405.301
405.494
405.684
405.872
406.058
406.241
406.422
406.601
406.781
400.436
400.617
400.8
400.983
401.168
401.353
401.539
401.726
401.913
402.101
402.289
402.478
402.666
402.855
403.044
403.233
403.421
403.61
403.797
403.985
404.172
404.358
404.543
404.727
404.911
405.093
405.274
405.453
405.631
405.808
405.982
406.155
406.326
406.496
406.663
406.827
406.99
407.15
407.308
407.464
407.617
407.769
407.922
402.699
402.85
403.002
403.155
403.309
403.464
403.62
403.777
403.934
404.092
404.251
404.409
404.569
404.728
404.887
405.047
405.206
405.365
405.524
405.683
405.84
405.998
406.154
406.31
406.465
406.619
406.771
406.923
407.073
407.221
407.368
407.514
407.657
407.799
407.939
408.077
408.212
408.346
408.477
408.606
408.733
408.858
408.984
404.965
405.088
405.212
405.337
405.463
405.59
405.718
405.846
405.975
406.105
406.235
406.366
406.497
406.628
406.759
406.89
407.021
407.152
407.283
407.413
407.542
407.671
407.799
407.927
408.053
408.179
408.303
408.426
408.548
408.668
408.787
408.904
409.019
409.133
409.244
409.354
409.461
409.567
409.67
409.771
409.871
409.972
406.967
407.062
407.158
407.255
407.353
407.452
407.552
407.653
407.754
407.856
407.959
408.062
408.165
408.269
408.373
408.477
408.581
408.685
408.788
408.892
408.994
409.097
409.198
409.299
409.4
409.499
409.597
409.694
409.79
409.884
409.977
410.069
410.158
410.247
410.333
410.417
410.5
410.581
410.659
410.736
410.811
410.887
408.86
408.928
408.997
409.067
409.138
409.21
409.283
409.357
409.432
409.507
409.583
409.66
409.737
409.814
409.892
409.97
410.047
410.125
410.203
410.28
410.358
410.434
410.51
410.586
410.661
410.734
410.807
410.879
410.95
411.02
411.088
411.155
411.22
411.284
411.346
411.406
411.465
411.521
411.576
411.629
411.681
411.733
410.648
410.689
410.732
410.776
410.821
410.867
410.915
410.963
411.012
411.062
411.112
411.163
411.215
411.267
411.319
411.372
411.424
411.477
411.53
411.582
411.635
411.687
411.738
411.789
411.839