/*--------------------------------*- C++ -*----------------------------------*\
| =========                 |                                                 |
| \\      /  F ield         | OpenFOAM: The Open Source CFD Toolbox           |
|  \\    /   O peration     | Version:  v1706                                 |
|   \\  /    A nd           | Web:      www.OpenFOAM.com                      |
|    \\/     M anipulation  |                                                 |
\*---------------------------------------------------------------------------*/
FoamFile
{
    version     2.0;
    format      ascii;
    class       volScalarField;
    location    "1.6e-05";
    object      wallHeatFlux;
}
// * * * * * * * * * * * * * * * * * * * * * * * * * * * * * * * * * * * * * //

dimensions      [1 0 -3 0 0 0 0];


internalField   uniform 0;

boundaryField
{
    cone
    {
        type            calculated;
        value           nonuniform List<scalar> 
153
(
535323
529797
524298
518825
513375
507947
502543
497160
491801
486465
481152
475863
470598
465358
460144
454956
449794
444660
439552
434472
429421
424398
419404
414439
409504
404599
399725
394882
390070
385290
380543
375829
371148
366501
361890
357315
352778
348280
343824
339410
335043
330724
326461
322254
318106
314004
309938
305725
301561
297885
294439
291189
288079
285074
282152
279296
276496
273741
271024
268338
265680
263045
260429
257829
255244
252671
250109
247556
245012
242475
239944
237420
234901
232388
229881
227378
224881
222388
219901
217420
214944
212474
210010
207552
205101
202657
200220
197791
195371
192960
190559
188167
185787
183419
181063
178721
176393
174080
171784
169505
167244
165003
162783
160585
158409
156257
154130
152029
149955
147909
145892
143904
141946
140018
138122
136258
134426
132625
130857
129121
127418
125746
124106
122498
120921
119375
117861
116377
114924
113501
112110
110749
109418
108117
106845
105601
104384
103192
102023
100878
99753.7
98652.2
97574.7
96524
95504.7
94522.5
93583.9
92695.9
91864.8
91095.7
90390.8
89748.7
89163.9
)
;
    }
    inlet
    {
        type            calculated;
        value           uniform 0;
    }
    rWedge
    {
        type            wedge;
    }
    lWedge
    {
        type            wedge;
    }
    outlet
    {
        type            calculated;
        value           nonuniform 0();
    }
    procBoundary2to0
    {
        type            processor;
        value           uniform 0;
    }
    procBoundary2to1
    {
        type            processor;
        value           uniform 0;
    }
    procBoundary2to3
    {
        type            processor;
        value           uniform 0;
    }
}


// ************************************************************************* //
