/*--------------------------------*- C++ -*----------------------------------*\
| =========                 |                                                 |
| \\      /  F ield         | OpenFOAM: The Open Source CFD Toolbox           |
|  \\    /   O peration     | Version:  v1706                                 |
|   \\  /    A nd           | Web:      www.OpenFOAM.com                      |
|    \\/     M anipulation  |                                                 |
\*---------------------------------------------------------------------------*/
FoamFile
{
    version     2.0;
    format      ascii;
    class       volScalarField;
    location    "1.7e-05";
    object      p;
}
// * * * * * * * * * * * * * * * * * * * * * * * * * * * * * * * * * * * * * //

dimensions      [1 -1 -2 0 0 0 0];


internalField   nonuniform List<scalar> 
29871
(
21.9139
21.9139
21.9139
21.9139
21.9139
21.9139
21.9139
21.9139
21.9139
21.9139
21.9139
21.9139
21.9139
21.9139
21.9139
21.9139
21.9139
21.9139
21.9139
21.9139
21.9139
21.9139
21.9139
21.9139
21.9139
21.9139
21.9139
21.9139
21.9139
21.9139
21.9139
21.9139
21.9139
21.9139
21.9139
21.9139
21.9139
21.9139
21.9139
21.9139
21.9139
21.9139
21.9139
21.9139
21.9139
21.9139
21.9139
21.9139
21.9139
21.9139
21.9139
21.9139
21.9139
21.9139
21.9139
21.9139
21.9139
21.9139
21.9139
21.9139
21.9139
21.9139
21.9139
21.9139
21.9139
21.9139
21.9139
21.9139
21.9139
21.9139
21.9139
21.9139
21.9139
21.9139
21.9139
21.9139
21.9139
21.9139
21.9139
21.9139
21.9139
21.9139
21.9139
21.9139
21.9139
21.9139
21.9139
21.9139
21.9139
21.9139
21.9139
21.9139
21.9139
21.9139
21.9139
21.9139
21.9139
21.9139
21.9139
21.9139
21.9139
21.9139
21.9139
21.9139
21.9139
21.9139
21.9139
21.9139
21.9139
21.9139
21.9139
21.9139
21.9139
21.9139
21.9139
21.9139
21.9139
21.9139
21.9139
21.9139
21.9139
21.9139
21.9139
21.9139
21.9139
21.9139
21.9139
21.9139
21.9139
21.9139
21.9139
21.9139
21.9139
21.9139
21.9139
21.9139
21.9139
21.9139
21.9139
21.9139
21.9139
21.9139
21.9139
21.9139
21.9139
21.9139
21.9139
21.9139
21.9139
21.9139
21.9139
21.9139
21.9139
21.9139
21.9139
21.9139
21.9139
21.9139
21.9139
21.9139
21.9139
21.9139
21.9139
21.9139
21.9139
21.9139
21.9139
21.9139
21.9139
21.9139
21.9139
21.9139
21.9139
21.9139
21.9139
21.9139
21.9139
21.9139
21.9139
21.9139
21.9139
21.9139
21.9139
21.9139
21.9139
21.9139
21.9139
21.9139
21.9139
21.9139
21.9139
21.9139
21.9139
21.9139
21.9139
21.9139
21.9139
21.9139
21.9139
21.9139
21.9139
21.9139
21.9139
21.9139
21.9139
21.9139
21.9139
21.9139
21.9139
21.9139
21.9139
21.9139
21.9139
21.9139
21.9139
21.9139
21.9139
21.9139
21.9139
21.9139
21.9139
21.9139
21.9139
21.9139
21.9139
21.9139
21.9139
21.9139
21.9139
21.9139
21.9139
21.9139
21.9139
21.9139
21.9139
21.9139
21.9139
21.9139
21.9139
21.9139
21.9139
21.9139
21.9139
21.9139
21.9139
21.9139
21.9139
21.9139
21.9139
21.9139
21.9139
21.9139
21.9139
21.9139
21.9139
21.9139
21.9139
21.9139
21.9139
21.9139
21.9139
21.9139
21.9139
21.9139
21.9139
21.9139
21.9139
21.9139
21.9139
21.9139
21.9139
21.9139
21.9139
21.9139
21.9139
21.9139
21.9139
21.9139
21.9139
21.9139
21.9139
21.9139
21.9139
21.9139
21.9139
21.9139
21.9139
21.9139
21.9139
21.9139
21.9139
21.9139
21.9139
21.9139
21.9139
21.9139
21.9139
21.9139
21.9139
21.9139
21.9139
21.9139
21.9139
21.9139
21.9139
21.9139
21.9139
21.9139
21.9139
21.9139
21.9139
21.9139
21.9139
21.9139
21.9139
21.9139
21.9139
21.9139
21.9139
21.9139
21.9139
21.9139
21.9139
21.9139
21.9139
21.9139
21.9139
21.9139
21.9139
21.9139
21.9139
21.9139
21.9139
21.9139
21.9139
21.9139
21.9139
21.9139
21.9139
21.9139
21.9139
21.9139
21.9139
21.9139
21.9139
21.9139
21.9139
21.9139
21.9139
21.9139
21.9139
21.9139
21.9139
21.9139
21.9139
21.9139
21.9139
21.9139
21.9139
21.9139
21.9139
21.9139
21.9139
21.9139
21.9139
21.9139
21.9139
21.9139
21.9139
21.9139
21.9139
21.9139
21.9139
21.9139
21.9139
21.9139
21.9139
21.9139
21.9139
21.9139
21.9139
21.9139
21.9139
21.9139
21.9139
21.9139
21.9139
21.9139
21.9139
21.9139
21.9139
21.9139
21.9139
21.9139
21.9139
21.9139
21.9139
21.9139
21.9139
21.9139
21.9139
21.9139
21.9139
21.9139
21.9139
21.9139
21.9139
21.9139
21.9139
21.9139
21.9139
21.9139
21.9139
21.9139
21.9139
21.9139
21.9139
21.9139
21.9139
21.9139
21.9139
21.9139
21.9139
21.9139
21.9139
21.9139
21.9139
21.9139
21.9139
21.9139
21.9139
21.9139
21.9139
21.9139
21.9139
21.9139
21.9139
21.9139
21.9139
21.9139
21.9139
21.9139
21.9139
21.9139
21.9139
21.9139
21.9139
21.9139
21.9139
21.9139
21.9139
21.9139
21.9139
21.9139
21.9139
21.9139
21.9139
21.9139
21.9139
21.9139
21.9139
21.9139
21.9139
21.9139
21.9139
21.9139
21.9139
21.9139
21.9139
21.9139
21.9139
21.9139
21.9139
21.9139
21.9139
21.9139
21.9139
21.9139
21.9139
21.9139
21.9139
21.9139
21.9139
21.9139
21.9139
21.9139
21.9139
21.9139
21.9139
21.9139
21.9139
21.9139
21.9139
21.9139
21.9139
21.9139
21.9139
21.9139
21.9139
21.9139
21.9139
21.9139
21.9139
21.9139
21.9139
21.9139
21.9139
21.9139
21.9139
21.9139
21.9139
21.9139
21.9139
21.9139
21.9139
21.9139
21.9139
21.9139
21.9139
21.9139
21.9139
21.9139
21.9139
21.9139
21.9139
21.9139
21.9139
21.9139
21.9139
21.9139
21.9139
21.9139
21.9139
21.9139
21.9139
21.9139
21.9139
21.9139
21.9139
21.9139
21.9139
21.9139
21.9139
21.9139
21.9139
21.9139
21.9139
21.9139
21.9139
21.9139
21.9139
21.9139
21.9139
21.9139
21.9139
21.9139
21.9139
21.9139
21.9139
21.9139
21.9139
21.9139
21.9139
21.9139
21.9139
21.9139
21.9139
21.9139
21.9139
21.9139
21.9139
21.9139
21.9139
21.9139
21.9139
21.9139
21.9139
21.9139
21.9139
21.9139
21.9139
21.9139
21.9139
21.9139
21.9139
21.9139
21.9139
21.9139
21.9139
21.9139
21.9139
21.9139
21.9139
21.9139
21.9139
21.9139
21.9139
21.9139
21.9139
21.9139
21.9139
21.9139
21.9139
21.9139
21.9139
21.9139
21.9139
21.9139
21.9139
21.9139
21.9139
21.9139
21.9139
21.9139
21.9139
21.9139
21.9139
21.9139
21.9139
21.9139
21.9139
21.9139
21.9139
21.9139
21.9139
21.9139
21.9139
21.9139
21.9139
21.9139
21.9139
21.9139
21.9139
21.9139
21.9139
21.9139
21.9139
21.9139
21.9139
21.9139
21.9139
21.9139
21.9139
21.9139
21.9139
21.9139
21.9139
21.9139
21.9139
21.9139
21.9139
21.9139
21.9139
21.9139
21.9139
21.9139
21.9139
21.9139
21.9139
21.9139
21.9139
21.9139
21.9139
21.9139
21.9139
21.9139
21.9139
21.9139
21.9139
21.9139
21.9139
21.9139
21.9139
21.9139
21.9139
21.9139
21.9139
21.9139
21.9139
21.9139
21.9139
21.9139
21.9139
21.9139
21.9139
21.9139
21.9139
21.9139
21.9139
21.9139
21.9139
21.9139
21.9139
21.9139
21.9139
21.9139
21.9139
21.9139
21.9139
21.9139
21.9139
21.9139
21.9139
21.9139
21.9139
21.9139
21.9139
21.9139
21.9139
21.9139
21.9139
21.9139
21.9139
21.9139
21.9139
21.9139
21.9139
21.9139
21.9139
21.9139
21.9139
21.9139
21.9139
21.9139
21.9139
21.9139
21.9139
21.9139
21.9139
21.9139
21.9139
21.9139
21.9139
21.9139
21.9139
21.9139
21.9139
21.9139
21.9139
21.9139
21.9139
21.9139
21.9139
21.9139
21.9139
21.9139
21.9139
21.9139
21.9139
21.9139
21.9139
21.9139
21.9139
21.9139
21.9139
21.9139
21.9139
21.9139
21.9139
21.9139
21.9139
21.9139
21.9139
21.9139
21.9139
21.9139
21.9139
21.9139
21.9139
21.9139
21.9139
21.9139
21.9139
21.9139
21.9139
21.9139
21.9139
21.9139
21.9139
21.9139
21.9139
21.9139
21.9139
21.9139
21.9139
21.9139
21.9139
21.9139
21.9139
21.9139
21.9139
21.9139
21.9139
21.9139
21.9139
21.9139
21.9139
21.9139
21.9139
21.9139
21.9139
21.9139
21.9139
21.9139
21.9139
21.9139
21.9139
21.9139
21.9139
21.9139
21.9139
21.9139
21.9139
21.9139
21.9139
21.9139
21.9139
21.9139
21.9139
21.9139
21.9139
21.9139
21.9139
21.9139
21.9139
21.9139
21.9139
21.9139
21.9139
21.9139
21.9139
21.9139
21.9139
21.9139
21.9139
21.9139
21.9139
21.9139
21.9139
21.9139
21.9139
21.9139
21.9139
21.9139
21.9139
21.9139
21.9139
21.9139
21.9139
21.9139
21.9139
21.9139
21.9139
21.9139
21.9139
21.9139
21.9139
21.9139
21.9139
21.9139
21.9139
21.9139
21.9139
21.9139
21.9139
21.9139
21.9139
21.9139
21.9139
21.9139
21.9139
21.9139
21.9139
21.9139
21.9139
21.9139
21.9139
21.9139
21.9139
21.9139
21.9139
21.9139
21.9139
21.9139
21.9139
21.9139
21.9139
21.9139
21.9139
21.9139
21.9139
21.9139
21.9139
21.9139
21.9139
21.9139
21.9139
21.9139
21.9139
21.9139
21.9139
21.9139
21.9139
21.9139
21.9139
21.9139
21.9139
21.9139
21.9139
21.9139
21.9139
21.9139
21.9139
21.9139
21.9139
21.9139
21.9139
21.9139
21.9139
21.9139
21.9139
21.9139
21.9139
21.9139
21.9139
21.9139
21.9139
21.9139
21.9139
21.9139
21.9139
21.9139
21.9139
21.9139
21.9139
21.9139
21.9139
21.9139
21.9139
21.9139
21.9139
21.9139
21.9139
21.9139
21.9139
21.9139
21.9139
21.9139
21.9139
21.9139
21.9139
21.9139
21.9139
21.9139
21.9139
21.9139
21.9139
21.9139
21.9139
21.9139
21.9139
21.9139
21.9139
21.9139
21.9139
21.9139
21.9139
21.9139
21.9139
21.9139
21.9139
21.9139
21.9139
21.9139
21.9139
21.9139
21.9139
21.9139
21.9139
21.9139
21.9139
21.9139
21.9139
21.9139
21.9139
21.9139
21.9139
21.9139
21.9139
21.9139
21.9139
21.9139
21.9139
21.9139
21.9139
21.9139
21.9139
21.9139
21.9139
21.9139
21.9139
21.9139
21.9139
21.9139
21.9139
21.9139
21.9139
21.9139
21.9139
21.9139
21.9139
21.9139
21.9139
21.9139
21.9139
21.9139
21.9139
21.9139
21.9139
21.9139
21.9139
21.9139
21.9139
21.9139
21.9139
21.9139
21.9139
21.9139
21.9139
21.9139
21.9139
21.9139
21.9139
21.9139
21.9139
21.9139
21.9139
21.9139
21.9139
21.9139
21.9139
21.9139
21.9139
21.9139
21.9139
21.9139
21.9139
21.9139
21.9139
21.9139
21.9139
21.9139
21.9139
21.9139
21.9139
21.9139
21.9139
21.9139
21.9139
21.9139
21.9139
21.9139
21.9139
21.9139
21.9139
21.9139
21.9139
21.9139
21.9139
21.9139
21.9139
21.9139
21.9139
21.9139
21.9139
21.9139
21.9139
21.9139
21.9139
21.9139
21.9139
21.9139
21.9139
21.9139
21.9139
21.9139
21.9139
21.9139
21.9139
21.9139
21.9139
21.9139
21.9139
21.9139
21.9139
21.9139
21.9139
21.9139
21.9139
21.9139
21.9139
21.9139
21.9139
21.9139
21.9139
21.9139
21.9139
21.9139
21.9139
21.9139
21.9139
21.9139
21.9139
21.9139
21.9139
21.9139
21.9139
21.9139
21.9139
21.9139
21.9139
21.9139
21.9139
21.9139
21.9139
21.9139
21.9139
21.9139
21.9139
21.9139
21.9139
21.9139
21.9139
21.9139
21.9139
21.9139
21.9139
21.9139
21.9139
21.9139
21.9139
21.9139
21.9139
21.9139
21.9139
21.9139
21.9139
21.9139
21.9139
21.9139
21.9139
21.9139
21.9139
21.9139
21.9139
21.9139
21.9139
21.9139
21.9139
21.9139
21.9139
21.9139
21.9139
21.9139
21.9139
21.9139
21.9139
21.9139
21.9139
21.9139
21.9139
21.9139
21.9139
21.9139
21.9139
21.9139
21.9139
21.9139
21.9139
21.9139
21.9139
21.9139
21.9139
21.9139
21.9139
21.9139
21.9139
21.9139
21.9139
21.9139
21.9139
21.9139
21.9139
21.9139
21.9139
21.9139
21.9139
21.9139
21.9139
21.9139
21.9139
21.9139
21.9139
21.9139
21.9139
21.9139
21.9139
21.9139
21.9139
21.9139
21.9139
21.9139
21.9139
21.9139
21.9139
21.9139
21.9139
21.9139
21.9139
21.9139
21.9139
21.9139
21.9139
21.9139
21.9139
21.9139
21.9139
21.9139
21.9139
21.9139
21.9139
21.9139
21.9139
21.9139
21.9139
21.9139
21.9139
21.9139
21.9139
21.9139
21.9139
21.9139
21.9139
21.9139
21.9139
21.9139
21.9139
21.9139
21.9139
21.9139
21.9139
21.9139
21.9139
21.9139
21.9139
21.9139
21.9139
21.9139
21.9139
21.9139
21.9139
21.9139
21.9139
21.9139
21.9139
21.9139
21.9139
21.9139
21.9139
21.9139
21.9139
21.9139
21.9139
21.9139
21.9139
21.9139
21.9139
21.9139
21.9139
21.9139
21.9139
21.9139
21.9139
21.9139
21.9139
21.9139
21.9139
21.9139
21.9139
21.9139
21.9139
21.9139
21.9139
21.9139
21.9139
21.9139
21.9139
21.9139
21.9139
21.9139
21.9139
21.9139
21.9139
21.9139
21.9139
21.9139
21.9139
21.9139
21.9139
21.9139
21.9139
21.9139
21.9139
21.9139
21.9139
21.9139
21.9139
21.9139
21.9139
21.9139
21.9139
21.9139
21.9139
21.9139
21.9139
21.9139
21.9139
21.9139
21.9139
21.9139
21.9139
21.9139
21.9139
21.9139
21.9139
21.9139
21.9139
21.9139
21.9139
21.9139
21.9139
21.9139
21.9139
21.9139
21.9139
21.9139
21.9139
21.9139
21.9139
21.9139
21.9139
21.9139
21.9139
21.9139
21.9139
21.9139
21.9139
21.9139
21.9139
21.9139
21.9139
21.9139
21.9139
21.9139
21.9139
21.9139
21.9139
21.9139
21.9139
21.9139
21.9139
21.9139
21.9139
21.9139
21.9139
21.9139
21.9139
21.9139
21.9139
21.9139
21.9139
21.9139
21.9139
21.9139
21.9139
21.9139
21.9139
21.9139
21.9139
21.9139
21.9139
21.9139
21.9139
21.9139
21.9139
21.9139
21.9139
21.9139
21.9139
21.9139
21.9139
21.9139
21.9139
21.9139
21.9139
21.9139
21.9139
21.9139
21.9139
21.9139
21.9139
21.9139
21.9139
21.9139
21.9139
21.9139
21.9139
21.9139
21.9139
21.9139
21.9139
21.9139
21.9139
21.9139
21.9139
21.9139
21.9139
21.9139
21.9139
21.9139
21.9139
21.9139
21.9139
21.9139
21.9139
21.9139
21.9139
21.9139
21.9139
21.9139
21.9139
21.9139
21.9139
21.9139
21.9139
21.9139
21.9139
21.9139
21.9139
21.9139
21.9139
21.9139
21.9139
21.9139
21.9139
21.9139
21.9139
21.9139
21.9139
21.9139
21.9139
21.9139
21.9139
21.9139
21.9139
21.9139
21.9139
21.9139
21.9139
21.9139
21.9139
21.9139
21.9139
21.9139
21.9139
21.9139
21.9139
21.9139
21.9139
21.9139
21.9139
21.9139
21.9139
21.9139
21.9139
21.9139
21.9139
21.9139
21.9139
21.9139
21.9139
21.9139
21.9139
21.9139
21.9139
21.9139
21.9139
21.9139
21.9139
21.9139
21.9139
21.9139
21.9139
21.9139
21.9139
21.9139
21.9139
21.9139
21.9139
21.9139
21.9139
21.9139
21.9139
21.914
21.914
21.914
21.914
21.914
21.914
21.914
21.914
21.914
21.914
21.9139
21.9139
21.9139
21.9139
21.9139
21.9139
21.9139
21.9139
21.9139
21.9139
21.9139
21.9139
21.9139
21.9139
21.9139
21.9139
21.9139
21.9139
21.9139
21.9139
21.9139
21.9139
21.9139
21.9139
21.9139
21.9139
21.9139
21.9139
21.9139
21.9139
21.9139
21.9139
21.9139
21.9139
21.9139
21.9139
21.9139
21.9139
21.9139
21.9139
21.9139
21.9139
21.9139
21.9139
21.9139
21.9139
21.9139
21.9139
21.9139
21.9139
21.9139
21.9139
21.9139
21.9139
21.9139
21.9139
21.9139
21.9139
21.9139
21.9139
21.9139
21.9139
21.9139
21.9139
21.9139
21.9139
21.9139
21.9139
21.9139
21.9139
21.9139
21.9139
21.9139
21.9139
21.9139
21.9139
21.9139
21.9139
21.9139
21.9139
21.9139
21.9139
21.914
21.914
21.914
21.914
21.914
21.914
21.914
21.914
21.914
21.914
21.914
21.9141
21.9141
21.9141
21.9141
21.9141
21.9141
21.9142
21.9142
21.9142
21.9142
21.9142
21.9143
21.9143
21.9143
21.9144
21.9144
21.9145
21.9145
21.9145
21.9146
21.9146
21.9146
21.9139
21.9139
21.9139
21.9139
21.9139
21.9139
21.9139
21.9139
21.9139
21.9139
21.9139
21.9139
21.9139
21.9139
21.9139
21.9139
21.9139
21.9139
21.9139
21.9139
21.9139
21.9139
21.9139
21.9139
21.9139
21.9139
21.9139
21.9139
21.9139
21.9139
21.9139
21.9139
21.9139
21.9139
21.9139
21.9139
21.9139
21.9139
21.9139
21.9139
21.9139
21.9139
21.9139
21.9139
21.9139
21.9139
21.9139
21.9139
21.9139
21.9139
21.9139
21.9139
21.9139
21.9139
21.9139
21.9139
21.9139
21.9139
21.9139
21.9139
21.9139
21.9139
21.9139
21.914
21.914
21.914
21.914
21.914
21.914
21.914
21.914
21.914
21.914
21.914
21.9141
21.9141
21.9141
21.9141
21.9141
21.9142
21.9142
21.9142
21.9143
21.9143
21.9143
21.9144
21.9144
21.9145
21.9146
21.9146
21.9147
21.9148
21.9149
21.915
21.9152
21.9153
21.9154
21.9155
21.9157
21.9158
21.9159
21.9161
21.9163
21.9165
21.9167
21.917
21.9172
21.9175
21.9178
21.9181
21.9184
21.9187
21.919
21.9193
21.9195
21.9198
21.9139
21.9139
21.9139
21.9139
21.9139
21.9139
21.9139
21.9139
21.9139
21.9139
21.9139
21.9139
21.9139
21.9139
21.9139
21.9139
21.9139
21.9139
21.9139
21.9139
21.9139
21.9139
21.9139
21.9139
21.9139
21.9139
21.9139
21.9139
21.9139
21.9139
21.9139
21.9139
21.9139
21.9139
21.9139
21.9139
21.9139
21.9139
21.9139
21.9139
21.9139
21.9139
21.9139
21.9139
21.9139
21.9139
21.9139
21.9139
21.9139
21.9139
21.9139
21.9139
21.914
21.914
21.914
21.914
21.914
21.914
21.914
21.914
21.914
21.914
21.9141
21.9141
21.9141
21.9141
21.9141
21.9142
21.9142
21.9142
21.9142
21.9143
21.9143
21.9144
21.9144
21.9145
21.9146
21.9146
21.9147
21.9148
21.9149
21.915
21.9151
21.9153
21.9154
21.9156
21.9158
21.916
21.9163
21.9165
21.9168
21.9171
21.9174
21.9178
21.9182
21.9187
21.9193
21.9199
21.9207
21.9214
21.9222
21.9231
21.924
21.9249
21.9258
21.9267
21.9277
21.9287
21.9299
21.9312
21.9327
21.9343
21.9362
21.9382
21.9403
21.9424
21.9446
21.9468
21.9489
21.951
21.9531
21.9551
21.9572
21.9139
21.9139
21.9139
21.9139
21.9139
21.9139
21.9139
21.9139
21.9139
21.9139
21.9139
21.9139
21.9139
21.9139
21.9139
21.9139
21.9139
21.9139
21.9139
21.9139
21.9139
21.9139
21.9139
21.9139
21.9139
21.9139
21.9139
21.9139
21.9139
21.9139
21.9139
21.9139
21.9139
21.914
21.914
21.914
21.914
21.914
21.914
21.914
21.914
21.914
21.914
21.914
21.9141
21.9141
21.9141
21.9141
21.9141
21.9142
21.9142
21.9142
21.9143
21.9143
21.9143
21.9144
21.9145
21.9145
21.9146
21.9147
21.9147
21.9148
21.9149
21.915
21.9152
21.9153
21.9154
21.9156
21.9158
21.916
21.9163
21.9165
21.9168
21.9172
21.9175
21.9179
21.9183
21.9188
21.9193
21.9199
21.9206
21.9215
21.9224
21.9234
21.9246
21.9259
21.9273
21.9288
21.9304
21.9321
21.934
21.936
21.9383
21.941
21.9442
21.9478
21.952
21.9566
21.9616
21.9671
21.9728
21.9788
21.985
21.9914
21.9979
22.0045
22.0113
22.0186
22.0268
22.0363
22.0474
22.0599
22.0737
22.0884
22.1037
22.1194
22.1352
22.1509
22.1663
22.1816
22.1965
22.2114
22.2262
21.9139
21.9139
21.9139
21.9139
21.9139
21.9139
21.9139
21.9139
21.9139
21.9139
21.9139
21.9139
21.9139
21.9139
21.9139
21.914
21.914
21.914
21.914
21.914
21.914
21.914
21.914
21.914
21.914
21.9141
21.9141
21.9141
21.9141
21.9141
21.9142
21.9142
21.9142
21.9142
21.9143
21.9143
21.9144
21.9144
21.9145
21.9145
21.9146
21.9147
21.9148
21.9149
21.915
21.9151
21.9152
21.9153
21.9155
21.9157
21.9158
21.916
21.9163
21.9165
21.9168
21.9172
21.9175
21.9179
21.9184
21.9189
21.9194
21.92
21.9206
21.9213
21.9221
21.923
21.924
21.9252
21.9266
21.9281
21.9298
21.9316
21.9337
21.9359
21.9383
21.9409
21.9437
21.9468
21.9504
21.9546
21.9594
21.965
21.9714
21.9786
21.9866
21.9953
22.0049
22.0151
22.026
22.0376
22.0502
22.0642
22.0803
22.0993
22.1217
22.1477
22.1773
22.21
22.2456
22.2838
22.3239
22.3657
22.4087
22.4525
22.497
22.5424
22.5892
22.6394
22.6961
22.7621
22.8387
22.925
23.0192
23.1193
23.2232
23.3291
23.4356
23.5412
23.6453
23.7475
23.8482
23.9483
24.0486
21.914
21.914
21.914
21.914
21.914
21.914
21.914
21.914
21.914
21.9141
21.9141
21.9141
21.9141
21.9142
21.9142
21.9142
21.9143
21.9143
21.9144
21.9144
21.9145
21.9145
21.9146
21.9147
21.9148
21.9149
21.915
21.9151
21.9152
21.9153
21.9155
21.9157
21.9159
21.9161
21.9163
21.9166
21.9168
21.9172
21.9175
21.9179
21.9183
21.9188
21.9193
21.9199
21.9206
21.9213
21.9221
21.923
21.9239
21.9249
21.9261
21.9274
21.9289
21.9306
21.9325
21.9347
21.9371
21.9398
21.9427
21.9459
21.9493
21.9531
21.9572
21.9617
21.9669
21.9728
21.9796
21.9874
21.9962
22.0062
22.0172
22.0294
22.0427
22.0571
22.0726
22.0894
22.1078
22.1285
22.1525
22.1807
22.2137
22.2519
22.2953
22.344
22.3979
22.4567
22.5202
22.5881
22.6603
22.7369
22.8196
22.9119
23.0191
23.1461
23.2952
23.4669
23.6602
23.8731
24.1033
24.348
24.6041
24.8688
25.1393
25.4138
25.6915
25.9735
26.2635
26.5729
26.926
27.3449
27.8333
28.3793
28.9664
29.5791
30.205
30.8342
31.4582
32.0708
32.668
33.2496
33.8189
34.3814
34.9429
35.5077
36.077
21.9142
21.9143
21.9143
21.9144
21.9145
21.9145
21.9146
21.9147
21.9148
21.9149
21.915
21.9152
21.9153
21.9155
21.9157
21.9159
21.9161
21.9164
21.9167
21.917
21.9173
21.9177
21.9181
21.9186
21.9191
21.9197
21.9203
21.921
21.9218
21.9227
21.9237
21.9247
21.9259
21.9272
21.9286
21.9301
21.9318
21.9337
21.9359
21.9383
21.941
21.944
21.9474
21.9512
21.9553
21.9598
21.9647
21.9701
21.9759
21.9825
21.9898
21.9981
22.0075
22.0182
22.0302
22.0438
22.0588
22.0754
22.0937
22.1135
22.135
22.1584
22.1841
22.213
22.2461
22.2844
22.3286
22.3792
22.4366
22.5008
22.572
22.65
22.7346
22.8259
22.9237
23.0291
23.1447
23.2756
23.4279
23.6064
23.8143
24.0528
24.322
24.6213
24.9494
25.3048
25.6852
26.0885
26.5131
26.9605
27.4391
27.9741
28.6038
29.3547
30.2321
31.2264
32.3213
33.4994
34.7433
36.0362
37.3613
38.7032
40.0492
41.3914
42.729
44.0674
45.4223
46.8449
48.4497
50.3174
52.4205
54.6935
57.0767
59.5212
61.9852
64.4337
66.8385
69.1789
71.4455
73.6438
75.7931
77.9209
80.0546
82.2121
84.397
21.9159
21.9162
21.9165
21.9168
21.9172
21.9176
21.9181
21.9187
21.9193
21.9199
21.9206
21.9215
21.9224
21.9234
21.9245
21.9258
21.9271
21.9287
21.9304
21.9322
21.9342
21.9365
21.939
21.9418
21.9448
21.9483
21.9522
21.9564
21.9612
21.9665
21.9723
21.9787
21.9856
21.9933
22.0016
22.0109
22.0212
22.0328
22.0458
22.0604
22.0768
22.0951
22.1154
22.1379
22.1625
22.1895
22.2189
22.2509
22.2862
22.3256
22.3703
22.4214
22.4798
22.5461
22.6209
22.7045
22.7971
22.8988
23.0096
23.1295
23.2587
23.3985
23.5524
23.7259
23.925
24.1545
24.4177
24.7164
25.0515
25.4231
25.8306
26.2727
26.7477
27.254
27.7913
28.3639
28.9877
29.6978
30.5305
31.5067
32.6304
33.8948
35.2886
36.7992
38.4138
40.1195
41.9025
43.749
45.6512
47.613
49.6729
51.9377
54.5595
57.5794
60.9659
64.668
68.6315
72.8024
77.1267
81.5518
86.0298
90.519
94.9878
99.4271
103.851
108.293
112.798
117.479
123.19
130.878
140.114
150.313
161.102
172.282
183.721
195.298
206.904
218.438
229.831
241.096
252.302
263.545
274.907
286.441
298.145
21.9243
21.9257
21.9273
21.9291
21.9311
21.9333
21.9358
21.9385
21.9416
21.945
21.9488
21.9531
21.9578
21.9631
21.969
21.9755
21.9828
21.9909
21.9998
22.0096
22.0204
22.0323
22.0454
22.0599
22.076
22.094
22.1141
22.1365
22.1613
22.1889
22.2193
22.2528
22.2894
22.3294
22.3732
22.4214
22.4749
22.5351
22.603
22.6797
22.766
22.8628
22.9706
23.0898
23.2208
23.3638
23.519
23.6868
23.8691
24.0698
24.2945
24.5491
24.8384
25.1659
25.5342
25.945
26.399
26.8964
27.4363
28.0171
28.6373
29.2974
30.0035
30.7758
31.6496
32.6555
33.8098
35.1162
36.5703
38.1634
39.8857
41.7263
43.6734
45.7139
47.837
50.0385
52.3372
54.7989
57.5576
60.7035
64.2456
68.1642
72.4322
77.017
81.8834
86.9968
92.3221
97.8241
103.471
109.247
115.189
121.353
128.26
137.553
149.297
163.039
178.359
194.965
212.666
231.308
250.707
270.657
290.973
311.485
332.075
352.733
373.429
394.059
414.582
433.987
451.239
466.847
481.319
494.899
507.638
519.516
530.519
540.653
549.91
558.298
566.015
573.379
580.669
588.07
595.565
602.939
21.9732
21.9812
21.9903
22.0004
22.0118
22.0245
22.0387
22.0544
22.0718
22.0912
22.1127
22.1368
22.1635
22.1934
22.2266
22.2634
22.3042
22.3492
22.3987
22.4531
22.5127
22.5784
22.6511
22.7319
22.8223
22.9234
23.0364
23.1622
23.3017
23.4558
23.6251
23.8099
24.0107
24.2285
24.4653
24.7253
25.0139
25.3367
25.6983
26.1025
26.5525
27.0505
27.5983
28.1966
28.8452
29.5431
30.2893
31.0852
31.9383
32.8715
33.9164
35.0989
36.4332
37.9234
39.5679
41.3611
43.2952
45.3606
47.5459
49.8383
52.2273
54.7105
57.317
60.122
63.236
66.701
70.5183
74.6805
79.1757
83.9859
89.0888
94.4588
100.066
105.883
111.884
118.077
124.506
131.325
139.768
150.617
163.671
178.597
195.142
213.139
232.475
253.067
274.816
297.568
321.147
345.437
370.347
395.894
421.732
446.153
469.078
490.802
511.472
531.078
549.569
566.861
582.903
597.703
611.176
623.225
634.306
645.005
655.394
665.524
675.4
684.367
692.026
698.535
704.102
708.967
713.17
716.77
719.8
722.171
723.991
725.495
726.606
727.312
727.653
727.646
727.16
726.237
725.325
724.706
22.2455
22.2901
22.34
22.3957
22.4578
22.5267
22.6031
22.6876
22.7813
22.8854
23.0014
23.1307
23.275
23.4356
23.6138
23.8111
24.0283
24.2666
24.5268
24.8098
25.118
25.4552
25.8263
26.2364
26.6901
27.1914
27.7438
28.3502
29.0131
29.7339
30.5134
31.3512
32.247
33.2025
34.2266
35.342
36.5753
37.9476
39.4715
41.1524
42.9908
44.9835
47.1253
49.4084
51.8228
54.3574
57.0024
59.7595
62.6643
65.7905
69.2089
72.9406
76.9868
81.3496
86.0303
91.0244
96.3195
101.896
107.727
113.789
120.06
126.557
133.31
140.681
149.975
161.336
174.567
189.448
205.813
223.548
242.575
262.831
284.234
306.646
329.922
353.997
378.839
404.501
429.815
453.985
477.209
499.682
521.37
542.147
561.94
580.693
598.366
614.896
630.196
644.407
657.945
671.119
683.944
696.17
707.409
717.627
726.891
735.119
742.271
748.404
753.669
758.02
761.451
764.173
766.236
767.137
766.773
765.941
765.112
764.197
762.984
761.532
759.962
758.367
756.802
755.263
753.661
751.932
750.324
748.962
747.415
745.735
744.422
743.377
742.362
740.919
739.526
738.517
23.6843
23.9154
24.1731
24.4592
24.7756
25.1238
25.506
25.925
26.3852
26.8917
27.4493
28.0624
28.735
29.4706
30.2721
31.1423
32.0828
33.0945
34.1779
35.3346
36.5718
37.9081
39.3651
40.9607
42.7073
44.6117
46.6764
48.9008
51.2814
53.8124
56.4855
59.2912
62.2197
65.2762
68.4971
71.9456
75.6575
79.6389
83.8938
88.4322
93.265
98.3975
103.828
109.545
115.531
121.766
128.236
134.964
141.976
149.919
159.631
171.143
184.295
198.929
214.937
232.252
250.818
270.571
291.427
313.254
335.937
359.409
383.668
408.529
432.74
456.143
478.877
501.011
522.455
543.066
562.773
581.542
599.223
615.687
631.132
645.728
659.617
673.393
687.118
700.03
711.803
722.838
733.194
742.566
750.942
758.475
765.277
771.176
775.949
779.76
782.622
784.472
785.809
786.683
786.877
786.882
786.89
786.862
786.667
786.301
785.837
785.276
784.532
783.889
783.306
782.579
781.369
779.87
778.487
777.035
775.419
773.632
771.699
769.693
767.698
765.725
763.685
761.586
759.776
758.155
756.284
753.948
751.836
750.499
748.848
746.461
744.51
743.291
30.4623
31.4616
32.5492
33.7275
34.9983
36.3633
37.8255
39.3942
41.0859
42.9185
44.9062
47.0593
49.384
51.8829
54.5554
57.3979
60.4043
63.5662
66.873
70.3262
73.9536
77.7995
81.8784
86.1879
90.7294
95.5144
100.559
105.879
111.481
117.368
123.531
129.958
136.64
143.591
150.864
159.284
169.254
180.753
193.678
207.934
223.45
240.18
258.088
277.123
297.208
318.234
340.109
362.778
386.263
410.003
433.213
455.897
478.142
499.936
521.171
541.711
561.458
580.317
598.073
614.58
630.105
644.815
658.884
672.912
686.812
699.75
711.639
723.035
733.756
743.476
752.265
760.329
767.657
774.08
779.313
783.153
786.006
788.631
790.407
791.201
791.974
793.13
794.163
794.864
795.425
796.142
796.961
797.824
798.752
799.649
800.305
800.784
801.199
801.265
800.922
800.431
799.851
799.192
798.426
797.524
796.525
795.468
794.329
793.192
791.98
790.55
788.684
786.443
784.086
781.696
779.3
776.843
774.294
771.722
769.231
766.779
764.175
761.493
759.239
757.228
754.762
751.638
749.802
748.347
746.012
743.609
742.271
741.379
740.226
57.4883
60.8022
64.3194
68.0333
71.9338
76.0276
80.3387
84.8874
89.6673
94.6644
99.8732
105.301
110.966
116.886
123.078
129.553
136.311
143.35
150.668
158.329
167.085
177.17
188.594
201.309
215.249
230.358
246.598
263.938
282.339
301.742
322.052
343.189
365.09
387.742
410.372
432.639
454.591
476.262
497.606
518.509
538.829
558.446
577.254
595.066
611.671
627.19
642.041
656.546
670.698
684.377
697.434
709.822
721.527
732.459
742.645
752.142
760.884
768.763
775.555
780.95
784.788
787.72
790.462
792.112
792.954
794.04
795.505
796.434
797.041
797.834
798.855
800.044
801.423
802.938
804.35
805.627
806.972
807.767
807.84
808.069
808.696
809.032
809.042
808.998
809.109
809.315
809.559
809.974
810.329
810.327
810.143
809.714
808.841
807.647
806.313
804.92
803.504
802.053
800.551
798.973
797.249
795.412
793.54
791.663
789.665
787.423
784.966
782.383
779.802
777.268
774.699
772.041
769.381
766.843
764.291
761.457
758.714
756.558
754.353
751.246
748.518
747.048
745.112
742.337
740.61
739.639
738.715
737.021
121.669
128.563
135.732
143.194
150.973
159.062
167.703
177.447
188.449
200.737
214.279
229.024
244.923
261.931
280.005
299.101
319.152
340.061
361.738
384.101
406.403
428.453
450.263
471.839
493.131
514.046
534.449
554.202
573.207
591.3
608.224
624.007
638.992
653.515
667.612
681.203
694.231
706.646
718.443
729.607
740.106
749.946
759.116
767.482
774.601
780.155
784.33
787.507
790.054
792.088
793.717
795.139
796.376
797.537
798.736
799.891
801.078
802.491
804.267
806.256
808.135
809.843
811.451
812.124
812.258
812.798
813.605
813.662
813.583
813.653
813.942
814.352
814.93
815.72
816.512
817.231
817.55
817.308
816.671
816.035
815.467
814.853
814.244
813.606
813.067
812.615
812.17
811.802
811.458
810.949
810.342
809.574
808.529
807.246
805.829
804.347
802.827
801.265
799.656
797.96
796.114
794.133
792.086
790.004
787.813
785.437
782.865
780.156
777.439
774.767
772.062
769.267
766.561
764.033
761.32
758.256
755.727
753.637
750.962
747.621
745.756
744.164
741.611
739.192
738.026
737.216
735.882
733.735
277.458
297.208
318.039
339.866
362.587
385.889
409.171
432.245
455.058
477.582
499.752
521.461
542.586
562.993
582.582
601.184
618.502
634.542
649.653
664.028
677.746
690.835
703.305
715.144
726.378
737.016
747.035
756.417
765.072
772.567
778.368
782.678
786.004
788.69
790.924
792.791
794.395
795.842
797.19
798.51
799.846
801.277
803.007
805.221
807.855
810.406
812.49
814.179
815.4
816.269
816.952
817.411
817.789
818.185
818.476
818.735
819.117
819.828
820.837
821.931
822.998
823.421
823.038
822.342
821.778
821.143
820.373
819.513
818.761
818.214
817.836
817.592
817.394
817.297
817.495
817.521
817.199
816.617
815.999
815.346
814.677
814.019
813.388
812.818
812.293
811.778
811.297
810.819
810.247
809.584
808.752
807.682
806.379
804.907
803.336
801.704
800.028
798.303
796.494
794.557
792.493
790.344
788.135
785.826
783.362
780.714
777.93
775.124
772.347
769.489
766.561
763.898
761.346
758.326
755.237
753.032
750.754
747.459
744.738
743.266
741.283
738.425
736.748
735.877
734.823
732.944
731.028
575.958
597.174
617.276
635.963
653.089
668.835
683.421
697.037
709.828
721.841
733.094
743.676
753.59
762.81
771.249
778.42
783.619
787.385
790.284
792.606
794.489
796.023
797.301
798.478
799.572
800.663
801.838
803.344
805.482
808.272
811.176
813.634
815.61
817.14
818.279
819.13
819.797
820.321
820.759
821.157
821.525
821.985
822.838
824.215
825.766
826.948
827.816
828.068
827.742
827.248
826.583
825.866
825.164
824.47
823.815
823.323
823.026
822.816
822.871
823.235
823.298
822.969
822.365
821.72
820.973
820.141
819.284
818.508
817.85
817.317
816.902
816.53
816.35
816.394
816.375
816.127
815.726
815.226
814.637
813.987
813.315
812.676
812.089
811.53
810.985
810.469
809.942
809.362
808.688
807.851
806.792
805.496
803.999
802.361
800.631
798.842
796.997
795.075
793.046
790.904
788.671
786.36
783.952
781.403
778.683
775.831
772.958
770.075
767.028
764.044
761.466
758.728
755.336
752.598
750.514
747.735
744.247
742.434
740.885
738.369
735.901
734.77
733.777
732.184
730.324
728.911
727.901
727.382
767.191
776.544
785.025
792.173
797.244
800.494
802.862
804.708
806.03
806.932
807.677
808.255
808.724
809.22
810.05
811.672
814.174
816.886
819.204
820.932
822.163
822.993
823.52