/*--------------------------------*- C++ -*----------------------------------*\
| =========                 |                                                 |
| \\      /  F ield         | OpenFOAM: The Open Source CFD Toolbox           |
|  \\    /   O peration     | Version:  v1706                                 |
|   \\  /    A nd           | Web:      www.OpenFOAM.com                      |
|    \\/     M anipulation  |                                                 |
\*---------------------------------------------------------------------------*/
FoamFile
{
    version     2.0;
    format      ascii;
    class       volScalarField;
    location    "1.7e-05";
    object      Tt;
}
// * * * * * * * * * * * * * * * * * * * * * * * * * * * * * * * * * * * * * //

dimensions      [0 0 0 1 0 0 0];


internalField   nonuniform List<scalar> 
29871
(
144.4
144.4
144.4
144.4
144.4
144.4
144.4
144.4
144.4
144.4
144.4
144.4
144.4
144.4
144.4
144.4
144.4
144.4
144.4
144.4
144.4
144.4
144.4
144.4
144.4
144.4
144.4
144.4
144.4
144.4
144.4
144.4
144.4
144.4
144.4
144.4
144.4
144.4
144.4
144.4
144.4
144.4
144.4
144.4
144.4
144.4
144.4
144.4
144.4
144.4
144.4
144.4
144.4
144.4
144.4
144.4
144.4
144.4
144.4
144.4
144.4
144.4
144.4
144.4
144.4
144.4
144.4
144.4
144.4
144.4
144.4
144.4
144.4
144.4
144.4
144.4
144.4
144.4
144.4
144.4
144.4
144.4
144.4
144.4
144.4
144.4
144.4
144.4
144.4
144.4
144.4
144.4
144.4
144.4
144.4
144.4
144.4
144.4
144.4
144.4
144.4
144.4
144.4
144.4
144.4
144.4
144.4
144.4
144.4
144.4
144.4
144.4
144.4
144.4
144.4
144.4
144.4
144.4
144.4
144.4
144.4
144.4
144.4
144.4
144.4
144.4
144.4
144.4
144.4
144.4
144.4
144.4
144.4
144.4
144.4
144.4
144.4
144.4
144.4
144.4
144.4
144.4
144.4
144.4
144.4
144.4
144.4
144.4
144.4
144.4
144.4
144.4
144.4
144.4
144.4
144.4
144.4
144.4
144.4
144.4
144.4
144.4
144.4
144.4
144.4
144.4
144.4
144.4
144.4
144.4
144.4
144.4
144.4
144.4
144.4
144.4
144.4
144.4
144.4
144.4
144.4
144.4
144.4
144.4
144.4
144.4
144.4
144.4
144.4
144.4
144.4
144.4
144.4
144.4
144.4
144.4
144.4
144.4
144.4
144.4
144.4
144.4
144.4
144.4
144.4
144.4
144.4
144.4
144.4
144.4
144.4
144.4
144.4
144.4
144.4
144.4
144.4
144.4
144.4
144.4
144.4
144.4
144.4
144.4
144.4
144.4
144.4
144.4
144.4
144.4
144.4
144.4
144.4
144.4
144.4
144.4
144.4
144.4
144.4
144.4
144.4
144.4
144.4
144.4
144.4
144.4
144.4
144.4
144.4
144.4
144.4
144.4
144.4
144.4
144.4
144.4
144.4
144.4
144.4
144.4
144.4
144.4
144.4
144.4
144.4
144.4
144.4
144.4
144.4
144.4
144.4
144.4
144.4
144.4
144.4
144.4
144.4
144.4
144.4
144.4
144.4
144.4
144.4
144.4
144.4
144.4
144.4
144.4
144.4
144.4
144.4
144.4
144.4
144.4
144.4
144.4
144.4
144.4
144.4
144.4
144.4
144.4
144.4
144.4
144.4
144.4
144.4
144.4
144.4
144.4
144.4
144.4
144.4
144.4
144.4
144.4
144.4
144.4
144.4
144.4
144.4
144.4
144.4
144.4
144.4
144.4
144.4
144.4
144.4
144.4
144.4
144.4
144.4
144.4
144.4
144.4
144.4
144.4
144.4
144.4
144.4
144.4
144.4
144.4
144.4
144.4
144.4
144.4
144.4
144.4
144.4
144.4
144.4
144.4
144.4
144.4
144.4
144.4
144.4
144.4
144.4
144.4
144.4
144.4
144.4
144.4
144.4
144.4
144.4
144.4
144.4
144.4
144.4
144.4
144.4
144.4
144.4
144.4
144.4
144.4
144.4
144.4
144.4
144.4
144.4
144.4
144.4
144.4
144.4
144.4
144.4
144.4
144.4
144.4
144.4
144.4
144.4
144.4
144.4
144.4
144.4
144.4
144.4
144.4
144.4
144.4
144.4
144.4
144.4
144.4
144.4
144.4
144.4
144.4
144.4
144.4
144.4
144.4
144.4
144.4
144.4
144.4
144.4
144.4
144.4
144.4
144.4
144.4
144.4
144.4
144.4
144.4
144.4
144.4
144.4
144.4
144.4
144.4
144.4
144.4
144.4
144.4
144.4
144.4
144.4
144.4
144.4
144.4
144.4
144.4
144.4
144.4
144.4
144.4
144.4
144.4
144.4
144.4
144.4
144.4
144.4
144.4
144.4
144.4
144.4
144.4
144.4
144.4
144.4
144.4
144.4
144.4
144.4
144.4
144.4
144.4
144.4
144.4
144.4
144.4
144.4
144.4
144.4
144.4
144.4
144.4
144.4
144.4
144.4
144.4
144.4
144.4
144.4
144.4
144.4
144.4
144.4
144.4
144.4
144.4
144.4
144.4
144.4
144.4
144.4
144.4
144.4
144.4
144.4
144.4
144.4
144.4
144.4
144.4
144.4
144.4
144.4
144.4
144.4
144.4
144.4
144.4
144.4
144.4
144.4
144.4
144.4
144.4
144.4
144.4
144.4
144.4
144.4
144.4
144.4
144.4
144.4
144.4
144.4
144.4
144.4
144.4
144.4
144.4
144.4
144.4
144.4
144.4
144.4
144.4
144.4
144.4
144.4
144.4
144.4
144.4
144.4
144.4
144.4
144.4
144.4
144.4
144.4
144.4
144.4
144.4
144.4
144.4
144.4
144.4
144.4
144.4
144.4
144.4
144.4
144.4
144.4
144.4
144.4
144.4
144.4
144.4
144.4
144.4
144.4
144.4
144.4
144.4
144.4
144.4
144.4
144.4
144.4
144.4
144.4
144.4
144.4
144.4
144.4
144.4
144.4
144.4
144.4
144.4
144.4
144.4
144.4
144.4
144.4
144.4
144.4
144.4
144.4
144.4
144.4
144.4
144.4
144.4
144.4
144.4
144.4
144.4
144.4
144.4
144.4
144.4
144.4
144.4
144.4
144.4
144.4
144.4
144.4
144.4
144.4
144.4
144.4
144.4
144.4
144.4
144.4
144.4
144.4
144.4
144.4
144.4
144.4
144.4
144.4
144.4
144.4
144.4
144.4
144.4
144.4
144.4
144.4
144.4
144.4
144.4
144.4
144.4
144.4
144.4
144.4
144.4
144.4
144.4
144.4
144.4
144.4
144.4
144.4
144.4
144.4
144.4
144.4
144.4
144.4
144.4
144.4
144.4
144.4
144.4
144.4
144.4
144.4
144.4
144.4
144.4
144.4
144.4
144.4
144.4
144.4
144.4
144.4
144.4
144.4
144.4
144.4
144.4
144.4
144.4
144.4
144.4
144.4
144.4
144.4
144.4
144.4
144.4
144.4
144.4
144.4
144.4
144.4
144.4
144.4
144.4
144.4
144.4
144.4
144.4
144.4
144.4
144.4
144.4
144.4
144.4
144.4
144.4
144.4
144.4
144.4
144.4
144.4
144.4
144.4
144.4
144.4
144.4
144.4
144.4
144.4
144.4
144.4
144.4
144.4
144.4
144.4
144.4
144.4
144.4
144.4
144.4
144.4
144.4
144.4
144.4
144.4
144.4
144.4
144.4
144.4
144.4
144.4
144.4
144.4
144.4
144.4
144.4
144.4
144.4
144.4
144.4
144.4
144.4
144.4
144.4
144.4
144.4
144.4
144.4
144.4
144.4
144.4
144.4
144.4
144.4
144.4
144.4
144.4
144.4
144.4
144.4
144.4
144.4
144.4
144.4
144.4
144.4
144.4
144.4
144.4
144.4
144.4
144.4
144.4
144.4
144.4
144.4
144.4
144.4
144.4
144.4
144.4
144.4
144.4
144.4
144.4
144.4
144.4
144.4
144.4
144.4
144.4
144.4
144.4
144.4
144.4
144.4
144.4
144.4
144.4
144.4
144.4
144.4
144.4
144.4
144.4
144.4
144.4
144.4
144.4
144.4
144.4
144.4
144.4
144.4
144.4
144.4
144.4
144.4
144.4
144.4
144.4
144.4
144.4
144.4
144.4
144.4
144.4
144.4
144.4
144.4
144.4
144.4
144.4
144.4
144.4
144.4
144.4
144.4
144.4
144.4
144.4
144.4
144.4
144.4
144.4
144.4
144.4
144.4
144.4
144.4
144.4
144.4
144.4
144.4
144.4
144.4
144.4
144.4
144.4
144.4
144.4
144.4
144.4
144.4
144.4
144.4
144.4
144.4
144.4
144.4
144.4
144.4
144.4
144.4
144.4
144.4
144.4
144.4
144.4
144.4
144.4
144.4
144.4
144.4
144.4
144.4
144.4
144.4
144.4
144.4
144.4
144.4
144.4
144.4
144.4
144.4
144.4
144.4
144.4
144.4
144.4
144.4
144.4
144.4
144.4
144.4
144.4
144.4
144.4
144.4
144.4
144.4
144.4
144.4
144.4
144.4
144.4
144.4
144.4
144.4
144.4
144.4
144.4
144.4
144.4
144.4
144.4
144.4
144.4
144.4
144.4
144.4
144.4
144.4
144.4
144.4
144.4
144.4
144.4
144.4
144.4
144.4
144.4
144.4
144.4
144.4
144.4
144.4
144.4
144.4
144.4
144.4
144.4
144.4
144.4
144.4
144.4
144.4
144.4
144.4
144.4
144.4
144.4
144.4
144.4
144.4
144.4
144.4
144.4
144.4
144.4
144.4
144.4
144.4
144.4
144.4
144.4
144.4
144.4
144.4
144.4
144.4
144.4
144.4
144.4
144.4
144.4
144.4
144.4
144.4
144.4
144.4
144.4
144.4
144.4
144.4
144.4
144.4
144.4
144.4
144.4
144.4
144.4
144.4
144.4
144.4
144.4
144.4
144.4
144.4
144.4
144.4
144.4
144.4
144.4
144.4
144.4
144.4
144.4
144.4
144.4
144.4
144.4
144.4
144.4
144.4
144.4
144.4
144.4
144.4
144.4
144.4
144.4
144.4
144.4
144.4
144.4
144.4
144.4
144.4
144.4
144.4
144.4
144.4
144.4
144.4
144.4
144.4
144.4
144.4
144.4
144.4
144.4
144.4
144.4
144.4
144.4
144.4
144.4
144.4
144.4
144.4
144.4
144.4
144.4
144.4
144.4
144.4
144.4
144.4
144.4
144.4
144.4
144.4
144.4
144.4
144.4
144.4
144.4
144.4
144.4
144.4
144.4
144.4
144.4
144.4
144.4
144.4
144.4
144.4
144.4
144.4
144.4
144.4
144.4
144.4
144.4
144.4
144.4
144.4
144.4
144.4
144.4
144.4
144.4
144.4
144.4
144.4
144.4
144.4
144.4
144.4
144.4
144.4
144.4
144.4
144.4
144.4
144.4
144.4
144.4
144.4
144.4
144.4
144.4
144.4
144.4
144.4
144.4
144.4
144.4
144.4
144.4
144.4
144.4
144.4
144.4
144.4
144.4
144.4
144.4
144.4
144.4
144.4
144.4
144.4
144.4
144.4
144.4
144.4
144.4
144.4
144.4
144.4
144.4
144.4
144.4
144.4
144.4
144.4
144.4
144.4
144.4
144.4
144.4
144.4
144.4
144.4
144.4
144.4
144.4
144.4
144.4
144.4
144.4
144.4
144.4
144.4
144.4
144.4
144.4
144.4
144.4
144.4
144.4
144.4
144.4
144.4
144.4
144.4
144.4
144.4
144.4
144.4
144.4
144.4
144.4
144.4
144.4
144.4
144.4
144.4
144.4
144.4
144.4
144.4
144.4
144.4
144.4
144.4
144.4
144.4
144.4
144.4
144.4
144.4
144.4
144.4
144.4
144.4
144.4
144.4
144.4
144.4
144.4
144.4
144.4
144.4
144.4
144.4
144.4
144.4
144.4
144.4
144.4
144.4
144.4
144.4
144.4
144.4
144.4
144.4
144.4
144.4
144.4
144.4
144.4
144.4
144.4
144.4
144.4
144.4
144.4
144.4
144.4
144.4
144.4
144.4
144.4
144.4
144.4
144.4
144.4
144.4
144.4
144.4
144.4
144.4
144.4
144.4
144.4
144.4
144.4
144.4
144.4
144.4
144.4
144.4
144.4
144.4
144.4
144.4
144.4
144.4
144.4
144.4
144.4
144.4
144.4
144.4
144.4
144.4
144.4
144.4
144.4
144.4
144.4
144.4
144.4
144.4
144.4
144.4
144.4
144.4
144.4
144.4
144.4
144.4
144.4
144.4
144.4
144.4
144.4
144.4
144.4
144.4
144.4
144.4
144.4
144.4
144.4
144.4
144.4
144.4
144.4
144.4
144.4
144.4
144.4
144.4
144.4
144.4
144.4
144.4
144.4
144.4
144.4
144.4
144.4
144.4
144.4
144.4
144.4
144.4
144.4
144.4
144.4
144.4
144.4
144.4
144.4
144.4
144.4
144.4
144.4
144.4
144.4
144.4
144.4
144.4
144.4
144.4
144.4
144.4
144.4
144.4
144.4
144.4
144.4
144.4
144.4
144.4
144.4
144.4
144.4
144.4
144.4
144.4
144.4
144.4
144.4
144.4
144.4
144.4
144.4
144.4
144.4
144.4
144.4
144.4
144.4
144.4
144.4
144.4
144.4
144.4
144.4
144.4
144.4
144.4
144.4
144.4
144.4
144.4
144.4
144.4
144.4
144.4
144.4
144.4
144.4
144.4
144.4
144.4
144.4
144.4
144.4
144.4
144.4
144.4
144.4
144.4
144.4
144.4
144.4
144.4
144.4
144.4
144.4
144.4
144.4
144.4
144.4
144.4
144.4
144.4
144.4
144.4
144.4
144.4
144.4
144.4
144.4
144.4
144.4
144.4
144.4
144.4
144.4
144.4
144.4
144.4
144.4
144.4
144.4
144.4
144.4
144.4
144.4
144.4
144.4
144.4
144.4
144.4
144.4
144.4
144.4
144.4
144.4
144.4
144.4
144.4
144.4
144.4
144.4
144.4
144.4
144.4
144.4
144.4
144.4
144.4
144.4
144.4
144.401
144.401
144.401
144.4
144.4
144.4
144.4
144.4
144.4
144.4
144.4
144.4
144.4
144.4
144.4
144.4
144.4
144.4
144.4
144.4
144.4
144.4
144.4
144.4
144.4
144.4
144.4
144.4
144.4
144.4
144.4
144.4
144.4
144.4
144.4
144.4
144.4
144.4
144.4
144.4
144.4
144.4
144.4
144.4
144.4
144.4
144.4
144.4
144.4
144.4
144.4
144.4
144.4
144.4
144.4
144.4
144.4
144.4
144.4
144.4
144.4
144.4
144.4
144.4
144.4
144.4
144.4
144.4
144.4
144.4
144.4
144.4
144.4
144.4
144.4
144.4
144.4
144.4
144.4
144.4
144.4
144.4
144.4
144.4
144.4
144.4
144.4
144.4
144.4
144.4
144.4
144.401
144.401
144.401
144.401
144.401
144.401
144.401
144.401
144.401
144.401
144.401
144.401
144.402
144.402
144.402
144.402
144.402
144.402
144.403
144.403
144.403
144.403
144.403
144.404
144.404
144.404
144.404
144.4
144.4
144.4
144.4
144.4
144.4
144.4
144.4
144.4
144.4
144.4
144.4
144.4
144.4
144.4
144.4
144.4
144.4
144.4
144.4
144.4
144.4
144.4
144.4
144.4
144.4
144.4
144.4
144.4
144.4
144.4
144.4
144.4
144.4
144.4
144.4
144.4
144.4
144.4
144.4
144.4
144.4
144.4
144.4
144.4
144.4
144.4
144.4
144.4
144.4
144.4
144.4
144.4
144.4
144.4
144.4
144.4
144.4
144.4
144.4
144.4
144.4
144.4
144.4
144.4
144.4
144.4
144.4
144.4
144.401
144.401
144.401
144.401
144.401
144.401
144.401
144.401
144.401
144.401
144.402
144.402
144.402
144.402
144.402
144.403
144.403
144.403
144.404
144.404
144.404
144.405
144.405
144.406
144.407
144.407
144.408
144.409
144.41
144.41
144.411
144.412
144.413
144.414
144.415
144.416
144.418
144.419
144.421
144.423
144.425
144.426
144.428
144.43
144.431
144.433
144.435
144.4
144.4
144.4
144.4
144.4
144.4
144.4
144.4
144.4
144.4
144.4
144.4
144.4
144.4
144.4
144.4
144.4
144.4
144.4
144.4
144.4
144.4
144.4
144.4
144.4
144.4
144.4
144.4
144.4
144.4
144.4
144.4
144.4
144.4
144.4
144.4
144.4
144.4
144.4
144.4
144.4
144.4
144.4
144.4
144.4
144.4
144.4
144.4
144.4
144.4
144.4
144.4
144.4
144.4
144.4
144.4
144.4
144.401
144.401
144.401
144.401
144.401
144.401
144.401
144.401
144.401
144.401
144.401
144.402
144.402
144.402
144.402
144.403
144.403
144.403
144.403
144.404
144.404
144.405
144.405
144.406
144.406
144.407
144.408
144.409
144.41
144.411
144.413
144.414
144.415
144.417
144.419
144.421
144.423
144.425
144.428
144.432
144.436
144.44
144.444
144.449
144.454
144.459
144.465
144.47
144.476
144.481
144.487
144.494
144.502
144.511
144.521
144.532
144.543
144.556
144.569
144.581
144.594
144.607
144.619
144.632
144.644
144.656
144.4
144.4
144.4
144.4
144.4
144.4
144.4
144.4
144.4
144.4
144.4
144.4
144.4
144.4
144.4
144.4
144.4
144.4
144.4
144.4
144.4
144.4
144.4
144.4
144.4
144.4
144.4
144.4
144.4
144.4
144.4
144.4
144.4
144.4
144.4
144.4
144.4
144.4
144.401
144.401
144.401
144.401
144.401
144.401
144.401
144.401
144.401
144.401
144.401
144.402
144.402
144.402
144.402
144.402
144.403
144.403
144.403
144.404
144.404
144.404
144.405
144.405
144.406
144.407
144.407
144.408
144.409
144.41
144.411
144.413
144.414
144.416
144.417
144.419
144.422
144.424
144.426
144.429
144.432
144.436
144.44
144.445
144.45
144.457
144.463
144.471
144.479
144.488
144.498
144.508
144.519
144.531
144.545
144.561
144.58
144.602
144.626
144.654
144.684
144.717
144.751
144.787
144.824
144.862
144.9
144.939
144.98
145.023
145.072
145.128
145.194
145.268
145.349
145.436
145.527
145.62
145.713
145.806
145.897
145.987
146.075
146.163
146.25
144.4
144.4
144.4
144.4
144.4
144.4
144.4
144.4
144.4
144.4
144.4
144.4
144.4
144.4
144.4
144.4
144.4
144.4
144.4
144.4
144.401
144.401
144.401
144.401
144.401
144.401
144.401
144.401
144.401
144.401
144.402
144.402
144.402
144.402
144.402
144.403
144.403
144.403
144.403
144.404
144.404
144.405
144.405
144.406
144.406
144.407
144.408
144.409
144.409
144.41
144.411
144.413
144.414
144.416
144.417
144.419
144.422
144.424
144.427
144.43
144.433
144.436
144.44
144.444
144.449
144.454
144.46
144.467
144.475
144.484
144.494
144.506
144.518
144.531
144.545
144.56
144.577
144.596
144.617
144.642
144.671
144.705
144.743
144.787
144.835
144.887
144.945
145.006
145.071
145.141
145.216
145.299
145.396
145.51
145.643
145.799
145.975
146.17
146.383
146.61
146.85
147.098
147.354
147.615
147.88
148.15
148.429
148.728
149.066
149.461
149.921
150.441
151.008
151.609
152.231
152.863
153.497
154.124
154.741
155.345
155.94
156.529
157.119
144.4
144.4
144.4
144.4
144.401
144.401
144.401
144.401
144.401
144.401
144.401
144.401
144.401
144.402
144.402
144.402
144.402
144.402
144.403
144.403
144.403
144.404
144.404
144.405
144.405
144.406
144.406
144.407
144.408
144.409
144.41
144.411
144.412
144.413
144.414
144.416
144.418
144.419
144.421
144.424
144.426
144.429
144.432
144.436
144.44
144.444
144.449
144.454
144.46
144.466
144.473
144.481
144.49
144.5
144.511
144.524
144.539
144.554
144.572
144.591
144.611
144.634
144.658
144.686
144.717
144.752
144.793
144.84
144.893
144.953
145.02
145.093
145.173
145.26
145.353
145.454
145.564
145.689
145.833
146.002
146.2
146.428
146.688
146.98
147.302
147.654
148.034
148.44
148.871
149.329
149.823
150.375
151.019
151.782
152.68
153.716
154.879
156.158
157.535
158.994
160.516
162.083
163.679
165.293
166.92
168.567
170.257
172.055
174.098
176.505
179.293
182.393
185.707
189.148
192.642
196.134
199.576
202.935
206.191
209.344
212.414
215.435
218.438
221.447
224.468
144.402
144.402
144.403
144.403
144.403
144.404
144.404
144.405
144.405
144.406
144.407
144.408
144.409
144.41
144.411
144.412
144.413
144.415
144.417
144.419
144.421
144.423
144.425
144.428
144.431
144.435
144.439
144.443
144.448
144.453
144.459
144.465
144.472
144.48
144.488
144.497
144.507
144.519
144.532
144.546
144.563
144.581
144.601
144.623
144.648
144.675
144.704
144.736
144.772
144.811
144.855
144.905
144.962
145.026
145.099
145.181
145.272
145.372
145.483
145.602
145.732
145.873
146.028
146.201
146.401
146.631
146.896
147.2
147.544
147.929
148.355
148.823
149.33
149.876
150.461
151.092
151.783
152.567
153.481
154.554
155.806
157.241
158.858
160.65
162.608
164.719
166.97
169.346
171.837
174.452
177.239
180.343
183.971
188.261
193.232
198.818
204.916
211.417
218.215
225.206
232.295
239.395
246.437
253.384
260.234
267.018
273.825
280.907
288.88
298.203
308.684
319.857
331.314
342.763
354.003
364.888
375.315
385.22
394.588
403.469
411.963
420.196
428.28
436.281
444.211
144.412
144.414
144.416
144.418
144.42
144.423
144.425
144.429
144.432
144.436
144.441
144.446
144.451
144.457
144.464
144.471
144.48
144.489
144.499
144.51
144.523
144.536
144.551
144.568
144.587
144.607
144.63
144.656
144.685
144.717
144.751
144.79
144.832
144.877
144.928
144.983
145.045
145.115
145.194
145.282
145.382
145.492
145.616
145.752
145.901
146.064
146.242
146.435
146.648
146.886
147.156
147.464
147.815
148.213
148.662
149.164
149.719
150.329
150.993
151.711
152.484
153.32
154.24
155.278
156.472
157.849
159.43
161.223
163.229
165.446
167.867
170.483
173.28
176.247
179.38
182.704
186.311
190.392
195.137
200.646
206.925
213.92
221.549
229.724
238.358
247.363
256.65
266.134
275.765
285.561
295.704
306.74
319.498
334.137
350.318
367.558
385.41
403.508
421.554
439.297
456.541
473.137
488.999
504.129
518.608
532.563
546.179
559.843
575.266
593.963
614.236
634.629
654.39
673.171
690.793
707.157
722.225
736.012
748.59
760.132
770.865
781.004
790.703
800.037
809.007
144.463
144.471
144.481
144.492
144.504
144.517
144.532
144.549
144.568
144.589
144.612
144.637
144.666
144.698
144.733
144.773
144.817
144.866
144.919
144.979
145.043
145.115
145.194
145.281
145.379
145.488
145.61
145.745
145.896
146.064
146.249
146.452
146.674
146.916
147.181
147.473
147.797
148.16
148.57
149.031
149.551
150.132
150.779
151.495
152.281
153.137
154.066
155.069
156.158
157.357
158.699
160.221
161.952
163.912
166.113
168.561
171.258
174.199
177.376
180.775
184.385
188.205
192.27
196.693
201.66
207.321
213.747
220.937
228.848
237.411
246.552
256.19
266.239
276.611
287.234
298.074
309.214
320.961
334.035
348.895
365.461
383.409
402.364
421.978
441.953
462.046
482.05
501.78
521.091
539.918
558.356
576.715
596.097
619.46
645.641
672.908
700.061
726.363
751.381
774.862
796.634
816.603
834.773
851.213
866.082
879.606
891.94
903.149
913.319
922.262
929.759
936.046
941.365
945.903
949.754
952.956
955.544
957.568
959.081
960.135
960.856
961.427
961.986
962.613
963.294
963.933
144.761
144.81
144.865
144.927
144.996
145.072
145.158
145.253
145.358
145.476
145.606
145.752
145.915
146.096
146.297
146.522
146.77
147.044
147.345
147.675
148.038
148.436
148.877
149.367
149.913
150.523
151.204
151.961
152.799
153.723
154.738
155.844
157.045
158.345
159.757
161.305
163.024
164.946
167.1
169.507
172.181
175.132
178.366
181.881
185.672
189.725
194.032
198.596
203.458
208.742
214.605
221.168
228.481
236.545
245.327
254.776
264.823
275.393
286.398
297.75
309.373
321.243
333.476
346.443
360.746
376.565
393.763
412.082
431.238
450.962
471.015
491.187
511.289
531.151
550.655
569.781
588.705
607.934
629.686
654.562
681.172
708.329
735.227
761.324
786.279
809.897
832.054
852.648
871.634
889.093
905.147
919.932
933.542
945.635
956.301
965.696
973.953
981.156
987.372
992.653
997.054
1000.62
1003.42
1005.52
1007.17
1008.63
1009.92
1011.06
1012.06
1012.78
1013.25
1013.51
1013.5
1013.39
1013.11
1012.62
1011.93
1011.02
1009.93
1008.72
1007.38
1005.93
1004.43
1002.93
1001.47
1000.01
998.579
997.254
146.421
146.693
146.997
147.337
147.715
148.136
148.601
149.116
149.687
150.32
151.025
151.809
152.682
153.651
154.725
155.91
157.213
158.64
160.194
161.882
163.717
165.72
167.923
170.354
173.042
176.008
179.269
182.839
186.724
190.928
195.447
200.272
205.393
210.815
216.584
222.816
229.636
237.129
245.336
254.259
263.875
274.142
285.004
296.393
308.229
320.426
332.913
345.679
358.86
372.838
388.003
404.416
421.939
440.375
459.518
479.165
499.119
519.186
539.183
558.95
578.378
597.466
616.42
635.988
658.272
682.561
707.839
733.331
758.472
782.857
806.219
828.392
849.256
868.707
886.725
903.412
918.881
933.299
946.499
958.36
969.022
978.625
987.224
994.841
1001.54
1007.39
1012.45
1016.75
1020.37
1023.44
1026.18
1028.69
1031.08
1033.38
1035.55
1037.57
1039.38
1040.91
1042.13
1043.04
1043.69
1043.94
1043.88
1043.63
1043.11
1042.28
1041.25
1040.15
1039.06
1037.94
1036.75
1035.56
1034.38
1033.22
1032.09
1030.94
1029.74
1028.46
1027.12
1025.76
1024.29
1022.67
1021.02
1019.41
1017.8
1016.07
1014.38
1012.85
155.207
156.606
158.161
159.883
161.781
163.864
166.143
168.635
171.364
174.36
177.651
181.261
185.212
189.518
194.192
199.239
204.662
210.453
216.605
223.116
230.02
237.404
245.36
253.952
263.212
273.142
283.728
294.935
306.716
319.013
331.752
344.853
358.246
371.927
386.03
400.905
416.753
433.558
451.212
469.578
488.51
507.856
527.461
547.167
566.814
586.255
605.393
624.254
643.058
662.906
684.772
707.984
731.807
755.68
779.195
802.053
824.023
844.929
864.631
883.026
900.111
915.976
930.719
944.459
956.964
968.295
978.566
987.872
996.233
1003.67
1010.26
1016.06
1021.08
1025.35
1029.04
1032.32
1035.28
1038.16
1041.04
1043.78
1046.35
1048.81
1051.14
1053.22
1055.05
1056.64
1057.99
1059.05
1059.79
1060.28
1060.51
1060.51
1060.47
1060.4
1060.33
1060.35
1060.41
1060.51
1060.55
1060.53
1060.45
1060.27
1059.94
1059.5
1058.89
1058.05
1056.93
1055.65
1054.35
1053
1051.58
1050.13
1048.68
1047.26
1045.88
1044.54
1043.2
1041.8
1040.41
1039
1037.45
1035.71
1033.93
1032.28
1030.52
1028.57
1026.77
1025.14
195.517
201.318
207.595
214.353
221.585
229.285
237.454
246.126
255.368
265.237
275.766
286.963
298.816
311.297
324.364
337.965
352.033
366.492
381.261
396.313
411.737
427.783
444.554
462.013
480.077
498.646
517.616
536.879
556.319
575.812
595.23
614.443
633.358
652.001
670.609
690.435
711.61
733.591
755.891
778.135
800.023
821.321
841.841
861.427
879.943
897.288
913.461
928.546
942.628
955.675
967.604
978.526
988.512
997.608
1005.84
1013.24
1019.85
1025.69
1030.72
1035
1038.74
1042.11
1045.2
1048.24
1051.26
1054.08
1056.71
1059.28
1061.68
1063.82
1065.72
1067.42
1068.87
1070.02
1070.86
1071.41
1071.76
1072.09
1072.34
1072.53
1072.81
1073.27
1073.8
1074.36
1074.93
1075.56
1076.19
1076.76
1077.27
1077.61
1077.67
1077.59
1077.38
1077.04
1076.61
1076.18
1075.79
1075.45
1075.13
1074.8
1074.46
1074.09
1073.63
1073.06
1072.34
1071.42
1070.23
1068.84
1067.35
1065.79
1064.19
1062.55
1060.89
1059.25
1057.65
1056.09
1054.51
1052.93
1051.44
1049.97
1048.35
1046.55
1044.98
1043.47
1041.7
1039.93
1038.33
1036.86
1035.33
340.757
356.538
372.84
389.581
406.676
424.099
441.935
460.309
479.221
498.591
518.317
538.303
558.459
578.693
598.913
619.02
638.909
658.471
677.686
696.746
716.731
737.525
758.755
780.092
801.259
822.028
842.213
861.659
880.24
897.838
914.352
929.768
944.138
957.54
969.879
981.216
991.655
1001.25
1010.05
1018.06
1025.3
1031.81
1037.58
1042.61
1046.9
1050.64
1054.08
1057.34
1060.47
1063.49
1066.4
1069.19
1071.83
1074.28
1076.53
1078.59
1080.41
1081.94
1083.12
1083.96
1084.5
1084.86
1085.24
1085.5
1085.71
1086.06
1086.57
1087.08
1087.61
1088.23
1088.92
1089.64
1090.35
1090.98
1091.43
1091.67
1091.75
1091.7
1091.51
1091.35
1091.34
1091.37
1091.44
1091.58
1091.83
1092.17
1092.52
1092.9
1093.1
1093.08
1092.93
1092.61
1092.09
1091.46
1090.79
1090.12
1089.48
1088.87
1088.27
1087.66
1087.03
1086.37
1085.66
1084.88
1083.97
1082.87
1081.61
1080.22
1078.76
1077.24
1075.65
1074
1072.34
1070.7
1069.05
1067.36
1065.71
1064.21
1062.68
1060.94
1059.25
1057.84
1056.29
1054.56
1052.98
1051.52
1050.1
1048.42
600.525
622.901
645.039
666.851
688.258
709.25
730.197
751.686
773.501
795.358
817
838.208
858.8
878.626
897.567
915.526
932.412
948.147
962.718
976.174
988.433
999.639
1009.92
1019.34
1027.97
1035.82
1042.94
1049.33
1055.01
1059.98
1064.2
1067.85
1071.16
1074.27
1077.27
1080.16
1082.95
1085.62
1088.16
1090.55
1092.75
1094.78
1096.59
1098.13
1099.29
1100.07
1100.61
1101.01
1101.35
1101.66
1102
1102.39
1102.85
1103.38
1103.99
1104.64
1105.33
1106.08
1106.85
1107.53
1108.01
1108.21
1108.23
1108.11
1107.85
1107.69
1107.63
1107.56
1107.56
1107.67
1107.92
1108.28
1108.72
1109.17
1109.53
1109.66
1109.61
1109.4
1109.04
1108.67
1108.33
1108.03
1107.81
1107.66
1107.64
1107.67
1107.76
1107.9
1108.01
1108
1107.92
1107.72
1107.36
1106.86
1106.29
1105.66
1105.02
1104.35
1103.68
1102.98
1102.25
1101.5
1100.71
1099.88
1098.95
1097.88
1096.66
1095.32
1093.89
1092.4
1090.82
1089.16
1087.48
1085.81
1084.07
1082.26
1080.58
1079.01
1077.31
1075.46
1073.94
1072.5
1070.84
1069.23
1067.76
1066.4
1064.86
1063.13
919.664
939.294
957.712
974.862
990.666
1005.05
1017.99
1029.65
1040.17
1049.68
1058.27
1066
1072.93
1079.08
1084.49
1089.15
1093.02
1096.27
1099.16
1101.85
1104.41
1106.87
1109.22
1111.44
1113.52
1115.46
1117.24
1118.83
1120.18
1121.17
1121.75
1122.07
1122.27
1122.44
1122.63
1122.83
1123.09
1123.42
1123.83
1124.3
1124.85
1125.48
1126.2
1126.97
1127.69
1128.19
1128.34
1128.31
1128.18
1127.98
1127.78
1127.6
1127.5
1127.51
1127.58
1127.73
1128.02
1128.44
1128.89
1129.24
1129.3
1129.18
1128.84
1128.37
1127.91
1127.43
1127
1126.64
1126.39
1126.27
1126.29
1126.38
1126.57
1126.79
1127
1127.08
1127.01
1126.85
1126.64
1126.41
1126.17
1125.95
1125.79
1125.69
1125.66
1125.67
1125.72
1125.79
1125.79
1125.75
1125.6
1125.32
1124.91
1124.39
1123.79
1123.14
1122.44
1121.71
1120.94
1120.11
1119.25
1118.36
1117.42
1116.41
1115.29
1114.04
1112.68
1111.24
1109.73
1108.13
1106.44
1104.75
1103.04
1101.17
1099.28
1097.59
1095.88
1093.95
1092.15
1090.66
1089.07
1087.34
1085.81
1084.41
1082.96
1081.29
1079.64
1117.26
1122.78
1127.47
1131.25
1134.28
1136.86
1139.16
1141.28
1143.25
1145.07
1146.73
1148.24
1149.58
1150.73
1151.64
1152.18
1152.16
1152.01
1151.8
1151.59
1151.38
1151.21
1151.09
1151.09
1151.15
1151.3
1151.55
1151.94
1152.48
1153.04
1153.39
1153.38
1153.23
1152.96
1152.61
1152.25
1151.94
1151.68
1151.5
1151.45
1151.5
1151.68
1152.03
1152.47
1152.83
1152.85
1152.71
1152.36
1151.89
1151.35
1150.79
1150.28
1149.85
1149.48
1149.21
1149.06
1149.08
1149.2
1149.34
1149.48
1149.47
1149.31
1149.02
1148.68
1148.29
1147.88
1147.51
1147.21
1146.99
1146.87
1146.87
1146.94
1147.1
1147.31
1147.46
1147.48
1147.44
1147.34
1147.19
1147.01
1146.83
1146.67
1146.54
1146.45
1146.4
1146.39
1146.39
1146.36
1146.29
1146.14
1145.87
1145.48
1144.98
1144.4
1143.73
1143.01
1142.23
1141.4
1140.5
1139.54
1138.54
1137.49
1136.36
1135.14
1133.81
1132.38
1130.88
1129.3
1127.62
1125.88
1124.18
1122.37
1120.35
1118.46
1116.71
1114.79
1112.71
1111.02
1109.42
1107.63
1105.91
1104.38
1102.9
1101.25
1099.59
1097.99
1096.45
1095.1
1190.12
1190.94
1191.54
1191.55
1191.21
1190.57
1189.87
1189.19
1188.5
1187.84
1187.25
1186.73
1186.3
1185.96
1185.82
1185.88
1185.98
1185.87
1185.51
1184.93
1184.23
1183.47
1182.73
1182.06
1181.47
1180.98
1180.6
1180.39
1180.44
1180.6
1180.76
1180.7
1180.47
1180.05
1179.48
1178.83
1178.17
1177.54
1176.96
1176.47
1176.08
1175.79
1175.71
1175.77
1175.96
1176.07
1176.03
1175.88
1175.6
1175.2
1174.74
1174.25
1173.77
1173.34
1172.95
1172.64
1172.44
1172.41
1172.43
1172.51
1172.52
1172.43
1172.25
1172.01
1171.69
1171.33
1170.97
1170.64
1170.38
1170.17
1170.06
1170.07
1170.14
1170.29
1170.43
1170.52
1170.53
1170.5
1170.42
1170.29
1170.14
1170
1169.87
1169.76
1169.68
1169.61
1169.56
1169.49
1169.38
1169.19
1168.9
1168.5
1167.99
1167.38
1166.69
1165.92
1165.09
1164.2
1163.23
1162.19
1161.09
1159.93
1158.68
1157.35
1155.91
1154.37
1152.77
1151.08
1149.28
1147.49
1145.71
1143.74
1141.62
1139.76
1137.87
1135.71
1133.67
1131.96
1130.16
1128.22
1126.51
1124.92
1123.18
1121.42
1119.83
1118.19
1116.55
1115.19
1228.98
1228.04
1227.26
1226.68
1226.29
1225.74
1224.88
1223.8
1222.56
1221.28
1220.05
1218.86
1217.74
1216.75
1215.92
1215.34
1214.99
1214.65
1214.18
1213.53
1212.71
1211.78
1210.82
1209.86
1208.95
1208.12
1207.39
1206.78
1206.36
1206.14
1206.14
1206.15
1206.1
1205.94
1205.63
1205.2
1204.7
1204.15
1203.6
1203.08
1202.6
1202.18
1201.89
1201.74
1201.74
1201.77
1201.77
1201.71
1201.55
1201.26
1200.88
1200.44
1199.96
1199.49
1199.04
1198.63
1198.29
1198.07
1197.95
1197.93
1197.9
1197.81
1197.68
1197.49
1197.23
1196.91
1196.57
1196.25
1195.97
1195.73
1195.55
1195.48
1195.51
1195.59
1195.7
1195.81
1195.88
1195.88
1195.84
1195.75
1195.63
1195.51
1195.38
1195.27
1195.17
1195.08
1194.98
1194.87
1194.72
1194.5
1194.18
1193.74
1193.2
1192.55
1191.81
1190.99
1190.1
1189.14
1188.1
1186.99
1185.79
1184.52
1183.17
1181.71
1180.15
1178.5
1176.78
1174.94
1173.02
1171.16
1169.23
1167.04
1164.92
1163.02
1160.93
1158.62
1156.65
1154.81
1152.77
1150.8
1149.03
1147.24
1145.27
1143.47
1141.84
1140.15
1138.39
1136.91
1259.73
1258.16
1256.82
1255.75
1254.74
1253.66
1252.48
1251.08
1249.61
1248.19
1246.77
1245.38
1244.09
1242.95
1242.02
1241.33
1240.87
1240.5
1240.13
1239.67
1239.11
1238.47
1237.78
1237.05
1236.32
1235.63
1235
1234.46
1234.08
1233.85
1233.77
1233.74
1233.68
1233.54
1233.3
1232.94
1232.51
1232.04
1231.54
1231.04
1230.56
1230.14
1229.81
1229.63
1229.52
1229.44
1229.35
1229.22
1229.01
1228.7
1228.3
1227.85
1227.37
1226.88
1226.42
1226
1225.65
1225.41
1225.26
1225.15
1225.04
1224.91
1224.75
1224.53
1224.25
1223.94
1223.63
1223.35
1223.1
1222.89
1222.76
1222.76
1222.81
1222.89
1223
1223.1
1223.14
1223.13
1223.08
1222.99
1222.88
1222.77
1222.66
1222.55
1222.44
1222.32
1222.18
1222
1221.74
1221.39
1220.92
1220.33
1219.64
1218.84
1217.96
1217
1215.96
1214.85
1213.65
1212.37
1211
1209.54
1207.96
1206.28
1204.52
1202.66
1200.65
1198.62
1196.65
1194.52
1192.15
1190.07
1188.02
1185.69
1183.38
1181.39
1179.32
1177.12
1175.13
1173.26
1171.16
1169.08
1167.18
1165.48
1163.69
1161.82
1160.18
1286.68
1284.85
1283.19
1281.81
1280.66
1279.67
1278.79
1277.78
1276.77
1275.77
1274.68
1273.54
1272.45
1271.43
1270.51
1269.73
1269.15
1268.73
1268.4
1268.11
1267.78
1267.39
1266.94
1266.43
1265.87
1265.29
1264.72
1264.17
1263.7
1263.34
1263.11
1262.98
1262.88
1262.78
1262.62
1262.38
1262.05
1261.65
1261.2
1260.72
1260.23
1259.75
1259.33
1258.99
1258.74
1258.56
1258.39
1258.22
1258.02
1257.75
1257.4
1256.97
1256.51
1256.01
1255.52
1255.05
1254.63
1254.3
1254.04
1253.85
1253.7
1253.57
1253.41
1253.21
1252.97
1252.7
1252.42
1252.15
1251.9
1251.69
1251.53
1251.51
1251.54
1251.61
1251.72
1251.83
1251.92
1251.94
1251.93
1251.87
1251.79
1251.69
1251.58
1251.46
1251.34
1251.2
1251.04
1250.83
1250.54
1250.16