/*--------------------------------*- C++ -*----------------------------------*\
| =========                 |                                                 |
| \\      /  F ield         | OpenFOAM: The Open Source CFD Toolbox           |
|  \\    /   O peration     | Version:  v1706                                 |
|   \\  /    A nd           | Web:      www.OpenFOAM.com                      |
|    \\/     M anipulation  |                                                 |
\*---------------------------------------------------------------------------*/
FoamFile
{
    version     2.0;
    format      ascii;
    class       volScalarField;
    location    "1.7e-05";
    object      Tv;
}
// * * * * * * * * * * * * * * * * * * * * * * * * * * * * * * * * * * * * * //

dimensions      [0 0 0 1 0 0 0];


internalField   nonuniform List<scalar> 
29871
(
144.4
144.4
144.4
144.4
144.4
144.4
144.4
144.4
144.4
144.4
144.4
144.4
144.4
144.4
144.4
144.4
144.4
144.4
144.4
144.4
144.4
144.4
144.4
144.4
144.4
144.4
144.4
144.4
144.4
144.4
144.4
144.4
144.4
144.4
144.4
144.4
144.4
144.4
144.4
144.4
144.4
144.4
144.4
144.4
144.4
144.4
144.4
144.4
144.4
144.4
144.4
144.4
144.4
144.4
144.4
144.4
144.4
144.4
144.4
144.4
144.4
144.4
144.4
144.4
144.4
144.4
144.4
144.4
144.4
144.4
144.4
144.4
144.4
144.4
144.4
144.4
144.4
144.4
144.4
144.4
144.4
144.4
144.4
144.4
144.4
144.4
144.4
144.4
144.4
144.4
144.4
144.4
144.4
144.4
144.4
144.4
144.4
144.4
144.4
144.4
144.4
144.4
144.4
144.4
144.4
144.4
144.4
144.4
144.4
144.4
144.4
144.4
144.4
144.4
144.4
144.4
144.4
144.4
144.4
144.4
144.4
144.4
144.4
144.4
144.4
144.4
144.4
144.4
144.4
144.4
144.4
144.4
144.4
144.4
144.4
144.4
144.4
144.4
144.4
144.4
144.4
144.4
144.4
144.4
144.4
144.4
144.4
144.4
144.4
144.4
144.4
144.4
144.4
144.4
144.4
144.4
144.4
144.4
144.4
144.4
144.4
144.4
144.4
144.4
144.4
144.4
144.4
144.4
144.4
144.4
144.4
144.4
144.4
144.4
144.4
144.4
144.4
144.4
144.4
144.4
144.4
144.4
144.4
144.4
144.4
144.4
144.4
144.4
144.4
144.4
144.4
144.4
144.4
144.4
144.4
144.4
144.4
144.4
144.4
144.4
144.4
144.4
144.4
144.4
144.4
144.4
144.4
144.4
144.4
144.4
144.4
144.4
144.4
144.4
144.4
144.4
144.4
144.4
144.4
144.4
144.4
144.4
144.4
144.4
144.4
144.4
144.4
144.4
144.4
144.4
144.4
144.4
144.4
144.4
144.4
144.4
144.4
144.4
144.4
144.4
144.4
144.4
144.4
144.4
144.4
144.4
144.4
144.4
144.4
144.4
144.4
144.4
144.4
144.4
144.4
144.4
144.4
144.4
144.4
144.4
144.4
144.4
144.4
144.4
144.4
144.4
144.4
144.4
144.4
144.4
144.4
144.4
144.4
144.4
144.4
144.4
144.4
144.4
144.4
144.4
144.4
144.4
144.4
144.4
144.4
144.4
144.4
144.4
144.4
144.4
144.4
144.4
144.4
144.4
144.4
144.4
144.4
144.4
144.4
144.4
144.4
144.4
144.4
144.4
144.4
144.4
144.4
144.4
144.4
144.4
144.4
144.4
144.4
144.4
144.4
144.4
144.4
144.4
144.4
144.4
144.4
144.4
144.4
144.4
144.4
144.4
144.4
144.4
144.4
144.4
144.4
144.4
144.4
144.4
144.4
144.4
144.4
144.4
144.4
144.4
144.4
144.4
144.4
144.4
144.4
144.4
144.4
144.4
144.4
144.4
144.4
144.4
144.4
144.4
144.4
144.4
144.4
144.4
144.4
144.4
144.4
144.4
144.4
144.4
144.4
144.4
144.4
144.4
144.4
144.4
144.4
144.4
144.4
144.4
144.4
144.4
144.4
144.4
144.4
144.4
144.4
144.4
144.4
144.4
144.4
144.4
144.4
144.4
144.4
144.4
144.4
144.4
144.4
144.4
144.4
144.4
144.4
144.4
144.4
144.4
144.4
144.4
144.4
144.4
144.4
144.4
144.4
144.4
144.4
144.4
144.4
144.4
144.4
144.4
144.4
144.4
144.4
144.4
144.4
144.4
144.4
144.4
144.4
144.4
144.4
144.4
144.4
144.4
144.4
144.4
144.4
144.4
144.4
144.4
144.4
144.4
144.4
144.4
144.4
144.4
144.4
144.4
144.4
144.4
144.4
144.4
144.4
144.4
144.4
144.4
144.4
144.4
144.4
144.4
144.4
144.4
144.4
144.4
144.4
144.4
144.4
144.4
144.4
144.4
144.4
144.4
144.4
144.4
144.4
144.4
144.4
144.4
144.4
144.4
144.4
144.4
144.4
144.4
144.4
144.4
144.4
144.4
144.4
144.4
144.4
144.4
144.4
144.4
144.4
144.4
144.4
144.4
144.4
144.4
144.4
144.4
144.4
144.4
144.4
144.4
144.4
144.4
144.4
144.4
144.4
144.4
144.4
144.4
144.4
144.4
144.4
144.4
144.4
144.4
144.4
144.4
144.4
144.4
144.4
144.4
144.4
144.4
144.4
144.4
144.4
144.4
144.4
144.4
144.4
144.4
144.4
144.4
144.4
144.4
144.4
144.4
144.4
144.4
144.4
144.4
144.4
144.4
144.4
144.4
144.4
144.4
144.4
144.4
144.4
144.4
144.4
144.4
144.4
144.4
144.4
144.4
144.4
144.4
144.4
144.4
144.4
144.4
144.4
144.4
144.4
144.4
144.4
144.4
144.4
144.4
144.4
144.4
144.4
144.4
144.4
144.4
144.4
144.4
144.4
144.4
144.4
144.4
144.4
144.4
144.4
144.4
144.4
144.4
144.4
144.4
144.4
144.4
144.4
144.4
144.4
144.4
144.4
144.4
144.4
144.4
144.4
144.4
144.4
144.4
144.4
144.4
144.4
144.4
144.4
144.4
144.4
144.4
144.4
144.4
144.4
144.4
144.4
144.4
144.4
144.4
144.4
144.4
144.4
144.4
144.4
144.4
144.4
144.4
144.4
144.4
144.4
144.4
144.4
144.4
144.4
144.4
144.4
144.4
144.4
144.4
144.4
144.4
144.4
144.4
144.4
144.4
144.4
144.4
144.4
144.4
144.4
144.4
144.4
144.4
144.4
144.4
144.4
144.4
144.4
144.4
144.4
144.4
144.4
144.4
144.4
144.4
144.4
144.4
144.4
144.4
144.4
144.4
144.4
144.4
144.4
144.4
144.4
144.4
144.4
144.4
144.4
144.4
144.4
144.4
144.4
144.4
144.4
144.4
144.4
144.4
144.4
144.4
144.4
144.4
144.4
144.4
144.4
144.4
144.4
144.4
144.4
144.4
144.4
144.4
144.4
144.4
144.4
144.4
144.4
144.4
144.4
144.4
144.4
144.4
144.4
144.4
144.4
144.4
144.4
144.4
144.4
144.4
144.4
144.4
144.4
144.4
144.4
144.4
144.4
144.4
144.4
144.4
144.4
144.4
144.4
144.4
144.4
144.4
144.4
144.4
144.4
144.4
144.4
144.4
144.4
144.4
144.4
144.4
144.4
144.4
144.4
144.4
144.4
144.4
144.4
144.4
144.4
144.4
144.4
144.4
144.4
144.4
144.4
144.4
144.4
144.4
144.4
144.4
144.4
144.4
144.4
144.4
144.4
144.4
144.4
144.4
144.4
144.4
144.4
144.4
144.4
144.4
144.4
144.4
144.4
144.4
144.4
144.4
144.4
144.4
144.4
144.4
144.4
144.4
144.4
144.4
144.4
144.4
144.4
144.4
144.4
144.4
144.4
144.4
144.4
144.4
144.4
144.4
144.4
144.4
144.4
144.4
144.4
144.4
144.4
144.4
144.4
144.4
144.4
144.4
144.4
144.4
144.4
144.4
144.4
144.4
144.4
144.4
144.4
144.4
144.4
144.4
144.4
144.4
144.4
144.4
144.4
144.4
144.4
144.4
144.4
144.4
144.4
144.4
144.4
144.4
144.4
144.4
144.4
144.4
144.4
144.4
144.4
144.4
144.4
144.4
144.4
144.4
144.4
144.4
144.4
144.4
144.4
144.4
144.4
144.4
144.4
144.4
144.4
144.4
144.4
144.4
144.4
144.4
144.4
144.4
144.4
144.4
144.4
144.4
144.4
144.4
144.4
144.4
144.4
144.4
144.4
144.4
144.4
144.4
144.4
144.4
144.4
144.4
144.4
144.4
144.4
144.4
144.4
144.4
144.4
144.4
144.4
144.4
144.4
144.4
144.4
144.4
144.4
144.4
144.4
144.4
144.4
144.4
144.4
144.4
144.4
144.4
144.4
144.4
144.4
144.4
144.4
144.4
144.4
144.4
144.4
144.4
144.4
144.4
144.4
144.4
144.4
144.4
144.4
144.4
144.4
144.4
144.4
144.4
144.4
144.4
144.4
144.4
144.4
144.4
144.4
144.4
144.4
144.4
144.4
144.4
144.4
144.4
144.4
144.4
144.4
144.4
144.4
144.4
144.4
144.4
144.4
144.4
144.4
144.4
144.4
144.4
144.4
144.4
144.4
144.4
144.4
144.4
144.4
144.4
144.4
144.4
144.4
144.4
144.4
144.4
144.4
144.4
144.4
144.4
144.4
144.4
144.4
144.4
144.4
144.4
144.4
144.4
144.4
144.4
144.4
144.4
144.4
144.4
144.4
144.4
144.4
144.4
144.4
144.4
144.4
144.4
144.4
144.4
144.4
144.4
144.4
144.4
144.4
144.4
144.4
144.4
144.4
144.4
144.4
144.4
144.4
144.4
144.4
144.4
144.4
144.4
144.4
144.4
144.4
144.4
144.4
144.4
144.4
144.4
144.4
144.4
144.4
144.4
144.4
144.4
144.4
144.4
144.4
144.4
144.4
144.4
144.4
144.4
144.4
144.4
144.4
144.4
144.4
144.4
144.4
144.4
144.4
144.4
144.4
144.4
144.4
144.4
144.4
144.4
144.4
144.4
144.4
144.4
144.4
144.4
144.4
144.4
144.4
144.4
144.4
144.4
144.4
144.4
144.4
144.4
144.4
144.4
144.4
144.4
144.4
144.4
144.4
144.4
144.4
144.4
144.4
144.4
144.4
144.4
144.4
144.4
144.4
144.4
144.4
144.4
144.4
144.4
144.4
144.4
144.4
144.4
144.4
144.4
144.4
144.4
144.4
144.4
144.4
144.4
144.4
144.4
144.4
144.4
144.4
144.4
144.4
144.4
144.4
144.4
144.4
144.4
144.4
144.4
144.4
144.4
144.4
144.4
144.4
144.4
144.4
144.4
144.4
144.4
144.4
144.4
144.4
144.4
144.4
144.4
144.4
144.4
144.4
144.4
144.4
144.4
144.4
144.4
144.4
144.4
144.4
144.4
144.4
144.4
144.4
144.4
144.4
144.4
144.4
144.4
144.4
144.4
144.4
144.4
144.4
144.4
144.4
144.4
144.4
144.4
144.4
144.4
144.4
144.4
144.4
144.4
144.4
144.4
144.4
144.4
144.4
144.4
144.4
144.4
144.4
144.4
144.4
144.4
144.4
144.4
144.4
144.4
144.4
144.4
144.4
144.4
144.4
144.4
144.4
144.4
144.4
144.4
144.4
144.4
144.4
144.4
144.4
144.4
144.4
144.4
144.4
144.4
144.4
144.4
144.4
144.4
144.4
144.4
144.4
144.4
144.4
144.4
144.4
144.4
144.4
144.4
144.4
144.4
144.4
144.4
144.4
144.4
144.4
144.4
144.4
144.4
144.4
144.4
144.4
144.4
144.4
144.4
144.4
144.4
144.4
144.4
144.4
144.4
144.4
144.4
144.4
144.4
144.4
144.4
144.4
144.4
144.4
144.4
144.4
144.4
144.4
144.4
144.4
144.4
144.4
144.4
144.4
144.4
144.4
144.4
144.4
144.4
144.4
144.4
144.4
144.4
144.4
144.4
144.4
144.4
144.4
144.4
144.4
144.4
144.4
144.4
144.4
144.4
144.4
144.4
144.4
144.4
144.4
144.4
144.4
144.4
144.4
144.4
144.4
144.4
144.4
144.4
144.4
144.4
144.4
144.4
144.4
144.4
144.4
144.4
144.4
144.4
144.4
144.4
144.4
144.4
144.4
144.4
144.4
144.4
144.4
144.4
144.4
144.4
144.4
144.4
144.4
144.4
144.4
144.4
144.4
144.4
144.4
144.4
144.4
144.4
144.4
144.4
144.4
144.4
144.4
144.4
144.4
144.4
144.4
144.4
144.4
144.4
144.4
144.4
144.4
144.4
144.4
144.4
144.4
144.4
144.4
144.4
144.4
144.4
144.4
144.4
144.4
144.4
144.4
144.4
144.4
144.4
144.4
144.4
144.4
144.4
144.4
144.4
144.4
144.4
144.4
144.4
144.4
144.4
144.4
144.4
144.4
144.4
144.4
144.4
144.4
144.4
144.4
144.4
144.4
144.4
144.4
144.4
144.4
144.4
144.4
144.4
144.4
144.4
144.4
144.4
144.4
144.4
144.4
144.4
144.4
144.4
144.4
144.4
144.4
144.4
144.4
144.4
144.4
144.4
144.4
144.4
144.4
144.4
144.4
144.4
144.4
144.4
144.4
144.4
144.4
144.4
144.4
144.4
144.4
144.4
144.4
144.4
144.4
144.4
144.4
144.4
144.4
144.4
144.4
144.4
144.4
144.4
144.4
144.4
144.4
144.4
144.4
144.4
144.4
144.4
144.4
144.4
144.4
144.4
144.4
144.4
144.4
144.4
144.4
144.4
144.4
144.4
144.4
144.4
144.4
144.4
144.4
144.4
144.4
144.4
144.4
144.4
144.4
144.4
144.4
144.4
144.4
144.4
144.4
144.4
144.4
144.4
144.4
144.4
144.4
144.4
144.4
144.4
144.4
144.4
144.4
144.4
144.4
144.4
144.4
144.4
144.4
144.4
144.4
144.4
144.4
144.4
144.4
144.4
144.4
144.4
144.4
144.4
144.4
144.4
144.4
144.4
144.4
144.4
144.4
144.4
144.4
144.4
144.4
144.4
144.4
144.4
144.4
144.4
144.4
144.4
144.4
144.4
144.4
144.4
144.4
144.4
144.4
144.4
144.4
144.4
144.4
144.4
144.4
144.4
144.4
144.4
144.4
144.4
144.4
144.4
144.4
144.4
144.4
144.4
144.4
144.4
144.4
144.4
144.4
144.4
144.4
144.4
144.4
144.4
144.4
144.4
144.4
144.4
144.4
144.4
144.4
144.4
144.4
144.4
144.4
144.4
144.4
144.4
144.4
144.4
144.4
144.4
144.4
144.4
144.4
144.4
144.4
144.4
144.4
144.4
144.4
144.4
144.4
144.4
144.4
144.4
144.4
144.4
144.4
144.4
144.4
144.4
144.4
144.4
144.4
144.4
144.4
144.4
144.4
144.4
144.4
144.4
144.4
144.4
144.4
144.4
144.4
144.4
144.4
144.4
144.4
144.4
144.4
144.4
144.4
144.4
144.4
144.4
144.4
144.4
144.4
144.4
144.4
144.4
144.4
144.4
144.4
144.4
144.4
144.4
144.4
144.4
144.4
144.4
144.4
144.4
144.4
144.4
144.4
144.4
144.4
144.4
144.4
144.4
144.4
144.4
144.4
144.4
144.4
144.4
144.4
144.4
144.4
144.4
144.4
144.4
144.4
144.4
144.4
144.4
144.4
144.4
144.4
144.4
144.4
144.4
144.4
144.4
144.4
144.4
144.4
144.4
144.4
144.4
144.4
144.4
144.4
144.4
144.4
144.4
144.4
144.4
144.4
144.4
144.4
144.4
144.4
144.4
144.4
144.4
144.4
144.4
144.4
144.4
144.4
144.4
144.4
144.4
144.4
144.4
144.4
144.4
144.4
144.4
144.4
144.4
144.4
144.4
144.4
144.4
144.4
144.4
144.4
144.4
144.4
144.4
144.4
144.4
144.4
144.4
144.4
144.4
144.4
144.4
144.4
144.4
144.4
144.4
144.401
144.401
144.401
144.401
144.401
144.401
144.401
144.401
144.401
144.401
144.401
144.401
144.4
144.4
144.4
144.4
144.4
144.4
144.4
144.4
144.4
144.4
144.4
144.4
144.4
144.4
144.4
144.4
144.4
144.4
144.4
144.4
144.4
144.4
144.4
144.4
144.4
144.4
144.4
144.4
144.4
144.4
144.4
144.4
144.4
144.4
144.4
144.4
144.4
144.4
144.4
144.4
144.4
144.4
144.4
144.4
144.4
144.4
144.4
144.4
144.4
144.4
144.4
144.4
144.4
144.4
144.4
144.4
144.4
144.4
144.4
144.4
144.4
144.4
144.4
144.4
144.4
144.4
144.4
144.4
144.4
144.4
144.4
144.4
144.4
144.4
144.4
144.4
144.4
144.4
144.4
144.4
144.4
144.4
144.4
144.4
144.4
144.4
144.401
144.401
144.401
144.401
144.401
144.401
144.401
144.401
144.401
144.401
144.402
144.402
144.402
144.402
144.403
144.403
144.403
144.403
144.404
144.404
144.404
144.405
144.405
144.405
144.406
144.406
144.407
144.407
144.408
144.408
144.409
144.409
144.41
144.41
144.411
144.411
144.412
144.4
144.4
144.4
144.4
144.4
144.4
144.4
144.4
144.4
144.4
144.4
144.4
144.4
144.4
144.4
144.4
144.4
144.4
144.4
144.4
144.4
144.4
144.4
144.4
144.4
144.4
144.4
144.4
144.4
144.4
144.4
144.4
144.4
144.4
144.4
144.4
144.4
144.4
144.4
144.4
144.4
144.4
144.4
144.4
144.4
144.4
144.4
144.4
144.4
144.4
144.4
144.4
144.4
144.4
144.4
144.4
144.4
144.4
144.4
144.4
144.4
144.4
144.4
144.4
144.401
144.401
144.401
144.401
144.401
144.401
144.401
144.401
144.401
144.401
144.402
144.402
144.402
144.402
144.402
144.403
144.403
144.403
144.404
144.404
144.405
144.405
144.406
144.407
144.408
144.409
144.409
144.41
144.412
144.413
144.415
144.416
144.418
144.421
144.423
144.426
144.429
144.432
144.435
144.438
144.442
144.445
144.448
144.452
144.456
144.46
144.465
144.471
144.477
144.483
144.489
144.495
144.502
144.508
144.513
144.519
144.524
144.529
144.534
144.4
144.4
144.4
144.4
144.4
144.4
144.4
144.4
144.4
144.4
144.4
144.4
144.4
144.4
144.4
144.4
144.4
144.4
144.4
144.4
144.4
144.4
144.4
144.4
144.4
144.4
144.4
144.4
144.4
144.4
144.4
144.4
144.4
144.4
144.4
144.4
144.4
144.4
144.4
144.4
144.4
144.4
144.401
144.401
144.401
144.401
144.401
144.401
144.401
144.401
144.401
144.401
144.401
144.402
144.402
144.402
144.402
144.403
144.403
144.403
144.404
144.404
144.404
144.405
144.405
144.406
144.407
144.408
144.409
144.41
144.411
144.412
144.414
144.415
144.417
144.419
144.421
144.423
144.426
144.429
144.433
144.437
144.441
144.447
144.453
144.46
144.467
144.475
144.484
144.493
144.503
144.514
144.527
144.541
144.558
144.578
144.6
144.625
144.652
144.681
144.712
144.744
144.777
144.811
144.845
144.88
144.915
144.952
144.992
145.037
145.087
145.142
145.201
145.261
145.322
145.382
145.44
145.496
145.549
145.598
145.644
145.688
145.73
144.4
144.4
144.4
144.4
144.4
144.4
144.4
144.4
144.4
144.4
144.4
144.4
144.4
144.4
144.4
144.4
144.4
144.4
144.4
144.4
144.4
144.401
144.401
144.401
144.401
144.401
144.401
144.401
144.401
144.401
144.401
144.402
144.402
144.402
144.402
144.402
144.403
144.403
144.403
144.404
144.404
144.405
144.405
144.406
144.406
144.407
144.408
144.409
144.41
144.411
144.412
144.413
144.415
144.417
144.419
144.421
144.423
144.426
144.429
144.433
144.436
144.44
144.445
144.45
144.456
144.462
144.47
144.478
144.488
144.499
144.511
144.525
144.54
144.557
144.575
144.594
144.616
144.639
144.667
144.699
144.735
144.778
144.826
144.881
144.941
145.007
145.078
145.154
145.236
145.322
145.414
145.515
145.629
145.76
145.91
146.079
146.265
146.464
146.674
146.891
147.113
147.336
147.558
147.778
147.994
148.205
148.415
148.626
148.849
149.093
149.356
149.631
149.908
150.18
150.44
150.687
150.916
151.127
151.319
151.494
151.652
151.797
151.931
152.057
152.178
144.4
144.4
144.4
144.401
144.401
144.401
144.401
144.401
144.401
144.401
144.401
144.402
144.402
144.402
144.402
144.402
144.403
144.403
144.404
144.404
144.404
144.405
144.406
144.406
144.407
144.408
144.409
144.41
144.411
144.412
144.414
144.415
144.417
144.419
144.421
144.423
144.426
144.429
144.432
144.436
144.44
144.444
144.45
144.455
144.462
144.469
144.477
144.485
144.495
144.505
144.517
144.53
144.546
144.563
144.583
144.605
144.629
144.657
144.687
144.72
144.756
144.795
144.837
144.885
144.939
145
145.071
145.151
145.241
145.341
145.451
145.571
145.7
145.838
145.985
146.141
146.308
146.492
146.699
146.933
147.196
147.487
147.804
148.142
148.497
148.866
149.246
149.631
150.02
150.412
150.81
151.225
151.674
152.163
152.689
153.238
153.798
154.357
154.907
155.442
155.955
156.445
156.908
157.344
157.755
158.144
158.514
158.873
159.239
159.627
160.026
160.421
160.8
161.155
161.483
161.782
162.052
162.292
162.504
162.689
162.851
162.995
163.125
163.243
163.351
144.403
144.404
144.404
144.405
144.406
144.407
144.408
144.409
144.41
144.411
144.413
144.414
144.416
144.418
144.421
144.424
144.426
144.43
144.433
144.438
144.442
144.447
144.453
144.459
144.466
144.473
144.482
144.492
144.503
144.515
144.528
144.543
144.559
144.576
144.596
144.618
144.642
144.669
144.699
144.733
144.772
144.814
144.862
144.915
144.973
145.036
145.105
145.179
145.26
145.35
145.45
145.563
145.689
145.83
145.987
146.159
146.347
146.549
146.765
146.994
147.234
147.487
147.755
148.044
148.363
148.712
149.094
149.506
149.944
150.402
150.877
151.364
151.858
152.354
152.852
153.35
153.858
154.389
154.958
155.565
156.204
156.863
157.531
158.199
158.859
159.507
160.138
160.749
161.338
161.909
162.466
163.029
163.62
164.241
164.878
165.515
166.139
166.74
167.315
167.859
168.372
168.852
169.299
169.715
170.103
170.466
170.807
171.13
171.451
171.783
172.11
172.42
172.71
172.976
173.219
173.437
173.631
173.8
173.945
174.067
174.169
174.255
174.328
174.391
174.445
144.427
144.431
144.436
144.442
144.448
144.455
144.462
144.471
144.481
144.492
144.504
144.518
144.533
144.55
144.569
144.591
144.615
144.642
144.671
144.704
144.74
144.779
144.823
144.871
144.924
144.984
145.05
145.124
145.205
145.295
145.393
145.5
145.617
145.743
145.878
146.025
146.184
146.359
146.552
146.763
146.994
147.246
147.518
147.809
148.118
148.443
148.783
149.136
149.503
149.886
150.293
150.728
151.193
151.689
152.212
152.758
153.321
153.898
154.481
155.068
155.653
156.234
156.812
157.398
158.005
158.641
159.306
159.993
160.692
161.395
162.095
162.786
163.463
164.122
164.761
165.38
165.982
166.579
167.192
167.833
168.497
169.172
169.845
170.509
171.156
171.784
172.39
172.972
173.53
174.064
174.577
175.074
175.566
176.082
176.612
177.14
177.658
178.16
178.644
179.108
179.549
179.968
180.362
180.731
181.077
181.401
181.706
181.993
182.262
182.519
182.769
183.006
183.226
183.428
183.612
183.778
183.926
184.054
184.162
184.249
184.316
184.364
184.395
184.415
184.424
184.423
144.646
144.683
144.724
144.771
144.823
144.881
144.947
145.019
145.099
145.188
145.286
145.395
145.515
145.647
145.793
145.952
146.126
146.314
146.518
146.735
146.968
147.217
147.483
147.769
148.075
148.403
148.754
149.127
149.521
149.936
150.368
150.817
151.278
151.751
152.235
152.734
153.252
153.793
154.359
154.948
155.558
156.184
156.824
157.471
158.122
158.772
159.417
160.056
160.69
161.33
161.985
162.662
163.358
164.068
164.787
165.506
166.222
166.927
167.619
168.293
168.947
169.581
170.199
170.814
171.443
172.092
172.754
173.42
174.083
174.736
175.374
175.995
176.596
177.175
177.733
178.27
178.789
179.299
179.822
180.365
180.914
181.462
182.004
182.536
183.057
183.565
184.059
184.538
185.001
185.449
185.883
186.306
186.722
187.143
187.567
187.987
188.4
188.804
189.195
189.574
189.938
190.286
190.617
190.927
191.218
191.49
191.745
191.981
192.199
192.4
192.588
192.763
192.923
193.068
193.198
193.313
193.413
193.497
193.564
193.613
193.644
193.653
193.647
193.626
193.592
193.546
193.488
193.422
146.328
146.575
146.845
147.139
147.456
147.796
148.157
148.541
148.947
149.375
149.827
150.302
150.799
151.319
151.858
152.417
152.991
153.579
154.177
154.783
155.396
156.018
156.651
157.3
157.962
158.639
159.328
160.026
160.73
161.438
162.144
162.846
163.54
164.226
164.904
165.584
166.273
166.974
167.685
168.404
169.126
169.847
170.562
171.268
171.96
172.636
173.294
173.932
174.557
175.18
175.813
176.458
177.11
177.763
178.412
179.053
179.68
180.293
180.888
181.462
182.016
182.551
183.07
183.582
184.11
184.648
185.187
185.722
186.252
186.773
187.283
187.783
188.27
188.743
189.203
189.649
190.084
190.512
190.945
191.384
191.826
192.266
192.705
193.14
193.57
193.994
194.411
194.821
195.22
195.61
195.989
196.359
196.722
197.082
197.441
197.796
198.147
198.49
198.825
199.15
199.465
199.769
200.06
200.336
200.593
200.834
201.057
201.261
201.445
201.612
201.761
201.894
202.012
202.116
202.207
202.283
202.347
202.396
202.431
202.45
202.451
202.434
202.4
202.348
202.282
202.203
202.112
202.012
153.596
154.321
155.063
155.819
156.584
157.357
158.133
158.912
159.695
160.483
161.276
162.075
162.876
163.679
164.482
165.281
166.074
166.859
167.632
168.392
169.141
169.884
170.625
171.368
172.111
172.853
173.591
174.323
175.047
175.759
176.458
177.139
177.802
178.447
179.078
179.706
180.338
180.974
181.611
182.247
182.877
183.499
184.109
184.707
185.288
185.852
186.398
186.925
187.439
187.953
188.476
189.003
189.529
190.052
190.569
191.08
191.582
192.074
192.555
193.023
193.478
193.92
194.351
194.778
195.209
195.645
196.08
196.514
196.946
197.374
197.798
198.217
198.63
199.035
199.432
199.821
200.202
200.579
200.957
201.336
201.715
202.094
202.473
202.851
203.228
203.601
203.972
204.339
204.701
205.055
205.403
205.742
206.074
206.402
206.724
207.042
207.354
207.659
207.957
208.247
208.529
208.805
209.071
209.324
209.561
209.782
209.986
210.172
210.337
210.483
210.611
210.721
210.816
210.894
210.958
211.008
211.044
211.066
211.071
211.065
211.044
211.004
210.944
210.867
210.776
210.67
210.552
210.424
167.046
168.002
168.952
169.891
170.813
171.719
172.605
173.475
174.332
175.178
176.014
176.839
177.652
178.451
179.236
180.003
180.753
181.484
182.193
182.882
183.552
184.212
184.867
185.517
186.161
186.797
187.424
188.041
188.645
189.236
189.812
190.37
190.911
191.435
191.946
192.457
192.972
193.486
193.996
194.503
195.004
195.499
195.986
196.466
196.935
197.393
197.838
198.273
198.698
199.12
199.546
199.974
200.403
200.83
201.255
201.677
202.097
202.512
202.922
203.324
203.718
204.104
204.482
204.858
205.235
205.613
205.989
206.366
206.743
207.119
207.492
207.864
208.232
208.596
208.956
209.311
209.659
210.005
210.351
210.698
211.041
211.383
211.725
212.069
212.412
212.754
213.096
213.436
213.774
214.107
214.436
214.758
215.074
215.384
215.689
215.988
216.281
216.567
216.846
217.117
217.381
217.639
217.888
218.127
218.35
218.558
218.749
218.922
219.075
219.208
219.322
219.418
219.495
219.556
219.6
219.63
219.641
219.637
219.619
219.589
219.545
219.482
219.398
219.299
219.186
219.057
218.916
218.765
218.606
183.131
184.019
184.881
185.717
186.526
187.309
188.069
188.812
189.54
190.252
190.949
191.629
192.293
192.94
193.569
194.18
194.773
195.346
195.9
196.436
196.968
197.496
198.016
198.529
199.034
199.53
200.02
200.501
200.973
201.436
201.887
202.327
202.754
203.173
203.589
204.007
204.424
204.841
205.256
205.67
206.081
206.489
206.895
207.295
207.688
208.073
208.452
208.826
209.197
209.569
209.942
210.316
210.69
211.064
211.438
211.81
212.181
212.548
212.91
213.268
213.619
213.965
214.309
214.656
215.001
215.342
215.684
216.027
216.37
216.711
217.052
217.392
217.731
218.068
218.401
218.729
219.054
219.382
219.709
220.034
220.356
220.68
221.005
221.331
221.657
221.984
222.31
222.634
222.956
223.275
223.588
223.895
224.197
224.493
224.783
225.067
225.344
225.613
225.874
226.127
226.373
226.611
226.838
227.05
227.247
227.428
227.591
227.735
227.858
227.962
228.047
228.111
228.157
228.185
228.192
228.185
228.16
228.12
228.067
227.999
227.91
227.805
227.685
227.551
227.4
227.237
227.065
226.884
196.971
197.694
198.395
199.071
199.723
200.351
200.961
201.558
202.142
202.711
203.264
203.803
204.329
204.843
205.344
205.834
206.311
206.774
207.223
207.659
208.089
208.515
208.937
209.355
209.769
210.178
210.584
210.987
211.385
211.779
212.164
212.542
212.912
213.277
213.64
214.002
214.366
214.73
215.095
215.46
215.825
216.189
216.551
216.911
217.266
217.614
217.958
218.3
218.64
218.98
219.321
219.663
220.005
220.347
220.69
221.033
221.375
221.716
222.054
222.389
222.719
223.044
223.367
223.692
224.017
224.338
224.659
224.982
225.307
225.631
225.955
226.279
226.604
226.928
227.25
227.567
227.881
228.198
228.514
228.828
229.141
229.456
229.772
230.089
230.408
230.726
231.045
231.363
231.679
231.992
232.301
232.604
232.902
233.195
233.482
233.762
234.034
234.298
234.554
234.8
235.038
235.266
235.483
235.686
235.874
236.045
236.198
236.333
236.448
236.542
236.616
236.669
236.7
236.707
236.701
236.675
236.629
236.568
236.493
236.399
236.286
236.159
236.018
235.861
235.689
235.505
235.312
235.11
209.534
210.095
210.64
211.168
211.679
212.174
212.658
213.13
213.593
214.045
214.489
214.924
215.352
215.773
216.187
216.593
216.989
217.374
217.749
218.118
218.484
218.848
219.211
219.572
219.932
220.291
220.647
221.002
221.354
221.699
222.038
222.371
222.701
223.031
223.361
223.692
224.024
224.357
224.692
225.027
225.363
225.699
226.035
226.367
226.694
227.017
227.338
227.658
227.978
228.298
228.619
228.942
229.265
229.589
229.915
230.241
230.568
230.894
231.217
231.536
231.85
232.161
232.474
232.785
233.094
233.404
233.715
234.028
234.342
234.656
234.972
235.288
235.606
235.921
236.233
236.543
236.855
237.166
237.475
237.785
238.096
238.408
238.722
239.037
239.352
239.668
239.982
240.295
240.606
240.913
241.215
241.511
241.803
242.088
242.366
242.636
242.897
243.149
243.39
243.621
243.842
244.05
244.244
244.422
244.583
244.726
244.851
244.955
245.039
245.103
245.143
245.154
245.149
245.127
245.082
245.016
244.935
244.837
244.717
244.58
244.432
244.269
244.089
243.894
243.69
243.477
243.252
220.473
220.936
221.389
221.828
222.252
222.664
223.068
223.464
223.854
224.24
224.62
224.995
225.365
225.731
226.091
226.442
226.783
227.116
227.445
227.773
228.099
228.426
228.752
229.079
229.405
229.732
230.059
230.385
230.707
231.024
231.335
231.643
231.951
232.26
232.57
232.882
233.195
233.511
233.828
234.148
234.469
234.791
235.113
235.432
235.747
236.058
236.368
236.676
236.984
237.293
237.604
237.916
238.229
238.544
238.861
239.179
239.497
239.814
240.128
240.437
240.744
241.051
241.355
241.658
241.962
242.267
242.573
242.881
243.19
243.5
243.812
244.125
244.437
244.747
245.057
245.366
245.676
245.984
246.293
246.602
246.914
247.227
247.54
247.854
248.168
248.482
248.794
249.103
249.408
249.709
250.005
250.295
250.579
250.856
251.124
251.382
251.63
251.867
252.092
252.306
252.506
252.69
252.859
253.009
253.141
253.253
253.346
253.419
253.471
253.492
253.489
253.471
253.431
253.367
253.282
253.18
253.058
252.914
252.755
252.584
252.397
252.194
251.977
251.752
251.517
251.27
251.015
250.754
230.008
230.417
230.816
231.203
231.576
231.937
232.291
232.64
232.986
233.328
233.667
234.004
234.338
234.67
234.999
235.321
235.635
235.942
236.245
236.547
236.848
237.15
237.452
237.756
238.062
238.369
238.678
238.989
239.3
239.608
239.912
240.213
240.511
240.809
241.108
241.409
241.711
242.016
242.323
242.632
242.944
243.259
243.575
243.89
244.202
244.512
244.819
245.124
245.428
245.732
246.037
246.343
246.65
246.959
247.269
247.581
247.895
248.208
248.519
248.827
249.134
249.438
249.74
250.04
250.341
250.642
250.945
251.25
251.555
251.861
252.17
252.481
252.791
253.101
253.41
253.719
254.028
254.337
254.646
254.956
255.267
255.58
255.893
256.207
256.52
256.833
257.144
257.452
257.757
258.056
258.351
258.639
258.921
259.195
259.46
259.715
259.959
260.191
260.411
260.616
260.808
260.983
261.141
261.28
261.399
261.499
261.579
261.639
261.673
261.674
261.661
261.628
261.57
261.486
261.382
261.26
261.114
260.947
260.767
260.573
260.361
260.134
259.896
259.648
259.39
259.121
258.844
258.563
238.892
239.256
239.615
239.965
240.302
240.629
240.949
241.265
241.577
241.887
242.196
242.504
242.811
243.119
243.426
243.731
244.032
244.329
244.621
244.91
245.197
245.486
245.775
246.066
246.359
246.655
246.953
247.255
247.559
247.863
248.166
248.467
248.765
249.063
249.359
249.656
249.954
250.255
250.557
250.862
251.17
251.48
251.792
252.105
252.418
252.729
253.037
253.343
253.647
253.95
254.253
254.557
254.862
255.167
255.474
255.782
256.092
256.402
256.711
257.018
257.325
257.628
257.93
258.229
258.528
258.828
259.129
259.431
259.734
260.039
260.345
260.653
260.962
261.271
261.581
261.89
262.199
262.507
262.816
263.126
263.438
263.75
264.064
264.377
264.689
265.001
265.311
265.618
265.921
266.219
266.511
266.796
267.074
267.344
267.605
267.856
268.095
268.321
268.533
268.731
268.913
269.078
269.224
269.352
269.458
269.544
269.61
269.655
269.664
269.655
269.628
269.578
269.499
269.396
269.274
269.13
268.961
268.773
268.571
268.352
268.117
267.867
267.606
267.334
267.053
266.761
266.463
266.162
247.564
247.89
248.212
248.528
248.837
249.138
249.434
249.727
250.017
250.306
250.595
250.885
251.176
251.468
251.761
252.055
252.347
252.637
252.923
253.209
253.494
253.779
254.066
254.354
254.646
254.94
255.237
255.537
255.84
256.144
256.447
256.749
257.05
257.35
257.649
257.948
258.249
258.551
258.855
259.161
259.469
259.779
260.091
260.403
260.715
261.026
261.334
261.641
261.945
262.249
262.552
262.856
263.16
263.464
263.77
264.077
264.384
264.691
264.997
265.303
265.607
265.907
266.206
266.505
266.803
267.103
267.403
267.704
268.007
268.311
268.617
268.924
269.232
269.54
269.849
270.157
270.465
270.774
271.083
271.394
271.705
272.017
272.329
272.641
272.951
273.259
273.564
273.864
274.158
274.447
274.728
275.001
275.266
275.521
275.765
275.997
276.215
276.42
276.608
276.78
276.934
277.068
277.183
277.275
277.347
277.399
277.419
277.413
277.391
277.347
277.277
277.179
277.057
276.915
276.748
276.558
276.35
276.125
275.883
275.624
275.351
275.066
274.771
274.466
274.152
273.832
273.51
255.44
255.742
256.042
256.341
256.637
256.928
257.215
257.499
257.781
258.061
258.342
258.623
258.906
259.19
259.477
259.766
260.056
260.346
260.635
260.924
261.212
261.5
261.788
262.078
262.37
262.664
262.961
263.261
263.563
263.868
264.174
264.48
264.786
265.091
265.395
265.698
266.001
266.305
266.61
266.916
267.224
267.534
267.845
268.157
268.47
268.781
269.092
269.4
269.707
270.011
270.315
270.618
270.921
271.225
271.528
271.833
272.137
272.442
272.747
273.051
273.353
273.653
273.951
274.248
274.545
274.843
275.141
275.44
275.74
276.042
276.345
276.649
276.955
277.262
277.569
277.875
278.182
278.489
278.796
279.105
279.414
279.723
280.033
280.341
280.648
280.953
281.254
281.55
281.84
282.124
282.399
282.666
282.924
283.171
283.406
283.63
283.839
284.033
284.211
284.371
284.513
284.634
284.735
284.813
284.87
284.901
284.9
284.882
284.843
284.781
284.69
284.572
284.432
284.268
284.08
283.87
283.64
283.393
283.127
282.846
282.549
282.241
281.922
281.594
281.256
280.915
280.573
280.231