/*--------------------------------*- C++ -*----------------------------------*\
| =========                 |                                                 |
| \\      /  F ield         | OpenFOAM: The Open Source CFD Toolbox           |
|  \\    /   O peration     | Version:  v1706                                 |
|   \\  /    A nd           | Web:      www.OpenFOAM.com                      |
|    \\/     M anipulation  |                                                 |
\*---------------------------------------------------------------------------*/
FoamFile
{
    version     2.0;
    format      ascii;
    class       volScalarField;
    location    "1.7e-05";
    object      wallHeatFlux;
}
// * * * * * * * * * * * * * * * * * * * * * * * * * * * * * * * * * * * * * //

dimensions      [1 0 -3 0 0 0 0];


internalField   uniform 0;

boundaryField
{
    cone
    {
        type            calculated;
        value           nonuniform List<scalar> 
181
(
96445.9
95507.5
94586.7
93683.8
92801.2
91942.8
91114.4
90323.3
89577.9
88886.7
88257.6
87696.7
87207
86786.9
86429.4
86122.8
85852
85599
85342.1
85058.4
84730.1
84341.8
83877.6
83326.9
82687.6
81964.1
81166.9
80311.7
79418.1
78508.3
77605.9
76734.2
75915.6
75169.8
74512.5
73953.9
73498.1
73152
72927.9
72837.1
72890.5
73100.7
73482.8
74053.8
74831.7
75835.2
77080.9
78582.5
80349
82382.1
84673.8
87202.9
89933.2
92810.8
95763.6
98701
101517
104093
106294
108003
109095
109447
108974
107598
105278
102014
97853
92891.1
87279.4
81215.8
74927.8
68647.3
62585.4
56911.1
51741.9
47142.9
43135.1
39706.5
36824.2
34444.2
32520.9
31012.6
29879.5
29092.6
28626.8
28459.9
28578.5
28975.1
29646.6
30593.4
31818.1
33327
35128.4
37230.9
39643.3
42372.3
45421.4
48788.5
52463.8
56427.6
60648
65080.1
69665.9
74336.1
79014.2
83622.5
88088.2
92350.7
96365.6
100108
103568
106752
109671
112338
114761
116942
118871
120525
121880
122905
123559
123808
123613
122937
121751
120030
117765
114957
111629
107822
103598
99041
94248.7
89328.1
84387.5
79527.7
74835.7
70379.3
66205.6
62341.8
58797.5
55569
52642.4
49997.7
47611.9
45460.6
43520.2
41768.2
40184.1
38749.4
37447.7
36264.6
35187.4
34205
33308.2
32488.5
31739.2
31054.1
30428.4
29857.5
29338
28866.5
28440.5
28057.7
27715.2
27411.5
27145
26913.9
26716.6
26551.6
26417.5
26313
26236.5
26186.9
26162.7
26162.8
26186
26230.9
26296.5
26381.6
26485
)
;
    }
    inlet
    {
        type            calculated;
        value           uniform 0;
    }
    rWedge
    {
        type            wedge;
    }
    lWedge
    {
        type            wedge;
    }
    outlet
    {
        type            calculated;
        value           nonuniform 0();
    }
    procBoundary1to0
    {
        type            processor;
        value           uniform 0;
    }
    procBoundary1to2
    {
        type            processor;
        value           uniform 0;
    }
}


// ************************************************************************* //
