/*--------------------------------*- C++ -*----------------------------------*\
| =========                 |                                                 |
| \\      /  F ield         | OpenFOAM: The Open Source CFD Toolbox           |
|  \\    /   O peration     | Version:  v1706                                 |
|   \\  /    A nd           | Web:      www.OpenFOAM.com                      |
|    \\/     M anipulation  |                                                 |
\*---------------------------------------------------------------------------*/
FoamFile
{
    version     2.0;
    format      ascii;
    class       volScalarField;
    location    "1.4e-05";
    object      kappave;
}
// * * * * * * * * * * * * * * * * * * * * * * * * * * * * * * * * * * * * * //

dimensions      [1 1 -3 -1 0 0 0];


internalField   nonuniform List<scalar> 
30104
(
1.4607e-10
1.46071e-10
1.46072e-10
1.46073e-10
1.46074e-10
1.46075e-10
1.46076e-10
1.46077e-10
1.46077e-10
1.46078e-10
1.46078e-10
1.46079e-10
1.46079e-10
1.46079e-10
1.46079e-10
1.46079e-10
1.46079e-10
1.46058e-10
1.46058e-10
1.46058e-10
1.46058e-10
1.46058e-10
1.46059e-10
1.46059e-10
1.46059e-10
1.46059e-10
1.46059e-10
1.4606e-10
1.4606e-10
1.4606e-10
1.4606e-10
1.4606e-10
1.46061e-10
1.46061e-10
1.46061e-10
1.46061e-10
1.46061e-10
1.46062e-10
1.46062e-10
1.46062e-10
1.46062e-10
1.46063e-10
1.46063e-10
1.46063e-10
1.46063e-10
1.46064e-10
1.46064e-10
1.46064e-10
1.46064e-10
1.46065e-10
1.46065e-10
1.46065e-10
1.46065e-10
1.46066e-10
1.46066e-10
1.46066e-10
1.46067e-10
1.46067e-10
1.46067e-10
1.46067e-10
1.46068e-10
1.46068e-10
1.46068e-10
1.46069e-10
1.46069e-10
1.46069e-10
1.46069e-10
1.4607e-10
1.4607e-10
1.4607e-10
1.46071e-10
1.46071e-10
1.46071e-10
1.46072e-10
1.46072e-10
1.46072e-10
1.46073e-10
1.46073e-10
1.46073e-10
1.46074e-10
1.46074e-10
1.46074e-10
1.46075e-10
1.46075e-10
1.46075e-10
1.46076e-10
1.46076e-10
1.46077e-10
1.46077e-10
1.46077e-10
1.46078e-10
1.46078e-10
1.46079e-10
1.46079e-10
1.46079e-10
1.4608e-10
1.4608e-10
1.46081e-10
1.46081e-10
1.46082e-10
1.46082e-10
1.46083e-10
1.46083e-10
1.46083e-10
1.46084e-10
1.46084e-10
1.46085e-10
1.46085e-10
1.46086e-10
1.46086e-10
1.46087e-10
1.46087e-10
1.46088e-10
1.46088e-10
1.46089e-10
1.4609e-10
1.4609e-10
1.46091e-10
1.46091e-10
1.46092e-10
1.46092e-10
1.46093e-10
1.46094e-10
1.46094e-10
1.46095e-10
1.46096e-10
1.46096e-10
1.46097e-10
1.46098e-10
1.46098e-10
1.46099e-10
1.461e-10
1.461e-10
1.46101e-10
1.46102e-10
1.46103e-10
1.46103e-10
1.46104e-10
1.46105e-10
1.46106e-10
1.46107e-10
1.46107e-10
1.46108e-10
1.46109e-10
1.4611e-10
1.46111e-10
1.46112e-10
1.46113e-10
1.46113e-10
1.46114e-10
1.46115e-10
1.46116e-10
1.46117e-10
1.46118e-10
1.46119e-10
1.4612e-10
1.4612e-10
1.46121e-10
1.46122e-10
1.46123e-10
1.46124e-10
1.46125e-10
1.46126e-10
1.46127e-10
1.46127e-10
1.46128e-10
1.46129e-10
1.4613e-10
1.46131e-10
1.46132e-10
1.46133e-10
1.46134e-10
1.46135e-10
1.46136e-10
1.46137e-10
1.46138e-10
1.46139e-10
1.4614e-10
1.46141e-10
1.46142e-10
1.46143e-10
1.46144e-10
1.46145e-10
1.46147e-10
1.46148e-10
1.46149e-10
1.4615e-10
1.46152e-10
1.46153e-10
1.46154e-10
1.46156e-10
1.46157e-10
1.46159e-10
1.4616e-10
1.46162e-10
1.46163e-10
1.46165e-10
1.46167e-10
1.46168e-10
1.4617e-10
1.46172e-10
1.46174e-10
1.46176e-10
1.46177e-10
1.46179e-10
1.46181e-10
1.46183e-10
1.46185e-10
1.46184e-10
1.46164e-10
1.46223e-10
1.46229e-10
1.46235e-10
1.46241e-10
1.46246e-10
1.46251e-10
1.46256e-10
1.4626e-10
1.46264e-10
1.46267e-10
1.4627e-10
1.46273e-10
1.46275e-10
1.46277e-10
1.46278e-10
1.46278e-10
1.46278e-10
1.46167e-10
1.46169e-10
1.4617e-10
1.46172e-10
1.46173e-10
1.46175e-10
1.46176e-10
1.46177e-10
1.46179e-10
1.4618e-10
1.46182e-10
1.46184e-10
1.46185e-10
1.46187e-10
1.46188e-10
1.4619e-10
1.46192e-10
1.46193e-10
1.46195e-10
1.46197e-10
1.46198e-10
1.462e-10
1.46202e-10
1.46204e-10
1.46205e-10
1.46207e-10
1.46209e-10
1.46211e-10
1.46213e-10
1.46215e-10
1.46217e-10
1.46219e-10
1.46221e-10
1.46223e-10
1.46225e-10
1.46227e-10
1.46229e-10
1.46231e-10
1.46233e-10
1.46235e-10
1.46237e-10
1.4624e-10
1.46242e-10
1.46244e-10
1.46246e-10
1.46249e-10
1.46251e-10
1.46253e-10
1.46256e-10
1.46258e-10
1.46261e-10
1.46263e-10
1.46266e-10
1.46268e-10
1.46271e-10
1.46274e-10
1.46276e-10
1.46279e-10
1.46282e-10
1.46285e-10
1.46288e-10
1.46291e-10
1.46294e-10
1.46297e-10
1.463e-10
1.46303e-10
1.46306e-10
1.46309e-10
1.46313e-10
1.46316e-10
1.46319e-10
1.46323e-10
1.46326e-10
1.4633e-10
1.46333e-10
1.46337e-10
1.46341e-10
1.46344e-10
1.46348e-10
1.46352e-10
1.46356e-10
1.4636e-10
1.46364e-10
1.46368e-10
1.46372e-10
1.46376e-10
1.4638e-10
1.46384e-10
1.46388e-10
1.46393e-10
1.46397e-10
1.46401e-10
1.46405e-10
1.4641e-10
1.46414e-10
1.46419e-10
1.46423e-10
1.46428e-10
1.46433e-10
1.46437e-10
1.46442e-10
1.46447e-10
1.46452e-10
1.46457e-10
1.46462e-10
1.46467e-10
1.46472e-10
1.46477e-10
1.46482e-10
1.46488e-10
1.46493e-10
1.46499e-10
1.46505e-10
1.46511e-10
1.46517e-10
1.46523e-10
1.46529e-10
1.46535e-10
1.46541e-10
1.46548e-10
1.46555e-10
1.46561e-10
1.46568e-10
1.46575e-10
1.46582e-10
1.4659e-10
1.46597e-10
1.46604e-10
1.46612e-10
1.4662e-10
1.46627e-10
1.46635e-10
1.46643e-10
1.46651e-10
1.46659e-10
1.46668e-10
1.46676e-10
1.46684e-10
1.46693e-10
1.46701e-10
1.4671e-10
1.46718e-10
1.46727e-10
1.46736e-10
1.46745e-10
1.46754e-10
1.46762e-10
1.46771e-10
1.46781e-10
1.4679e-10
1.46799e-10
1.46808e-10
1.46818e-10
1.46828e-10
1.46837e-10
1.46847e-10
1.46857e-10
1.46867e-10
1.46878e-10
1.46888e-10
1.46899e-10
1.4691e-10
1.46921e-10
1.46932e-10
1.46944e-10
1.46956e-10
1.46968e-10
1.4698e-10
1.46993e-10
1.47006e-10
1.47019e-10
1.47033e-10
1.47047e-10
1.47062e-10
1.47076e-10
1.47092e-10
1.47107e-10
1.47123e-10
1.4714e-10
1.47156e-10
1.47174e-10
1.47191e-10
1.47209e-10
1.47228e-10
1.47246e-10
1.47265e-10
1.47285e-10
1.47305e-10
1.47325e-10
1.47346e-10
1.47368e-10
1.47371e-10
1.47271e-10
1.466e-10
1.46618e-10
1.46636e-10
1.46653e-10
1.46669e-10
1.46684e-10
1.46699e-10
1.46712e-10
1.46723e-10
1.46734e-10
1.46743e-10
1.46751e-10
1.46757e-10
1.46762e-10
1.46766e-10
1.46767e-10
1.4648e-10
1.46485e-10
1.46491e-10
1.46496e-10
1.46502e-10
1.46507e-10
1.46513e-10
1.46518e-10
1.46524e-10
1.4653e-10
1.46536e-10
1.46542e-10
1.46548e-10
1.46554e-10
1.4656e-10
1.46567e-10
1.46573e-10
1.4658e-10
1.46586e-10
1.46593e-10
1.466e-10
1.46607e-10
1.46614e-10
1.46621e-10
1.46629e-10
1.46636e-10
1.46644e-10
1.46651e-10
1.46659e-10
1.46667e-10
1.46675e-10
1.46683e-10
1.46691e-10
1.46699e-10
1.46708e-10
1.46716e-10
1.46725e-10
1.46734e-10
1.46743e-10
1.46752e-10
1.46761e-10
1.4677e-10
1.46779e-10
1.46789e-10
1.46798e-10
1.46808e-10
1.46818e-10
1.46828e-10
1.46838e-10
1.46848e-10
1.46858e-10
1.46869e-10
1.46879e-10
1.4689e-10
1.46901e-10
1.46912e-10
1.46923e-10
1.46935e-10
1.46946e-10
1.46958e-10
1.4697e-10
1.46982e-10
1.46995e-10
1.47007e-10
1.4702e-10
1.47033e-10
1.47046e-10
1.4706e-10
1.47074e-10
1.47088e-10
1.47102e-10
1.47116e-10
1.47131e-10
1.47146e-10
1.47161e-10
1.47176e-10
1.47192e-10
1.47208e-10
1.47224e-10
1.4724e-10
1.47257e-10
1.47274e-10
1.47291e-10
1.47308e-10
1.47325e-10
1.47343e-10
1.47361e-10
1.47379e-10
1.47398e-10
1.47416e-10
1.47435e-10
1.47454e-10
1.47473e-10
1.47493e-10
1.47513e-10
1.47533e-10
1.47553e-10
1.47573e-10
1.47594e-10
1.47615e-10
1.47636e-10
1.47658e-10
1.4768e-10
1.47702e-10
1.47725e-10
1.47748e-10
1.47772e-10
1.47796e-10
1.4782e-10
1.47845e-10
1.4787e-10
1.47896e-10
1.47922e-10
1.47949e-10
1.47977e-10
1.48005e-10
1.48034e-10
1.48063e-10
1.48093e-10
1.48124e-10
1.48155e-10
1.48187e-10
1.4822e-10
1.48254e-10
1.48288e-10
1.48322e-10
1.48358e-10
1.48394e-10
1.48431e-10
1.48469e-10
1.48507e-10
1.48546e-10
1.48585e-10
1.48625e-10
1.48666e-10
1.48707e-10
1.48749e-10
1.48791e-10
1.48833e-10
1.48876e-10
1.4892e-10
1.48964e-10
1.49008e-10
1.49052e-10
1.49097e-10
1.49142e-10
1.49187e-10
1.49233e-10
1.49279e-10
1.49325e-10
1.49371e-10
1.49417e-10
1.49464e-10
1.49511e-10
1.49559e-10
1.49607e-10
1.49655e-10
1.49704e-10
1.49753e-10
1.49803e-10
1.49854e-10
1.49906e-10
1.49958e-10
1.50011e-10
1.50065e-10
1.5012e-10
1.50176e-10
1.50233e-10
1.50291e-10
1.5035e-10
1.50411e-10
1.50473e-10
1.50537e-10
1.50602e-10
1.50668e-10
1.50737e-10
1.50807e-10
1.50879e-10
1.50953e-10
1.51029e-10
1.51107e-10
1.51187e-10
1.5127e-10
1.51354e-10
1.51441e-10
1.51531e-10
1.51623e-10
1.51717e-10
1.51814e-10
1.51913e-10
1.52016e-10
1.52087e-10
1.51781e-10
1.47494e-10
1.4754e-10
1.47585e-10
1.47628e-10
1.47669e-10
1.47707e-10
1.47742e-10
1.47775e-10
1.47805e-10
1.47831e-10
1.47854e-10
1.47874e-10
1.4789e-10
1.47902e-10
1.4791e-10
1.47915e-10
1.4733e-10
1.47347e-10
1.47365e-10
1.47383e-10
1.47401e-10
1.47419e-10
1.47438e-10
1.47457e-10
1.47476e-10
1.47495e-10
1.47515e-10
1.47534e-10
1.47555e-10
1.47575e-10
1.47596e-10
1.47617e-10
1.47638e-10
1.4766e-10
1.47682e-10
1.47705e-10
1.47728e-10
1.47751e-10
1.47775e-10
1.47799e-10
1.47823e-10
1.47848e-10
1.47873e-10
1.47899e-10
1.47925e-10
1.47952e-10
1.47979e-10
1.48006e-10
1.48034e-10
1.48062e-10
1.48091e-10
1.4812e-10
1.4815e-10
1.4818e-10
1.4821e-10
1.48241e-10
1.48273e-10
1.48304e-10
1.48336e-10
1.48369e-10
1.48402e-10
1.48436e-10
1.4847e-10
1.48504e-10
1.48539e-10
1.48574e-10
1.4861e-10
1.48647e-10
1.48683e-10
1.48721e-10
1.48759e-10
1.48798e-10
1.48837e-10
1.48877e-10
1.48918e-10
1.48959e-10
1.49001e-10
1.49044e-10
1.49088e-10
1.49133e-10
1.49178e-10
1.49225e-10
1.49272e-10
1.49321e-10
1.4937e-10
1.4942e-10
1.49472e-10
1.49524e-10
1.49578e-10
1.49632e-10
1.49688e-10
1.49745e-10
1.49802e-10
1.49861e-10
1.49922e-10
1.49983e-10
1.50045e-10
1.50109e-10
1.50173e-10
1.50239e-10
1.50306e-10
1.50373e-10
1.50442e-10
1.50511e-10
1.50582e-10
1.50653e-10
1.50726e-10
1.50799e-10
1.50873e-10
1.50947e-10
1.51022e-10
1.51098e-10
1.51175e-10
1.51252e-10
1.5133e-10
1.51408e-10
1.51487e-10
1.51567e-10
1.51648e-10
1.5173e-10
1.51813e-10
1.51896e-10
1.51981e-10
1.52067e-10
1.52154e-10
1.52243e-10
1.52332e-10
1.52424e-10
1.52517e-10
1.52612e-10
1.52708e-10
1.52807e-10
1.52907e-10
1.53009e-10
1.53114e-10
1.53221e-10
1.5333e-10
1.53442e-10
1.53557e-10
1.53674e-10
1.53794e-10
1.53917e-10
1.54042e-10
1.54171e-10
1.54303e-10
1.54437e-10
1.54575e-10
1.54716e-10
1.5486e-10
1.55007e-10
1.55158e-10
1.55311e-10
1.55467e-10
1.55627e-10
1.55789e-10
1.55954e-10
1.56122e-10
1.56292e-10
1.56465e-10
1.5664e-10
1.56818e-10
1.56997e-10
1.57179e-10
1.57362e-10
1.57546e-10
1.57731e-10
1.57918e-10
1.58105e-10
1.58292e-10
1.58481e-10
1.58671e-10
1.58861e-10
1.59052e-10
1.59245e-10
1.59438e-10
1.59633e-10
1.59829e-10
1.60026e-10
1.60225e-10
1.60425e-10
1.60628e-10
1.60832e-10
1.61038e-10
1.61247e-10
1.61458e-10
1.61672e-10
1.61889e-10
1.62109e-10
1.62333e-10
1.62561e-10
1.62793e-10
1.63029e-10
1.63271e-10
1.63518e-10
1.63771e-10
1.6403e-10
1.64295e-10
1.64567e-10
1.64847e-10
1.65134e-10
1.65429e-10
1.65732e-10
1.66044e-10
1.66367e-10
1.66694e-10
1.67041e-10
1.67378e-10
1.67761e-10
1.67237e-10
1.49534e-10
1.49642e-10
1.49745e-10
1.49842e-10
1.49935e-10
1.50021e-10
1.50101e-10
1.50174e-10
1.50239e-10
1.50297e-10
1.50348e-10
1.50389e-10
1.50423e-10
1.50448e-10
1.50464e-10
1.49514e-10
1.49566e-10
1.49619e-10
1.49672e-10
1.49726e-10
1.4978e-10
1.49835e-10
1.49891e-10
1.49947e-10
1.50004e-10
1.50062e-10
1.50121e-10
1.5018e-10
1.50241e-10
1.50302e-10
1.50365e-10
1.50428e-10
1.50493e-10
1.50559e-10
1.50626e-10
1.50694e-10
1.50763e-10
1.50834e-10
1.50906e-10
1.50979e-10
1.51054e-10
1.5113e-10
1.51207e-10
1.51286e-10
1.51367e-10
1.51449e-10
1.51532e-10
1.51617e-10
1.51704e-10
1.51792e-10
1.51882e-10
1.51973e-10
1.52066e-10
1.52161e-10
1.52257e-10
1.52355e-10
1.52454e-10
1.52555e-10
1.52657e-10
1.52761e-10
1.52866e-10
1.52972e-10
1.5308e-10
1.53189e-10
1.53299e-10
1.5341e-10
1.53523e-10
1.53637e-10
1.53752e-10
1.53869e-10
1.53987e-10
1.54107e-10
1.54229e-10
1.54352e-10
1.54477e-10
1.54603e-10
1.54732e-10
1.54863e-10
1.54995e-10
1.5513e-10
1.55267e-10
1.55407e-10
1.55549e-10
1.55694e-10
1.55841e-10
1.55992e-10
1.56145e-10
1.56301e-10
1.5646e-10
1.56622e-10
1.56788e-10
1.56957e-10
1.57129e-10
1.57304e-10
1.57484e-10
1.57666e-10
1.57852e-10
1.58042e-10
1.58235e-10
1.58432e-10
1.58633e-10
1.58837e-10
1.59044e-10
1.59255e-10
1.59468e-10
1.59686e-10
1.59906e-10
1.60129e-10
1.60355e-10
1.60583e-10
1.60814e-10
1.61046e-10
1.61281e-10
1.61516e-10
1.61753e-10
1.61992e-10
1.62232e-10
1.62474e-10
1.62718e-10
1.62964e-10
1.63212e-10
1.63461e-10
1.63714e-10
1.63968e-10
1.64226e-10
1.64486e-10
1.6475e-10
1.65017e-10
1.65288e-10
1.65562e-10
1.65841e-10
1.66124e-10
1.66412e-10
1.66705e-10
1.67003e-10
1.67307e-10
1.67617e-10
1.67933e-10
1.68256e-10
1.68586e-10
1.68923e-10
1.69268e-10
1.6962e-10
1.69981e-10
1.7035e-10
1.70728e-10
1.71114e-10
1.71509e-10
1.71912e-10
1.72325e-10
1.72746e-10
1.73177e-10
1.73615e-10
1.74062e-10
1.74517e-10
1.7498e-10
1.7545e-10
1.75927e-10
1.76411e-10
1.76902e-10
1.77398e-10
1.77899e-10
1.78406e-10
1.78918e-10
1.79433e-10
1.79946e-10
1.80455e-10
1.8096e-10
1.8146e-10
1.81956e-10
1.82447e-10
1.82934e-10
1.83415e-10
1.83892e-10
1.84363e-10
1.84829e-10
1.85289e-10
1.85744e-10
1.86194e-10
1.86639e-10
1.87078e-10
1.87512e-10
1.87941e-10
1.88364e-10
1.88782e-10
1.89194e-10
1.89601e-10
1.90002e-10
1.90398e-10
1.90788e-10
1.91174e-10
1.9155e-10
1.91925e-10
1.92289e-10
1.92653e-10
1.93004e-10
1.93356e-10
1.93692e-10
1.94033e-10
1.94354e-10
1.94683e-10
1.94989e-10
1.95307e-10
1.95598e-10
1.95902e-10
1.96184e-10
1.96503e-10
1.9608e-10
1.53656e-10
1.53886e-10
1.54106e-10
1.54315e-10
1.54512e-10
1.54696e-10
1.54866e-10
1.55022e-10
1.55163e-10
1.55289e-10
1.55399e-10
1.55493e-10
1.5557e-10
1.5563e-10
1.55672e-10
1.55696e-10
1.54709e-10
1.54847e-10
1.54987e-10
1.55127e-10
1.55269e-10
1.55412e-10
1.55557e-10
1.55703e-10
1.55851e-10
1.56e-10
1.56151e-10
1.56304e-10
1.56459e-10
1.56615e-10
1.56774e-10
1.56936e-10
1.57099e-10
1.57265e-10
1.57433e-10
1.57604e-10
1.57777e-10
1.57953e-10
1.58132e-10
1.58314e-10
1.58499e-10
1.58687e-10
1.58878e-10
1.59073e-10
1.59271e-10
1.59472e-10
1.59677e-10
1.59885e-10
1.60097e-10
1.60313e-10
1.60532e-10
1.60755e-10
1.60982e-10
1.61213e-10
1.61447e-10
1.61685e-10
1.61928e-10
1.62173e-10
1.62423e-10
1.62676e-10
1.62932e-10
1.63192e-10
1.63455e-10
1.63722e-10
1.63991e-10
1.64263e-10
1.64537e-10
1.64813e-10
1.65091e-10
1.65372e-10
1.65654e-10
1.65938e-10
1.66225e-10
1.66514e-10
1.66806e-10
1.671e-10
1.67397e-10
1.67697e-10
1.68e-10
1.68307e-10
1.68616e-10
1.6893e-10
1.69247e-10
1.69569e-10
1.69894e-10
1.70225e-10
1.7056e-10
1.70901e-10
1.71247e-10
1.71599e-10
1.71958e-10
1.72322e-10
1.72693e-10
1.73071e-10
1.73457e-10
1.73849e-10
1.7425e-10
1.74658e-10
1.75074e-10
1.75497e-10
1.75929e-10
1.76369e-10
1.76817e-10
1.77273e-10
1.77736e-10
1.78206e-10
1.78684e-10
1.79168e-10
1.79658e-10
1.80154e-10
1.80654e-10
1.8116e-10
1.81669e-10
1.8218e-10
1.82689e-10
1.83194e-10
1.83694e-10
1.8419e-10
1.84681e-10
1.85166e-10
1.85646e-10
1.86119e-10
1.86587e-10
1.87048e-10
1.87502e-10
1.8795e-10
1.8839e-10
1.88823e-10
1.89249e-10
1.89668e-10
1.90079e-10
1.90483e-10
1.90878e-10
1.91266e-10
1.91647e-10
1.92019e-10
1.92384e-10
1.92741e-10
1.9309e-10
1.93431e-10
1.93764e-10
1.94089e-10
1.94407e-10
1.94716e-10
1.95018e-10
1.95312e-10
1.95599e-10
1.95877e-10
1.96149e-10
1.96412e-10
1.96669e-10
1.96918e-10
1.97161e-10
1.97396e-10
1.97625e-10
1.97848e-10
1.98064e-10
1.98275e-10
1.98479e-10
1.98679e-10
1.98873e-10
1.99062e-10
1.99245e-10
1.99424e-10
1.99599e-10
1.99768e-10
1.99935e-10
2.00099e-10
2.0026e-10
2.00419e-10
2.00576e-10
2.00731e-10
2.00883e-10
2.01033e-10
2.0118e-10
2.01324e-10
2.01465e-10
2.01603e-10
2.01737e-10
2.01868e-10
2.01995e-10
2.02118e-10
2.02236e-10
2.0235e-10
2.02459e-10
2.02563e-10
2.02662e-10
2.02756e-10
2.02845e-10
2.02927e-10
2.03006e-10
2.03077e-10
2.03145e-10
2.03206e-10
2.03265e-10
2.03315e-10
2.03366e-10
2.03406e-10
2.0345e-10
2.03481e-10
2.0352e-10
2.03543e-10
2.0358e-10
2.03594e-10
2.03633e-10
2.03635e-10
2.03671e-10
2.03667e-10
2.03512e-10
1.61856e-10
1.6227e-10
1.62661e-10
1.63027e-10
1.63366e-10
1.63679e-10
1.63963e-10
1.64219e-10
1.64446e-10
1.64643e-10
1.64811e-10
1.64948e-10
1.65056e-10
1.6532e-10
1.65613e-10
1.65908e-10
1.66205e-10
1.66504e-10
1.66806e-10
1.6711e-10
1.67416e-10
1.67724e-10
1.68035e-10
1.68347e-10
1.68662e-10
1.68979e-10
1.69298e-10
1.69619e-10
1.69943e-10
1.7027e-10
1.70599e-10
1.7093e-10
1.71265e-10
1.71602e-10
1.71942e-10
1.72285e-10
1.72631e-10
1.72981e-10
1.73334e-10
1.73691e-10
1.74051e-10
1.74416e-10
1.74784e-10
1.75157e-10
1.75535e-10
1.75917e-10
1.76304e-10
1.76697e-10
1.77095e-10
1.77498e-10
1.77906e-10
1.78321e-10
1.78741e-10
1.79166e-10
1.79598e-10
1.80035e-10
1.80477e-10
1.80925e-10
1.81378e-10
1.81836e-10
1.82299e-10
1.82766e-10
1.83238e-10
1.83714e-10
1.84189e-10
1.84662e-10
1.85133e-10
1.856e-10
1.86065e-10
1.86526e-10
1.86984e-10
1.87437e-10
1.87886e-10
1.8833e-10
1.88769e-10
1.89203e-10
1.89631e-10
1.90053e-10
1.90469e-10
1.90878e-10
1.91281e-10
1.91677e-10
1.92066e-10
1.92448e-10
1.92822e-10
1.93188e-10
1.93547e-10
1.93898e-10
1.9424e-10
1.94574e-10
1.949e-10
1.95218e-10
1.95526e-10
1.95827e-10
1.96118e-10
1.96401e-10
1.96675e-10
1.9694e-10
1.97196e-10
1.97443e-10
1.97682e-10
1.97912e-10
1.98133e-10
1.98346e-10
1.9855e-10
1.98745e-10
1.98933e-10
1.99112e-10
1.99284e-10
1.99447e-10
1.99603e-10
1.99753e-10
1.99899e-10
2.00039e-10
2.00175e-10
2.00306e-10
2.00433e-10
2.00557e-10
2.00677e-10
2.00794e-10
2.00909e-10
2.01021e-10
2.0113e-10
2.01237e-10
2.01342e-10
2.01444e-10
2.01545e-10
2.01643e-10
2.0174e-10
2.01835e-10
2.01927e-10
2.02018e-10
2.02107e-10
2.02193e-10
2.02277e-10
2.0236e-10
2.0244e-10
2.02517e-10
2.02593e-10
2.02667e-10
2.02738e-10
2.02808e-10
2.02876e-10
2.02941e-10
2.03005e-10
2.03068e-10
2.03128e-10
2.03188e-10
2.03245e-10
2.03302e-10
2.03357e-10
2.0341e-10
2.03463e-10
2.03513e-10
2.03563e-10
2.03611e-10
2.03657e-10
2.03702e-10
2.03745e-10
2.03787e-10
2.03826e-10
2.03864e-10
2.03899e-10
2.03932e-10
2.03963e-10
2.03992e-10
2.04018e-10
2.04042e-10
2.04064e-10
2.04083e-10
2.041e-10
2.04115e-10
2.04128e-10
2.04139e-10
2.04148e-10
2.04156e-10
2.04163e-10
2.04169e-10
2.04174e-10
2.04179e-10
2.04184e-10
2.04188e-10
2.04192e-10
2.04196e-10
2.042e-10
2.04205e-10
2.04209e-10
2.04214e-10
2.04218e-10
2.04223e-10
2.04229e-10
2.04235e-10
2.0424e-10
2.04248e-10
2.04254e-10
2.04263e-10
2.0427e-10
2.04281e-10
2.04289e-10
2.04301e-10
2.0431e-10
2.04324e-10
2.04333e-10
2.04349e-10
2.04361e-10
2.04321e-10
1.75094e-10
1.75656e-10
1.76173e-10
1.76645e-10
1.7707e-10
1.7745e-10
1.77784e-10
1.78073e-10
1.78318e-10
1.78519e-10
1.78679e-10
1.78799e-10
1.78882e-10
1.81786e-10
1.82216e-10
1.82646e-10
1.83076e-10
1.83507e-10
1.83939e-10
1.84371e-10
1.84805e-10
1.8524e-10
1.85673e-10
1.86103e-10
1.86531e-10
1.86955e-10
1.87375e-10
1.87792e-10
1.88206e-10
1.88615e-10
1.89021e-10
1.89423e-10
1.89821e-10
1.90214e-10
1.90602e-10
1.90986e-10
1.91365e-10
1.91739e-10
1.92108e-10
1.92471e-10
1.92829e-10
1.93182e-10
1.93528e-10
1.93868e-10
1.94202e-10
1.9453e-10
1.94851e-10
1.95165e-10
1.95472e-10
1.95771e-10
1.96063e-10
1.96347e-10
1.96624e-10
1.96892e-10
1.97152e-10
1.97403e-10
1.97646e-10
1.97881e-10
1.98107e-10
1.98325e-10
1.98534e-10
1.98735e-10
1.98927e-10
1.99111e-10
1.99288e-10
1.99458e-10
1.99622e-10
1.99781e-10
1.99933e-10
2.0008e-10
2.00221e-10
2.00357e-10
2.00488e-10
2.00615e-10
2.00737e-10
2.00854e-10
2.00967e-10
2.01077e-10
2.01182e-10
2.01284e-10
2.01383e-10
2.01478e-10
2.01571e-10
2.0166e-10
2.01747e-10
2.01831e-10
2.01912e-10
2.01991e-10
2.02067e-10
2.02142e-10
2.02214e-10
2.02284e-10
2.02352e-10
2.02418e-10
2.02483e-10
2.02545e-10
2.02607e-10
2.02667e-10
2.02725e-10
2.02782e-10
2.02838e-10
2.02893e-10
2.02946e-10
2.02998e-10
2.0305e-10
2.031e-10
2.03149e-10
2.03197e-10
2.03243e-10
2.03289e-10
2.03334e-10
2.03378e-10
2.03421e-10
2.03464e-10
2.03505e-10
2.03546e-10
2.03585e-10
2.03624e-10
2.03662e-10
2.03698e-10
2.03734e-10
2.03768e-10
2.03801e-10
2.03832e-10
2.03861e-10
2.0389e-10
2.03916e-10
2.03941e-10
2.03964e-10
2.03986e-10
2.04007e-10
2.04026e-10
2.04043e-10
2.0406e-10
2.04075e-10
2.0409e-10
2.04104e-10
2.04118e-10
2.04131e-10
2.04144e-10
2.04156e-10
2.04169e-10
2.04182e-10
2.04194e-10
2.04207e-10
2.04221e-10
2.04234e-10
2.04248e-10
2.04262e-10
2.04277e-10
2.04291e-10
2.04306e-10
2.04321e-10
2.04337e-10
2.04352e-10
2.04368e-10
2.04383e-10
2.04399e-10
2.04415e-10
2.04431e-10
2.04446e-10
2.04462e-10
2.04478e-10
2.04493e-10
2.04509e-10
2.04525e-10
2.0454e-10
2.04555e-10
2.0457e-10
2.04585e-10
2.046e-10
2.04614e-10
2.04629e-10
2.04643e-10
2.04658e-10
2.04673e-10
2.04688e-10
2.04702e-10
2.04716e-10
2.0473e-10
2.04743e-10
2.04756e-10
2.04769e-10
2.04781e-10
2.04793e-10
2.04805e-10
2.04817e-10
2.04829e-10
2.04842e-10
2.04855e-10
2.04868e-10
2.04882e-10
2.04897e-10
2.04913e-10
2.0493e-10
2.04948e-10
2.04967e-10
2.04988e-10
2.05009e-10
2.05031e-10
2.05055e-10
2.05079e-10
2.05105e-10
2.05131e-10
2.05168e-10
2.05149e-10
1.90682e-10
1.91244e-10
1.91743e-10
1.92183e-10
1.92563e-10
1.92885e-10
1.9315e-10
1.93363e-10
1.93525e-10
1.93638e-10
1.937e-10
1.93708e-10
1.93689e-10
1.93636e-10
1.96617e-10
1.96882e-10
1.97137e-10
1.97383e-10
1.97619e-10
1.97846e-10
1.98064e-10
1.98274e-10
1.98475e-10
1.98669e-10
1.98856e-10
1.99038e-10
1.99213e-10
1.99384e-10
1.99548e-10
1.99708e-10
1.99862e-10
2.00011e-10
2.00156e-10
2.00295e-10
2.00431e-10
2.00561e-10
2.00687e-10
2.00809e-10
2.00927e-10
2.0104e-10
2.01149e-10
2.01254e-10
2.01355e-10
2.01452e-10
2.01545e-10
2.01635e-10
2.01721e-10
2.01803e-10
2.01883e-10
2.01959e-10
2.02032e-10
2.02102e-10
2.0217e-10
2.02236e-10
2.02299e-10
2.02361e-10
2.02421e-10
2.02479e-10
2.02535e-10
2.0259e-10
2.02644e-10
2.02696e-10
2.02748e-10
2.02798e-10
2.02847e-10
2.02895e-10
2.02942e-10
2.02989e-10
2.03034e-10
2.03079e-10
2.03122e-10
2.03165e-10
2.03208e-10
2.03249e-10
2.0329e-10
2.03329e-10
2.03368e-10
2.03406e-10
2.03443e-10
2.03479e-10
2.03514e-10
2.03548e-10
2.03581e-10
2.03613e-10
2.03643e-10
2.03673e-10
2.03701e-10
2.03728e-10
2.03755e-10
2.0378e-10
2.03804e-10
2.03827e-10
2.03849e-10
2.0387e-10
2.03891e-10
2.0391e-10
2.0393e-10
2.03948e-10
2.03966e-10
2.03983e-10
2.04e-10
2.04017e-10
2.04033e-10
2.04048e-10
2.04064e-10
2.04079e-10
2.04094e-10
2.04108e-10
2.04123e-10
2.04137e-10
2.04151e-10
2.04165e-10
2.0418e-10
2.04194e-10
2.04208e-10
2.04223e-10
2.04237e-10
2.04252e-10
2.04267e-10
2.04282e-10
2.04297e-10
2.04311e-10
2.04327e-10
2.04342e-10
2.04357e-10
2.04372e-10
2.04387e-10
2.04402e-10
2.04417e-10
2.04432e-10
2.04447e-10
2.04462e-10
2.04477e-10
2.04492e-10
2.04507e-10
2.04522e-10
2.04537e-10
2.04552e-10
2.04567e-10
2.04583e-10
2.04599e-10
2.04615e-10
2.04631e-10
2.04648e-10
2.04666e-10
2.04683e-10
2.04701e-10
2.04719e-10
2.04737e-10
2.04755e-10
2.04774e-10
2.04793e-10
2.04812e-10
2.04832e-10
2.04852e-10
2.04871e-10
2.04892e-10
2.04912e-10
2.04932e-10
2.04953e-10
2.04974e-10
2.04995e-10
2.05017e-10
2.05038e-10
2.0506e-10
2.05082e-10
2.05103e-10
2.05126e-10
2.05148e-10
2.0517e-10
2.05193e-10
2.05216e-10
2.0524e-10
2.05263e-10
2.05286e-10
2.05308e-10
2.0533e-10
2.05353e-10
2.05375e-10
2.05398e-10
2.05421e-10
2.05444e-10
2.05468e-10
2.05492e-10
2.05516e-10
2.05542e-10
2.05568e-10
2.05595e-10
2.05623e-10
2.05652e-10
2.05683e-10
2.05715e-10
2.05748e-10
2.05784e-10
2.0582e-10
2.05859e-10
2.05898e-10
2.0594e-10
2.05983e-10
2.06028e-10
2.06074e-10
2.06123e-10
2.06172e-10
2.06224e-10
2.06275e-10
2.06343e-10
2.06317e-10
2.03275e-10
2.03341e-10
2.03354e-10
2.03338e-10
2.03291e-10
2.03205e-10
2.03086e-10
2.02937e-10
2.02765e-10
2.0257e-10
2.02356e-10
2.02124e-10
2.01889e-10
2.01643e-10
2.0176e-10
2.01846e-10
2.01927e-10
2.02004e-10
2.02078e-10
2.02148e-10
2.02215e-10
2.02279e-10
2.0234e-10
2.02399e-10
2.02455e-10
2.0251e-10
2.02563e-10
2.02614e-10
2.02663e-10
2.02712e-10
2.02759e-10
2.02805e-10
2.0285e-10
2.02895e-10
2.02938e-10
2.0298e-10
2.0302e-10
2.0306e-10
2.03099e-10
2.03137e-10
2.03174e-10
2.0321e-10
2.03244e-10
2.03278e-10
2.03311e-10
2.03343e-10
2.03375e-10
2.03405e-10
2.03435e-10
2.03464e-10
2.03493e-10
2.03521e-10
2.03549e-10
2.03576e-10
2.03603e-10
2.03629e-10
2.03655e-10
2.0368e-10
2.03705e-10
2.03729e-10
2.03753e-10
2.03775e-10
2.03798e-10
2.03819e-10
2.0384e-10
2.03861e-10
2.0388e-10
2.03899e-10
2.03918e-10
2.03935e-10
2.03952e-10
2.03969e-10
2.03985e-10
2.04001e-10
2.04016e-10
2.04031e-10
2.04046e-10
2.0406e-10
2.04074e-10
2.04087e-10
2.04101e-10
2.04114e-10
2.04127e-10
2.0414e-10
2.04153e-10
2.04166e-10
2.04178e-10
2.04191e-10
2.04204e-10
2.04217e-10
2.0423e-10
2.04243e-10
2.04256e-10
2.0427e-10
2.04283e-10
2.04298e-10
2.04312e-10
2.04326e-10
2.04341e-10
2.04357e-10
2.04372e-10
2.04388e-10
2.04404e-10
2.04421e-10
2.04437e-10
2.04454e-10
2.04471e-10
2.04489e-10
2.04507e-10
2.04525e-10
2.04543e-10
2.04562e-10
2.04581e-10
2.04599e-10
2.04618e-10
2.04637e-10
2.04655e-10
2.04674e-10
2.04693e-10
2.04712e-10
2.0473e-10
2.04749e-10
2.04768e-10
2.04786e-10
2.04805e-10
2.04824e-10
2.04843e-10
2.04863e-10
2.04882e-10
2.04902e-10
2.04922e-10
2.04942e-10
2.04963e-10
2.04984e-10
2.05005e-10
2.05027e-10
2.05049e-10
2.05072e-10
2.05095e-10
2.05118e-10
2.05142e-10
2.05165e-10
2.05189e-10
2.05214e-10
2.05239e-10
2.05264e-10
2.0529e-10
2.05316e-10
2.05343e-10
2.0537e-10
2.05397e-10
2.05426e-10
2.05454e-10
2.05483e-10
2.05513e-10
2.05543e-10
2.05574e-10
2.05605e-10
2.05637e-10
2.05669e-10
2.05702e-10
2.05735e-10
2.05769e-10
2.05804e-10
2.05839e-10
2.05875e-10
2.05912e-10
2.05949e-10
2.05988e-10
2.06027e-10
2.06067e-10
2.06108e-10
2.06149e-10
2.06191e-10
2.06235e-10
2.06279e-10
2.06325e-10
2.06371e-10
2.06419e-10
2.06467e-10
2.06517e-10
2.06568e-10
2.0662e-10
2.06674e-10
2.0673e-10
2.06788e-10
2.06847e-10
2.06909e-10
2.06972e-10
2.07038e-10
2.07106e-10
2.07176e-10
2.07249e-10
2.07324e-10
2.07401e-10
2.07481e-10
2.07562e-10
2.07647e-10
2.07733e-10
2.07822e-10
2.07913e-10
2.08007e-10
2.08103e-10
2.082e-10
2.08298e-10
2.08418e-10
2.08367e-10
2.0814e-10
2.07922e-10
2.07689e-10
2.07447e-10
2.07194e-10
2.06927e-10
2.06652e-10
2.06367e-10
2.06073e-10
2.05801e-10
2.05498e-10
2.05164e-10
2.04857e-10
2.04566e-10
2.03094e-10
2.03138e-10
2.0318e-10
2.0322e-10
2.03259e-10
2.03296e-10
2.03332e-10
2.03367e-10
2.03399e-10
2.03431e-10
2.03461e-10
2.0349e-10
2.03518e-10
2.03545e-10
2.03571e-10
2.03596e-10
2.0362e-10
2.03644e-10
2.03666e-10
2.03687e-10
2.03708e-10
2.03728e-10
2.03747e-10
2.03765e-10
2.03783e-10
2.038e-10
2.03817e-10
2.03833e-10
2.03849e-10
2.03865e-10
2.0388e-10
2.03895e-10
2.0391e-10
2.03925e-10
2.0394e-10
2.03955e-10
2.03969e-10
2.03984e-10
2.03999e-10
2.04014e-10
2.04029e-10
2.04044e-10
2.04059e-10
2.04074e-10
2.04089e-10
2.04105e-10
2.0412e-10
2.04136e-10
2.04152e-10
2.04168e-10
2.04184e-10
2.042e-10
2.04216e-10
2.04232e-10
2.04249e-10
2.04265e-10
2.04281e-10
2.04297e-10
2.04313e-10
2.04329e-10
2.04346e-10
2.04362e-10
2.04378e-10
2.04393e-10
2.04409e-10
2.04424e-10
2.04439e-10
2.04454e-10
2.0447e-10
2.04485e-10
2.045e-10
2.04515e-10
2.0453e-10
2.04546e-10
2.04561e-10
2.04577e-10
2.04594e-10
2.04611e-10
2.04628e-10
2.04646e-10
2.04664e-10
2.04683e-10
2.04702e-10
2.04722e-10
2.04743e-10
2.04764e-10
2.04786e-10
2.04808e-10
2.0483e-10
2.04853e-10
2.04877e-10
2.04901e-10
2.04925e-10
2.0495e-10
2.04974e-10
2.04998e-10
2.05023e-10
2.05047e-10
2.05072e-10
2.05097e-10
2.05122e-10
2.05147e-10
2.05172e-10
2.05198e-10
2.05223e-10
2.05248e-10
2.05274e-10
2.053e-10
2.05326e-10
2.05353e-10
2.0538e-10
2.05407e-10
2.05435e-10
2.05464e-10
2.05493e-10
2.05523e-10
2.05553e-10
2.05585e-10
2.05617e-10
2.0565e-10
2.05684e-10
2.05719e-10
2.05755e-10
2.05791e-10
2.05829e-10
2.05867e-10
2.05906e-10
2.05946e-10
2.05987e-10
2.06029e-10
2.06072e-10
2.06116e-10
2.06161e-10
2.06206e-10
2.06253e-10
2.06301e-10
2.06349e-10
2.06399e-10
2.0645e-10
2.06502e-10
2.06555e-10
2.06609e-10
2.06664e-10
2.0672e-10
2.06778e-10
2.06836e-10
2.06896e-10
2.06958e-10
2.0702e-10
2.07084e-10
2.0715e-10
2.07216e-10
2.07285e-10
2.07355e-10
2.07427e-10
2.075e-10
2.07575e-10
2.07652e-10
2.07731e-10
2.07812e-10
2.07894e-10
2.07979e-10
2.08066e-10
2.08156e-10
2.08247e-10
2.08341e-10
2.08437e-10
2.08536e-10
2.08638e-10
2.08743e-10
2.0885e-10
2.08961e-10
2.09074e-10
2.09191e-10
2.09311e-10
2.09434e-10
2.0956e-10
2.09689e-10
2.09822e-10
2.09957e-10
2.10096e-10
2.10238e-10
2.10384e-10
2.10532e-10
2.10684e-10
2.10839e-10
2.10998e-10
2.1116e-10
2.11325e-10
2.1149e-10
2.11653e-10
2.11832e-10
2.11728e-10
2.09955e-10
2.09628e-10
2.09295e-10
2.08959e-10
2.0862e-10
2.08278e-10
2.07934e-10
2.07586e-10
2.07243e-10
2.06907e-10
2.06563e-10
2.06213e-10
2.0587e-10
2.03591e-10
2.03621e-10
2.03649e-10
2.03677e-10
2.03703e-10
2.03729e-10
2.03754e-10
2.03778e-10
2.038e-10
2.03823e-10
2.03843e-10
2.03862e-10
2.03882e-10
2.039e-10
2.03917e-10
2.03935e-10
2.03952e-10
2.03968e-10
2.03985e-10
2.04001e-10
2.04017e-10
2.04033e-10
2.04049e-10
2.04064e-10
2.0408e-10
2.04096e-10
2.04112e-10
2.04128e-10
2.04143e-10
2.04159e-10
2.04175e-10
2.04191e-10
2.04207e-10
2.04224e-10
2.0424e-10
2.04257e-10
2.04274e-10
2.04291e-10
2.04308e-10
2.04326e-10
2.04343e-10
2.04361e-10
2.04379e-10
2.04397e-10
2.04415e-10
2.04433e-10
2.04451e-10
2.0447e-10
2.04489e-10
2.04508e-10
2.04527e-10
2.04547e-10
2.04566e-10
2.04586e-10
2.04606e-10
2.04625e-10
2.04645e-10
2.04665e-10
2.04685e-10
2.04706e-10
2.04725e-10
2.04745e-10
2.04764e-10
2.04784e-10
2.04804e-10
2.04824e-10
2.04844e-10
2.04864e-10
2.04884e-10
2.04905e-10
2.04926e-10
2.04947e-10
2.04969e-10
2.04991e-10
2.05014e-10
2.05038e-10
2.05062e-10
2.05087e-10
2.05112e-10
2.05139e-10
2.05166e-10
2.05193e-10
2.05222e-10
2.05251e-10
2.05281e-10
2.05311e-10
2.05343e-10
2.05374e-10
2.05407e-10
2.0544e-10
2.05474e-10
2.05508e-10
2.05542e-10
2.05577e-10
2.05613e-10
2.05649e-10
2.05685e-10
2.05722e-10
2.0576e-10
2.05797e-10
2.05836e-10
2.05874e-10
2.05913e-10
2.05953e-10
2.05994e-10
2.06035e-10
2.06077e-10
2.06119e-10
2.06163e-10
2.06207e-10
2.06252e-10
2.06299e-10
2.06347e-10
2.06396e-10
2.06446e-10
2.06498e-10
2.0655e-10
2.06605e-10
2.0666e-10
2.06718e-10
2.06776e-10
2.06836e-10
2.06898e-10
2.06961e-10
2.07025e-10
2.07092e-10
2.07159e-10
2.07229e-10
2.073e-10
2.07372e-10
2.07446e-10
2.07522e-10
2.07599e-10
2.07678e-10
2.07759e-10
2.07841e-10
2.07926e-10
2.08012e-10
2.081e-10
2.0819e-10
2.08282e-10
2.08375e-10
2.08471e-10
2.08569e-10
2.08669e-10
2.08771e-10
2.08876e-10
2.08982e-10