/*--------------------------------*- C++ -*----------------------------------*\
| =========                 |                                                 |
| \\      /  F ield         | OpenFOAM: The Open Source CFD Toolbox           |
|  \\    /   O peration     | Version:  v1706                                 |
|   \\  /    A nd           | Web:      www.OpenFOAM.com                      |
|    \\/     M anipulation  |                                                 |
\*---------------------------------------------------------------------------*/
FoamFile
{
    version     2.0;
    format      ascii;
    class       volScalarField;
    location    "1.4e-05";
    object      kappatr;
}
// * * * * * * * * * * * * * * * * * * * * * * * * * * * * * * * * * * * * * //

dimensions      [1 1 -3 -1 0 0 0];


internalField   nonuniform List<scalar> 
30104
(
0.0145963
0.0145964
0.0145965
0.0145966
0.0145967
0.0145967
0.0145968
0.0145969
0.014597
0.014597
0.0145971
0.0145971
0.0145971
0.0145971
0.0145972
0.0145972
0.0145972
0.014595
0.014595
0.014595
0.0145951
0.0145951
0.0145951
0.0145951
0.0145951
0.0145951
0.0145952
0.0145952
0.0145952
0.0145952
0.0145952
0.0145953
0.0145953
0.0145953
0.0145953
0.0145954
0.0145954
0.0145954
0.0145954
0.0145955
0.0145955
0.0145955
0.0145955
0.0145955
0.0145956
0.0145956
0.0145956
0.0145956
0.0145957
0.0145957
0.0145957
0.0145958
0.0145958
0.0145958
0.0145958
0.0145959
0.0145959
0.0145959
0.0145959
0.014596
0.014596
0.014596
0.0145961
0.0145961
0.0145961
0.0145961
0.0145962
0.0145962
0.0145962
0.0145963
0.0145963
0.0145963
0.0145964
0.0145964
0.0145964
0.0145965
0.0145965
0.0145965
0.0145966
0.0145966
0.0145966
0.0145967
0.0145967
0.0145967
0.0145968
0.0145968
0.0145969
0.0145969
0.0145969
0.014597
0.014597
0.0145971
0.0145971
0.0145971
0.0145972
0.0145972
0.0145973
0.0145973
0.0145974
0.0145974
0.0145974
0.0145975
0.0145975
0.0145976
0.0145976
0.0145977
0.0145977
0.0145978
0.0145978
0.0145979
0.0145979
0.014598
0.014598
0.0145981
0.0145981
0.0145982
0.0145982
0.0145983
0.0145984
0.0145984
0.0145985
0.0145985
0.0145986
0.0145987
0.0145987
0.0145988
0.0145989
0.0145989
0.014599
0.0145991
0.0145991
0.0145992
0.0145993
0.0145993
0.0145994
0.0145995
0.0145996
0.0145997
0.0145997
0.0145998
0.0145999
0.0146
0.0146001
0.0146001
0.0146002
0.0146003
0.0146004
0.0146005
0.0146006
0.0146007
0.0146008
0.0146008
0.0146009
0.014601
0.0146011
0.0146012
0.0146013
0.0146014
0.0146014
0.0146015
0.0146016
0.0146017
0.0146018
0.0146019
0.014602
0.0146021
0.0146022
0.0146022
0.0146023
0.0146024
0.0146025
0.0146026
0.0146027
0.0146028
0.0146029
0.014603
0.0146031
0.0146032
0.0146033
0.0146034
0.0146035
0.0146037
0.0146038
0.0146039
0.014604
0.0146041
0.0146043
0.0146044
0.0146045
0.0146047
0.0146048
0.014605
0.0146051
0.0146053
0.0146054
0.0146056
0.0146057
0.0146059
0.0146061
0.0146062
0.0146064
0.0146066
0.0146068
0.014607
0.0146072
0.0146073
0.0146075
0.0146077
0.0146076
0.0146056
0.0146116
0.0146122
0.0146128
0.0146133
0.0146138
0.0146143
0.0146148
0.0146152
0.0146156
0.014616
0.0146163
0.0146165
0.0146167
0.0146169
0.014617
0.014617
0.014617
0.014606
0.0146061
0.0146063
0.0146064
0.0146065
0.0146067
0.0146068
0.014607
0.0146071
0.0146073
0.0146074
0.0146076
0.0146077
0.0146079
0.0146081
0.0146082
0.0146084
0.0146085
0.0146087
0.0146089
0.0146091
0.0146092
0.0146094
0.0146096
0.0146098
0.01461
0.0146101
0.0146103
0.0146105
0.0146107
0.0146109
0.0146111
0.0146113
0.0146115
0.0146117
0.0146119
0.0146121
0.0146123
0.0146125
0.0146128
0.014613
0.0146132
0.0146134
0.0146136
0.0146139
0.0146141
0.0146143
0.0146146
0.0146148
0.014615
0.0146153
0.0146155
0.0146158
0.0146161
0.0146163
0.0146166
0.0146169
0.0146171
0.0146174
0.0146177
0.014618
0.0146183
0.0146186
0.0146189
0.0146192
0.0146195
0.0146198
0.0146201
0.0146205
0.0146208
0.0146211
0.0146215
0.0146218
0.0146222
0.0146226
0.0146229
0.0146233
0.0146237
0.014624
0.0146244
0.0146248
0.0146252
0.0146256
0.014626
0.0146264
0.0146268
0.0146272
0.0146276
0.014628
0.0146285
0.0146289
0.0146293
0.0146298
0.0146302
0.0146306
0.0146311
0.0146315
0.014632
0.0146325
0.0146329
0.0146334
0.0146339
0.0146344
0.0146349
0.0146354
0.0146359
0.0146364
0.0146369
0.0146374
0.014638
0.0146385
0.0146391
0.0146397
0.0146403
0.0146409
0.0146415
0.0146421
0.0146427
0.0146433
0.014644
0.0146447
0.0146453
0.014646
0.0146467
0.0146474
0.0146482
0.0146489
0.0146496
0.0146504
0.0146512
0.0146519
0.0146527
0.0146535
0.0146543
0.0146551
0.0146559
0.0146568
0.0146576
0.0146584
0.0146593
0.0146602
0.014661
0.0146619
0.0146628
0.0146636
0.0146645
0.0146654
0.0146663
0.0146672
0.0146682
0.0146691
0.01467
0.014671
0.0146719
0.0146729
0.0146739
0.0146749
0.0146759
0.0146769
0.014678
0.0146791
0.0146801
0.0146813
0.0146824
0.0146835
0.0146847
0.0146859
0.0146872
0.0146885
0.0146898
0.0146911
0.0146925
0.0146939
0.0146953
0.0146968
0.0146983
0.0146999
0.0147015
0.0147031
0.0147048
0.0147065
0.0147083
0.0147101
0.0147119
0.0147138
0.0147157
0.0147176
0.0147196
0.0147217
0.0147237
0.0147259
0.0147262
0.0147163
0.0146492
0.014651
0.0146528
0.0146545
0.0146561
0.0146576
0.014659
0.0146604
0.0146615
0.0146626
0.0146635
0.0146643
0.0146649
0.0146654
0.0146657
0.0146659
0.0146372
0.0146377
0.0146383
0.0146388
0.0146394
0.0146399
0.0146405
0.014641
0.0146416
0.0146422
0.0146428
0.0146434
0.014644
0.0146446
0.0146452
0.0146459
0.0146465
0.0146472
0.0146478
0.0146485
0.0146492
0.0146499
0.0146506
0.0146513
0.0146521
0.0146528
0.0146535
0.0146543
0.0146551
0.0146559
0.0146567
0.0146575
0.0146583
0.0146591
0.01466
0.0146608
0.0146617
0.0146626
0.0146634
0.0146643
0.0146653
0.0146662
0.0146671
0.014668
0.014669
0.01467
0.0146709
0.0146719
0.0146729
0.014674
0.014675
0.014676
0.0146771
0.0146782
0.0146793
0.0146804
0.0146815
0.0146826
0.0146838
0.014685
0.0146862
0.0146874
0.0146886
0.0146899
0.0146912
0.0146925
0.0146938
0.0146952
0.0146965
0.0146979
0.0146993
0.0147008
0.0147023
0.0147037
0.0147053
0.0147068
0.0147084
0.0147099
0.0147115
0.0147132
0.0147148
0.0147165
0.0147182
0.0147199
0.0147217
0.0147235
0.0147253
0.0147271
0.0147289
0.0147308
0.0147326
0.0147345
0.0147365
0.0147384
0.0147404
0.0147424
0.0147444
0.0147465
0.0147485
0.0147506
0.0147528
0.0147549
0.0147571
0.0147594
0.0147616
0.0147639
0.0147663
0.0147687
0.0147711
0.0147736
0.0147761
0.0147787
0.0147813
0.014784
0.0147868
0.0147896
0.0147925
0.0147954
0.0147984
0.0148015
0.0148046
0.0148078
0.0148111
0.0148144
0.0148178
0.0148213
0.0148249
0.0148285
0.0148322
0.0148359
0.0148397
0.0148436
0.0148476
0.0148516
0.0148556
0.0148597
0.0148639
0.0148681
0.0148724
0.0148767
0.014881
0.0148854
0.0148898
0.0148942
0.0148987
0.0149032
0.0149077
0.0149123
0.0149169
0.0149215
0.0149261
0.0149307
0.0149354
0.0149401
0.0149448
0.0149496
0.0149545
0.0149594
0.0149643
0.0149693
0.0149744
0.0149795
0.0149847
0.01499
0.0149954
0.0150009
0.0150065
0.0150122
0.015018
0.0150239
0.01503
0.0150362
0.0150426
0.0150491
0.0150557
0.0150626
0.0150696
0.0150768
0.0150842
0.0150918
0.0150996
0.0151076
0.0151158
0.0151243
0.015133
0.0151419
0.0151511
0.0151605
0.0151702
0.0151801
0.0151904
0.0151975
0.015167
0.0147385
0.0147431
0.0147476
0.0147519
0.014756
0.0147598
0.0147634
0.0147666
0.0147696
0.0147722
0.0147745
0.0147765
0.0147781
0.0147793
0.0147801
0.0147806
0.0147221
0.0147239
0.0147256
0.0147274
0.0147293
0.0147311
0.0147329
0.0147348
0.0147367
0.0147386
0.0147406
0.0147426
0.0147446
0.0147466
0.0147487
0.0147508
0.014753
0.0147551
0.0147573
0.0147596
0.0147619
0.0147642
0.0147666
0.014769
0.0147714
0.0147739
0.0147764
0.014779
0.0147816
0.0147843
0.014787
0.0147897
0.0147925
0.0147953
0.0147982
0.0148011
0.0148041
0.0148071
0.0148101
0.0148132
0.0148163
0.0148195
0.0148227
0.014826
0.0148293
0.0148326
0.014836
0.0148395
0.0148429
0.0148465
0.0148501
0.0148537
0.0148574
0.0148611
0.0148649
0.0148688
0.0148727
0.0148767
0.0148808
0.0148849
0.0148892
0.0148935
0.0148978
0.0149023
0.0149068
0.0149115
0.0149162
0.0149211
0.014926
0.014931
0.0149361
0.0149414
0.0149467
0.0149522
0.0149577
0.0149634
0.0149692
0.0149751
0.0149811
0.0149872
0.0149935
0.0149998
0.0150063
0.0150128
0.0150195
0.0150262
0.0150331
0.0150401
0.0150471
0.0150542
0.0150615
0.0150688
0.0150761
0.0150836
0.0150911
0.0150987
0.0151063
0.015114
0.0151218
0.0151297
0.0151376
0.0151456
0.0151536
0.0151618
0.0151701
0.0151784
0.0151869
0.0151955
0.0152042
0.015213
0.015222
0.0152312
0.0152404
0.0152499
0.0152596
0.0152694
0.0152794
0.0152897
0.0153001
0.0153108
0.0153217
0.0153329
0.0153444
0.0153561
0.0153681
0.0153803
0.0153929
0.0154057
0.0154189
0.0154324
0.0154461
0.0154602
0.0154746
0.0154893
0.0155043
0.0155197
0.0155353
0.0155512
0.0155674
0.0155839
0.0156007
0.0156177
0.015635
0.0156525
0.0156702
0.0156882
0.0157063
0.0157246
0.015743
0.0157615
0.0157801
0.0157988
0.0158176
0.0158364
0.0158554
0.0158744
0.0158935
0.0159127
0.0159321
0.0159515
0.0159711
0.0159908
0.0160107
0.0160307
0.0160509
0.0160713
0.0160919
0.0161128
0.0161339
0.0161552
0.0161769
0.0161989
0.0162213
0.0162441
0.0162673
0.0162909
0.0163151
0.0163398
0.016365
0.0163909
0.0164174
0.0164446
0.0164725
0.0165012
0.0165307
0.016561
0.0165922
0.0166244
0.0166571
0.0166918
0.0167255
0.0167637
0.0167114
0.0149424
0.0149531
0.0149634
0.0149732
0.0149824
0.014991
0.014999
0.0150063
0.0150129
0.0150187
0.0150237
0.0150279
0.0150312
0.0150337
0.0150353
0.0149404
0.0149456
0.0149508
0.0149562
0.0149615
0.014967
0.0149724
0.014978
0.0149836
0.0149893
0.0149951
0.015001
0.0150069
0.015013
0.0150191
0.0150254
0.0150317
0.0150382
0.0150448
0.0150515
0.0150583
0.0150652
0.0150723
0.0150794
0.0150868
0.0150942
0.0151018
0.0151096
0.0151175
0.0151255
0.0151337
0.015142
0.0151505
0.0151592
0.015168
0.015177
0.0151861
0.0151954
0.0152049
0.0152145
0.0152243
0.0152342
0.0152443
0.0152545
0.0152648
0.0152753
0.0152859
0.0152967
0.0153076
0.0153186
0.0153297
0.015341
0.0153524
0.0153639
0.0153756
0.0153874
0.0153994
0.0154115
0.0154238
0.0154363
0.0154489
0.0154618
0.0154748
0.0154881
0.0155016
0.0155153
0.0155293
0.0155435
0.0155579
0.0155727
0.0155877
0.015603
0.0156186
0.0156345
0.0156507
0.0156672
0.0156841
0.0157013
0.0157189
0.0157368
0.015755
0.0157736
0.0157926
0.0158119
0.0158315
0.0158516
0.0158719
0.0158927
0.0159137
0.0159351
0.0159568
0.0159788
0.0160011
0.0160237
0.0160465
0.0160695
0.0160928
0.0161162
0.0161397
0.0161634
0.0161873
0.0162113
0.0162355
0.0162598
0.0162844
0.0163091
0.0163341
0.0163593
0.0163848
0.0164105
0.0164365
0.0164629
0.0164895
0.0165166
0.016544
0.0165719
0.0166002
0.0166289
0.0166582
0.016688
0.0167184
0.0167493
0.0167809
0.0168132
0.0168462
0.0168799
0.0169143
0.0169495
0.0169856
0.0170225
0.0170602
0.0170988
0.0171382
0.0171786
0.0172198
0.0172619
0.0173049
0.0173487
0.0173934
0.0174388
0.0174851
0.0175321
0.0175798
0.0176281
0.0176771
0.0177267
0.0177768
0.0178275
0.0178786
0.0179301
0.0179813
0.0180322
0.0180826
0.0181327
0.0181822
0.0182313
0.0182799
0.018328
0.0183756
0.0184227
0.0184692
0.0185153
0.0185608
0.0186057
0.0186501
0.018694
0.0187374
0.0187802
0.0188225
0.0188643
0.0189054
0.0189461
0.0189862
0.0190258
0.0190647
0.0191033
0.0191409
0.0191784
0.0192148
0.0192511
0.0192861
0.0193213
0.0193549
0.019389
0.0194211
0.019454
0.0194845
0.0195163
0.0195454
0.0195758
0.0196039
0.0196358
0.0195936
0.0153542
0.0153773
0.0153993
0.0154201
0.0154398
0.0154582
0.0154752
0.0154908
0.0155049
0.0155175
0.0155285
0.0155379
0.0155455
0.0155515
0.0155557
0.0155581
0.0154595
0.0154733
0.0154872
0.0155013
0.0155155
0.0155298
0.0155442
0.0155588
0.0155736
0.0155885
0.0156036
0.0156189
0.0156343
0.01565
0.0156659
0.015682
0.0156983
0.0157149
0.0157317
0.0157488
0.0157661
0.0157837
0.0158016
0.0158198
0.0158382
0.015857
0.0158761
0.0158956
0.0159153
0.0159354
0.0159559
0.0159767
0.0159979
0.0160194
0.0160414
0.0160637
0.0160863
0.0161094
0.0161328
0.0161566
0.0161808
0.0162054
0.0162303
0.0162556
0.0162812
0.0163072
0.0163335
0.0163601
0.016387
0.0164142
0.0164416
0.0164692
0.016497
0.016525
0.0165532
0.0165816
0.0166103
0.0166392
0.0166683
0.0166977
0.0167274
0.0167574
0.0167877
0.0168183
0.0168492
0.0168805
0.0169122
0.0169444
0.0169769
0.0170099
0.0170435
0.0170775
0.0171121
0.0171473
0.0171831
0.0172195
0.0172566
0.0172944
0.0173329
0.0173721
0.0174121
0.0174529
0.0174944
0.0175368
0.01758
0.0176239
0.0176687
0.0177142
0.0177605
0.0178075
0.0178552
0.0179036
0.0179526
0.0180021
0.0180521
0.0181026
0.0181535
0.0182046
0.0182554
0.0183059
0.0183559
0.0184054
0.0184544
0.018503
0.0185509
0.0185982
0.0186449
0.018691
0.0187364
0.0187811
0.0188251
0.0188684
0.018911
0.0189528
0.0189939
0.0190342
0.0190738
0.0191125
0.0191506
0.0191878
0.0192242
0.0192599
0.0192947
0.0193288
0.0193621
0.0193946
0.0194263
0.0194573
0.0194874
0.0195168
0.0195454
0.0195733
0.0196004
0.0196268
0.0196524
0.0196773
0.0197015
0.0197251
0.0197479
0.0197702
0.0197918
0.0198129
0.0198333
0.0198532
0.0198726
0.0198915
0.0199099
0.0199277
0.0199451
0.0199621
0.0199787
0.0199951
0.0200113
0.0200272
0.0200429
0.0200583
0.0200735
0.0200885
0.0201032
0.0201176
0.0201317
0.0201454
0.0201589
0.0201719
0.0201846
0.0201969
0.0202087
0.0202201
0.020231
0.0202414
0.0202513
0.0202606
0.0202695
0.0202778
0.0202856
0.0202928
0.0202996
0.0203056
0.0203115
0.0203165
0.0203216
0.0203256
0.02033
0.0203331
0.020337
0.0203393
0.020343
0.0203444
0.0203483
0.0203485
0.0203521
0.0203517
0.0203362
0.0161737
0.0162151
0.0162541
0.0162906
0.0163246
0.0163558
0.0163842
0.0164098
0.0164325
0.0164522
0.0164689
0.0164827
0.0164934
0.0165198
0.0165491
0.0165785
0.0166082
0.0166381
0.0166683
0.0166986
0.0167293
0.0167601
0.0167911
0.0168223
0.0168538
0.0168854
0.0169173
0.0169494
0.0169818
0.0170144
0.0170473
0.0170804
0.0171139
0.0171475
0.0171815
0.0172158
0.0172504
0.0172854
0.0173206
0.0173563
0.0173923
0.0174287
0.0174655
0.0175028
0.0175405
0.0175788
0.0176175
0.0176567
0.0176964
0.0177367
0.0177775
0.0178189
0.0178609
0.0179034
0.0179465
0.0179902
0.0180344
0.0180792
0.0181244
0.0181702
0.0182164
0.0182631
0.0183103
0.0183578
0.0184053
0.0184526
0.0184996
0.0185464
0.0185928
0.0186389
0.0186846
0.0187299
0.0187747
0.0188191
0.018863
0.0189063
0.0189491
0.0189913
0.0190328
0.0190738
0.019114
0.0191536
0.0191925
0.0192306
0.019268
0.0193046
0.0193404
0.0193755
0.0194097
0.0194431
0.0194757
0.0195074
0.0195382
0.0195682
0.0195974
0.0196256
0.019653
0.0196795
0.0197051
0.0197298
0.0197536
0.0197766
0.0197987
0.0198199
0.0198403
0.0198599
0.0198786
0.0198966
0.0199137
0.01993
0.0199456
0.0199606
0.0199751
0.0199891
0.0200027
0.0200158
0.0200285
0.0200409
0.0200529
0.0200646
0.0200761
0.0200872
0.0200982
0.0201088
0.0201193
0.0201296
0.0201396
0.0201495
0.0201591
0.0201686
0.0201779
0.0201869
0.0201958
0.0202044
0.0202128
0.020221
0.020229
0.0202368
0.0202444
0.0202517
0.0202589
0.0202658
0.0202726
0.0202792
0.0202856
0.0202918
0.0202979
0.0203038
0.0203096
0.0203152
0.0203207
0.020326
0.0203313
0.0203363
0.0203413
0.0203461
0.0203507
0.0203552
0.0203595
0.0203636
0.0203676
0.0203713
0.0203749
0.0203782
0.0203813
0.0203841
0.0203868
0.0203892
0.0203913
0.0203933
0.0203949
0.0203964
0.0203977
0.0203988
0.0203997
0.0204006
0.0204012
0.0204018
0.0204024
0.0204029
0.0204033
0.0204037
0.0204041
0.0204046
0.020405
0.0204054
0.0204058
0.0204063
0.0204068
0.0204073
0.0204078
0.0204084
0.020409
0.0204097
0.0204104
0.0204112
0.0204119
0.020413
0.0204138
0.0204151
0.0204159
0.0204174
0.0204182
0.0204198
0.020421
0.0204171
0.0174965
0.0175526
0.0176043
0.0176514
0.017694
0.0177319
0.0177653
0.0177942
0.0178186
0.0178387
0.0178547
0.0178668
0.017875
0.0181652
0.0182082
0.0182511
0.0182942
0.0183372
0.0183803
0.0184235
0.0184669
0.0185103
0.0185536
0.0185966
0.0186393
0.0186817
0.0187237
0.0187654
0.0188067
0.0188476
0.0188882
0.0189283
0.0189681
0.0190073
0.0190462
0.0190845
0.0191224
0.0191598
0.0191966
0.019233
0.0192687
0.0193039
0.0193385
0.0193725
0.0194059
0.0194387
0.0194707
0.0195021
0.0195328
0.0195627
0.0195919
0.0196203
0.0196479
0.0196747
0.0197006
0.0197258
0.01975
0.0197735
0.0197961
0.0198178
0.0198388
0.0198588
0.019878
0.0198964
0.0199141
0.0199311
0.0199475
0.0199633
0.0199786
0.0199932
0.0200074
0.020021
0.0200341
0.0200467
0.0200589
0.0200706
0.0200819
0.0200928
0.0201034
0.0201136
0.0201235
0.020133
0.0201422
0.0201512
0.0201598
0.0201682
0.0201763
0.0201842
0.0201918
0.0201993
0.0202065
0.0202135
0.0202203
0.0202269
0.0202333
0.0202396
0.0202457
0.0202517
0.0202576
0.0202633
0.0202689
0.0202743
0.0202797
0.0202849
0.02029
0.020295
0.0202999
0.0203047
0.0203094
0.0203139
0.0203184
0.0203228
0.0203271
0.0203314
0.0203355
0.0203396
0.0203435
0.0203474
0.0203512
0.0203548
0.0203584
0.0203618
0.020365
0.0203682
0.0203711
0.0203739
0.0203766
0.0203791
0.0203814
0.0203836
0.0203856
0.0203875
0.0203893
0.0203909
0.0203925
0.020394
0.0203954
0.0203967
0.020398
0.0203993
0.0204006
0.0204018
0.0204031
0.0204044
0.0204057
0.020407
0.0204084
0.0204097
0.0204112
0.0204126
0.0204141
0.0204156
0.0204171
0.0204186
0.0204202
0.0204217
0.0204233
0.0204248
0.0204264
0.020428
0.0204296
0.0204311
0.0204327
0.0204343
0.0204358
0.0204374
0.0204389
0.0204405
0.020442
0.0204434
0.0204449
0.0204463
0.0204478
0.0204492
0.0204507
0.0204522
0.0204537
0.0204551
0.0204565
0.0204579
0.0204592
0.0204605
0.0204618
0.020463
0.0204642
0.0204654
0.0204666
0.0204678
0.0204691
0.0204704
0.0204717
0.0204731
0.0204746
0.0204762
0.0204779
0.0204797
0.0204816
0.0204837
0.0204858
0.020488
0.0204904
0.0204928
0.0204954
0.020498
0.0205016
0.0204998
0.0190542
0.0191103
0.0191602
0.0192041
0.0192421
0.0192743
0.0193008
0.019322
0.0193383
0.0193495
0.0193557
0.0193565
0.0193546
0.0193493
0.0196472
0.0196737
0.0196992
0.0197237
0.0197473
0.01977
0.0197918
0.0198128
0.0198328
0.0198522
0.019871
0.0198891
0.0199067
0.0199237
0.0199401
0.019956
0.0199715
0.0199864
0.0200008
0.0200148
0.0200283
0.0200413
0.0200539
0.0200661
0.0200778
0.0200892
0.0201001
0.0201106
0.0201207
0.0201304
0.0201397
0.0201486
0.0201572
0.0201655
0.0201734
0.020181
0.0201883
0.0201953
0.0202021
0.0202087
0.020215
0.0202212
0.0202271
0.0202329
0.0202386
0.0202441
0.0202495
0.0202547
0.0202598
0.0202648
0.0202698
0.0202746
0.0202793
0.0202839
0.0202884
0.0202929
0.0202973
0.0203016
0.0203058
0.0203099
0.020314
0.020318
0.0203218
0.0203256
0.0203293
0.0203329
0.0203364
0.0203398
0.0203431
0.0203463
0.0203493
0.0203523
0.0203551
0.0203578
0.0203604
0.0203629
0.0203653
0.0203677
0.0203699
0.020372
0.020374
0.020376
0.0203779
0.0203798
0.0203816
0.0203833
0.020385
0.0203866
0.0203882
0.0203898
0.0203913
0.0203928
0.0203943
0.0203958
0.0203972
0.0203987
0.0204001
0.0204015
0.0204029
0.0204043
0.0204058
0.0204072
0.0204087
0.0204101
0.0204116
0.0204131
0.0204146
0.0204161
0.0204176
0.0204191
0.0204206
0.0204221
0.0204236
0.0204251
0.0204266
0.0204281
0.0204296
0.0204311
0.0204326
0.0204341
0.0204356
0.0204371
0.0204386
0.0204401
0.0204416
0.0204432
0.0204448
0.0204464
0.0204481
0.0204498
0.0204515
0.0204532
0.020455
0.0204568
0.0204586
0.0204605
0.0204623
0.0204642
0.0204662
0.0204681
0.0204701
0.020472
0.0204741
0.0204761
0.0204781
0.0204802
0.0204823
0.0204844
0.0204865
0.0204887
0.0204909
0.020493
0.0204952
0.0204974
0.0204997
0.0205019
0.0205042
0.0205065
0.0205088
0.0205112
0.0205135
0.0205157
0.0205179
0.0205201
0.0205224
0.0205246
0.0205269
0.0205293
0.0205316
0.020534
0.0205365
0.020539
0.0205416
0.0205443
0.0205471
0.0205501
0.0205531
0.0205563
0.0205597
0.0205632
0.0205668
0.0205707
0.0205747
0.0205788
0.0205831
0.0205876
0.0205922
0.0205971
0.020602
0.0206072
0.0206123
0.0206191
0.0206165
0.0203125
0.0203191
0.0203204
0.0203188
0.0203141
0.0203055
0.0202936
0.0202788
0.0202615
0.020242
0.0202207
0.0201975
0.020174
0.0201494
0.0201612
0.0201697
0.0201778
0.0201855
0.0201929
0.0201999
0.0202066
0.020213
0.0202191
0.020225
0.0202306
0.020236
0.0202413
0.0202464
0.0202514
0.0202562
0.020261
0.0202656
0.0202701
0.0202745
0.0202788
0.020283
0.0202871
0.0202911
0.020295
0.0202987
0.0203024
0.020306
0.0203095
0.0203128
0.0203161
0.0203193
0.0203225
0.0203255
0.0203285
0.0203314
0.0203343
0.0203371
0.0203399
0.0203426
0.0203453
0.0203479
0.0203505
0.020353
0.0203555
0.0203579
0.0203602
0.0203625
0.0203648
0.0203669
0.020369
0.020371
0.020373
0.0203749
0.0203767
0.0203785
0.0203802
0.0203819
0.0203835
0.0203851
0.0203866
0.0203881
0.0203895
0.020391
0.0203923
0.0203937
0.020395
0.0203964
0.0203977
0.020399
0.0204002
0.0204015
0.0204028
0.0204041
0.0204053
0.0204066
0.0204079
0.0204092
0.0204106
0.0204119
0.0204133
0.0204147
0.0204161
0.0204176
0.0204191
0.0204206
0.0204222
0.0204237
0.0204254
0.020427
0.0204287
0.0204303
0.0204321
0.0204338
0.0204356
0.0204374
0.0204393
0.0204411
0.020443
0.0204448
0.0204467
0.0204486
0.0204505
0.0204523
0.0204542
0.0204561
0.0204579
0.0204598
0.0204617
0.0204635
0.0204654
0.0204673
0.0204692
0.0204712
0.0204731
0.0204751
0.0204771
0.0204791
0.0204812
0.0204833
0.0204854
0.0204876
0.0204898
0.0204921
0.0204944
0.0204967
0.0204991
0.0205014
0.0205038
0.0205062
0.0205087
0.0205113
0.0205138
0.0205165
0.0205191
0.0205218
0.0205246
0.0205274
0.0205303
0.0205332
0.0205361
0.0205391
0.0205422
0.0205453
0.0205485
0.0205517
0.020555
0.0205584
0.0205618
0.0205652
0.0205688
0.0205724
0.020576
0.0205798
0.0205836
0.0205875
0.0205915
0.0205956
0.0205997
0.0206039
0.0206083
0.0206127
0.0206173
0.0206219
0.0206266
0.0206315
0.0206365
0.0206416
0.0206468
0.0206522
0.0206578
0.0206635
0.0206695
0.0206756
0.020682
0.0206885
0.0206953
0.0207024
0.0207096
0.0207171
0.0207248
0.0207328
0.0207409
0.0207494
0.020758
0.0207669
0.020776
0.0207853
0.0207949
0.0208047
0.0208144
0.0208264
0.0208213
0.0207987
0.0207769
0.0207536
0.0207294
0.0207041
0.0206775
0.02065
0.0206215
0.0205921
0.020565
0.0205346
0.0205013
0.0204707
0.0204415
0.0202945
0.0202988
0.020303
0.020307
0.0203109
0.0203146
0.0203182
0.0203217
0.0203249
0.0203281
0.0203311
0.020334
0.0203368
0.0203395
0.0203421
0.0203446
0.020347
0.0203494
0.0203516
0.0203537
0.0203558
0.0203578
0.0203597
0.0203615
0.0203633
0.020365
0.0203667
0.0203683
0.0203699
0.0203714
0.020373
0.0203745
0.020376
0.0203775
0.020379
0.0203804
0.0203819
0.0203834
0.0203849
0.0203863
0.0203878
0.0203893
0.0203908
0.0203924
0.0203939
0.0203954
0.020397
0.0203986
0.0204001
0.0204017
0.0204033
0.0204049
0.0204066
0.0204082
0.0204098
0.0204114
0.0204131
0.0204147
0.0204163
0.0204179
0.0204195
0.0204211
0.0204227
0.0204243
0.0204258
0.0204274
0.0204289
0.0204304
0.0204319
0.0204334
0.0204349
0.0204364
0.0204379
0.0204395
0.0204411
0.0204427
0.0204443
0.020446
0.0204477
0.0204495
0.0204513
0.0204532
0.0204552
0.0204571
0.0204592
0.0204613
0.0204635
0.0204657
0.0204679
0.0204702
0.0204726
0.020475
0.0204774
0.0204798
0.0204823
0.0204847
0.0204872
0.0204896
0.0204921
0.0204946
0.0204971
0.0204996
0.0205021
0.0205046
0.0205072
0.0205097
0.0205123
0.0205149
0.0205175
0.0205201
0.0205228
0.0205256
0.0205284
0.0205312
0.0205341
0.0205371
0.0205402
0.0205433
0.0205466
0.0205499
0.0205533
0.0205567
0.0205603
0.020564
0.0205677
0.0205715
0.0205754
0.0205794
0.0205835
0.0205877
0.020592
0.0205964
0.0206009
0.0206054
0.0206101
0.0206149
0.0206197
0.0206247
0.0206298
0.020635
0.0206402
0.0206456
0.0206512
0.0206568
0.0206625
0.0206684
0.0206744
0.0206805
0.0206868
0.0206932
0.0206997
0.0207064
0.0207132
0.0207202
0.0207274
0.0207347
0.0207422
0.0207499
0.0207578
0.0207658
0.0207741
0.0207826
0.0207913
0.0208002
0.0208094
0.0208187
0.0208284
0.0208383
0.0208484
0.0208589
0.0208696
0.0208807
0.020892
0.0209037
0.0209157
0.0209279
0.0209405
0.0209535
0.0209667
0.0209803
0.0209941
0.0210083
0.0210229
0.0210377
0.0210529
0.0210684
0.0210843
0.0211004
0.021117
0.0211334
0.0211497
0.0211675
0.0211572
0.02098
0.0209474
0.0209141
0.0208805
0.0208466
0.0208125
0.020778
0.0207433
0.020709
0.0206755
0.0206411
0.0206061
0.0205718
0.0203441
0.020347
0.0203499
0.0203527
0.0203553
0.0203579
0.0203604
0.0203628
0.020365
0.0203672
0.0203693
0.0203712
0.0203731
0.020375
0.0203767
0.0203784
0.0203802
0.0203818
0.0203834
0.0203851
0.0203867
0.0203883
0.0203898
0.0203914
0.020393
0.0203946
0.0203961
0.0203977
0.0203993
0.0204009
0.0204025
0.0204041
0.0204057
0.0204073
0.020409
0.0204106
0.0204123
0.0204141
0.0204158
0.0204175
0.0204193
0.020421
0.0204228
0.0204246
0.0204264
0.0204282
0.0204301
0.0204319
0.0204338
0.0204357
0.0204376
0.0204396
0.0204415
0.0204435
0.0204455
0.0204475
0.0204495
0.0204515
0.0204535
0.0204555
0.0204574
0.0204594
0.0204613
0.0204633
0.0204653
0.0204673
0.0204693
0.0204713
0.0204733
0.0204754
0.0204775
0.0204796
0.0204818
0.020484
0.0204863
0.0204887
0.0204911
0.0204936
0.0204961
0.0204987
0.0205014
0.0205042
0.020507
0.02051
0.0205129
0.020516
0.0205191
0.0205223
0.0205256
0.0205289
0.0205322
0.0205356
0.0205391
0.0205426
0.0205461
0.0205497
0.0205534
0.0205571
0.0205608
0.0205646
0.0205684
0.0205723
0.0205762
0.0205801
0.0205842
0.0205883
0.0205925
0.0205967
0.0206011
0.0206055
0.02061
0.0206147
0.0206195
0.0206244
0.0206294
0.0206345
0.0206398
0.0206452
0.0206508
0.0206565
0.0206624
0.0206684
0.0206745
0.0206808
0.0206873
0.0206939
0.0207007
0.0207076
0.0207147
0.0207219
0.0207293
0.0207369
0.0207446
0.0207525
0.0207606
0.0207688
0.0207773
0.0207859
0.0207947
0.0208036
0.0208128
0.0208222
0.0208318
0.0208415
0.0208515
0.0208617
0.0208722
0.0208828
0.0208937
0.0209048
0.0209162
0.0209278
0.0209397
0.0209519
0.0209643
0.0209771
0.0209901
0.0210034
0.021017
0.0210309
0.0210452
0.0210598
0.0210747
0.02109
0.0211057
0.0211217
0.0211381
0.0211549
0.0211721
0.0211896
0.0212076
0.021226
0.0212448
0.021264
0.0212835
0.0213035
0.0213239
0.0213447
0.0213659
0.0213875
0.0214095
0.0214319
0.0214547
0.0214779
0.0215016
0.0215257
0.0215503
0.021575
0.0216001
0.0216243
0.0216479
0.0216686
0.0216482
0.0210518
0.0210171
0.020982
0.0209468
0.0209115
0.0208762
0.0208409
0.0208054
0.0207707
0.0207364
0.0207016
0.0206662
0.0206315
0.0203782
0.020381
0.0203837
0.0203864
0.020389
0.0203914
0.0203938
0.0203961
0.0203983
0.0204003
0.0204025
0.0204045
0.0204063
0.0204082
0.0204101
0.0204119
0.0204137
0.0204156
0.0204174
0.0204193
0.0204211
0.0204229
0.0204248
0.0204267
0.0204286
0.0204306
0.0204325
0.0204345
0.0204365
0.0204385
0.0204405
0.0204426
0.0204447
0.0204468
0.0204489
0.020451
0.0204532
0.0204553
0.0204576
0.0204598
0.0204621
0.0204644
0.0204667
0.020469
0.0204714
0.0204738
0.0204763
0.0204787
0.0204812
0.0204837
0.0204862
0.0204888
0.0204914
0.020494
0.0204966
0.0204992
0.0205019
0.0205046
0.0205073
0.02051
0.0205128
0.0205157
0.0205186
0.0205215
0.0205245
0.0205275
0.0205307
0.0205338
0.0205371
0.0205405
0.0205439
0.0205474
0.020551
0.0205548
0.0205586
0.0205625
0.0205665
0.0205707
0.0205749
0.0205792
0.0205837
0.0205882
0.0205929
0.0205976
0.0206024
0.0206074
0.0206124
0.0206175
0.0206227
0.020628
0.0206333
0.0206388
0.0206444
0.02065
0.0206558
0.0206616
0.0206676
0.0206736
0.0206797
0.020686
0.0206924
0.0206989
0.0207056
0.0207124
0.0207194
0.0207265
0.0207338
0.0207412
0.0207489
0.0207567
0.0207647
0.0207729
0.0207813
0.02079
0.0207988
0.0208078
0.0208171
0.0208266
0.0208363
0.0208462
0.0208564
0.0208668
0.0208774
0.0208882
0.0208993
0.0209106
0.0209222
0.020934
0.0209461
0.0209584
0.0209709
0.0209838
0.0209969
0.0210102
0.0210238
0.0210377
0.0210519
0.0210664
0.0210812
0.0210962
0.0211116
0.0211273
0.0211432
0.0211596
0.0211762
0.0211932
0.0212105
0.0212282
0.0212462
0.0212646
0.0212834
0.0213025
0.0213221
0.021342
0.0213624
0.0213831
0.0214043
0.0214259
0.021448
0.0214705
0.0214934
0.0215169
0.0215407
0.021565
0.0215898
0.021615
0.0216407
0.0216669
0.0216935
0.0217205
0.021748
0.021776
0.0218043
0.0218332
0.0218624
0.0218921
0.0219222
0.0219528
0.0219838
0.0220152
0.0220471
0.0220795
0.0221123
0.0221456
0.0221792
0.0222126
0.0222455
0.0222761
0.0223056
0.0223205
0.0222838
0.0210684
0.0210317
0.020995
0.0209584
0.020922
0.0208856
0.0208494
0.020814
0.0207788
0.0207431
0.0207074
0.0206725
0.0204101
0.0204132
0.0204162
0.0204192
0.0204221
0.0204248
0.0204275
0.0204303
0.0204327
0.020435
0.0204376
0.0204399
0.020442
0.0204444
0.0204467
0.0204489
0.0204511
0.0204535
0.0204557
0.020458
0.0204604
0.0204627
0.0204651
0.0204676
0.02047
0.0204726
0.0204751
0.0204777
0.0204803
0.020483
0.0204856
0.0204884
0.0204911
0.0204939
0.0204968
0.0204997
0.0205027
0.0205056
0.0205087
0.0205118
0.0205149
0.0205181
0.0205214
0.0205246
0.020528
0.0205314
0.0205348
0.0205383
0.0205418
0.0205454
0.0205491
0.0205527
0.0205565
0.0205603
0.0205642
0.0205681
0.0205721
0.0205761
0.0205803
0.0205845
0.0205889
0.0205933
0.0205978
0.0206024
0.0206071
0.0206119
0.0206169
0.0206219
0.0206271
0.0206324
0.0206379
0.0206435
0.0206493
0.0206551
0.0206612
0.0206674
0.0206737
0.0206802
0.0206868
0.0206936
0.0207005
0.0207075
0.0207147
0.0207221
0.0207295
0.0207372
0.0207449
0.0207528
0.0207609
0.0207691
0.0207774
0.0207859
0.0207946
0.0208034
0.0208123
0.0208215
0.0208308
0.0208404
0.0208501
0.02086
0.0208702
0.0208806
0.0208912
0.020902
0.0209131
0.0209244
0.020936
0.0209478
0.0209599
0.0209723
0.0209849
0.0209979
0.0210111
0.0210246
0.0210384
0.0210524
0.0210668
0.0210815
0.0210965
0.0211118
0.0211275
0.0211434
0.0211596
0.0211762
0.0211931
0.0212103
0.0212278
0.0212457
0.0212639
0.0212824
0.0213013
0.0213206
0.0213401
0.0213601
0.0213804
0.021401
0.0214221
0.0214435
0.0214653
0.0214875
0.02151
0.021533
0.0215564
0.0215802
0.0216044
0.0216291
0.0216541
0.0216796
0.0217056
0.021732
0.0217588
0.0217861
0.0218139
0.0218421
0.0218708
0.0219
0.0219297
0.0219598
0.0219904
0.0220214
0.0220529
0.0220849
0.0221174
0.0221502
0.0221836
0.0222173
0.0222515
0.0222861
0.0223211
0.0223566
0.0223924
0.0224286
0.0224653
0.0225023
0.0225397
0.0225775
0.0226156
0.0226542
0.0226931
0.0227325
0.0227723
0.0228125
0.0228531
0.0228939
0.0229344
0.0229737
0.0230109
0.0230433
0.0230734
0.0230723
0.0230134
0.0211069
0.0210695
0.0210322
0.0209951
0.0209582
0.0209214
0.0208851
0.0208493
0.0208136
0.0207777
0.0204498
0.0204533
0.0204567
0.0204602
0.0204635
0.0204667
0.0204701
0.0204733
0.0204763
0.0204795
0.0204826
0.0204856
0.0204885
0.0204916
0.0204946
0.0204976
0.0205006
0.0205037
0.0205068
0.02051
0.0205132
0.0205165
0.0205198
0.0205232
0.0205266
0.0205301
0.0205337
0.0205373
0.020541
0.0205447