/*--------------------------------*- C++ -*----------------------------------*\
| =========                 |                                                 |
| \\      /  F ield         | OpenFOAM: The Open Source CFD Toolbox           |
|  \\    /   O peration     | Version:  v1706                                 |
|   \\  /    A nd           | Web:      www.OpenFOAM.com                      |
|    \\/     M anipulation  |                                                 |
\*---------------------------------------------------------------------------*/
FoamFile
{
    version     2.0;
    format      ascii;
    class       volScalarField;
    location    "1.4e-05";
    object      Mach;
}
// * * * * * * * * * * * * * * * * * * * * * * * * * * * * * * * * * * * * * //

dimensions      [0 0 0 0 0 0 0];


internalField   nonuniform List<scalar> 
30104
(
3.99415
3.99412
3.99409
3.99407
3.99405
3.99403
3.99401
3.99399
3.99397
3.99396
3.99395
3.99394
3.99393
3.99393
3.99392
3.99392
3.99392
3.99446
3.99446
3.99445
3.99445
3.99444
3.99444
3.99443
3.99443
3.99442
3.99442
3.99441
3.99441
3.9944
3.9944
3.99439
3.99439
3.99438
3.99437
3.99437
3.99436
3.99436
3.99435
3.99435
3.99434
3.99433
3.99433
3.99432
3.99431
3.99431
3.9943
3.9943
3.99429
3.99428
3.99428
3.99427
3.99426
3.99426
3.99425
3.99424
3.99424
3.99423
3.99422
3.99422
3.99421
3.9942
3.99419
3.99419
3.99418
3.99417
3.99416
3.99415
3.99414
3.99414
3.99413
3.99412
3.99411
3.9941
3.99409
3.99408
3.99407
3.99406
3.99405
3.99404
3.99403
3.99402
3.99401
3.994
3.99399
3.99398
3.99397
3.99396
3.99395
3.99394
3.99392
3.99391
3.9939
3.99389
3.99388
3.99387
3.99385
3.99384
3.99383
3.99382
3.99381
3.99379
3.99378
3.99377
3.99376
3.99374
3.99373
3.99372
3.9937
3.99369
3.99368
3.99366
3.99365
3.99364
3.99362
3.99361
3.9936
3.99358
3.99357
3.99355
3.99354
3.99353
3.99351
3.9935
3.99348
3.99347
3.99345
3.99344
3.99342
3.9934
3.99339
3.99337
3.99336
3.99334
3.99332
3.9933
3.99329
3.99327
3.99325
3.99323
3.99321
3.99319
3.99318
3.99316
3.99314
3.99311
3.99309
3.99307
3.99305
3.99303
3.99301
3.99298
3.99296
3.99294
3.99291
3.99289
3.99286
3.99284
3.99281
3.99279
3.99276
3.99273
3.99271
3.99268
3.99266
3.99263
3.9926
3.99257
3.99255
3.99252
3.99249
3.99246
3.99243
3.9924
3.99237
3.99234
3.99231
3.99228
3.99224
3.99221
3.99218
3.99214
3.99211
3.99207
3.99203
3.992
3.99196
3.99192
3.99188
3.99184
3.9918
3.99176
3.99171
3.99167
3.99163
3.99158
3.99153
3.99149
3.99144
3.99139
3.99134
3.99129
3.99124
3.99119
3.99114
3.99108
3.99103
3.99098
3.99101
3.99152
3.99023
3.99007
3.98993
3.98979
3.98966
3.98953
3.98942
3.98932
3.98922
3.98914
3.98907
3.98901
3.98897
3.98894
3.98892
3.98891
3.98891
3.99166
3.99163
3.99159
3.99156
3.99152
3.99148
3.99144
3.99141
3.99137
3.99133
3.99129
3.99125
3.99121
3.99117
3.99113
3.99109
3.99104
3.991
3.99095
3.99091
3.99086
3.99082
3.99077
3.99073
3.99068
3.99063
3.99058
3.99053
3.99048
3.99043
3.99038
3.99033
3.99027
3.99022
3.99017
3.99011
3.99006
3.99
3.98995
3.98989
3.98983
3.98978
3.98972
3.98966
3.9896
3.98954
3.98948
3.98942
3.98935
3.98929
3.98923
3.98916
3.9891
3.98903
3.98896
3.98889
3.98882
3.98876
3.98868
3.98861
3.98854
3.98847
3.98839
3.98832
3.98824
3.98816
3.98808
3.988
3.98792
3.98784
3.98776
3.98767
3.98759
3.9875
3.98742
3.98733
3.98724
3.98715
3.98705
3.98696
3.98687
3.98677
3.98667
3.98657
3.98647
3.98637
3.98626
3.98616
3.98605
3.98594
3.98583
3.98572
3.98561
3.98549
3.98537
3.98525
3.98513
3.98501
3.98488
3.98475
3.98462
3.98449
3.98436
3.98422
3.98408
3.98394
3.9838
3.98365
3.9835
3.98335
3.9832
3.98304
3.98288
3.98272
3.98256
3.98239
3.98222
3.98205
3.98188
3.9817
3.98152
3.98134
3.98115
3.98096
3.98077
3.98058
3.98038
3.98018
3.97998
3.97978
3.97957
3.97937
3.97916
3.97894
3.97873
3.97851
3.9783
3.97808
3.97786
3.97764
3.97742
3.97719
3.97697
3.97674
3.97652
3.97629
3.97606
3.97583
3.9756
3.97536
3.97513
3.97489
3.97465
3.97441
3.97417
3.97392
3.97367
3.97342
3.97316
3.9729
3.97263
3.97236
3.97209
3.97181
3.97152
3.97123
3.97094
3.97063
3.97032
3.97
3.96968
3.96935
3.969
3.96866
3.9683
3.96793
3.96755
3.96717
3.96677
3.96636
3.96595
3.96552
3.96508
3.96464
3.96418
3.96371
3.96323
3.96274
3.96224
3.96173
3.96119
3.96111
3.96357
3.98062
3.98016
3.97973
3.97931
3.97892
3.97855
3.97821
3.97789
3.97761
3.97736
3.97714
3.97696
3.97682
3.97671
3.97664
3.97661
3.98367
3.98353
3.98339
3.98325
3.98311
3.98297
3.98282
3.98268
3.98253
3.98238
3.98223
3.98207
3.98192
3.98176
3.9816
3.98143
3.98127
3.9811
3.98093
3.98076
3.98058
3.9804
3.98022
3.98004
3.97986
3.97967
3.97948
3.97929
3.97909
3.97889
3.97869
3.97849
3.97828
3.97808
3.97786
3.97765
3.97744
3.97722
3.97699
3.97677
3.97654
3.97631
3.97607
3.97584
3.9756
3.97535
3.9751
3.97485
3.9746
3.97434
3.97407
3.9738
3.97353
3.97325
3.97297
3.97268
3.97239
3.97209
3.97179
3.97148
3.97116
3.97084
3.97052
3.97019
3.96985
3.9695
3.96915
3.9688
3.96843
3.96807
3.96769
3.96731
3.96692
3.96653
3.96613
3.96573
3.96531
3.9649
3.96447
3.96405
3.96361
3.96317
3.96273
3.96227
3.96182
3.96136
3.96089
3.96042
3.95994
3.95945
3.95897
3.95847
3.95798
3.95747
3.95696
3.95645
3.95593
3.95541
3.95488
3.95434
3.9538
3.95325
3.95269
3.95213
3.95156
3.95098
3.9504
3.9498
3.9492
3.94859
3.94796
3.94733
3.94669
3.94603
3.94536
3.94468
3.94399
3.94328
3.94255
3.94182
3.94107
3.9403
3.93952
3.93871
3.9379
3.93706
3.93621
3.93534
3.93445
3.93355
3.93262
3.93168
3.93072
3.92974
3.92875
3.92774
3.92671
3.92566
3.9246
3.92352
3.92242
3.92132
3.92019
3.91906
3.91791
3.91675
3.91558
3.9144
3.91321
3.91201
3.9108
3.90958
3.90835
3.9071
3.90585
3.90458
3.9033
3.902
3.90069
3.89936
3.89801
3.89665
3.89526
3.89385
3.89242
3.89097
3.88948
3.88797
3.88643
3.88486
3.88326
3.88162
3.87994
3.87823
3.87648
3.87468
3.87284
3.87096
3.86903
3.86705
3.86502
3.86294
3.86082
3.85863
3.8564
3.8541
3.85177
3.84936
3.8469
3.84442
3.84179
3.83999
3.84721
3.95779
3.95664
3.95553
3.95448
3.95349
3.95257
3.95171
3.95094
3.95024
3.94962
3.9491
3.94867
3.94833
3.94808
3.94793
3.94788
3.96211
3.96166
3.96121
3.96076
3.9603
3.95984
3.95937
3.95889
3.95841
3.95792
3.95742
3.95692
3.95641
3.95589
3.95536
3.95482
3.95427
3.95372
3.95315
3.95258
3.95199
3.9514
3.95079
3.95018
3.94955
3.94892
3.94827
3.94761
3.94694
3.94626
3.94556
3.94486
3.94415
3.94342
3.94268
3.94194
3.94118
3.94041
3.93963
3.93884
3.93803
3.93722
3.9364
3.93556
3.93472
3.93387
3.933
3.93212
3.93124
3.93034
3.92943
3.9285
3.92757
3.92662
3.92566
3.92468
3.92369
3.92268
3.92166
3.92062
3.91956
3.91849
3.9174
3.91629
3.91516
3.91401
3.91284
3.91165
3.91045
3.90922
3.90796
3.90669
3.90539
3.90408
3.90273
3.90137
3.89998
3.89857
3.89713
3.89567
3.89418
3.89267
3.89113
3.88957
3.88798
3.88637
3.88473
3.88306
3.88137
3.87966
3.87792
3.87615
3.87436
3.87254
3.8707
3.86884
3.86695
3.86504
3.8631
3.86114
3.85915
3.85714
3.8551
3.85302
3.85092
3.84879
3.84662
3.84442
3.84219
3.83992
3.83761
3.83526
3.83287
3.83043
3.82796
3.82543
3.82286
3.82024
3.81756
3.81484
3.81205
3.80922
3.80632
3.80337
3.80035
3.79727
3.79413
3.79093
3.78766
3.78433
3.78093
3.77747
3.77394
3.77035
3.7667
3.76299
3.75921
3.75538
3.75149
3.74755
3.74356
3.73952
3.73544
3.73131
3.72715
3.72296
3.71874
3.7145
3.71025
3.70598
3.70172
3.69744
3.69317
3.68888
3.68459
3.68029
3.67598
3.67167
3.66734
3.66299
3.65863
3.65424
3.64984
3.6454
3.64094
3.63644
3.6319
3.62731
3.62268
3.61799
3.61324
3.60841
3.60352
3.59854
3.59347
3.5883
3.58303
3.57765
3.57214
3.56651
3.56073
3.55481
3.54874
3.54251
3.53609
3.52952
3.52272
3.51579
3.50862
3.50117
3.49406
3.48566
3.49603
3.90662
3.90406
3.90161
3.8993
3.89714
3.89512
3.89327
3.89159
3.89009
3.88878
3.88767
3.88676
3.88606
3.88557
3.8853
3.90719
3.90589
3.90458
3.90325
3.90192
3.90056
3.8992
3.89782
3.89641
3.895
3.89356
3.8921
3.89062
3.88911
3.88758
3.88603
3.88446
3.88286
3.88123
3.87958
3.87789
3.87618
3.87444
3.87268
3.87088
3.86905
3.86719
3.8653
3.86337
3.86142
3.85943
3.8574
3.85535
3.85326
3.85113
3.84898
3.84679
3.84456
3.8423
3.84001
3.83769
3.83533
3.83294
3.83051
3.82805
3.82556
3.82304
3.82049
3.8179
3.81528
3.81263
3.80994
3.80722
3.80446
3.80167
3.79883
3.79595
3.79303
3.79007
3.78706
3.78399
3.78088
3.77772
3.7745
3.77122
3.76789
3.76449
3.76104
3.75752
3.75393
3.75028
3.74656
3.74277
3.73891
3.73498
3.73097
3.7269
3.72275
3.71852
3.71423
3.70986
3.70542
3.7009
3.69632
3.69167
3.68695
3.68216
3.67731
3.6724
3.66743
3.66241
3.65733
3.65221
3.64704
3.64183
3.6366
3.63133
3.62605
3.62075
3.61543
3.61009
3.60473
3.59934
3.59394
3.5885
3.58304
3.57755
3.57203
3.56646
3.56086
3.5552
3.5495
3.54375
3.53793
3.53205
3.5261
3.52008
3.51397
3.50778
3.50149
3.49509
3.4886
3.48198
3.47525
3.46838
3.46139
3.45425
3.44696
3.43953
3.43193
3.42418
3.41627
3.40819
3.39995
3.39153
3.38296
3.37422
3.36531
3.35625
3.34704
3.33768
3.32818
3.31854
3.30878
3.2989
3.28892
3.27883
3.26866
3.25841
3.24811
3.23786
3.2277
3.21764
3.20766
3.1978
3.18804
3.1784
3.16887
3.15948
3.15021
3.14107
3.13208
3.12322
3.1145
3.10593
3.09751
3.08923
3.08111
3.07313
3.06532
3.05764
3.05014
3.04277
3.03558
3.02852
3.02165
3.01491
3.00836
3.00195
2.99572
2.98965
2.98374
2.97803
2.97242
2.96712
2.96177
2.95696
2.95176
2.94762
2.94248
2.93929
2.93427
2.94035
3.80538
3.80003
3.79494
3.79015
3.78566
3.7815
3.77768
3.77422
3.77112
3.76841
3.76608
3.76416
3.76265
3.76156
3.76089
3.76064
3.7813
3.77806
3.7748
3.7715
3.76818
3.76482
3.76143
3.75801
3.75455
3.75105
3.74751
3.74393
3.74031
3.73664
3.73292
3.72916
3.72534
3.72147
3.71754
3.71356
3.70952
3.70542
3.70126
3.69703
3.69273
3.68837
3.68394
3.67943
3.67485
3.6702
3.66547
3.66066
3.65578
3.65081
3.64577
3.64065
3.63545
3.63018
3.62483
3.6194
3.6139
3.60834
3.6027
3.597
3.59124
3.58542
3.57954
3.57362
3.56765
3.56164
3.5556
3.54953
3.54343
3.5373
3.53115
3.52496
3.51873
3.51247
3.50617
3.49983
3.49345
3.48702
3.48054
3.47401
3.46741
3.46076
3.45404
3.44726
3.44039
3.43345
3.42643
3.41931
3.41211
3.4048
3.39739
3.38988
3.38226
3.37452
3.36666
3.35869
3.3506
3.34238
3.33404
3.32558
3.317
3.30831
3.29949
3.29057
3.28155
3.27243
3.26322
3.25392
3.24456
3.23513
3.22565
3.21612
3.20656
3.19699
3.18751
3.17812
3.16882
3.15962
3.15052
3.14153
3.13264
3.12386
3.1152
3.10665
3.09822
3.0899
3.08172
3.07366
3.06573
3.05794
3.05028
3.04277
3.03539
3.02817
3.02109
3.01417
3.00739
3.00077
2.99431
2.988
2.98185
2.97585
2.97002
2.96434
2.95881
2.95345
2.94824
2.94318
2.93828
2.93353
2.92894
2.9245
2.92021
2.91606
2.91207
2.90822
2.90452
2.90096
2.89755
2.89427
2.89114
2.88815
2.88531
2.8826
2.88003
2.87761
2.87529
2.87309
2.87099
2.86901
2.86714
2.86537
2.86372
2.86217
2.86074
2.85941
2.8582
2.85709
2.85608
2.85517
2.85437
2.85366
2.85304
2.85251
2.85207
2.85169
2.8514
2.85116
2.85101
2.85087
2.85082
2.85075
2.85081
2.85077
2.8509
2.85086
2.85105
2.85096
2.85122
2.85104
2.85134
2.85105
2.85138
2.85096
2.85125
2.8508
2.85087
2.85075
2.85301
3.61542
3.6067
3.59855
3.591
3.58406
3.57775
3.57207
3.56703
3.56265
3.55892
3.55583
3.5534
3.55163
3.5399
3.53356
3.52718
3.52077
3.51432
3.50784
3.50133
3.49478
3.4882
3.48159
3.47496
3.46829
3.46159
3.45486
3.44809
3.44129
3.43444
3.42756
3.42064
3.41367
3.40666
3.3996
3.3925
3.38534
3.37812
3.37085
3.36352
3.35613
3.34867
3.34115
3.33355
3.32588
3.31813
3.3103
3.30239
3.29439
3.28632
3.27816
3.26991
3.26159
3.25319
3.24471
3.23616
3.22754
3.21886
3.21012
3.20133
3.1925
3.18363
3.17474
3.16582
3.15697
3.14819
3.13951
3.13093
3.12244
3.11405
3.10577
3.09761
3.08955
3.08161
3.07379
3.06609
3.05852
3.05107
3.04376
3.03657
3.02952
3.0226
3.01582
3.00917
3.00267
2.9963
2.99008
2.984
2.97806
2.97226
2.96661
2.96109
2.95573
2.9505
2.94542
2.94047
2.93567
2.93101
2.92649
2.92211
2.91787
2.91377
2.9098
2.90598
2.90229
2.89873
2.89531
2.89203
2.88888
2.88587
2.88298
2.88019
2.8775
2.87492
2.87243
2.87003
2.86772
2.8655
2.86337
2.86133
2.85936
2.85748
2.85567
2.85395
2.8523
2.85072
2.84922
2.8478
2.84645
2.84517
2.84396
2.84283
2.84176
2.84077
2.83984
2.83898
2.83819
2.83746
2.83679
2.83618
2.83563
2.83513
2.83469
2.8343
2.83396
2.83366
2.83341
2.83319
2.83302
2.83288
2.83277
2.8327
2.83265
2.83262
2.83262
2.83263
2.83266
2.8327
2.83275
2.83281
2.83286
2.83292
2.83296
2.833
2.83303
2.83303
2.83301
2.83297
2.8329
2.83279
2.83264
2.83245
2.83221
2.83193
2.8316
2.83122
2.83079
2.83031
2.82977
2.82919
2.82855
2.82788
2.82716
2.8264
2.82561
2.82479
2.82394
2.82306
2.82217
2.82126
2.82034
2.81942
2.81848
2.81755
2.81661
2.81568
2.81475
2.81383
2.81293
2.81199
2.81112
2.81019
2.80935
2.80845
2.80763
2.80766
3.33262
3.32203
3.31242
3.3038
3.29616
3.28949
3.28376
3.27895
3.27506
3.27204
3.26987
3.26849
3.26792
3.20319
3.19495
3.18672
3.17851
3.1703
3.1621
3.15391
3.14572
3.13753
3.1294
3.12134
3.11336
3.10547
3.09767
3.08996
3.08234
3.07482
3.0674
3.06009
3.05288
3.04579
3.03881
3.03195
3.02521
3.0186
3.01212
3.00576
2.99954
2.99345
2.9875
2.98169
2.97602
2.97048
2.96509
2.95984
2.95473
2.94976
2.94493
2.94024
2.93569
2.93127
2.92699
2.92284
2.91882
2.91493
2.91116
2.90752
2.90401
2.90061
2.89734
2.89418
2.89112
2.88815
2.88526
2.88247
2.87976
2.87714
2.8746
2.87215
2.86977
2.86748
2.86527
2.86313
2.86107
2.85908
2.85716
2.85531
2.85353
2.85182
2.85017
2.84858
2.84705
2.84557
2.84416
2.84279
2.84148
2.84022
2.839
2.83784
2.83671
2.83563
2.8346
2.8336
2.83265
2.83174
2.83086
2.83003
2.82923
2.82848
2.82777
2.82709
2.82646
2.82588
2.82534
2.82485
2.8244
2.824
2.82364
2.82334
2.82307
2.82285
2.82267
2.82253
2.82243
2.82236
2.82233
2.82232
2.82233
2.82237
2.82242
2.82249
2.82256
2.82264
2.82272
2.82281
2.82288
2.82295
2.823
2.82304
2.82306
2.82305
2.82302
2.82296
2.82288
2.82276
2.82261
2.82243
2.82221
2.82197
2.82169
2.82138
2.82103
2.82066
2.82025
2.81982
2.81936
2.81887
2.81836
2.81783
2.81728
2.81671
2.81612
2.81552
2.81492
2.8143
2.81367
2.81304
2.81241
2.81178
2.81115
2.81053
2.80991
2.8093
2.80869
2.80809
2.80749
2.80691
2.80633
2.80575
2.80519
2.80464
2.8041
2.80357
2.80303
2.8025
2.80197
2.80145
2.80092
2.8004
2.79989
2.79938
2.79887
2.79836
2.79786
2.79736
2.79686
2.79636
2.79586
2.79537
2.79486
2.79438
2.79386
2.79338
2.79286
2.79237
2.79184
2.79134
2.79081
2.79029
2.78975
2.78919
2.7886
2.78888
3.02974
3.02081
3.01313
3.00666
3.00136
2.9972
2.9941
2.99201
2.99089
2.9907
2.99142
2.99298
2.99511
2.99786
2.93238
2.92815
2.92407
2.92015
2.91638
2.91273
2.90922
2.90584
2.90258
2.89943
2.89636
2.89339
2.89051
2.88771
2.88499
2.88235
2.87979
2.87731
2.87491
2.87258
2.87032
2.86814
2.86602
2.86397
2.86198
2.86006
2.8582
2.8564
2.85466
2.85298
2.85135
2.84977
2.84824
2.84676
2.84533
2.84394
2.8426
2.84131
2.84005
2.83884
2.83767
2.83653
2.83543
2.83438
2.83335
2.83236
2.83141
2.83049
2.82961
2.82875
2.82794
2.82715
2.8264
2.82569
2.825
2.82435
2.82372
2.82313
2.82257
2.82204
2.82154
2.82108
2.82064
2.82023
2.81985
2.8195
2.81917
2.81887
2.8186
2.81835
2.81812
2.81792
2.81773
2.81757
2.81742
2.81728
2.81717
2.81706
2.81697
2.81689
2.81682
2.81675
2.8167
2.81664
2.8166
2.81655
2.8165
2.81646
2.81641
2.81635
2.81629
2.81622
2.81614
2.81606
2.81596
2.81585
2.81572
2.81557
2.81541
2.81523
2.81503
2.81481
2.81457
2.81432
2.81405
2.81376
2.81346
2.81314
2.81281
2.81247
2.81212
2.81177
2.8114
2.81103
2.81066
2.81028
2.80989
2.80951
2.80912
2.80872
2.80833
2.80794
2.80754
2.80714
2.80675
2.80635
2.80595
2.80555
2.80515
2.80474
2.80433
2.80391
2.80349
2.80307
2.80265
2.80224
2.80182
2.8014
2.80099
2.80057
2.80016
2.79976
2.79935
2.79895
2.79854
2.79814
2.79774
2.79733
2.79693
2.79651
2.79609
2.79566
2.79522
2.79476
2.79429
2.79379
2.79328
2.79275
2.7922
2.79162
2.79101
2.79036
2.78969
2.78903
2.78837
2.7877
2.78702
2.78635
2.78566
2.78496
2.78425
2.78353
2.7828
2.78205
2.78128
2.7805
2.7797
2.77888
2.77804
2.77718
2.77629
2.77539
2.77445
2.77349
2.77249
2.77148
2.77041
2.76934
2.76821
2.76709
2.76587
2.76466
2.76454
2.80829
2.80881
2.81013
2.81206
2.81461
2.81781
2.8216
2.82586
2.83051
2.83543
2.84062
2.84648
2.8527
2.85889
2.84479
2.84348
2.84221
2.84099
2.8398
2.83866
2.83756
2.83649
2.83547
2.83448
2.83352
2.83259
2.8317
2.83084
2.83001
2.8292
2.82843
2.82768
2.82696
2.82626
2.82559
2.82494
2.82431
2.82371
2.82313
2.82256
2.82202
2.8215
2.82099
2.82051
2.82004
2.81959
2.81916
2.81875
2.81835
2.81797
2.81761
2.81727
2.81695
2.81665
2.81637
2.81611
2.81586
2.81564
2.81543
2.81525
2.81508
2.81493
2.81479
2.81467
2.81456
2.81447
2.81438
2.81429
2.81421
2.81413
2.81406
2.81397
2.81389
2.8138
2.8137
2.8136
2.81349
2.81337
2.81324
2.8131
2.81295
2.81278
2.81262
2.81244
2.81225
2.81206
2.81185
2.81164
2.81142
2.8112
2.81098
2.81074
2.8105
2.81026
2.81001
2.80976
2.80951
2.80925
2.80899
2.80873
2.80846
2.8082
2.80793
2.80766
2.8074
2.80714
2.80687
2.80661
2.80636
2.80609
2.80583
2.80556
2.80529
2.80501
2.80473
2.80445
2.80417
2.80388
2.80359
2.80329
2.803
2.80269
2.80238
2.80207
2.80175
2.80142
2.80108
2.80073
2.80037
2.79999
2.79961
2.79922
2.79881
2.79839
2.79796
2.79752
2.79707
2.7966
2.79612
2.79562
2.7951
2.79457
2.79404
2.7935
2.79296
2.79241
2.79186
2.7913
2.79073
2.79016
2.78957
2.78897
2.78837
2.78774
2.78711
2.78645
2.78578
2.78509
2.78438
2.78365
2.7829
2.78212
2.78131
2.78049
2.77963
2.77876
2.77786
2.77694
2.776
2.77504
2.77406
2.77306
2.77205
2.77102
2.76998
2.76894
2.76789
2.76681
2.7657
2.76456
2.7634
2.7622
2.76097
2.75971
2.75842
2.75709
2.75572
2.75432
2.75287
2.75139
2.74987
2.7483
2.74669
2.74504
2.74334
2.7416
2.7398
2.73797
2.73608
2.73415
2.73217
2.73015
2.72806
2.72595
2.72378
2.72161
2.7216
2.72236
2.72789
2.73373
2.73981
2.74611
2.75265
2.75955
2.76656
2.77378
2.78172
2.7879
2.79518
2.80331
2.81102
2.82052
2.8201
2.81969
2.81929
2.81891
2.81854
2.81818
2.81784
2.81751
2.8172
2.8169
2.81663
2.81636
2.8161
2.81586
2.81564
2.81542
2.81522
2.81502
2.81483
2.81465
2.81447
2.8143
2.81414
2.81397
2.81381
2.81365
2.81349
2.81333
2.81317
2.81301
2.81285
2.81269
2.81252
2.81236
2.81219
2.81202
2.81185
2.81167
2.81149
2.81131
2.81112
2.81093
2.81074
2.81054
2.81034
2.81013
2.80993
2.80972
2.80951
2.8093
2.80909
2.80888
2.80867
2.80847
2.80826
2.80806
2.80786
2.80767
2.80748
2.80729
2.8071
2.80691
2.8067
2.8065
2.8063
2.80608
2.80587
2.80566
2.80543
2.8052
2.80497
2.80473
2.80449
2.80424
2.80399
2.80373
2.80347
2.8032
2.80292
2.80264
2.80234
2.80205
2.80174
2.80143
2.80111
2.80078
2.80044
2.8001
2.79974
2.79938
2.799
2.79862
2.79821
2.79779
2.79736
2.79693
2.7965
2.79607
2.79563
2.79518
2.79473
2.79427
2.7938
2.79332
2.79282
2.79232
2.7918
2.79127
2.79072
2.79015
2.78956
2.78896
2.78834
2.78771
2.78706
2.78639
2.7857
2.785
2.78429
2.78356
2.78281
2.78205
2.78128
2.78049
2.77969
2.77888
2.77806
2.77722
2.77636
2.77548
2.77457
2.77364
2.77269
2.77172
2.77071
2.76968
2.76862
2.76752
2.7664
2.76524
2.76406
2.76284
2.76158
2.76029
2.75897
2.75762
2.75623
2.75481
2.75336
2.75187
2.75036
2.74881
2.74723
2.74562
2.74398
2.74231
2.7406
2.73885
2.73708
2.73526
2.73339
2.73148
2.72952
2.72751
2.72545
2.72334
2.72117
2.71895
2.71667
2.71433
2.71194
2.70949
2.70698
2.70441
2.70178
2.69908
2.69633
2.69351
2.69062
2.68767
2.68465
2.68157
2.67843
2.67521
2.67192
2.66855
2.66514
2.66162
2.65814
2.65456
2.65128
2.65174
2.69431
2.70176
2.70942
2.71711
2.72479
2.73249
2.7402
2.74793
2.75601
2.76391
2.77152
2.77928
2.78735
2.81377
2.81361
2.81344
2.81326
2.81309
2.8129
2.81271
2.81251
2.81233
2.81212
2.8119
2.81171
2.81151
2.81127
2.81104
2.81084
2.81062
2.81038
2.81016
2.80994
2.80971
2.8095
2.80927
2.80906
2.80885
2.80863
2.80842
2.80823
2.80802
2.80782
2.80764
2.80743
2.80724
2.80707
2.80688
2.8067
2.80652
2.80634
2.80614
2.80596
2.80577
2.80557
2.80537
2.80518
2.80497
2.80476
2.80455
2.80433
2.80411
2.80389
2.80365
2.80341
2.80317
2.80291
2.80265
2.80238
2.80209
2.8018
2.80149
2.80117
2.80084
2.80049
2.80015
2.79979
2.79944
2.79909
2.79873
2.79837
2.79801
2.79764
2.79726
2.79688
2.79649
2.79608
2.79567
2.79526
2.79483
2.79439
2.79394
2.79347
2.793
2.79251
2.792
2.79149
2.79096
2.79042
2.78986
2.78929
2.7887
2.7881
2.78749
2.78687
2.78623
2.78559
2.78494
2.78428
2.7836
2.78291
2.7822
2.78147
2.78073
2.77997
2.77918
2.77838
2.77755
2.7767
2.77583
2.77493
2.77401
2.77307
2.7721
2.77111
2.77009
2.76905
2.76799
2.7669
2.76578
2.76464
2.76348
2.76229
2.76107
2.75983
2.75856
2.75727
2.75594
2.75458
2.75319
2.75176
2.75029
2.74879
2.74725
2.74566
2.74403
2.74237
2.74066
2.7389
2.7371
2.73526
2.73337
2.73143
2.72945
2.72742
2.72535
2.72323
2.72106
2.71884
2.71657
2.71426
2.71189
2.70947
2.70701
2.70449
2.70191
2.69928
2.69659
2.69384
2.69103
2.68815
2.68521
2.68221
2.67913
2.67599
2.67277
2.66948
2.66612
2.66269
2.65918
2.65559
2.65193
2.64819
2.64437
2.64047
2.63649
2.63243
2.62829
2.62406
2.61975
2.61535
2.61087
2.60631
2.60165
2.59691
2.59207
2.58715
2.58212
2.57701
2.57178
2.56651
2.56113
2.55592
2.55062
2.54646
2.54805
2.68085
2.68885
2.69693
2.70506
2.71322
2.7214
2.72952
2.73769
2.74609
2.7543
2.76239
2.77046
2.77871
2.80814
2.80797
2.80781
2.80765
2.80746
2.80729
2.80715
2.80697
2.80676
2.8066
2.80644
2.80621
2.806
2.80585
2.80564
2.80539
2.80521
2.80501
2.80477
2.80457
2.80434
2.80411
2.80391
2.80365
2.80341
2.80319
2.80291
2.80266
2.80242
2.80211
2.80183
2.80156
2.80123
2.8009
2.8006
2.80028
2.79993
2.79961
2.79928
2.79893
2.79859
2.79824
2.79788
2.79752
2.79715
2.79677
2.79639
2.79599
2.79559
2.79518
2.79475
2.79432
2.79388
2.79342
2.79296
2.79249
2.79201
2.79152
2.79103
2.79054
2.79003
2.78952
2.78899
2.78846
2.78791
2.78734
2.78677
2.78618
2.78557
2.78495
2.78432
2.78366
2.78299
2.7823
2.7816
2.78087
2.78012
2.77935
2.77857
2.77776
2.77693
2.77608
2.77521
2.77432
2.77341
2.77248
2.77153
2.77055
2.76956
2.76854
2.7675
2.76644
2.76536
2.76425
2.76311
2.76194
2.76074
2.75951
2.75825
2.75696
2.75563
2.75428
2.75289
2.75147
2.75001
2.74852
2.747
2.74544
2.74384
2.74221
2.74054
2.73883
2.73709
2.7353
2.73347
2.73159
2.72968
2.72771
2.7257
2.72365
2.72154
2.71939
2.71718
2.71492
2.7126
2.71023
2.7078
2.70531
2.70277
2.70017
2.69751
2.69478
2.692
2.68916
2.68625
2.68328
2.68024
2.67715
2.67398
2.67075
2.66745
2.66408
2.66065
2.65714
2.65356
2.6499
2.64617
2.64237
2.63848
2.63452
2.63048
2.62635
2.62214
2.61784
2.61346
2.60899
2.60443
2.59979
2.59505
2.59022
2.5853
2.58029
2.57518
2.56998
2.56469
2.5593
2.55381
2.54822
2.54254
2.53675
2.53087
2.52488
2.5188
2.51261
2.50631
2.49992
2.49342
2.48681
2.4801
2.47328
2.46634
2.4593
2.45212
2.44486
2.43747
2.43011
2.4227
2.41575
2.40881
2.4046
2.40835
2.68073
2.68878
2.69689
2.70509
2.71331
2.72147
2.72973
2.7381
2.7463
2.75444
2.76259
2.77081
2.8033
2.80309
2.80291
2.8027
2.80244
2.80219
2.80198
2.80169
2.80133
2.80107
2.80081
2.80043
2.80011
2.79987
2.79951
2.79914
2.79885
2.7985
2.79813
2.79779
2.79742
2.79705
2.79669
2.79629
2.79591
2.79552
2.7951
2.79469
2.79428
2.79384
2.7934
2.79297
2.79252
2.79206
2.79161
2.79114
2.79066
2.79017
2.78967
2.78916
2.78863
2.7881
2.78755
2.78699
2.78642
2.78583
2.78523
2.78461
2.78398
2.78334
2.78268
2.78201
2.78133
2.78063
2.77991
2.77919
2.77845
2.77769
2.77692
2.77613
2.77532
2.77449
2.77363
2.77276
2.77186
2.77094
2.77
2.76903
2.76804
2.76702
2.76598
2.76491
2.76381
2.76268
2.76153
2.76035
2.75913
2.75789
2.75661
2.7553
2.75397
2.7526
2.7512
2.74976
2.74829
2.74679
2.74526
2.74368
2.74208
2.74043
2.73875
2.73702
2.73526
2.73345
2.73161
2.72971
2.72778
2.7258
2.72378
2.72171
2.71959
2.71743
2.71521
2.71295
2.71064
2.70828
2.70586
2.7034
2.70087
2.69829
2.69565
2.69296
2.6902
2.68738
2.6845
2.68155
2.67854
2.67546
2.67231
2.66909
2.6658
2.66244
2.65901
2.65551
2.65193
2.64827
2.64454
2.64074
2.63685
2.63289
2.62885
2.62472
2.62052
2.61623
2.61186
2.60741
2.60287
2.59825
2.59353
2.58873
2.58384
2.57886
2.57379
2.56862
2.56336
2.558
2.55255
2.547
2.54135
2.5356
2.52975
2.5238
2.51775
2.5116
2.50535
2.49899
2.49253
2.48596
2.47929
2.47252
2.46563
2.45864
2.45154
2.44434
2.43702
2.4296
2.42207
2.41442
2.40667
2.39881
2.39083
2.38275
2.37455
2.36624
2.35783
2.3493
2.34066
2.3319
2.32303
2.31405
2.30494
2.29572
2.28637
2.27696
2.26749
2.25822
2.2491
2.24089
2.23296
2.22967
2.23672
2.67345
2.6817
2.68998
2.69832
2.70664
2.71492
2.72326
2.7316
2.73983
2.74799
2.79619
2.79584
2.79553
2.79522
2.7948
2.79444
2.79411
2.79368
2.79326
2.79291
2.79246
2.79202
2.79158
2.79113
2.79066
2.79017
2.78969
2.78919
2.78868
2.78816
2.78762
2.78708
2.78652
2.78595
2.78538
2.78479
2.78418
2.78357
2.78295
2.78231
2.78166
2.781
2.78032
2.77962
2.77892
2.77819
2.77744
2.77668
2.7759
2.7751
2.77428
2.77345
2.77259
2.77171
2.77081
2.76989
2.76895
2.76799
2.76701
2.76601
2.76498
2.76393
2.76285
2.76176
2.76063
2.75948
2.75831
2.7571
2.75587
2.7546
2.7533
2.75198
2.75062
2.74922
2.7478
2.74633
2.74483
2.7433
2.74173
2.74012
2.73847
2.73678
2.73505
2.73328
2.73147
2.72961
2.72771
2.72577
2.72378
2.72175
2.71966
2.71753
2.71536
2.71313
2.71085
2.70853
2.70615
2.70372
2.70123
2.69869
2.6961
2.69345
2.69074
2.68797
2.68515
2.68226
2.67931
2.67631
2.67323
2.6701
2.6669
2.66363
2.66029
2.65689
2.65341
2.64986
2.64624
2.64255
2.63878
2.63493
2.631
2.627
2.62291
2.61874
2.61449
2.61015
2.60573
2.60122
2.59662
2.59194
2.58717
2.5823
2.57735
2.5723
2.56717
2.56194
2.55661
2.5512
2.54568
2.54007
2.53437
2.52856
2.52266
2.51666
2.51055
2.50435
2.49805
2.49164
2.48513
2.47852
2.4718
2.46498
2.45805
2.45102
2.44388
2.43664
2.42928
2.42182
2.41426
2.40658
2.3988
2.3909
2.3829
2.37479
2.36657
2.35824
2.3498
2.34125
2.3326
2.32383
2.31495
2.30596
2.29687
2.28766
2.27835
2.26892
2.25939
2.24976
2.24001
2.23016
2.22021
2.21016
2.2
2.18974
2.17938
2.16891
2.15835
2.14769
2.13692
2.12604
2.11504
2.10395
2.09278
2.08164
2.07059
2.06002
2.04988
2.0412
2.03343
2.03126
2.04262
2.67554
2.68388
2.69223
2.70055
2.70885
2.71716
2.72543
2.7336
2.74172
2.78599
2.78556
2.78504
2.78452
2.78399
2.78343
2.78287
2.78227
2.78167
2.78104
2.78039
2.77973
2.77905
2.77835
2.77764
2.7769
2.77615
2.77539
2.7746
2.7738
2.77298
2.77214
2.77129
2.77041
2.76952
2.7686
2.76767
2.76672
2.76574
2.76474
2.76372
2.76267
2.7616
2.7605
2.75937
2.75822
2.75705
2.75584
2.75461
2.75335
2.75206
2.75074
2.74939
2.74801
2.7466
2.74516
2.74368
2.74217
2.74063
2.73905
2.73743
2.73578
2.73409
2.73236
2.73059
2.72878
2.72693
2.72503
2.72309
2.72111
2.71908
2.717
2.71488
2.71271
2.71049
2.70822
2.7059
2.70352
2.70109
2.69861
2.69607
2.69347
2.69082
2.68811
2.68534
2.68251
2.67962
2.67666
2.67364
2.67056
2.66741
2.6642
2.66092
2.65758
2.65416
2.65068
2.64712
2.6435
2.6398
2.63603
2.63219
2.62827
2.62428
2.6202
2.61605
2.61183
2.60751
2.60312
2.59865
2.59409
2.58944
2.58471
2.57989
2.57498
2.56998
2.56489
2.55971
2.55444
2.54907
2.54361
2.53805
2.5324
2.52665
2.5208
2.51485
2.5088
2.50266
2.49641
2.49006
2.48361
2.47705
2.47039
2.46363
2.45677
2.4498
2.44273
2.43555
2.42827
2.42088
2.41339
2.40579
2.39809
2.39028
2.38236
2.37434
2.3662
2.35797
2.34962
2.34117
2.33261
2.32395
2.31518
2.3063
2.29732
2.28823
2.27903
2.26973
2.26032
2.25081
2.2412
2.23148
2.22165
2.21173
2.2017
2.19157
2.18134
2.17101
2.16058
2.15005
2.13943
2.12871
2.1179
2.10699
2.096
2.08491
2.07373
2.06246
2.05111
2.03967
2.02815
2.01654
2.00485
1.99308
1.98122
1.96929
1.95726
1.94515
1.93295
1.92064
1.90824
1.89578
1.88332
1.87105
1.85909
1.84793
1.83752
1.82912
1.82202
1.82143
1.8368
2.66911
2.67742
2.77245
2.77173
2.77097
2.77019
2.76938
2.76854
2.76768
2.76679
2.76588
2.76494
2.76397
2.76298
2.76196
2.76091
2.75984
2.75875
2.75762
2.75647
2.7553
2.7541
2.75287
2.75161
2.75033
2.74901
2.74767
2.74629
2.74489
2.74345
2.74198
2.74047
2.73893
2.73736
2.73575
2.7341
2.73242
2.7307
2.72894
2.72714
2.72531
2.72343
2.72151
2.71954
2.71754
2.71549
2.71339
2.71125
2.70906
2.70683
2.70454
2.70221
2.69982
2.69738
2.69489
2.69235
2.68975
2.6871
2.68438
2.68162
2.67879
2.6759
2.67295
2.66994
2.66686
2.66373
2.66052
2.65725
2.65391
2.6505
2.64702
2.64347
2.63985
2.63616
2.63239
2.62854
2.62462
2.62062
2.61655
2.6124
2.60816
2.60385
2.59945
2.59498
2.59042
2.58578
2.58105
2.57624
2.57134
2.56636
2.56129
2.55613
2.55088
2.54554
2.54011
2.53459
2.52898
2.52327
2.51746
2.51156
2.50556
2.49946
2.49327
2.48697
2.48058
2.47409
2.46749
2.4608
2.454
2.4471
2.4401
2.433
2.42579
2.41848
2.41106
2.40354
2.39592
2.38819
2.38035
2.37241
2.36437
2.35622
2.34796
2.3396
2.33114
2.32257
2.31389
2.30512
2.29623
2.28725
2.27816
2.26897
2.25967
2.25027
2.24078
2.23118
2.22148
2.21168
2.20179
2.19179
2.1817
2.17151
2.16122
2.15084
2.14037
2.1298
2.11914
2.10839
2.09754
2.08661
2.07559
2.06449
2.0533
2.04202
2.03066
2.01922
2.0077
1.99609
1.98441
1.97265
1.96081
1.9489
1.93692
1.92486
1.91272
1.90052
1.88824
1.8759
1.86349
1.85101
1.83846
1.82585
1.81318
1.80044
1.78764
1.77478
1.76186
1.74888
1.73583
1.72271
1.70952
1.69629
1.6831
1.67005
1.65745
1.64543
1.63459
1.62481
1.61743
1.61165
1.61267
1.631
2.75353
2.75242
2.75129
2.75012
2.74892
2.74768
2.7464
2.74509
2.74374
2.74236
2.74094
2.73948
2.73798
2.73645
2.73488
2.73327
2.73163
2.72995
2.72823
2.72647
2.72468
2.72284
2.72097
2.71905
2.7171
2.7151
2.71305
2.71097
2.70883
2.70665
2.70443
2.70215
2.69983
2.69746
2.69504
2.69256
2.69004
2.68746
2.68483
2.68214
2.6794
2.6766
2.67374
2.67082
2.66785
2.66481
2.66171
2.65855
2.65533
2.65204
2.64868
2.64526
2.64177
2.63821
2.63458
2.63088
2.62711
2.62327
2.61935
2.61536
2.61129
2.60714
2.60291
2.59861
2.59422
2.58975
2.5852
2.58057
2.57585
2.57104
2.56615
2.56117
2.5561
2.55095
2.5457
2.54037
2.53494
2.52942
2.52382
2.51811
2.51232
2.50643
2.50045
2.49438
2.4882
2.48194
2.47557
2.46911
2.46256
2.4559
2.44915
2.44229
2.43534
2.42829
2.42113
2.41388
2.40652
2.39907
2.3915
2.38384
2.37608
2.36821
2.36024
2.35217
2.34399
2.33572
2.32734
2.31886
2.31028
2.3016
2.29281
2.28393
2.27494
2.26586
2.25667
2.24738
2.23799
2.22851
2.21892
2.20924
2.19946
2.18958
2.17961
2.16954
2.15938
2.14913
2.13879
2.12835
2.11783
2.10721
2.09651
2.08573
2.07486
2.0639
2.05287
2.04175
2.03056
2.01928
2.00793
1.9965
1.98499
1.97341
1.96176
1.95003
1.93824
1.92637
1.91443
1.90243
1.89035
1.87821
1.86601
1.85374
1.84141
1.82901
1.81656
1.80404
1.79147
1.77884
1.76615
1.75342
1.74063
1.7278
1.71492
1.70201
1.68906
1.67607
1.66306
1.65003
1.63698
1.62391
1.61084
1.59776
1.58467
1.57158
1.55848
1.54535
1.5322
1.51903
1.50587
1.49275
1.47982
1.46722
1.45532
1.44422
1.43454
1.42604
1.42003
1.41602
1.41772
1.43717
2.72751
2.7259
2.72425
2.72256
2.72082
2.71904
2.71721
2.71533
2.7134
2.71143
2.7094
2.70733
2.7052
2.70303