/*--------------------------------*- C++ -*----------------------------------*\
| =========                 |                                                 |
| \\      /  F ield         | OpenFOAM: The Open Source CFD Toolbox           |
|  \\    /   O peration     | Version:  v1706                                 |
|   \\  /    A nd           | Web:      www.OpenFOAM.com                      |
|    \\/     M anipulation  |                                                 |
\*---------------------------------------------------------------------------*/
FoamFile
{
    version     2.0;
    format      ascii;
    class       volScalarField;
    location    "1.4e-05";
    object      mu;
}
// * * * * * * * * * * * * * * * * * * * * * * * * * * * * * * * * * * * * * //

dimensions      [1 -1 -1 0 0 0 0];


internalField   nonuniform List<scalar> 
30104
(
1.03533e-05
1.03534e-05
1.03535e-05
1.03535e-05
1.03536e-05
1.03537e-05
1.03537e-05
1.03538e-05
1.03538e-05
1.03538e-05
1.03539e-05
1.03539e-05
1.03539e-05
1.03539e-05
1.03539e-05
1.0354e-05
1.03539e-05
1.03524e-05
1.03524e-05
1.03524e-05
1.03525e-05
1.03525e-05
1.03525e-05
1.03525e-05
1.03525e-05
1.03525e-05
1.03525e-05
1.03525e-05
1.03526e-05
1.03526e-05
1.03526e-05
1.03526e-05
1.03526e-05
1.03526e-05
1.03527e-05
1.03527e-05
1.03527e-05
1.03527e-05
1.03527e-05
1.03527e-05
1.03528e-05
1.03528e-05
1.03528e-05
1.03528e-05
1.03528e-05
1.03528e-05
1.03529e-05
1.03529e-05
1.03529e-05
1.03529e-05
1.03529e-05
1.03529e-05
1.0353e-05
1.0353e-05
1.0353e-05
1.0353e-05
1.0353e-05
1.03531e-05
1.03531e-05
1.03531e-05
1.03531e-05
1.03531e-05
1.03532e-05
1.03532e-05
1.03532e-05
1.03532e-05
1.03533e-05
1.03533e-05
1.03533e-05
1.03533e-05
1.03533e-05
1.03534e-05
1.03534e-05
1.03534e-05
1.03534e-05
1.03535e-05
1.03535e-05
1.03535e-05
1.03535e-05
1.03536e-05
1.03536e-05
1.03536e-05
1.03536e-05
1.03537e-05
1.03537e-05
1.03537e-05
1.03537e-05
1.03538e-05
1.03538e-05
1.03538e-05
1.03538e-05
1.03539e-05
1.03539e-05
1.03539e-05
1.0354e-05
1.0354e-05
1.0354e-05
1.03541e-05
1.03541e-05
1.03541e-05
1.03541e-05
1.03542e-05
1.03542e-05
1.03542e-05
1.03543e-05
1.03543e-05
1.03543e-05
1.03544e-05
1.03544e-05
1.03545e-05
1.03545e-05
1.03545e-05
1.03546e-05
1.03546e-05
1.03546e-05
1.03547e-05
1.03547e-05
1.03548e-05
1.03548e-05
1.03548e-05
1.03549e-05
1.03549e-05
1.0355e-05
1.0355e-05
1.03551e-05
1.03551e-05
1.03551e-05
1.03552e-05
1.03552e-05
1.03553e-05
1.03553e-05
1.03554e-05
1.03554e-05
1.03555e-05
1.03556e-05
1.03556e-05
1.03557e-05
1.03557e-05
1.03558e-05
1.03558e-05
1.03559e-05
1.03559e-05
1.0356e-05
1.03561e-05
1.03561e-05
1.03562e-05
1.03562e-05
1.03563e-05
1.03564e-05
1.03564e-05
1.03565e-05
1.03566e-05
1.03566e-05
1.03567e-05
1.03567e-05
1.03568e-05
1.03569e-05
1.03569e-05
1.0357e-05
1.03571e-05
1.03571e-05
1.03572e-05
1.03572e-05
1.03573e-05
1.03574e-05
1.03574e-05
1.03575e-05
1.03576e-05
1.03576e-05
1.03577e-05
1.03578e-05
1.03578e-05
1.03579e-05
1.0358e-05
1.0358e-05
1.03581e-05
1.03582e-05
1.03582e-05
1.03583e-05
1.03584e-05
1.03585e-05
1.03586e-05
1.03586e-05
1.03587e-05
1.03588e-05
1.03589e-05
1.0359e-05
1.03591e-05
1.03592e-05
1.03593e-05
1.03594e-05
1.03595e-05
1.03596e-05
1.03597e-05
1.03598e-05
1.03599e-05
1.036e-05
1.03601e-05
1.03603e-05
1.03604e-05
1.03605e-05
1.03606e-05
1.03608e-05
1.03609e-05
1.0361e-05
1.03612e-05
1.03613e-05
1.03614e-05
1.03613e-05
1.03599e-05
1.03642e-05
1.03646e-05
1.0365e-05
1.03654e-05
1.03658e-05
1.03661e-05
1.03665e-05
1.03668e-05
1.0367e-05
1.03673e-05
1.03675e-05
1.03677e-05
1.03678e-05
1.03679e-05
1.0368e-05
1.03681e-05
1.03681e-05
1.03602e-05
1.03603e-05
1.03604e-05
1.03605e-05
1.03606e-05
1.03607e-05
1.03608e-05
1.03609e-05
1.0361e-05
1.03611e-05
1.03612e-05
1.03613e-05
1.03615e-05
1.03616e-05
1.03617e-05
1.03618e-05
1.03619e-05
1.0362e-05
1.03621e-05
1.03623e-05
1.03624e-05
1.03625e-05
1.03626e-05
1.03628e-05
1.03629e-05
1.0363e-05
1.03632e-05
1.03633e-05
1.03634e-05
1.03636e-05
1.03637e-05
1.03638e-05
1.0364e-05
1.03641e-05
1.03643e-05
1.03644e-05
1.03646e-05
1.03647e-05
1.03649e-05
1.0365e-05
1.03652e-05
1.03653e-05
1.03655e-05
1.03656e-05
1.03658e-05
1.0366e-05
1.03661e-05
1.03663e-05
1.03665e-05
1.03666e-05
1.03668e-05
1.0367e-05
1.03672e-05
1.03674e-05
1.03675e-05
1.03677e-05
1.03679e-05
1.03681e-05
1.03683e-05
1.03685e-05
1.03687e-05
1.03689e-05
1.03691e-05
1.03694e-05
1.03696e-05
1.03698e-05
1.037e-05
1.03702e-05
1.03705e-05
1.03707e-05
1.0371e-05
1.03712e-05
1.03715e-05
1.03717e-05
1.0372e-05
1.03722e-05
1.03725e-05
1.03727e-05
1.0373e-05
1.03733e-05
1.03736e-05
1.03738e-05
1.03741e-05
1.03744e-05
1.03747e-05
1.0375e-05
1.03753e-05
1.03756e-05
1.03759e-05
1.03762e-05
1.03765e-05
1.03768e-05
1.03771e-05
1.03774e-05
1.03777e-05
1.0378e-05
1.03783e-05
1.03787e-05
1.0379e-05
1.03793e-05
1.03797e-05
1.038e-05
1.03803e-05
1.03807e-05
1.0381e-05
1.03814e-05
1.03818e-05
1.03821e-05
1.03825e-05
1.03829e-05
1.03833e-05
1.03837e-05
1.03841e-05
1.03845e-05
1.03849e-05
1.03854e-05
1.03858e-05
1.03863e-05
1.03867e-05
1.03872e-05
1.03876e-05
1.03881e-05
1.03886e-05
1.03891e-05
1.03896e-05
1.03901e-05
1.03906e-05
1.03912e-05
1.03917e-05
1.03922e-05
1.03928e-05
1.03934e-05
1.03939e-05
1.03945e-05
1.03951e-05
1.03956e-05
1.03962e-05
1.03968e-05
1.03974e-05
1.0398e-05
1.03986e-05
1.03992e-05
1.03999e-05
1.04005e-05
1.04011e-05
1.04017e-05
1.04024e-05
1.0403e-05
1.04037e-05
1.04043e-05
1.0405e-05
1.04056e-05
1.04063e-05
1.0407e-05
1.04077e-05
1.04084e-05
1.04091e-05
1.04098e-05
1.04105e-05
1.04113e-05
1.0412e-05
1.04128e-05
1.04136e-05
1.04144e-05
1.04152e-05
1.04161e-05
1.04169e-05
1.04178e-05
1.04187e-05
1.04196e-05
1.04206e-05
1.04216e-05
1.04226e-05
1.04236e-05
1.04246e-05
1.04257e-05
1.04268e-05
1.04279e-05
1.04291e-05
1.04303e-05
1.04315e-05
1.04328e-05
1.0434e-05
1.04353e-05
1.04367e-05
1.0438e-05
1.04394e-05
1.04408e-05
1.04423e-05
1.04437e-05
1.04453e-05
1.04455e-05
1.04384e-05
1.03908e-05
1.03922e-05
1.03934e-05
1.03946e-05
1.03958e-05
1.03968e-05
1.03978e-05
1.03988e-05
1.03996e-05
1.04004e-05
1.0401e-05
1.04016e-05
1.0402e-05
1.04024e-05
1.04026e-05
1.04027e-05
1.03823e-05
1.03827e-05
1.03831e-05
1.03835e-05
1.03839e-05
1.03843e-05
1.03847e-05
1.03851e-05
1.03855e-05
1.03859e-05
1.03863e-05
1.03867e-05
1.03872e-05
1.03876e-05
1.03881e-05
1.03885e-05
1.0389e-05
1.03894e-05
1.03899e-05
1.03904e-05
1.03909e-05
1.03914e-05
1.03919e-05
1.03924e-05
1.03929e-05
1.03934e-05
1.03939e-05
1.03945e-05
1.0395e-05
1.03956e-05
1.03962e-05
1.03967e-05
1.03973e-05
1.03979e-05
1.03985e-05
1.03991e-05
1.03997e-05
1.04003e-05
1.0401e-05
1.04016e-05
1.04022e-05
1.04029e-05
1.04036e-05
1.04042e-05
1.04049e-05
1.04056e-05
1.04063e-05
1.0407e-05
1.04077e-05
1.04084e-05
1.04091e-05
1.04099e-05
1.04106e-05
1.04114e-05
1.04122e-05
1.0413e-05
1.04138e-05
1.04146e-05
1.04154e-05
1.04162e-05
1.04171e-05
1.0418e-05
1.04188e-05
1.04197e-05
1.04206e-05
1.04216e-05
1.04225e-05
1.04235e-05
1.04244e-05
1.04254e-05
1.04264e-05
1.04275e-05
1.04285e-05
1.04295e-05
1.04306e-05
1.04317e-05
1.04328e-05
1.04339e-05
1.04351e-05
1.04362e-05
1.04374e-05
1.04386e-05
1.04398e-05
1.0441e-05
1.04423e-05
1.04435e-05
1.04448e-05
1.04461e-05
1.04474e-05
1.04487e-05
1.04501e-05
1.04514e-05
1.04528e-05
1.04541e-05
1.04555e-05
1.0457e-05
1.04584e-05
1.04598e-05
1.04613e-05
1.04628e-05
1.04643e-05
1.04659e-05
1.04674e-05
1.0469e-05
1.04706e-05
1.04722e-05
1.04739e-05
1.04756e-05
1.04773e-05
1.04791e-05
1.04809e-05
1.04827e-05
1.04846e-05
1.04865e-05
1.04885e-05
1.04905e-05
1.04925e-05
1.04946e-05
1.04967e-05
1.04989e-05
1.05011e-05
1.05034e-05
1.05057e-05
1.05081e-05
1.05105e-05
1.05129e-05
1.05155e-05
1.0518e-05
1.05206e-05
1.05233e-05
1.0526e-05
1.05288e-05
1.05316e-05
1.05344e-05
1.05373e-05
1.05402e-05
1.05431e-05
1.05461e-05
1.05492e-05
1.05522e-05
1.05553e-05
1.05584e-05
1.05615e-05
1.05647e-05
1.05679e-05
1.0571e-05
1.05743e-05
1.05775e-05
1.05807e-05
1.0584e-05
1.05872e-05
1.05905e-05
1.05939e-05
1.05972e-05
1.06006e-05
1.0604e-05
1.06074e-05
1.06109e-05
1.06144e-05
1.06179e-05
1.06215e-05
1.06252e-05
1.06289e-05
1.06326e-05
1.06364e-05
1.06403e-05
1.06443e-05
1.06483e-05
1.06525e-05
1.06567e-05
1.0661e-05
1.06654e-05
1.06699e-05
1.06745e-05
1.06792e-05
1.06841e-05
1.0689e-05
1.06941e-05
1.06994e-05
1.07048e-05
1.07103e-05
1.0716e-05
1.07218e-05
1.07278e-05
1.0734e-05
1.07403e-05
1.07469e-05
1.07535e-05
1.07604e-05
1.07674e-05
1.07747e-05
1.07798e-05
1.07581e-05
1.04542e-05
1.04575e-05
1.04607e-05
1.04637e-05
1.04666e-05
1.04693e-05
1.04718e-05
1.04742e-05
1.04763e-05
1.04781e-05
1.04798e-05
1.04811e-05
1.04823e-05
1.04831e-05
1.04837e-05
1.0484e-05
1.04426e-05
1.04438e-05
1.04451e-05
1.04464e-05
1.04476e-05
1.04489e-05
1.04503e-05
1.04516e-05
1.04529e-05
1.04543e-05
1.04557e-05
1.04571e-05
1.04585e-05
1.046e-05
1.04614e-05
1.04629e-05
1.04645e-05
1.0466e-05
1.04676e-05
1.04692e-05
1.04708e-05
1.04724e-05
1.04741e-05
1.04758e-05
1.04776e-05
1.04793e-05
1.04811e-05
1.04829e-05
1.04848e-05
1.04867e-05
1.04886e-05
1.04905e-05
1.04925e-05
1.04945e-05
1.04965e-05
1.04986e-05
1.05007e-05
1.05028e-05
1.0505e-05
1.05072e-05
1.05094e-05
1.05117e-05
1.05139e-05
1.05163e-05
1.05186e-05
1.0521e-05
1.05234e-05
1.05258e-05
1.05283e-05
1.05308e-05
1.05333e-05
1.05359e-05
1.05385e-05
1.05412e-05
1.05439e-05
1.05466e-05
1.05494e-05
1.05523e-05
1.05551e-05
1.05581e-05
1.05611e-05
1.05641e-05
1.05672e-05
1.05704e-05
1.05736e-05
1.05769e-05
1.05803e-05
1.05837e-05
1.05872e-05
1.05908e-05
1.05944e-05
1.05981e-05
1.06019e-05
1.06058e-05
1.06097e-05
1.06137e-05
1.06178e-05
1.0622e-05
1.06263e-05
1.06306e-05
1.06351e-05
1.06396e-05
1.06441e-05
1.06488e-05
1.06535e-05
1.06583e-05
1.06632e-05
1.06681e-05
1.06731e-05
1.06782e-05
1.06833e-05
1.06885e-05
1.06937e-05
1.0699e-05
1.07043e-05
1.07097e-05
1.07151e-05
1.07206e-05
1.07261e-05
1.07317e-05
1.07373e-05
1.07429e-05
1.07487e-05
1.07545e-05
1.07603e-05
1.07663e-05
1.07723e-05
1.07783e-05
1.07845e-05
1.07908e-05
1.07972e-05
1.08036e-05
1.08102e-05
1.0817e-05
1.08238e-05
1.08308e-05
1.08379e-05
1.08452e-05
1.08526e-05
1.08602e-05
1.08679e-05
1.08758e-05
1.0884e-05
1.08923e-05
1.09008e-05
1.09095e-05
1.09184e-05
1.09275e-05
1.09368e-05
1.09464e-05
1.09561e-05
1.09661e-05
1.09763e-05
1.09868e-05
1.09974e-05
1.10083e-05
1.10194e-05
1.10307e-05
1.10422e-05
1.10539e-05
1.10658e-05
1.10778e-05
1.10901e-05
1.11025e-05
1.11151e-05
1.11278e-05
1.11407e-05
1.11536e-05
1.11667e-05
1.11798e-05
1.1193e-05
1.12063e-05
1.12196e-05
1.1233e-05
1.12464e-05
1.12599e-05
1.12735e-05
1.12871e-05
1.13008e-05
1.13146e-05
1.13285e-05
1.13425e-05
1.13566e-05
1.13708e-05
1.13851e-05
1.13996e-05
1.14142e-05
1.1429e-05
1.1444e-05
1.14591e-05
1.14745e-05
1.14901e-05
1.1506e-05
1.15221e-05
1.15386e-05
1.15554e-05
1.15725e-05
1.159e-05
1.16079e-05
1.16262e-05
1.16451e-05
1.16643e-05
1.16842e-05
1.17045e-05
1.17254e-05
1.17469e-05
1.1769e-05
1.17919e-05
1.18151e-05
1.18397e-05
1.18636e-05
1.18907e-05
1.18536e-05
1.05988e-05
1.06064e-05
1.06137e-05
1.06207e-05
1.06272e-05
1.06333e-05
1.0639e-05
1.06442e-05
1.06488e-05
1.06529e-05
1.06565e-05
1.06594e-05
1.06618e-05
1.06636e-05
1.06647e-05
1.05974e-05
1.06011e-05
1.06048e-05
1.06086e-05
1.06124e-05
1.06163e-05
1.06201e-05
1.06241e-05
1.06281e-05
1.06321e-05
1.06362e-05
1.06404e-05
1.06446e-05
1.06489e-05
1.06533e-05
1.06577e-05
1.06622e-05
1.06668e-05
1.06715e-05
1.06762e-05
1.0681e-05
1.06859e-05
1.06909e-05
1.0696e-05
1.07012e-05
1.07065e-05
1.07119e-05
1.07174e-05
1.0723e-05
1.07287e-05
1.07345e-05
1.07404e-05
1.07465e-05
1.07526e-05
1.07589e-05
1.07652e-05
1.07717e-05
1.07783e-05
1.0785e-05
1.07918e-05
1.07988e-05
1.08058e-05
1.08129e-05
1.08202e-05
1.08275e-05
1.0835e-05
1.08425e-05
1.08501e-05
1.08579e-05
1.08657e-05
1.08736e-05
1.08815e-05
1.08896e-05
1.08978e-05
1.09061e-05
1.09145e-05
1.0923e-05
1.09316e-05
1.09403e-05
1.09491e-05
1.09581e-05
1.09672e-05
1.09765e-05
1.09859e-05
1.09955e-05
1.10052e-05
1.10151e-05
1.10252e-05
1.10354e-05
1.10459e-05
1.10565e-05
1.10674e-05
1.10784e-05
1.10897e-05
1.11012e-05
1.1113e-05
1.11249e-05
1.11371e-05
1.11496e-05
1.11623e-05
1.11752e-05
1.11884e-05
1.12019e-05
1.12156e-05
1.12295e-05
1.12437e-05
1.12582e-05
1.12729e-05
1.12878e-05
1.1303e-05
1.13184e-05
1.1334e-05
1.13498e-05
1.13658e-05
1.1382e-05
1.13983e-05
1.14148e-05
1.14314e-05
1.14481e-05
1.14649e-05
1.14818e-05
1.14989e-05
1.1516e-05
1.15333e-05
1.15507e-05
1.15683e-05
1.1586e-05
1.16039e-05
1.16219e-05
1.16402e-05
1.16586e-05
1.16773e-05
1.16962e-05
1.17154e-05
1.17349e-05
1.17546e-05
1.17747e-05
1.17951e-05
1.18159e-05
1.1837e-05
1.18585e-05
1.18805e-05
1.19029e-05
1.19258e-05
1.19492e-05
1.19731e-05
1.19975e-05
1.20225e-05
1.20481e-05
1.20742e-05
1.2101e-05
1.21284e-05
1.21564e-05
1.2185e-05
1.22142e-05
1.22441e-05
1.22746e-05
1.23057e-05
1.23373e-05
1.23696e-05
1.24024e-05
1.24357e-05
1.24696e-05
1.25039e-05
1.25386e-05
1.25738e-05
1.26093e-05
1.26452e-05
1.26815e-05
1.2718e-05
1.27544e-05
1.27905e-05
1.28262e-05
1.28617e-05
1.28969e-05
1.29317e-05
1.29662e-05
1.30003e-05
1.3034e-05
1.30674e-05
1.31005e-05
1.31331e-05
1.31654e-05
1.31973e-05
1.32288e-05
1.32599e-05
1.32907e-05
1.33211e-05
1.3351e-05
1.33807e-05
1.34099e-05
1.34387e-05
1.34671e-05
1.34953e-05
1.35228e-05
1.35502e-05
1.35769e-05
1.36035e-05
1.36293e-05
1.36551e-05
1.36799e-05
1.37049e-05
1.37287e-05
1.37528e-05
1.37756e-05
1.37989e-05
1.38206e-05
1.38431e-05
1.38638e-05
1.38853e-05
1.39053e-05
1.39279e-05
1.3898e-05
1.0891e-05
1.09073e-05
1.09229e-05
1.09377e-05
1.09516e-05
1.09647e-05
1.09767e-05
1.09878e-05
1.09978e-05
1.10067e-05
1.10146e-05
1.10212e-05
1.10267e-05
1.10309e-05
1.10339e-05
1.10356e-05
1.09656e-05
1.09754e-05
1.09853e-05
1.09953e-05
1.10053e-05
1.10155e-05
1.10257e-05
1.10361e-05
1.10465e-05
1.10571e-05
1.10678e-05
1.10787e-05
1.10896e-05
1.11007e-05
1.1112e-05
1.11234e-05
1.1135e-05
1.11468e-05
1.11587e-05
1.11708e-05
1.11831e-05
1.11956e-05
1.12083e-05
1.12212e-05
1.12343e-05
1.12476e-05
1.12611e-05
1.12749e-05
1.12889e-05
1.13032e-05
1.13177e-05
1.13325e-05
1.13475e-05
1.13628e-05
1.13783e-05
1.13942e-05
1.14102e-05
1.14266e-05
1.14432e-05
1.14601e-05
1.14773e-05
1.14947e-05
1.15124e-05
1.15303e-05
1.15485e-05
1.15669e-05
1.15855e-05
1.16044e-05
1.16235e-05
1.16428e-05
1.16622e-05
1.16818e-05
1.17015e-05
1.17214e-05
1.17414e-05
1.17615e-05
1.17819e-05
1.18024e-05
1.18231e-05
1.18439e-05
1.1865e-05
1.18862e-05
1.19077e-05
1.19294e-05
1.19514e-05
1.19736e-05
1.19961e-05
1.20188e-05
1.20419e-05
1.20654e-05
1.20891e-05
1.21133e-05
1.21378e-05
1.21628e-05
1.21882e-05
1.2214e-05
1.22403e-05
1.22671e-05
1.22944e-05
1.23223e-05
1.23506e-05
1.23796e-05
1.2409e-05
1.24391e-05
1.24697e-05
1.25009e-05
1.25326e-05
1.25649e-05
1.25977e-05
1.26311e-05
1.26649e-05
1.26992e-05
1.2734e-05
1.27691e-05
1.28046e-05
1.28404e-05
1.28765e-05
1.29128e-05
1.29488e-05
1.29846e-05
1.302e-05
1.30552e-05
1.309e-05
1.31244e-05
1.31584e-05
1.3192e-05
1.32251e-05
1.32578e-05
1.329e-05
1.33217e-05
1.33529e-05
1.33836e-05
1.34138e-05
1.34435e-05
1.34726e-05
1.35012e-05
1.35293e-05
1.35568e-05
1.35837e-05
1.36101e-05
1.3636e-05
1.36613e-05
1.3686e-05
1.37102e-05
1.37338e-05
1.37568e-05
1.37793e-05
1.38013e-05
1.38227e-05
1.38435e-05
1.38638e-05
1.38836e-05
1.39028e-05
1.39215e-05
1.39397e-05
1.39574e-05
1.39745e-05
1.39912e-05
1.40075e-05
1.40232e-05
1.40386e-05
1.40535e-05
1.4068e-05
1.40821e-05
1.40959e-05
1.41093e-05
1.41223e-05
1.4135e-05
1.41473e-05
1.41594e-05
1.41712e-05
1.41828e-05
1.41942e-05
1.42055e-05
1.42167e-05
1.42276e-05
1.42384e-05
1.4249e-05
1.42594e-05
1.42696e-05
1.42796e-05
1.42894e-05
1.42989e-05
1.43082e-05
1.43172e-05
1.43259e-05
1.43343e-05
1.43424e-05
1.43501e-05
1.43575e-05
1.43645e-05
1.43711e-05
1.43774e-05
1.43833e-05
1.43888e-05
1.43939e-05
1.43987e-05
1.4403e-05
1.44072e-05
1.44108e-05
1.44144e-05
1.44172e-05
1.44203e-05
1.44225e-05
1.44253e-05
1.44269e-05
1.44296e-05
1.44305e-05
1.44333e-05
1.44335e-05
1.4436e-05
1.44357e-05
1.44247e-05
1.14722e-05
1.15016e-05
1.15292e-05
1.15552e-05
1.15792e-05
1.16014e-05
1.16215e-05
1.16397e-05
1.16558e-05
1.16697e-05
1.16816e-05
1.16914e-05
1.1699e-05
1.17177e-05
1.17385e-05
1.17594e-05
1.17804e-05
1.18016e-05
1.1823e-05
1.18446e-05
1.18663e-05
1.18881e-05
1.19101e-05
1.19323e-05
1.19546e-05
1.1977e-05
1.19997e-05
1.20225e-05
1.20454e-05
1.20686e-05
1.20919e-05
1.21154e-05
1.21391e-05
1.2163e-05
1.21871e-05
1.22114e-05
1.22359e-05
1.22607e-05
1.22857e-05
1.2311e-05
1.23366e-05
1.23624e-05
1.23885e-05
1.2415e-05
1.24417e-05
1.24688e-05
1.24963e-05
1.25241e-05
1.25523e-05
1.25809e-05
1.26098e-05
1.26392e-05
1.2669e-05
1.26991e-05
1.27297e-05
1.27607e-05
1.2792e-05
1.28238e-05
1.28559e-05
1.28883e-05
1.29211e-05
1.29543e-05
1.29877e-05
1.30214e-05
1.30551e-05
1.30887e-05
1.3122e-05
1.31552e-05
1.31881e-05
1.32208e-05
1.32532e-05
1.32853e-05
1.33172e-05
1.33486e-05
1.33798e-05
1.34105e-05
1.34408e-05
1.34708e-05
1.35002e-05
1.35293e-05
1.35578e-05
1.35859e-05
1.36135e-05
1.36405e-05
1.3667e-05
1.3693e-05
1.37184e-05
1.37433e-05
1.37675e-05
1.37912e-05
1.38143e-05
1.38368e-05
1.38587e-05
1.388e-05
1.39006e-05
1.39207e-05
1.39401e-05
1.39589e-05
1.3977e-05
1.39946e-05
1.40115e-05
1.40278e-05
1.40435e-05
1.40585e-05
1.4073e-05
1.40869e-05
1.41002e-05
1.41129e-05
1.4125e-05
1.41366e-05
1.41477e-05
1.41583e-05
1.41686e-05
1.41786e-05
1.41882e-05
1.41975e-05
1.42065e-05
1.42153e-05
1.42238e-05
1.42321e-05
1.42402e-05
1.42481e-05
1.42559e-05
1.42635e-05
1.42709e-05
1.42782e-05
1.42853e-05
1.42923e-05
1.42991e-05
1.43058e-05
1.43124e-05
1.43188e-05
1.43251e-05
1.43312e-05
1.43372e-05
1.4343e-05
1.43487e-05
1.43542e-05
1.43596e-05
1.43648e-05
1.43699e-05
1.43748e-05
1.43796e-05
1.43843e-05
1.43888e-05
1.43932e-05
1.43975e-05
1.44017e-05
1.44058e-05
1.44098e-05
1.44137e-05
1.44175e-05
1.44212e-05
1.44248e-05
1.44283e-05
1.44317e-05
1.4435e-05
1.44382e-05
1.44413e-05
1.44442e-05
1.4447e-05
1.44496e-05
1.44521e-05
1.44545e-05
1.44567e-05
1.44587e-05
1.44606e-05
1.44623e-05
1.44638e-05
1.44652e-05
1.44664e-05
1.44674e-05
1.44684e-05
1.44691e-05
1.44698e-05
1.44704e-05
1.44709e-05
1.44713e-05
1.44717e-05
1.4472e-05
1.44723e-05
1.44726e-05
1.44729e-05
1.44732e-05
1.44735e-05
1.44738e-05
1.44741e-05
1.44744e-05
1.44748e-05
1.44751e-05
1.44755e-05
1.4476e-05
1.44764e-05
1.44769e-05
1.44773e-05
1.44779e-05
1.44784e-05
1.44792e-05
1.44798e-05
1.44807e-05
1.44813e-05
1.44823e-05
1.44829e-05
1.4484e-05
1.44849e-05
1.44821e-05
1.24105e-05
1.24503e-05
1.24869e-05
1.25204e-05
1.25506e-05
1.25775e-05
1.26012e-05
1.26216e-05
1.2639e-05
1.26532e-05
1.26646e-05
1.26731e-05
1.26789e-05
1.28848e-05
1.29153e-05
1.29458e-05
1.29763e-05
1.30068e-05
1.30374e-05
1.30681e-05
1.30988e-05
1.31296e-05
1.31603e-05
1.31908e-05
1.32211e-05
1.32511e-05
1.3281e-05
1.33105e-05
1.33398e-05
1.33689e-05
1.33976e-05
1.34261e-05
1.34543e-05
1.34821e-05
1.35097e-05
1.35369e-05
1.35638e-05
1.35903e-05
1.36164e-05
1.36422e-05
1.36675e-05
1.36925e-05
1.37171e-05
1.37412e-05
1.37649e-05
1.37881e-05
1.38108e-05
1.38331e-05
1.38548e-05
1.38761e-05
1.38968e-05
1.39169e-05
1.39365e-05
1.39555e-05
1.39739e-05
1.39917e-05
1.4009e-05
1.40256e-05
1.40416e-05
1.4057e-05
1.40719e-05
1.40861e-05
1.40997e-05
1.41128e-05
1.41253e-05
1.41374e-05
1.4149e-05
1.41602e-05
1.4171e-05
1.41815e-05
1.41915e-05
1.42011e-05
1.42104e-05
1.42194e-05
1.4228e-05
1.42363e-05
1.42444e-05
1.42521e-05
1.42596e-05
1.42668e-05
1.42738e-05
1.42806e-05
1.42871e-05
1.42935e-05
1.42996e-05
1.43055e-05
1.43113e-05
1.43169e-05
1.43223e-05
1.43276e-05
1.43327e-05
1.43377e-05
1.43425e-05
1.43472e-05
1.43518e-05
1.43562e-05
1.43606e-05
1.43648e-05
1.43689e-05
1.4373e-05
1.4377e-05
1.43808e-05
1.43846e-05
1.43883e-05
1.4392e-05
1.43955e-05
1.4399e-05
1.44024e-05
1.44057e-05
1.44089e-05
1.44121e-05
1.44152e-05
1.44183e-05
1.44213e-05
1.44242e-05
1.44271e-05
1.44299e-05
1.44327e-05
1.44353e-05
1.44379e-05
1.44404e-05
1.44429e-05
1.44452e-05
1.44474e-05
1.44495e-05
1.44515e-05
1.44534e-05
1.44551e-05
1.44568e-05
1.44583e-05
1.44598e-05
1.44611e-05
1.44624e-05
1.44636e-05
1.44647e-05
1.44657e-05
1.44667e-05
1.44677e-05
1.44686e-05
1.44695e-05
1.44704e-05
1.44713e-05
1.44722e-05
1.44731e-05
1.4474e-05
1.44749e-05
1.44759e-05
1.44769e-05
1.44779e-05
1.44789e-05
1.448e-05
1.4481e-05
1.44821e-05
1.44832e-05
1.44843e-05
1.44854e-05
1.44865e-05
1.44876e-05
1.44887e-05
1.44898e-05
1.44909e-05
1.44921e-05
1.44932e-05
1.44943e-05
1.44954e-05
1.44965e-05
1.44976e-05
1.44987e-05
1.44997e-05
1.45008e-05
1.45018e-05
1.45028e-05
1.45039e-05
1.45049e-05
1.4506e-05
1.4507e-05
1.45081e-05
1.45091e-05
1.45101e-05
1.4511e-05
1.4512e-05
1.45129e-05
1.45138e-05
1.45147e-05
1.45155e-05
1.45164e-05
1.45172e-05
1.45181e-05
1.4519e-05
1.45199e-05
1.45208e-05
1.45219e-05
1.45229e-05
1.4524e-05
1.45252e-05
1.45265e-05
1.45279e-05
1.45293e-05
1.45308e-05
1.45324e-05
1.45341e-05
1.45358e-05
1.45376e-05
1.45395e-05
1.45421e-05
1.45408e-05
1.35154e-05
1.35552e-05
1.35906e-05
1.36217e-05
1.36487e-05
1.36715e-05
1.36903e-05
1.37054e-05
1.37169e-05
1.37249e-05
1.37292e-05
1.37298e-05
1.37285e-05
1.37247e-05
1.3936e-05
1.39548e-05
1.39729e-05
1.39903e-05
1.4007e-05
1.40231e-05
1.40386e-05
1.40534e-05
1.40677e-05
1.40814e-05
1.40947e-05
1.41076e-05
1.412e-05
1.41321e-05
1.41438e-05
1.41551e-05
1.4166e-05
1.41766e-05
1.41868e-05
1.41967e-05
1.42063e-05
1.42156e-05
1.42245e-05
1.42331e-05
1.42415e-05
1.42495e-05
1.42572e-05
1.42647e-05
1.42718e-05
1.42787e-05
1.42853e-05
1.42917e-05
1.42978e-05
1.43036e-05
1.43092e-05
1.43146e-05
1.43198e-05
1.43248e-05
1.43296e-05
1.43343e-05
1.43388e-05
1.43431e-05
1.43474e-05
1.43515e-05
1.43555e-05
1.43594e-05
1.43632e-05
1.43669e-05
1.43706e-05
1.43741e-05
1.43776e-05
1.4381e-05
1.43843e-05
1.43876e-05
1.43908e-05
1.4394e-05
1.43971e-05
1.44002e-05
1.44032e-05
1.44061e-05
1.4409e-05
1.44118e-05
1.44145e-05
1.44172e-05
1.44198e-05
1.44224e-05
1.44249e-05
1.44273e-05
1.44296e-05
1.44319e-05
1.4434e-05
1.44361e-05
1.44381e-05
1.44401e-05
1.44419e-05
1.44437e-05
1.44454e-05
1.4447e-05
1.44486e-05
1.44501e-05
1.44516e-05
1.4453e-05
1.44543e-05
1.44556e-05
1.44569e-05
1.44581e-05
1.44593e-05
1.44605e-05
1.44616e-05
1.44627e-05
1.44638e-05
1.44649e-05
1.4466e-05
1.4467e-05
1.4468e-05
1.4469e-05
1.447e-05
1.4471e-05
1.4472e-05
1.44731e-05
1.44741e-05
1.44751e-05
1.44761e-05
1.44772e-05
1.44782e-05
1.44793e-05
1.44803e-05
1.44814e-05
1.44825e-05
1.44835e-05
1.44846e-05
1.44857e-05
1.44867e-05
1.44878e-05
1.44889e-05
1.44899e-05
1.4491e-05
1.44921e-05
1.44931e-05
1.44942e-05
1.44952e-05
1.44963e-05
1.44973e-05
1.44984e-05
1.44995e-05
1.45006e-05
1.45017e-05
1.45029e-05
1.45041e-05
1.45053e-05
1.45065e-05
1.45077e-05
1.4509e-05
1.45102e-05
1.45115e-05
1.45129e-05
1.45142e-05
1.45155e-05
1.45169e-05
1.45183e-05
1.45197e-05
1.45211e-05
1.45225e-05
1.45239e-05
1.45254e-05
1.45269e-05
1.45283e-05
1.45298e-05
1.45314e-05
1.45329e-05
1.45344e-05
1.4536e-05
1.45375e-05
1.45391e-05
1.45407e-05
1.45423e-05
1.45439e-05
1.45455e-05
1.45472e-05
1.45488e-05
1.45505e-05
1.45521e-05
1.45536e-05
1.45552e-05
1.45568e-05
1.45584e-05
1.456e-05
1.45617e-05
1.45633e-05
1.4565e-05
1.45668e-05
1.45686e-05
1.45704e-05
1.45723e-05
1.45743e-05
1.45764e-05
1.45786e-05
1.45809e-05
1.45832e-05
1.45857e-05
1.45883e-05
1.4591e-05
1.45939e-05
1.45968e-05
1.45999e-05
1.46031e-05
1.46063e-05
1.46098e-05
1.46132e-05
1.46169e-05
1.46206e-05
1.46254e-05
1.46236e-05
1.44079e-05
1.44126e-05
1.44135e-05
1.44124e-05
1.4409e-05
1.4403e-05
1.43945e-05
1.4384e-05
1.43718e-05
1.43579e-05
1.43428e-05
1.43264e-05
1.43097e-05
1.42922e-05
1.43006e-05
1.43066e-05
1.43124e-05
1.43178e-05
1.43231e-05
1.4328e-05
1.43328e-05
1.43373e-05
1.43417e-05
1.43458e-05
1.43498e-05
1.43537e-05
1.43574e-05
1.4361e-05
1.43646e-05
1.4368e-05
1.43714e-05
1.43746e-05
1.43778e-05
1.4381e-05
1.4384e-05
1.4387e-05
1.43899e-05
1.43927e-05
1.43955e-05
1.43981e-05
1.44007e-05
1.44033e-05
1.44058e-05
1.44082e-05
1.44105e-05
1.44128e-05
1.4415e-05
1.44171e-05
1.44193e-05
1.44213e-05
1.44234e-05
1.44254e-05
1.44273e-05
1.44293e-05
1.44312e-05
1.4433e-05
1.44348e-05
1.44366e-05
1.44384e-05
1.44401e-05
1.44418e-05
1.44434e-05
1.4445e-05
1.44465e-05
1.4448e-05
1.44494e-05
1.44508e-05
1.44522e-05
1.44535e-05
1.44547e-05
1.44559e-05
1.44571e-05
1.44583e-05
1.44594e-05
1.44605e-05
1.44615e-05
1.44626e-05
1.44636e-05
1.44645e-05
1.44655e-05
1.44665e-05
1.44674e-05
1.44683e-05
1.44692e-05
1.44701e-05
1.44711e-05
1.4472e-05
1.44729e-05
1.44738e-05
1.44747e-05
1.44756e-05
1.44765e-05
1.44775e-05
1.44784e-05
1.44794e-05
1.44804e-05
1.44814e-05
1.44825e-05
1.44835e-05
1.44846e-05
1.44857e-05
1.44868e-05
1.4488e-05
1.44891e-05
1.44903e-05
1.44915e-05
1.44927e-05
1.4494e-05
1.44952e-05
1.44965e-05
1.44978e-05
1.44991e-05
1.45005e-05
1.45018e-05
1.45031e-05
1.45044e-05
1.45058e-05
1.45071e-05
1.45084e-05
1.45097e-05
1.45111e-05
1.45124e-05
1.45137e-05
1.4515e-05
1.45164e-05
1.45177e-05
1.45191e-05
1.45205e-05
1.45218e-05
1.45232e-05
1.45247e-05
1.45261e-05
1.45276e-05
1.4529e-05
1.45306e-05
1.45321e-05
1.45337e-05
1.45353e-05
1.45369e-05
1.45386e-05
1.45402e-05
1.45419e-05
1.45436e-05
1.45453e-05
1.45471e-05
1.45489e-05
1.45507e-05
1.45526e-05
1.45545e-05
1.45564e-05
1.45584e-05
1.45603e-05
1.45624e-05
1.45644e-05
1.45665e-05
1.45687e-05
1.45708e-05
1.45731e-05
1.45753e-05
1.45776e-05
1.45799e-05
1.45823e-05
1.45847e-05
1.45872e-05
1.45897e-05
1.45922e-05
1.45948e-05
1.45975e-05
1.46002e-05
1.4603e-05
1.46058e-05
1.46087e-05
1.46116e-05
1.46146e-05
1.46177e-05
1.46208e-05
1.46241e-05
1.46274e-05
1.46307e-05
1.46342e-05
1.46377e-05
1.46413e-05
1.4645e-05
1.46489e-05
1.46528e-05
1.46569e-05
1.46611e-05
1.46655e-05
1.467e-05
1.46746e-05
1.46795e-05
1.46845e-05
1.46896e-05
1.46949e-05
1.47004e-05
1.4706e-05
1.47118e-05
1.47178e-05
1.47239e-05
1.47302e-05
1.47367e-05
1.47433e-05
1.47501e-05
1.4757e-05
1.47639e-05
1.47724e-05
1.47688e-05
1.47528e-05
1.47373e-05
1.47208e-05
1.47036e-05
1.46857e-05
1.46668e-05
1.46473e-05
1.46271e-05
1.46063e-05
1.4587e-05
1.45655e-05
1.45418e-05
1.45201e-05
1.44994e-05
1.43951e-05
1.43982e-05
1.44012e-05
1.4404e-05
1.44068e-05
1.44094e-05
1.4412e-05
1.44144e-05
1.44167e-05
1.4419e-05
1.44211e-05
1.44232e-05
1.44252e-05
1.44271e-05
1.44289e-05
1.44307e-05
1.44324e-05
1.44341e-05
1.44356e-05
1.44371e-05
1.44386e-05
1.444e-05
1.44414e-05
1.44427e-05
1.44439e-05
1.44452e-05
1.44463e-05
1.44475e-05
1.44486e-05
1.44497e-05
1.44508e-05
1.44519e-05
1.44529e-05
1.4454e-05
1.44551e-05
1.44561e-05
1.44571e-05
1.44582e-05
1.44592e-05
1.44603e-05
1.44614e-05
1.44624e-05
1.44635e-05
1.44646e-05
1.44656e-05
1.44667e-05
1.44678e-05
1.4469e-05
1.44701e-05
1.44712e-05
1.44723e-05
1.44735e-05
1.44746e-05
1.44758e-05
1.44769e-05
1.44781e-05
1.44792e-05
1.44804e-05
1.44815e-05
1.44827e-05
1.44838e-05
1.44849e-05
1.44861e-05
1.44872e-05
1.44883e-05
1.44894e-05
1.44905e-05
1.44915e-05
1.44926e-05
1.44937e-05
1.44947e-05
1.44958e-05
1.44969e-05
1.4498e-05
1.44991e-05
1.45002e-05
1.45014e-05
1.45026e-05
1.45038e-05
1.45051e-05
1.45064e-05
1.45077e-05
1.45091e-05
1.45105e-05
1.4512e-05
1.45135e-05
1.4515e-05
1.45166e-05
1.45182e-05
1.45198e-05
1.45215e-05
1.45232e-05
1.45249e-05
1.45266e-05
1.45283e-05
1.45301e-05
1.45318e-05
1.45335e-05
1.45353e-05
1.45371e-05
1.45388e-05
1.45406e-05
1.45424e-05
1.45442e-05
1.4546e-05
1.45478e-05
1.45496e-05
1.45515e-05
1.45533e-05
1.45552e-05
1.45571e-05
1.4559e-05
1.4561e-05
1.4563e-05
1.45651e-05
1.45672e-05
1.45694e-05
1.45716e-05
1.45739e-05
1.45763e-05
1.45787e-05
1.45812e-05
1.45837e-05
1.45863e-05
1.45889e-05
1.45916e-05
1.45944e-05
1.45973e-05
1.46002e-05
1.46031e-05
1.46062e-05
1.46093e-05
1.46125e-05
1.46157e-05
1.4619e-05
1.46224e-05
1.46258e-05
1.46294e-05
1.4633e-05
1.46366e-05
1.46404e-05
1.46442e-05
1.46481e-05
1.46521e-05
1.46562e-05
1.46604e-05
1.46646e-05
1.46689e-05
1.46734e-05
1.46779e-05
1.46825e-05
1.46873e-05
1.46921e-05
1.46971e-05
1.47022e-05
1.47074e-05
1.47127e-05
1.47182e-05
1.47237e-05
1.47295e-05
1.47353e-05
1.47414e-05
1.47475e-05
1.47539e-05
1.47603e-05
1.4767e-05
1.47738e-05
1.47808e-05
1.47881e-05
1.47955e-05
1.48031e-05
1.48109e-05
1.4819e-05
1.48272e-05
1.48357e-05
1.48445e-05
1.48534e-05
1.48626e-05
1.48719e-05
1.48816e-05
1.48914e-05
1.49015e-05
1.49118e-05
1.49223e-05
1.49331e-05
1.49441e-05
1.49553e-05
1.49668e-05
1.49785e-05
1.49902e-05
1.50017e-05
1.50144e-05
1.50071e-05
1.48814e-05
1.48582e-05
1.48346e-05
1.48108e-05
1.47868e-05
1.47625e-05
1.47381e-05
1.47135e-05
1.46892e-05
1.46654e-05
1.4641e-05
1.46162e-05
1.45918e-05
1.44304e-05
1.44324e-05
1.44344e-05
1.44364e-05
1.44383e-05
1.44401e-05
1.44419e-05
1.44436e-05
1.44452e-05
1.44467e-05
1.44482e-05
1.44495e-05
1.44509e-05
1.44522e-05
1.44534e-05
1.44547e-05
1.44559e-05
1.44571e-05
1.44582e-05
1.44594e-05
1.44605e-05
1.44616e-05
1.44628e-05
1.44639e-05
1.4465e-05
1.44661e-05
1.44672e-05
1.44684e-05
1.44695e-05
1.44706e-05
1.44717e-05
1.44729e-05
1.4474e-05
1.44752e-05
1.44763e-05
1.44775e-05
1.44787e-05
1.448e-05
1.44812e-05
1.44824e-05
1.44836e-05
1.44849e-05
1.44861e-05
1.44874e-05
1.44887e-05
1.449e-05
1.44913e-05
1.44926e-05
1.4494e-05
1.44953e-05
1.44967e-05
1.4498e-05
1.44994e-05
1.45008e-05
1.45022e-05
1.45036e-05
1.45051e-05
1.45065e-05
1.45079e-05
1.45093e-05
1.45107e-05
1.45121e-05
1.45135e-05
1.45149e-05
1.45163e-05
1.45177e-05
1.45191e-05
1.45205e-05
1.4522e-05
1.45234e-05
1.45249e-05
1.45264e-05
1.4528e-05
1.45296e-05
1.45312e-05
1.45329e-05
1.45346e-05
1.45363e-05
1.45382e-05
1.454e-05
1.45419e-05
1.45439e-05
1.45459e-05
1.4548e-05
1.45501e-05
1.45523e-05
1.45545e-05
1.45567e-05
1.4559e-05
1.45614e-05
1.45638e-05
1.45662e-05
1.45686e-05
1.45711e-05
1.45736e-05
1.45762e-05
1.45788e-05
1.45814e-05
1.4584e-05
1.45867e-05
1.45894e-05
1.45922e-05
1.45949e-05
1.45978e-05
1.46006e-05
1.46035e-05
1.46065e-05
1.46095e-05
1.46126e-05
1.46157e-05
1.4619e-05
1.46223e-05
1.46256e-05
1.46291e-05
1.46327e-05
1.46363e-05
1.46401e-05
1.46439e-05
1.46479e-05
1.46519e-05
1.46561e-05
1.46603e-05
1.46647e-05
1.46692e-05
1.46737e-05
1.46784e-05
1.46832e-05
1.46882e-05
1.46932e-05
1.46983e-05
1.47036e-05
1.47089e-05
1.47144e-05
1.472e-05
1.47257e-05
1.47316e-05
1.47376e-05
1.47437e-05
1.47499e-05
1.47563e-05
1.47628e-05
1.47694e-05
1.47762e-05
1.47832e-05
1.47902e-05
1.47975e-05
1.48049e-05
1.48124e-05