/*--------------------------------*- C++ -*----------------------------------*\
| =========                 |                                                 |
| \\      /  F ield         | OpenFOAM: The Open Source CFD Toolbox           |
|  \\    /   O peration     | Version:  v1706                                 |
|   \\  /    A nd           | Web:      www.OpenFOAM.com                      |
|    \\/     M anipulation  |                                                 |
\*---------------------------------------------------------------------------*/
FoamFile
{
    version     2.0;
    format      ascii;
    class       volScalarField;
    location    "1.4e-05";
    object      rho;
}
// * * * * * * * * * * * * * * * * * * * * * * * * * * * * * * * * * * * * * //

dimensions      [1 -3 0 0 0 0 0];


internalField   nonuniform List<scalar> 
30104
(
0.000511407
0.00051141
0.000511413
0.000511417
0.00051142
0.000511422
0.000511425
0.000511427
0.000511429
0.000511431
0.000511432
0.000511433
0.000511434
0.000511435
0.000511435
0.000511435
0.000511435
0.000511372
0.000511373
0.000511373
0.000511374
0.000511374
0.000511375
0.000511376
0.000511376
0.000511377
0.000511378
0.000511378
0.000511379
0.00051138
0.000511381
0.000511381
0.000511382
0.000511383
0.000511384
0.000511384
0.000511385
0.000511386
0.000511387
0.000511388
0.000511389
0.00051139
0.000511391
0.000511392
0.000511393
0.000511394
0.000511395
0.000511396
0.000511397
0.000511398
0.000511399
0.0005114
0.000511401
0.000511402
0.000511403
0.000511404
0.000511405
0.000511406
0.000511407
0.000511408
0.000511409
0.00051141
0.000511411
0.000511412
0.000511413
0.000511414
0.000511415
0.000511416
0.000511417
0.000511418
0.000511419
0.00051142
0.000511421
0.000511422
0.000511423
0.000511424
0.000511425
0.000511426
0.000511427
0.000511428
0.000511429
0.00051143
0.000511431
0.000511431
0.000511432
0.000511433
0.000511434
0.000511435
0.000511436
0.000511437
0.000511438
0.000511439
0.00051144
0.000511441
0.000511442
0.000511443
0.000511445
0.000511446
0.000511447
0.000511448
0.00051145
0.000511451
0.000511453
0.000511454
0.000511456
0.000511457
0.000511459
0.000511461
0.000511463
0.000511464
0.000511466
0.000511468
0.000511471
0.000511473
0.000511475
0.000511477
0.00051148
0.000511482
0.000511485
0.000511487
0.00051149
0.000511492
0.000511495
0.000511498
0.000511501
0.000511504
0.000511507
0.00051151
0.000511513
0.000511517
0.00051152
0.000511523
0.000511527
0.00051153
0.000511534
0.000511537
0.000511541
0.000511544
0.000511548
0.000511552
0.000511555
0.000511559
0.000511562
0.000511566
0.00051157
0.000511573
0.000511577
0.00051158
0.000511584
0.000511587
0.00051159
0.000511593
0.000511597
0.0005116
0.000511603
0.000511606
0.000511609
0.000511612
0.000511614
0.000511617
0.00051162
0.000511623
0.000511625
0.000511628
0.000511631
0.000511633
0.000511636
0.000511639
0.000511641
0.000511644
0.000511647
0.00051165
0.000511653
0.000511655
0.000511658
0.000511661
0.000511664
0.000511667
0.00051167
0.000511673
0.000511677
0.00051168
0.000511683
0.000511687
0.00051169
0.000511694
0.000511698
0.000511701
0.000511705
0.000511709
0.000511713
0.000511717
0.000511722
0.000511726
0.000511731
0.000511735
0.00051174
0.000511745
0.00051175
0.000511756
0.000511761
0.000511767
0.000511772
0.000511778
0.000511784
0.000511791
0.000511797
0.000511803
0.000511807
0.000511779
0.000511867
0.000511887
0.000511906
0.000511925
0.000511943
0.00051196
0.000511976
0.000511991
0.000512005
0.000512018
0.00051203
0.00051204
0.000512049
0.000512056
0.000512062
0.000512066
0.000512069
0.000511746
0.000511751
0.000511756
0.000511761
0.000511766
0.000511771
0.000511776
0.000511781
0.000511787
0.000511792
0.000511797
0.000511803
0.000511809
0.000511814
0.00051182
0.000511826
0.000511832
0.000511838
0.000511844
0.00051185
0.000511856
0.000511862
0.000511868
0.000511874
0.000511881
0.000511887
0.000511893
0.0005119
0.000511906
0.000511912
0.000511919
0.000511926
0.000511932
0.000511939
0.000511946
0.000511953
0.00051196
0.000511967
0.000511974
0.000511981
0.000511988
0.000511996
0.000512003
0.000512011
0.000512019
0.000512027
0.000512035
0.000512043
0.000512052
0.00051206
0.000512069
0.000512078
0.000512087
0.000512096
0.000512106
0.000512115
0.000512125
0.000512135
0.000512145
0.000512156
0.000512167
0.000512178
0.000512189
0.0005122
0.000512212
0.000512224
0.000512236
0.000512249
0.000512261
0.000512274
0.000512288
0.000512301
0.000512315
0.000512329
0.000512343
0.000512357
0.000512372
0.000512387
0.000512402
0.000512417
0.000512433
0.000512448
0.000512464
0.00051248
0.000512496
0.000512512
0.000512528
0.000512545
0.000512561
0.000512578
0.000512594
0.000512611
0.000512628
0.000512645
0.000512662
0.000512679
0.000512697
0.000512714
0.000512731
0.000512749
0.000512767
0.000512784
0.000512802
0.00051282
0.000512839
0.000512857
0.000512875
0.000512894
0.000512913
0.000512932
0.000512951
0.000512971
0.00051299
0.00051301
0.000513031
0.000513051
0.000513072
0.000513093
0.000513115
0.000513136
0.000513158
0.000513181
0.000513204
0.000513227
0.00051325
0.000513274
0.000513299
0.000513323
0.000513348
0.000513374
0.0005134
0.000513427
0.000513453
0.000513481
0.000513509
0.000513537
0.000513566
0.000513595
0.000513625
0.000513656
0.000513687
0.000513719
0.000513751
0.000513784
0.000513817
0.000513852
0.000513886
0.000513922
0.000513958
0.000513995
0.000514032
0.000514071
0.00051411
0.000514149
0.00051419
0.000514231
0.000514274
0.000514317
0.000514361
0.000514406
0.000514453
0.0005145
0.000514549
0.000514598
0.000514649
0.000514702
0.000514755
0.000514811
0.000514867
0.000514925
0.000514985
0.000515046
0.000515109
0.000515174
0.00051524
0.000515308
0.000515377
0.000515448
0.000515521
0.000515595
0.00051567
0.000515747
0.000515826
0.000515905
0.000515986
0.000516068
0.000516151
0.000516235
0.00051632
0.000516404
0.000516491
0.00051658
0.000516491
0.000513052
0.000513118
0.000513182
0.000513244
0.000513304
0.00051336
0.000513413
0.000513463
0.000513508
0.00051355
0.000513587
0.000513619
0.000513647
0.000513669
0.000513687
0.000513701
0.000512844
0.000512863
0.000512882
0.000512902
0.000512922
0.000512942
0.000512963
0.000512983
0.000513004
0.000513026
0.000513047
0.000513069
0.000513092
0.000513114
0.000513137
0.000513161
0.000513185
0.000513209
0.000513233
0.000513259
0.000513284
0.00051331
0.000513336
0.000513363
0.00051339
0.000513418
0.000513446
0.000513475
0.000513504
0.000513534
0.000513564
0.000513595
0.000513626
0.000513658
0.00051369
0.000513723
0.000513756
0.000513789
0.000513824
0.000513858
0.000513893
0.000513929
0.000513964
0.000514001
0.000514037
0.000514074
0.000514112
0.00051415
0.000514188
0.000514227
0.000514267
0.000514306
0.000514347
0.000514388
0.000514429
0.000514471
0.000514513
0.000514556
0.000514599
0.000514643
0.000514687
0.000514732
0.000514777
0.000514823
0.000514869
0.000514916
0.000514964
0.000515012
0.000515061
0.00051511
0.00051516
0.00051521
0.000515261
0.000515313
0.000515366
0.000515419
0.000515473
0.000515528
0.000515583
0.00051564
0.000515697
0.000515756
0.000515815
0.000515875
0.000515937
0.000516
0.000516064
0.000516129
0.000516195
0.000516263
0.000516333
0.000516404
0.000516476
0.00051655
0.000516626
0.000516703
0.000516783
0.000516864
0.000516947
0.000517031
0.000517118
0.000517207
0.000517298
0.000517391
0.000517487
0.000517584
0.000517684
0.000517787
0.000517892
0.000517999
0.000518109
0.000518222
0.000518338
0.000518456
0.000518577
0.000518701
0.000518828
0.000518958
0.00051909
0.000519225
0.000519363
0.000519504
0.000519648
0.000519794
0.000519943
0.000520095
0.000520249
0.000520405
0.000520564
0.000520725
0.000520888
0.000521053
0.000521219
0.000521387
0.000521557
0.000521728
0.0005219
0.000522073
0.000522247
0.000522422
0.000522598
0.000522775
0.000522952
0.000523129
0.000523308
0.000523487
0.000523666
0.000523847
0.000524028
0.000524211
0.000524395
0.00052458
0.000524767
0.000524957
0.000525148
0.000525343
0.00052554
0.00052574
0.000525944
0.000526151
0.000526362
0.000526577
0.000526797
0.000527021
0.000527249
0.000527483
0.000527722
0.000527966
0.000528216
0.000528471
0.000528732
0.000528999
0.000529273
0.000529552
0.000529838
0.000530131
0.00053043
0.000530736
0.000531049
0.00053137
0.000531698
0.000532034
0.000532377
0.000532729
0.000533089
0.000533456
0.000533834
0.000534217
0.000534613
0.000535014
0.00053541
0.000535971
0.000535768
0.000515894
0.000516062
0.000516225
0.000516384
0.000516538
0.000516685
0.000516825
0.000516957
0.00051708
0.000517194
0.000517298
0.000517391
0.000517472
0.000517542
0.000517598
0.00051764
0.00051596
0.000516026
0.000516094
0.000516162
0.000516231
0.0005163
0.000516371
0.000516442
0.000516515
0.000516588
0.000516663
0.000516739
0.000516816
0.000516894
0.000516973
0.000517054
0.000517136
0.000517219
0.000517304
0.00051739
0.000517477
0.000517565
0.000517655
0.000517746
0.000517838
0.000517931
0.000518026
0.000518122
0.000518219
0.000518318
0.000518418
0.000518519
0.000518621
0.000518724
0.00051883
0.000518936
0.000519044
0.000519153
0.000519265
0.000519377
0.000519492
0.000519609
0.000519727
0.000519848
0.000519971
0.000520096
0.000520224
0.000520354
0.000520486
0.000520622
0.00052076
0.000520901
0.000521045
0.000521193
0.000521343
0.000521497
0.000521655
0.000521816
0.000521981
0.00052215
0.000522323
0.0005225
0.000522681
0.000522867
0.000523058
0.000523253
0.000523453
0.000523658
0.000523868
0.000524083
0.000524303
0.000524528
0.000524759
0.000524996
0.000525237
0.000525484
0.000525737
0.000525995
0.000526258
0.000526527
0.000526801
0.000527079
0.000527363
0.000527651
0.000527944
0.000528241
0.000528543
0.000528848
0.000529157
0.00052947
0.000529785
0.000530104
0.000530426
0.000530751
0.000531078
0.000531408
0.00053174
0.000532075
0.000532413
0.000532753
0.000533097
0.000533443
0.000533793
0.000534146
0.000534503
0.000534864
0.000535229
0.000535599
0.000535973
0.000536353
0.000536738
0.000537129
0.000537527
0.000537931
0.000538342
0.000538761
0.000539188
0.000539623
0.000540067
0.000540519
0.000540982
0.000541455
0.000541937
0.000542431
0.000542936
0.000543453
0.000543982
0.000544523
0.000545078
0.000545645
0.000546226
0.000546821
0.000547431
0.000548055
0.000548693
0.000549348
0.000550017
0.000550703
0.000551404
0.000552122
0.000552856
0.000553607
0.000554376
0.000555161
0.000555964
0.000556785
0.000557623
0.00055848
0.000559356
0.00056025
0.000561164
0.000562097
0.00056305
0.000564023
0.000565018
0.000566035
0.000567074
0.000568137
0.000569223
0.000570335
0.000571473
0.000572638
0.000573833
0.000575057
0.000576314
0.000577605
0.000578932
0.000580297
0.000581704
0.000583155
0.000584653
0.0005862
0.000587803
0.000589462
0.000591184
0.000592968
0.000594827
0.000596754
0.000598766
0.000600855
0.000603038
0.000605306
0.000607678
0.000610144
0.000612721
0.000615405
0.000618198
0.000621126
0.000624121
0.000627363
0.000630447
0.00063413
0.000637583
0.000522776
0.000523207
0.000523628
0.000524035
0.000524427
0.0005248
0.000525153
0.000525482
0.000525786
0.000526064
0.000526312
0.000526531
0.000526719
0.000526874
0.000526999
0.000524262
0.000524465
0.00052467
0.000524879
0.00052509
0.000525304
0.000525522
0.000525744
0.000525969
0.000526199
0.000526432
0.00052667
0.000526912
0.000527159
0.000527411
0.000527667
0.000527929
0.000528195
0.000528467
0.000528745
0.000529029
0.000529318
0.000529613
0.000529915
0.000530224
0.000530539
0.000530861
0.00053119
0.000531527
0.000531871
0.000532223
0.000532583
0.000532951
0.000533327
0.000533711
0.000534104
0.000534505
0.000534915
0.000535333
0.000535759
0.000536194
0.000536636
0.000537086
0.000537544
0.00053801
0.000538483
0.000538963
0.000539451
0.000539946
0.000540448
0.000540957
0.000541473
0.000541998
0.00054253
0.00054307
0.000543618
0.000544174
0.000544739
0.000545313
0.000545896
0.000546489
0.000547091
0.000547702
0.000548324
0.000548956
0.000549599
0.000550253
0.000550918
0.000551594
0.000552282
0.000552982
0.000553695
0.00055442
0.000555158
0.000555909
0.000556674
0.000557453
0.000558246
0.000559053
0.000559876
0.000560714
0.000561568
0.000562439
0.000563326
0.000564231
0.000565154
0.000566096
0.000567058
0.00056804
0.000569042
0.000570067
0.000571114
0.000572185
0.000573281
0.000574402
0.00057555
0.000576725
0.000577929
0.000579163
0.000580429
0.000581728
0.000583061
0.000584431
0.00058584
0.000587288
0.000588779
0.000590315
0.000591898
0.000593531
0.000595216
0.000596957
0.000598756
0.000600616
0.000602542
0.000604535
0.000606601
0.000608742
0.000610962
0.000613267
0.000615659
0.000618143
0.000620725
0.000623407
0.000626195
0.000629093
0.000632105
0.000635235
0.000638488
0.000641867
0.000645375
0.000649015
0.000652789
0.000656698
0.000660745
0.000664929
0.000669251
0.000673708
0.000678301
0.000683027
0.000687882
0.000692864
0.000697968
0.000703191
0.000708527
0.000713971
0.000719518
0.000725163
0.000730901
0.000736726
0.000742626
0.000748554
0.000754496
0.000760455
0.000766429
0.00077242
0.000778429
0.000784458
0.000790509
0.000796584
0.000802688
0.000808821
0.000814989
0.000821193
0.000827438
0.000833724
0.000840059
0.000846438
0.000852871
0.000859349
0.000865888
0.000872466
0.000879112
0.000885784
0.000892534
0.000899288
0.000906132
0.000912946
0.000919868
0.000926715
0.00093369
0.000940535
0.000947533
0.000954338
0.000961325
0.000968047
0.000974989
0.000981586
0.000988445
0.000994903
0.00100158
0.00100813
0.00101386
0.00102285
0.00053736
0.000538338
0.000539294
0.000540222
0.000541119
0.000541981
0.000542804
0.000543586
0.000544321
0.000545006
0.000545636
0.000546208
0.000546719
0.000547163
0.000547536
0.000547831
0.000546298
0.000546929
0.000547569
0.000548216
0.000548873
0.000549538
0.000550213
0.000550897
0.000551593
0.000552299
0.000553018
0.000553749
0.000554493
0.000555251
0.000556023
0.00055681
0.000557613
0.000558431
0.000559266
0.000560118
0.000560987
0.000561874
0.000562779
0.000563703
0.000564645
0.000565607
0.000566588
0.000567588
0.000568609
0.00056965
0.000570711
0.000571792
0.000572894
0.000574017
0.00057516
0.000576325
0.000577511
0.000578718
0.000579946
0.000581197
0.000582471
0.000583768
0.000585088
0.000586433
0.000587803
0.0005892
0.000590624
0.000592077
0.000593559
0.000595073
0.000596619
0.0005982
0.000599816
0.00060147
0.000603163
0.000604898
0.000606677
0.000608502
0.000610377
0.000612304
0.000614286
0.000616326
0.000618428
0.000620595
0.000622831
0.00062514
0.000627527
0.000629995
0.00063255
0.000635196
0.000637937
0.000640781
0.000643731
0.000646793
0.000649973
0.000653276
0.000656708
0.000660274
0.00066398
0.000667832
0.000671833
0.000675989
0.000680304
0.000684781
0.000689424
0.000694234
0.000699213
0.000704361
0.000709678
0.000715162
0.00072081
0.000726618
0.000732579
0.000738688
0.000744936
0.000751315
0.000757814
0.000764407
0.000771047
0.000777723
0.000784428
0.000791157
0.000797903
0.000804663
0.000811431
0.000818202
0.000824975
0.000831744
0.000838509
0.000845267
0.000852017
0.000858756
0.000865484
0.000872199
0.0008789
0.000885586
0.000892255
0.000898905
0.000905535
0.000912142
0.000918723
0.000925275
0.000931793
0.000938274
0.000944713
0.000951104
0.000957442
0.000963721
0.000969935
0.000976079
0.000982146
0.000988133
0.000994032
0.000999842
0.00100556
0.00101118
0.0010167
0.00102212
0.00102744
0.00103266
0.00103779
0.00104282
0.00104777
0.00105263
0.00105741
0.00106211
0.00106675
0.00107133
0.00107584
0.00108032
0.0010848
0.00108931
0.00109383
0.00109838
0.00110296
0.00110755
0.00111215
0.00111677
0.00112139
0.00112601
0.00113061
0.0011352
0.00113975
0.00114426
0.00114872
0.00115311
0.00115743
0.00116166
0.0011658
0.00116982
0.00117373
0.0011775
0.00118115
0.00118464
0.001188
0.00119117
0.00119423
0.00119707
0.00119983
0.00120233
0.00120481
0.00120698
0.00120918
0.00121103
0.00121301
0.00121455
0.00121636
0.00121758
0.00121931
0.00122016
0.00122192
0.0012223
0.00122425
0.000571892
0.000574227
0.000576502
0.000578707
0.000580831
0.000582862
0.00058479
0.000586601
0.000588282
0.000589822
0.000591214
0.000592447
0.000593515
0.000601825
0.00060358
0.000605361
0.00060717
0.000609009
0.00061088
0.000612787
0.000614731
0.000616714
0.000618738
0.000620805
0.000622916
0.000625074
0.000627279
0.000629534
0.000631841
0.000634202
0.000636618
0.000639093
0.000641628
0.000644226
0.000646891
0.000649625
0.000652433
0.000655317
0.000658283
0.000661333
0.000664474
0.000667709
0.000671045
0.000674486
0.000678039
0.000681708
0.000685501
0.000689422
0.000693479
0.000697675
0.000702018
0.000706512
0.000711162
0.000715972
0.000720946
0.000726087
0.000731397
0.000736878
0.00074253
0.000748352
0.000754343
0.000760499
0.000766818
0.000773287
0.000779859
0.000786514
0.00079325
0.000800062
0.000806946
0.000813897
0.00082091
0.000827979
0.000835098
0.000842263
0.000849465
0.000856698
0.000863958
0.000871235
0.000878523
0.000885816
0.000893104
0.000900381
0.000907639
0.000914868
0.000922061
0.000929208
0.0009363
0.000943327
0.00095028
0.00095715
0.000963926
0.000970599
0.000977159
0.000983598
0.000989907
0.000996077
0.0010021
0.00100798
0.0010137
0.00101925
0.00102465
0.00102988
0.00103494
0.00103985
0.00104459
0.00104917
0.00105361
0.0010579
0.00106206
0.00106609
0.00107002
0.0010739
0.00107774
0.00108155
0.00108534
0.0010891
0.00109286
0.00109661
0.00110035
0.0011041
0.00110785
0.00111161
0.00111537
0.00111914
0.00112291
0.00112668
0.00113044
0.0011342
0.00113794
0.00114166
0.00114535
0.00114901
0.00115263
0.0011562
0.00115971
0.00116317
0.00116655
0.00116987
0.00117311
0.00117627
0.00117935
0.00118234
0.00118525
0.00118808
0.00119082
0.00119347
0.00119604
0.00119853
0.00120094
0.00120326
0.00120551
0.00120769
0.00120978
0.00121181
0.00121376
0.00121563
0.00121744
0.00121917
0.00122082
0.00122241
0.00122391
0.00122535
0.0012267
0.00122798
0.00122917
0.00123028
0.00123131
0.00123226
0.00123312
0.00123391
0.00123461
0.00123524
0.0012358
0.0012363
0.00123675
0.00123714
0.00123749
0.00123781
0.0012381
0.00123836
0.00123861
0.00123885
0.00123907
0.00123929
0.0012395
0.00123972
0.00123993
0.00124014
0.00124035
0.00124059
0.0012408
0.00124105
0.00124128
0.00124156
0.00124179
0.0012421
0.00124234
0.00124269
0.00124294
0.00124332
0.00124357
0.00124398
0.00124422
0.00124467
0.00124489
0.0012453
0.000645517
0.000650136
0.0006546
0.000658883
0.000662966
0.000666833
0.000670466
0.000673853
0.000676995
0.000679889
0.000682519
0.000684878
0.000686961
0.000742036
0.000747264
0.00075261
0.000758079
0.000763674
0.000769396
0.000775245
0.000781223
0.000787328
0.000793523
0.000799787
0.000806122
0.000812529
0.000819007
0.000825555
0.000832172
0.000838857
0.000845606
0.000852419
0.000859293
0.000866224
0.00087321
0.000880247
0.00088733
0.000894454
0.000901614
0.000908803
0.000916012
0.000923235
0.000930459
0.000937676
0.000944873
0.000952038
0.000959156
0.000966215
0.000973201
0.000980096
0.00098689
0.000993566
0.00100011
0.00100651
0.00101276
0.00101885
0.00102476
0.00103049
0.00103604
0.0010414
0.00104657
0.00105155
0.00105635
0.00106098
0.00106547
0.00106986
0.00107415
0.00107834
0.00108244
0.00108644
0.00109036
0.00109421
0.00109797
0.00110167
0.00110529
0.00110885
0.00111235
0.00111578
0.00111916
0.00112248
0.00112575
0.00112896
0.00113212
0.00113522
0.00113827
0.00114127
0.00114421
0.0011471
0.00114994
0.00115273
0.00115548
0.00115817
0.00116082
0.00116343
0.00116601
0.00116854
0.00117104
0.00117351
0.00117596
0.00117838
0.00118077
0.00118315
0.0011855
0.00118784
0.00119016
0.00119246
0.00119475
0.00119701
0.00119926
0.00120149
0.00120368
0.00120585
0.00120799
0.00121008
0.00121213
0.00121413
0.00121607
0.00121795
0.00121976
0.00122149
0.00122314
0.00122471
0.00122618
0.00122757
0.00122886
0.00123005
0.00123115
0.00123215
0.00123307
0.0012339
0.00123464
0.00123531
0.0012359
0.00123642
0.00123689
0.0012373
0.00123767
0.001238
0.00123829
0.00123855
0.00123879
0.00123902
0.00123923
0.00123943
0.00123963
0.00123982
0.00124002
0.00124022
0.00124042
0.00124063
0.00124084
0.00124106
0.00124128
0.00124152
0.00124176
0.001242
0.00124226
0.00124252
0.00124279
0.00124306
0.00124334
0.00124362
0.00124391
0.0012442
0.00124449
0.00124478
0.00124507
0.00124535
0.00124562
0.00124589
0.00124614
0.00124637
0.0012466
0.00124681
0.00124702
0.00124721
0.00124739
0.00124755
0.00124769
0.00124781
0.00124791
0.00124799
0.00124805
0.0012481
0.00124812
0.00124813
0.00124813
0.00124812
0.0012481
0.00124807
0.00124805
0.00124802
0.00124799
0.00124797
0.00124795
0.00124794
0.00124794
0.00124792
0.00124794
0.00124793
0.00124795
0.00124794
0.00124798
0.00124798
0.00124804
0.00124779
0.000790606
0.000801263
0.000811483
0.000821214
0.000830411
0.000839034
0.000847052
0.000854464
0.000861261
0.00086733
0.000872578
0.000877043
0.000880791
0.000883761
0.000999522
0.0010061
0.00101251
0.00101875
0.00102481
0.0010307
0.00103642
0.00104196
0.00104734
0.00105259
0.00105774
0.00106279
0.00106773
0.00107257
0.00107731
0.00108195
0.00108648
0.00109091
0.00109524
0.00109946
0.00110358
0.00110759
0.00111149
0.00111527
0.00111895
0.00112251
0.00112596
0.00112929
0.0011325
0.0011356
0.00113859
0.00114147
0.00114425
0.00114693
0.00114951
0.00115201
0.00115442
0.00115677
0.00115905
0.00116127
0.00116345
0.00116558
0.00116769
0.00116976
0.00117183
0.00117387
0.00117591
0.00117794
0.00117997
0.00118201
0.00118404
0.00118607
0.00118811
0.00119014
0.00119216
0.00119418
0.00119618
0.00119817
0.00120014
0.00120208
0.00120399
0.00120586
0.0012077
0.0012095
0.00121124
0.00121294
0.00121458
0.00121617
0.00121769
0.00121916
0.00122056
0.0012219
0.00122318
0.00122439
0.00122554
0.00122664
0.00122767
0.00122865
0.00122958
0.00123045
0.00123128
0.00123206
0.00123279
0.00123349
0.00123414
0.00123476
0.00123534
0.00123588
0.00123639
0.00123686
0.0012373
0.00123771
0.00123809
0.00123844
0.00123876
0.00123905
0.00123933
0.00123958
0.00123981
0.00124003
0.00124023
0.00124042
0.0012406
0.00124077
0.00124094
0.00124111
0.00124127
0.00124143
0.00124159
0.00124175
0.00124191
0.00124207
0.00124223
0.00124239
0.00124255
0.00124272
0.00124288
0.00124303
0.00124319
0.00124334
0.00124348
0.00124363
0.00124377
0.0012439
0.00124403
0.00124417
0.0012443
0.00124443
0.00124456
0.00124469
0.00124482
0.00124494
0.00124507
0.00124519
0.00124531
0.00124543
0.00124555
0.00124567
0.00124578
0.00124589
0.00124599
0.0012461
0.0012462
0.00124629
0.00124638
0.00124646
0.00124654
0.00124661
0.00124667
0.00124673
0.00124678
0.00124682
0.00124685
0.00124688
0.0012469
0.00124692
0.00124694
0.00124696
0.00124698
0.00124699
0.00124699
0.00124698
0.00124695
0.0012469
0.00124684
0.00124675
0.00124664
0.00124652
0.00124639
0.00124623
0.00124607
0.0012459
0.00124572
0.00124553
0.00124534
0.00124516
0.00124497
0.00124478
0.0012446
0.00124442
0.00124424
0.00124408
0.00124391
0.00124375
0.00124358
0.00124342
0.00124325
0.0012431
0.00124293
0.00124278
0.0012426
0.00124244
0.00124165
0.00102788
0.00103614
0.00104338
0.00104965
0.00105502
0.00105952
0.00106319
0.00106608
0.00106814
0.00106955
0.00107071
0.00107131
0.00107135
0.00107114
0.00115481
0.00115735
0.0011598
0.00116216
0.00116445
0.00116668
0.00116882
0.00117091
0.00117297
0.00117497
0.00117692
0.00117885
0.00118076
0.00118262
0.00118445
0.00118626
0.00118805
0.00118981
0.00119154
0.00119324
0.00119491
0.00119655
0.00119816
0.00119974
0.00120129
0.0012028
0.00120428
0.00120573
0.00120714
0.00120853
0.00120989
0.00121123
0.00121254
0.00121382
0.00121509
0.00121633
0.00121755
0.00121875
0.00121994
0.0012211
0.00122223
0.00122334
0.00122442
0.00122548
0.0012265
0.00122749
0.00122844
0.00122935
0.00123021
0.00123103
0.0012318
0.00123252
0.00123319
0.00123381
0.00123439
0.00123491
0.00123539
0.00123582
0.00123621
0.00123656
0.00123688
0.00123715
0.00123741
0.00123763
0.00123783
0.00123801
0.00123817
0.00123832
0.00123846
0.00123859
0.00123871
0.00123882
0.00123894
0.00123905
0.00123917
0.00123929
0.00123941
0.00123953
0.00123966
0.0012398
0.00123994
0.00124009
0.00124024
0.0012404
0.00124056
0.00124073
0.00124089
0.00124106
0.00124124
0.0012414
0.00124157
0.00124174
0.0012419
0.00124206
0.00124222
0.00124237
0.00124252
0.00124266
0.00124279
0.00124292
0.00124303
0.00124314
0.00124323
0.00124332
0.0012434
0.00124347
0.00124354
0.00124359
0.00124364
0.00124369
0.00124373
0.00124377
0.0012438
0.00124383
0.00124386
0.00124389
0.00124391
0.00124394
0.00124397
0.001244
0.00124404
0.00124407
0.00124412
0.00124416
0.00124421
0.00124426
0.0012443
0.00124435
0.00124438
0.00124442
0.00124445
0.00124447
0.00124449
0.0012445
0.00124451
0.00124451
0.0012445
0.00124449
0.00124447
0.00124445
0.00124441
0.00124437
0.00124432
0.00124427
0.0012442
0.00124412
0.00124404
0.00124394
0.00124383
0.00124372
0.00124359
0.00124345
0.0012433
0.00124314
0.00124297
0.00124278
0.00124258
0.00124236
0.00124213
0.00124187
0.00124159
0.0012413
0.00124098
0.00124065
0.00124031
0.00123995
0.00123959
0.00123921
0.00123883
0.00123844
0.00123804
0.00123764
0.00123724
0.00123684
0.00123643
0.00123603
0.00123562
0.00123521
0.00123479
0.00123437
0.00123394
0.00123351
0.00123306
0.0012326
0.00123213
0.00123164
0.00123114
0.00123062
0.00123008
0.00122952
0.00122891
0.0012283
0.00122619
0.00117676
0.00117934
0.00118146
0.00118313
0.00118439
0.00118523
0.00118562
0.00118555
0.00118544
0.00118624
0.00118575
0.00118345
0.00118159
0.00118124
0.00121009
0.00121148
0.00121283
0.00121416
0.00121544
0.00121668
0.00121789
0.00121906
0.00122017
0.00122125
0.00122231
0.00122331
0.00122425
0.00122516
0.00122604
0.00122685
0.00122761
0.00122835
0.00122903
0.00122966
0.00123025
0.0012308
0.00123132
0.0012318
0.00123224
0.00123266
0.00123305
0.00123341
0.00123375
0.00123407
0.00123437
0.00123466
0.00123492
0.00123518
0.00123542
0.00123565
0.00123587
0.00123608
0.00123628
0.00123647
0.00123666
0.00123685
0.00123702
0.0012372
0.00123737
0.00123753
0.0012377
0.00123786
0.00123803
0.00123819
0.00123835
0.00123851
0.00123866
0.00123881
0.00123896
0.0012391
0.00123924
0.00123937
0.00123949
0.0012396
0.00123971
0.00123981
0.00123991
0.00123999
0.00124007
0.00124014
0.00124021
0.00124026
0.00124031
0.00124036
0.00124041
0.00124045
0.0012405
0.00124054
0.00124058
0.00124063
0.00124068
0.00124074
0.0012408
0.00124086
0.00124093
0.001241
0.00124108
0.00124116
0.00124125
0.00124134
0.00124143
0.00124153
0.00124163
0.00124173
0.00124183
0.00124193
0.00124202
0.00124212
0.00124221
0.00124228
0.00124235
0.00124241
0.00124245
0.00124249
0.00124251
0.00124252
0.00124252
0.00124251
0.00124249
0.00124246
0.00124242
0.00124237
0.00124232
0.00124226
0.0012422
0.00124213
0.00124206
0.00124199
0.00124191
0.00124184
0.00124176
0.00124168
0.00124161
0.00124153
0.00124145
0.00124137
0.00124128
0.00124119
0.00124108
0.00124098
0.00124086
0.00124074
0.00124061
0.00124047
0.00124032
0.00124017
0.00124
0.00123983
0.00123964
0.00123945
0.00123924
0.00123903
0.0012388
0.00123856
0.0012383
0.00123803
0.00123775
0.00123745
0.00123713
0.0012368
0.00123645
0.00123608
0.0012357
0.00123529
0.00123487
0.00123443
0.00123397
0.00123349
0.00123299
0.00123247
0.00123193
0.00123137
0.00123079
0.0012302
0.00122959
0.00122897
0.00122833
0.00122768
0.00122702
0.00122635
0.00122566
0.00122497
0.00122427
0.00122356
0.00122284
0.00122211
0.00122137
0.00122062
0.00121985
0.00121907
0.00121827
0.00121746
0.00121662
0.00121576
0.00121487
0.00121396
0.00121303
0.00121206
0.00121107
0.00121004
0.00120899
0.00120789
0.00120679
0.00120559
0.00120434
0.00120301
0.00119876
0.00124903
0.00124679
0.00124423
0.00124146
0.00123852
0.00123547
0.00123228
0.00122889
0.00122575
0.00122292
0.00121973
0.00121592
0.00121223
0.00123006
0.00123056
0.00123105
0.00123151
0.00123194
0.00123235
0.00123274
0.00123307
0.00123338
0.00123369
0.00123395
0.00123416
0.0012344
0.00123461
0.00123478
0.00123495
0.00123513
0.00123529
0.00123544
0.0012356
0.00123575
0.0012359
0.00123604
0.00123618
0.00123633
0.00123647
0.0012366
0.00123673
0.00123687
0.00123699
0.00123712
0.00123724
0.00123735
0.00123747
0.00123759
0.0012377
0.00123781
0.00123792
0.00123802
0.00123812
0.00123822
0.00123832
0.00123841
0.0012385
0.00123859
0.00123867
0.00123875
0.00123883
0.00123891
0.00123899
0.00123906
0.00123914
0.00123921
0.00123928
0.00123935
0.00123941
0.00123948
0.00123954
0.0012396
0.00123966
0.00123971
0.00123975
0.00123979
0.00123982
0.00123984
0.00123986
0.00123987
0.00123988
0.00123988
0.00123988
0.00123988
0.00123988
0.00123987
0.00123987
0.00123987
0.00123987
0.00123988
0.00123988
0.00123989
0.0012399
0.00123991
0.00123992
0.00123993
0.00123995
0.00123996
0.00123998
0.00123999
0.00124
0.00124
0.00124
0.00123998
0.00123996
0.00123992
0.00123987
0.00123981
0.00123974
0.00123965
0.00123955
0.00123944
0.00123931
0.00123917
0.00123902
0.00123886
0.00123869
0.00123851
0.00123833
0.00123813
0.00123793
0.00123772
0.0012375
0.00123728
0.00123705
0.00123682
0.00123659
0.00123635
0.0012361
0.00123585
0.00123559
0.00123532
0.00123504
0.00123476
0.00123446
0.00123415
0.00123384
0.00123351
0.00123317
0.00123282
0.00123246
0.00123208
0.00123169
0.00123128
0.00123086
0.00123042
0.00122997
0.00122949
0.001229
0.00122849
0.00122796
0.00122741
0.00122684
0.00122625
0.00122563
0.001225
0.00122434
0.00122365
0.00122294
0.00122221
0.00122146
0.00122068
0.00121988
0.00121905
0.00121821
0.00121734
0.00121645
0.00121554
0.00121461
0.00121366
0.00121269
0.00121171
0.0012107
0.00120969
0.00120865
0.0012076
0.00120653
0.00120545
0.00120435
0.00120323
0.0012021
0.00120095
0.00119977
0.00119858
0.00119736
0.00119611
0.00119484
0.00119355
0.00119222
0.00119086
0.00118947
0.00118805
0.00118659
0.0011851
0.00118357
0.00118201
0.0011804
0.00117878
0.0011771
0.00117542
0.00117366
0.00117189
0.00116994
0.00116787
0.00116552
0.00115827
0.00125703
0.00125332
0.00124963
0.00124597
0.00124233
0.00123874
0.00123509
0.00123132
0.00122792
0.00122469
0.00122113
0.00121714
0.00121343
0.00123362
0.00123394
0.00123423
0.00123452
0.0012348
0.00123502
0.00123523
0.00123546
0.00123561
0.00123573
0.0012359
0.00123603
0.00123609
0.00123619
0.00123631
0.00123638
0.00123644
0.00123653
0.0012366
0.00123667
0.00123674
0.00123681
0.00123688
0.00123695
0.00123701
0.00123709
0.00123717
0.00123722
0.00123731
0.00123739
0.00123744
0.00123753
0.00123761
0.00123767
0.00123774
0.00123781
0.00123787
0.00123792
0.00123798
0.00123804
0.00123808
0.00123813
0.00123817