/*--------------------------------*- C++ -*----------------------------------*\
| =========                 |                                                 |
| \\      /  F ield         | OpenFOAM: The Open Source CFD Toolbox           |
|  \\    /   O peration     | Version:  v1706                                 |
|   \\  /    A nd           | Web:      www.OpenFOAM.com                      |
|    \\/     M anipulation  |                                                 |
\*---------------------------------------------------------------------------*/
FoamFile
{
    version     2.0;
    format      ascii;
    class       volScalarField;
    location    "1.4e-05";
    object      Tt;
}
// * * * * * * * * * * * * * * * * * * * * * * * * * * * * * * * * * * * * * //

dimensions      [0 0 0 1 0 0 0];


internalField   nonuniform List<scalar> 
30104
(
144.444
144.445
144.446
144.448
144.449
144.45
144.451
144.452
144.453
144.454
144.454
144.455
144.455
144.455
144.456
144.456
144.456
144.427
144.427
144.427
144.427
144.428
144.428
144.428
144.428
144.429
144.429
144.429
144.429
144.43
144.43
144.43
144.431
144.431
144.431
144.431
144.432
144.432
144.432
144.433
144.433
144.433
144.434
144.434
144.434
144.435
144.435
144.435
144.436
144.436
144.436
144.437
144.437
144.437
144.438
144.438
144.439
144.439
144.439
144.44
144.44
144.44
144.441
144.441
144.442
144.442
144.442
144.443
144.443
144.444
144.444
144.444
144.445
144.445
144.446
144.446
144.447
144.447
144.448
144.448
144.449
144.449
144.449
144.45
144.45
144.451
144.451
144.452
144.452
144.453
144.454
144.454
144.455
144.455
144.456
144.456
144.457
144.457
144.458
144.459
144.459
144.46
144.46
144.461
144.462
144.462
144.463
144.464
144.464
144.465
144.466
144.466
144.467
144.468
144.468
144.469
144.47
144.471
144.471
144.472
144.473
144.474
144.475
144.475
144.476
144.477
144.478
144.479
144.48
144.481
144.482
144.483
144.484
144.485
144.486
144.487
144.488
144.489
144.49
144.491
144.492
144.493
144.494
144.495
144.497
144.498
144.499
144.5
144.501
144.502
144.503
144.505
144.506
144.507
144.508
144.509
144.51
144.512
144.513
144.514
144.515
144.516
144.517
144.519
144.52
144.521
144.522
144.523
144.525
144.526
144.527
144.528
144.53
144.531
144.532
144.534
144.535
144.536
144.538
144.539
144.541
144.542
144.544
144.545
144.547
144.549
144.55
144.552
144.554
144.556
144.558
144.56
144.562
144.564
144.566
144.568
144.57
144.572
144.575
144.577
144.579
144.582
144.584
144.587
144.589
144.592
144.594
144.596
144.595
144.568
144.648
144.656
144.664
144.671
144.678
144.685
144.691
144.697
144.702
144.707
144.711
144.714
144.717
144.719
144.72
144.721
144.721
144.573
144.575
144.577
144.579
144.581
144.583
144.585
144.587
144.589
144.591
144.593
144.595
144.597
144.599
144.601
144.603
144.605
144.608
144.61
144.612
144.614
144.617
144.619
144.622
144.624
144.626
144.629
144.631
144.634
144.637
144.639
144.642
144.644
144.647
144.65
144.653
144.655
144.658
144.661
144.664
144.667
144.67
144.673
144.676
144.679
144.682
144.685
144.688
144.691
144.694
144.698
144.701
144.705
144.708
144.711
144.715
144.719
144.722
144.726
144.73
144.734
144.738
144.742
144.746
144.75
144.754
144.758
144.763
144.767
144.771
144.776
144.781
144.785
144.79
144.795
144.8
144.805
144.81
144.815
144.82
144.825
144.83
144.835
144.841
144.846
144.852
144.857
144.863
144.868
144.874
144.88
144.885
144.891
144.897
144.903
144.909
144.915
144.921
144.927
144.934
144.94
144.946
144.953
144.959
144.966
144.973
144.98
144.987
144.994
145.001
145.009
145.016
145.024
145.032
145.04
145.048
145.056
145.064
145.073
145.082
145.091
145.1
145.109
145.118
145.128
145.137
145.147
145.157
145.167
145.177
145.188
145.198
145.209
145.22
145.23
145.241
145.253
145.264
145.275
145.286
145.298
145.309
145.321
145.333
145.345
145.356
145.368
145.381
145.393
145.405
145.417
145.43
145.443
145.455
145.468
145.482
145.495
145.509
145.522
145.536
145.551
145.565
145.58
145.595
145.611
145.627
145.643
145.66
145.677
145.694
145.712
145.73
145.749
145.769
145.788
145.809
145.83
145.851
145.873
145.895
145.918
145.942
145.966
145.991
146.016
146.041
146.068
146.094
146.121
146.149
146.179
146.182
146.049
145.15
145.175
145.199
145.222
145.243
145.264
145.283
145.3
145.316
145.33
145.342
145.353
145.361
145.368
145.372
145.375
144.99
144.998
145.005
145.012
145.019
145.027
145.034
145.042
145.05
145.058
145.065
145.073
145.082
145.09
145.098
145.107
145.115
145.124
145.133
145.142
145.151
145.161
145.17
145.18
145.189
145.199
145.209
145.219
145.23
145.24
145.251
145.262
145.273
145.284
145.295
145.307
145.318
145.33
145.342
145.354
145.366
145.378
145.391
145.403
145.416
145.429
145.442
145.455
145.469
145.482
145.496
145.51
145.524
145.539
145.553
145.568
145.583
145.599
145.614
145.63
145.646
145.662
145.679
145.696
145.713
145.73
145.748
145.766
145.785
145.803
145.822
145.842
145.861
145.881
145.901
145.922
145.943
145.964
145.986
146.008
146.03
146.052
146.075
146.098
146.122
146.145
146.169
146.194
146.218
146.243
146.269
146.294
146.32
146.346
146.372
146.399
146.426
146.454
146.482
146.51
146.538
146.567
146.597
146.627
146.657
146.688
146.72
146.752
146.784
146.818
146.852
146.886
146.922
146.958
146.995
147.033
147.071
147.111
147.151
147.192
147.234
147.277
147.321
147.366
147.412
147.458
147.506
147.555
147.604
147.654
147.706
147.758
147.811
147.865
147.919
147.975
148.031
148.087
148.145
148.202
148.261
148.32
148.379
148.439
148.499
148.56
148.621
148.682
148.744
148.805
148.868
148.93
148.993
149.057
149.121
149.185
149.25
149.316
149.383
149.45
149.519
149.588
149.658
149.73
149.803
149.877
149.952
150.029
150.107
150.187
150.269
150.353
150.439
150.527
150.617
150.709
150.804
150.901
151.001
151.103
151.209
151.317
151.429
151.543
151.661
151.782
151.906
152.033
152.164
152.299
152.438
152.534
152.12
146.346
146.408
146.469
146.526
146.581
146.632
146.68
146.723
146.763
146.799
146.83
146.856
146.878
146.894
146.905
146.911
146.127
146.151
146.174
146.199
146.223
146.247
146.272
146.297
146.323
146.349
146.375
146.401
146.428
146.456
146.484
146.512
146.541
146.57
146.599
146.63
146.66
146.692
146.723
146.756
146.788
146.822
146.856
146.89
146.925
146.961
146.997
147.034
147.071
147.109
147.148
147.187
147.226
147.267
147.308
147.349
147.391
147.434
147.477
147.521
147.565
147.61
147.656
147.702
147.749
147.796
147.844
147.893
147.943
147.993
148.044
148.096
148.149
148.203
148.258
148.313
148.37
148.428
148.487
148.547
148.608
148.671
148.734
148.799
148.866
148.933
149.003
149.073
149.145
149.219
149.294
149.37
149.448
149.528
149.609
149.691
149.775
149.861
149.948
150.036
150.126
150.217
150.31
150.404
150.499
150.595
150.693
150.792
150.891
150.992
151.094
151.196
151.3
151.404
151.509
151.615
151.723
151.831
151.94
152.051
152.163
152.276
152.391
152.507
152.625
152.745
152.867
152.991
153.117
153.245
153.376
153.509
153.646
153.785
153.927
154.072
154.221
154.372
154.528
154.687
154.85
155.017
155.188
155.363
155.542
155.725
155.913
156.105
156.301
156.502
156.707
156.916
157.129
157.347
157.569
157.794
158.023
158.256
158.493
158.733
158.976
159.221
159.47
159.721
159.974
160.228
160.484
160.74
160.998
161.258
161.518
161.78
162.044
162.309
162.575
162.844
163.114
163.386
163.66
163.937
164.216
164.498
164.783
165.071
165.363
165.659
165.96
166.265
166.575
166.891
167.213
167.541
167.877
168.219
168.571
168.93
169.299
169.678
170.067
170.467
170.878
171.302
171.737
172.188
172.646
173.131
173.603
174.138
173.404
149.084
149.229
149.368
149.5
149.625
149.741
149.849
149.947
150.036
150.114
150.182
150.239
150.284
150.318
150.34
149.059
149.129
149.2
149.272
149.344
149.417
149.491
149.566
149.642
149.719
149.797
149.876
149.957
150.038
150.121
150.206
150.291
150.379
150.467
150.558
150.65
150.743
150.839
150.936
151.035
151.135
151.238
151.343
151.449
151.558
151.669
151.782
151.897
152.014
152.134
152.255
152.379
152.505
152.633
152.764
152.896
153.031
153.167
153.306
153.446
153.589
153.733
153.879
154.027
154.177
154.328
154.481
154.636
154.793
154.952
155.113
155.276
155.441
155.608
155.778
155.951
156.126
156.304
156.485
156.669
156.856
157.047
157.241
157.439
157.64
157.845
158.054
158.268
158.485
158.707
158.934
159.165
159.401
159.641
159.887
160.137
160.393
160.653
160.918
161.189
161.464
161.744
162.03
162.32
162.614
162.913
163.217
163.525
163.836
164.152
164.47
164.792
165.115
165.442
165.77
166.1
166.433
166.769
167.107
167.448
167.792
168.139
168.49
168.844
169.202
169.565
169.932
170.304
170.681
171.064
171.453
171.849
172.251
172.661
173.078
173.504
173.938
174.381
174.834
175.297
175.771
176.255
176.751
177.259
177.779
178.311
178.856
179.413
179.984
180.568
181.164
181.773
182.395
183.03
183.676
184.335
185.004
185.684
186.375
187.075
187.784
188.502
189.228
189.962
190.701
191.439
192.172
192.899
193.621
194.336
195.046
195.75
196.447
197.137
197.82
198.496
199.166
199.828
200.483
201.13
201.771
202.404
203.03
203.648
204.259
204.862
205.459
206.047
206.629
207.2
207.767
208.321
208.873
209.409
209.945
210.462
210.981
211.478
211.981
212.456
212.943
213.396
213.866
214.297
214.749
215.166
215.64
215.013
154.657
154.97
155.27
155.555
155.823
156.074
156.306
156.519
156.712
156.885
157.035
157.164
157.269
157.351
157.409
157.442
156.094
156.282
156.472
156.664
156.857
157.053
157.25
157.45
157.651
157.855
158.062
158.271
158.483
158.697
158.915
159.135
159.359
159.586
159.817
160.051
160.289
160.531
160.776
161.026
161.28
161.539
161.801
162.069
162.341
162.618
162.9
163.187
163.479
163.777
164.08
164.388
164.701
165.02
165.344
165.674
166.009
166.349
166.695
167.046
167.402
167.762
168.128
168.498
168.873
169.251
169.633
170.018
170.405
170.796
171.19
171.588
171.989
172.393
172.801
173.213
173.629
174.05
174.475
174.904
175.339
175.78
176.226
176.678
177.137
177.603
178.076
178.556
179.045
179.542
180.048
180.564
181.09
181.625
182.171
182.729
183.297
183.877
184.469
185.072
185.688
186.315
186.954
187.605
188.268
188.941
189.625
190.32
191.023
191.736
192.456
193.184
193.918
194.657
195.392
196.122
196.847
197.566
198.278
198.983
199.68
200.37
201.051
201.723
202.386
203.04
203.684
204.318
204.941
205.555
206.158
206.75
207.331
207.902
208.461
209.01
209.547
210.073
210.587
211.091
211.583
212.064
212.533
212.991
213.438
213.874
214.298
214.712
215.114
215.505
215.886
216.257
216.617
216.967
217.308
217.639
217.962
218.275
218.58
218.877
219.166
219.448
219.722
219.989
220.249
220.502
220.751
220.996
221.237
221.475
221.71
221.941
222.169
222.392
222.612
222.828
223.039
223.246
223.448
223.644
223.834
224.018
224.196
224.366
224.53
224.686
224.835
224.976
225.109
225.233
225.351
225.459
225.562
225.653
225.742
225.817
225.894
225.954
226.021
226.068
226.127
226.161
226.217
226.238
226.296
226.3
226.353
226.348
226.115
165.902
166.477
167.019
167.527
167.999
168.434
168.831
169.188
169.504
169.78
170.014
170.207
170.357
170.722
171.131
171.542
171.958
172.376
172.798
173.224
173.653
174.085
174.521
174.959
175.401
175.847
176.296
176.748
177.204
177.664
178.128
178.596
179.068
179.545
180.026
180.511
181.002
181.497
181.998
182.504
183.016
183.534
184.058
184.589
185.126
185.671
186.224
186.784
187.352
187.928
188.513
189.106
189.708
190.319
190.938
191.566
192.202
192.847
193.5
194.16
194.828
195.503
196.185
196.874
197.563
198.25
198.933
199.613
200.289
200.961
201.627
202.289
202.944
203.593
204.235
204.87
205.497
206.116
206.727
207.328
207.921
208.503
209.076
209.638
210.189
210.73
211.26
211.778
212.284
212.778
213.261
213.731
214.189
214.634
215.066
215.486
215.893
216.287
216.668
217.036
217.391
217.734
218.063
218.38
218.684
218.976
219.256
219.524
219.779
220.024
220.257
220.481
220.698
220.908
221.111
221.307
221.497
221.682
221.862
222.038
222.209
222.376
222.54
222.7
222.856
223.01
223.161
223.308
223.453
223.595
223.734
223.87
224.002
224.132
224.259
224.382
224.502
224.619
224.732
224.843
224.95
225.055
225.156
225.255
225.351
225.445
225.536
225.625
225.712
225.797
225.879
225.96
226.038
226.115
226.189
226.261
226.331
226.398
226.463
226.526
226.585
226.641
226.695
226.745
226.791
226.835
226.874
226.911
226.943
226.972
226.998
227.02
227.04
227.056
227.07
227.083
227.093
227.102
227.11
227.117
227.124
227.131
227.137
227.143
227.149
227.156
227.162
227.169
227.176
227.184
227.192
227.201
227.209
227.221
227.23
227.243
227.253
227.27
227.281
227.301
227.313
227.335
227.348
227.372
227.39
227.331
184.488
185.289
186.028
186.703
187.313
187.857
188.337
188.752
189.103
189.393
189.623
189.798
189.916
194.089
194.709
195.331
195.953
196.577
197.202
197.828
198.457
199.089
199.719
200.345
200.967
201.585
202.199
202.807
203.412
204.011
204.605
205.193
205.776
206.352
206.923
207.486
208.044
208.594
209.137
209.672
210.2
210.719
211.231
211.734
212.227
212.712
213.187
213.652
214.107
214.551
214.984
215.405
215.816
216.214
216.6
216.975
217.336
217.686
218.023
218.347
218.659
218.959
219.246
219.52
219.784
220.039
220.284
220.521
220.749
220.968
221.179
221.383
221.579
221.768
221.95
222.126
222.296
222.46
222.618
222.771
222.919
223.062
223.2
223.334
223.464
223.589
223.711
223.83
223.944
224.056
224.164
224.269
224.371
224.47
224.567
224.662
224.754
224.843
224.931
225.017
225.101
225.183
225.263
225.342
225.418
225.494
225.567
225.639
225.709
225.778
225.846
225.912
225.977
226.04
226.102
226.163
226.223
226.281
226.338
226.393
226.446
226.498
226.547
226.594
226.639
226.681
226.721
226.758
226.794
226.826
226.857
226.886
226.912
226.937
226.961
226.983
227.004
227.025
227.044
227.064
227.083
227.102
227.121
227.14
227.159
227.179
227.2
227.22
227.242
227.263
227.285
227.308
227.331
227.354
227.377
227.4
227.424
227.447
227.471
227.495
227.518
227.542
227.565
227.589
227.613
227.636
227.659
227.682
227.705
227.727
227.749
227.771
227.793
227.814
227.837
227.859
227.882
227.903
227.924
227.945
227.965
227.984
228.003
228.022
228.04
228.058
228.076
228.094
228.113
228.133
228.153
228.174
228.197
228.221
228.246
228.273
228.302
228.332
228.365
228.398
228.433
228.469
228.509
228.548
228.603
228.575
207.025
207.852
208.588
209.237
209.799
210.275
210.668
210.983
211.225
211.392
211.485
211.499
211.472
211.395
215.806
216.2
216.579
216.945
217.296
217.634
217.959
218.271
218.571
218.86
219.14
219.411
219.673
219.927
220.173
220.411
220.641
220.865
221.081
221.29
221.492
221.687
221.876
222.058
222.234
222.404
222.567
222.725
222.876
223.022
223.161
223.296
223.425
223.548
223.667
223.781
223.891
223.997
224.099
224.197
224.293
224.385
224.474
224.561
224.646
224.729
224.81
224.888
224.965
225.041
225.114
225.187
225.257
225.327
225.395
225.462
225.528
225.593
225.656
225.718
225.779
225.839
225.897
225.954
226.01
226.064
226.116
226.168
226.217
226.265
226.311
226.355
226.398
226.439
226.478
226.516
226.552
226.587
226.62
226.652
226.683
226.713
226.741
226.769
226.796
226.822
226.848
226.872
226.897
226.92
226.943
226.966
226.988
227.01
227.032
227.053
227.075
227.096
227.118
227.139
227.16
227.182
227.204
227.226
227.248
227.271
227.293
227.316
227.338
227.361
227.384
227.406
227.429
227.452
227.474
227.497
227.519
227.542
227.564
227.587
227.609
227.632
227.654
227.677
227.7
227.723
227.747
227.772
227.797
227.822
227.848
227.874
227.901
227.928
227.955
227.983
228.011
228.04
228.069
228.098
228.128
228.157
228.188
228.218
228.249
228.28
228.312
228.344
228.376
228.408
228.441
228.473
228.506
228.54
228.573
228.607
228.641
228.676
228.711
228.747
228.781
228.815
228.848
228.882
228.915
228.95
228.984
229.019
229.055
229.091
229.128
229.166
229.205
229.246
229.288
229.332
229.378
229.426
229.477
229.53
229.585
229.643
229.703
229.765
229.83
229.898
229.967
230.04
230.114
230.192
230.27
230.373
230.333
225.743
225.843
225.865
225.843
225.773
225.646
225.468
225.247
224.989
224.698
224.378
224.032
223.68
223.311
223.484
223.612
223.733
223.849
223.96
224.065
224.166
224.262
224.354
224.442
224.526
224.608
224.687
224.764
224.839
224.912
224.983
225.052
225.12
225.186
225.25
225.314
225.375
225.435
225.493
225.55
225.605
225.659
225.711
225.762
225.812
225.86
225.907
225.953
225.998
226.042
226.085
226.127
226.169
226.21
226.25
226.289
226.328
226.366
226.403
226.44
226.475
226.51
226.543
226.576
226.607
226.638
226.667
226.696
226.723
226.75
226.776
226.801
226.825
226.849
226.872
226.894
226.916
226.938
226.958
226.979
226.999
227.019
227.039
227.058
227.077
227.096
227.116
227.135
227.154
227.173
227.193
227.213
227.232
227.253
227.274
227.295
227.316
227.338
227.36
227.383
227.407
227.431
227.455
227.479
227.504
227.53
227.556
227.582
227.609
227.636
227.664
227.692
227.72
227.748
227.776
227.804
227.832
227.861
227.889
227.917
227.945
227.973
228.001
228.029
228.058
228.086
228.115
228.144
228.174
228.203
228.233
228.264
228.295
228.326
228.359
228.391
228.425
228.459
228.494
228.529
228.564
228.599
228.635
228.672
228.71
228.748
228.787
228.826
228.866
228.907
228.949
228.991
229.034
229.078
229.122
229.168
229.214
229.261
229.309
229.357
229.407
229.457
229.508
229.561
229.614
229.668
229.723
229.78
229.837
229.896
229.956
230.018
230.08
230.144
230.209
230.276
230.345
230.415
230.486
230.559
230.634
230.711
230.79
230.872
230.956
231.043
231.132
231.225
231.321
231.42
231.523
231.629
231.739
231.852
231.968
232.088
232.212
232.339
232.469
232.603
232.741
232.883
233.028
233.176
233.323
233.504
233.428
233.092
232.762
232.411
232.045
231.662
231.261
230.845
230.416
229.972
229.562
229.107
228.604
228.142
227.702
225.486
225.551
225.614
225.675
225.733
225.789
225.843
225.895
225.944
225.991
226.037
226.081
226.123
226.164
226.203
226.24
226.276
226.311
226.345
226.377
226.408
226.438
226.467
226.495
226.521
226.547
226.572
226.597
226.621
226.644
226.667
226.69
226.712
226.735
226.757
226.779
226.801
226.824
226.846
226.868
226.891
226.913
226.936
226.959
226.982
227.005
227.028
227.052
227.075
227.099
227.123
227.148
227.172
227.196
227.221
227.245
227.27
227.294
227.318
227.342
227.367
227.391
227.415
227.438
227.462
227.485
227.508
227.53
227.553
227.576
227.598
227.621
227.644
227.668
227.691
227.715
227.74
227.765
227.791
227.818
227.846
227.874
227.903
227.933
227.964
227.995
228.028
228.061
228.095
228.13
228.165
228.201
228.238
228.274
228.311
228.348
228.384
228.422
228.459
228.496
228.534
228.572
228.61
228.648
228.686
228.724
228.763
228.802
228.841
228.881
228.922
228.963
229.005
229.048
229.092
229.137
229.183
229.23
229.279
229.329
229.38
229.433
229.486
229.541
229.597
229.655
229.714
229.774
229.836
229.9
229.964
230.03
230.098
230.166
230.237
230.309
230.382
230.457
230.533
230.612
230.691
230.773
230.856
230.941
231.028
231.116
231.207
231.299
231.393
231.49
231.589
231.69
231.793
231.899
232.007
232.118
232.231
232.347
232.466
232.588
232.713
232.842
232.973
233.108
233.246
233.388
233.534
233.684
233.838
233.996
234.159
234.326
234.498
234.674
234.856
235.042
235.233
235.429
235.63
235.836
236.046
236.262
236.482
236.708
236.939
237.174
237.416
237.661
237.913
238.163
238.411
238.683
238.526
235.848
235.353
234.848
234.339
233.825
233.307
232.786
232.261
231.742
231.234
230.716
230.187
229.669
226.233
226.277
226.32
226.361
226.401
226.44
226.478
226.513
226.547
226.58
226.611
226.64
226.669
226.697
226.723
226.749
226.775
226.8
226.824
226.849
226.873
226.897
226.921
226.944
226.968
226.992
227.015
227.039
227.063
227.086
227.11
227.135
227.159
227.183
227.208
227.233
227.259
227.285
227.31
227.336
227.363
227.389
227.416
227.443
227.47
227.498
227.526
227.554
227.582
227.611
227.639
227.669
227.698
227.727
227.757
227.787
227.817
227.847
227.877
227.908
227.937
227.967
227.996
228.026
228.055
228.085
228.115
228.145
228.176
228.207
228.239
228.271
228.304
228.338
228.372
228.407
228.444
228.481
228.519
228.559
228.599
228.641
228.684
228.728
228.772
228.818
228.865
228.913
228.962
229.012
229.063
229.114
229.166
229.219
229.272
229.326
229.381
229.437
229.493
229.55
229.608
229.666
229.725
229.785
229.846
229.908
229.971
230.035
230.1
230.167
230.236
230.306
230.378
230.452
230.527
230.605
230.685
230.767
230.851
230.937
231.025
231.116
231.208
231.303
231.401
231.501
231.603
231.708
231.815
231.924
232.036
232.15
232.267
232.386
232.508
232.633
232.761
232.891
233.024
233.16
233.299
233.44
233.585
233.733
233.885
234.039
234.197
234.358
234.523
234.692
234.864
235.041
235.221
235.406
235.594
235.787
235.985
236.187
236.394
236.605
236.822
237.043
237.27
237.503
237.741
237.985
238.234
238.49
238.751
239.019
239.293
239.573
239.859
240.151
240.45
240.755
241.066
241.384
241.707
242.037
242.373
242.716
243.065
243.42
243.783
244.152
244.529
244.908
245.292
245.663
246.026
246.344
246.03
236.941
236.413
235.88
235.345
234.81
234.275
233.738
233.201
232.675
232.156
231.629
231.095
230.57
226.744
226.786
226.827
226.868
226.907
226.943
226.979
227.015
227.047
227.078
227.11
227.14
227.168
227.196
227.226
227.253
227.28
227.308
227.335
227.363
227.391
227.418
227.447
227.475
227.503
227.533
227.562
227.592
227.622
227.653
227.683
227.714
227.746
227.776
227.808
227.841
227.873
227.906
227.939
227.973
228.007
228.041
228.076
228.112
228.147
228.184
228.22
228.257
228.295
228.332
228.37
228.409
228.448
228.487
228.526
228.566
228.606
228.646
228.687
228.729
228.771
228.814
228.857
228.901
228.946
228.992
229.039
229.087
229.136
229.187
229.239
229.292
229.346
229.402
229.46
229.519
229.58
229.642
229.706
229.771
229.838
229.906
229.976
230.048
230.121
230.195
230.271
230.348
230.426
230.506
230.587
230.669
230.753
230.839
230.925
231.014
231.103
231.194
231.287
231.382
231.478
231.577
231.678
231.78
231.885
231.993
232.103
232.216
232.331
232.449
232.571
232.695
232.822
232.952
233.086
233.223
233.363
233.507
233.653
233.804
233.958
234.115
234.276
234.44
234.608
234.78
234.955
235.134
235.317
235.504
235.694
235.889
236.088
236.29
236.497
236.708
236.924
237.144
237.368
237.597
237.831
238.069
238.313
238.561
238.814
239.073
239.337
239.606
239.881
240.161
240.448
240.74
241.038
241.343
241.653
241.971
242.294
242.625
242.962
243.306
243.658
244.016
244.381
244.754
245.134
245.521
245.915
246.316
246.725
247.14
247.563
247.993
248.429
248.873
249.323
249.781
250.245
250.716
251.194
251.679
252.172
252.672
253.181
253.695
254.215
254.732
255.243
255.716
256.174
256.406
255.838
237.194
236.636
236.078
235.521
234.969
234.416
233.867
233.332
232.798
232.259
231.718
231.19
227.225
227.271
227.316
227.361
227.405
227.446
227.487
227.528
227.564
227.6
227.638
227.673
227.705
227.74
227.775
227.808
227.842
227.877
227.911
227.946
227.981
228.016
228.053
228.089
228.126
228.164
228.203
228.241
228.281
228.321
228.361
228.402
228.444
228.486
228.529
228.573
228.617
228.662
228.708
228.755
228.802
228.85
228.899
228.948
228.999
229.05
229.101
229.154
229.207
229.261
229.316
229.372
229.428
229.486
229.544
229.603
229.663
229.724
229.787
229.851
229.916
229.982
230.05
230.12
230.191
230.264
230.338
230.414
230.493
230.573
230.656
230.74
230.827
230.916
231.007
231.1
231.196
231.293
231.393
231.495
231.6
231.706
231.815
231.926
232.039
232.154
232.271
232.391
232.512
232.636
232.763
232.891
233.022
233.155
233.291
233.43
233.571
233.715
233.863
234.013
234.167
234.324
234.485
234.649
234.817
234.988
235.164
235.343
235.527
235.715
235.906
236.103
236.303
236.508
236.718
236.932
237.15
237.374
237.602
237.834
238.072
238.314
238.562
238.814
239.071
239.333
239.601
239.873
240.15
240.433
240.721
241.015
241.314
241.618
241.928
242.244
242.566
242.893
243.227
243.566
243.912
244.264
244.622
244.987
245.358
245.736
246.121
246.512
246.911
247.316
247.729
248.149
248.576
249.011
249.453
249.902
250.359
250.824
251.296
251.775
252.262
252.756
253.258
253.767
254.283
254.805
255.335
255.872
256.415
256.965
257.522
258.085
258.654
259.23
259.812
260.401
260.996
261.597
262.204
262.819
263.441
264.07
264.705
265.343
265.978
266.594
267.177
267.687
268.16
268.142
267.219
237.78
237.212
236.644
236.08
235.519
234.961
234.409
233.867
233.326
232.782
227.822
227.873
227.925
227.978
228.028
228.076
228.127
228.175
228.221
228.268
228.315
228.36
228.404
228.45
228.496
228.541
228.587
228.633
228.68
228.728
228.776
228.825
228.875
228.926
228.978
229.031
229.085
229.139
229.194
229.251
229.308
229.367
229.427
229.488
229.55
229.613
229.677
229.742
229.809
229.877
229.945
230.016
230.087
230.16
230.234
230.309
230.385
230.463
230.543
230.623
230.705
230.789
230.874
230.961
231.05
231.14
231.232
231.327
231.423
231.521
231.622
231.725
231.83
231.938
232.048
232.161
232.276
232.395
232.516
232.64
232.767
232.897
233.03
233.166
233.305
233.447
233.593
233.741
233.892
234.046
234.203
234.364
234.527
234.694
234.863
235.036
235.212
235.392
235.575
235.761
235.95
236.144
236.341
236.541
236.746
236.955
237.168
237.386
237.608
237.835
238.066
238.302
238.543
238.79
239.041
239.297
239.558
239.825
240.096
240.374
240.656
240.944
241.238
241.537
241.843
242.153
242.47
242.792
243.121
243.455
243.795
244.141
244.494
244.852
245.216
245.586
245.963
246.345
246.734
247.129
247.53
247.938
248.352
248.773
249.2
249.634
250.074
250.522
250.976
251.436
251.904
252.379
252.861
253.349
253.845
254.348
254.858
255.376
255.9
256.431
256.97
257.515
258.068
258.627
259.193
259.766
260.346
260.932
261.524
262.123
262.727
263.338
263.954
264.576
265.203
265.835
266.473
267.116
267.763
268.415
269.072
269.733
270.399
271.068
271.742
272.42
273.101
273.787
274.477
275.171
275.87
276.572
277.273
277.965
278.633
279.253
279.803
280.232
280.49
280.253
278.835
237.783
237.215
236.651
236.09
235.532
234.982
234.439
233.897
233.354
228.676
228.74
228.805
228.868
228.931
228.996
229.059
229.122
229.184
229.247
229.31
229.372
229.435
229.498
229.562
229.627
229.693
229.76
229.828
229.897
229.967
230.039
230.112
230.186
230.262
230.339
230.418
230.498
230.58
230.664
230.749
230.836
230.924
231.015
231.106
231.2
231.296
231.393
231.492
231.593
231.696
231.801
231.907
232.016
232.127
232.24
232.355
232.472
232.592
232.714
232.838
232.965
233.094
233.227
233.362
233.499
233.64
233.784
233.931
234.082
234.235
234.392
234.553
234.717
234.885
235.057
235.232
235.411
235.594
235.781
235.971
236.166
236.364
236.567
236.773
236.984
237.198
237.416
237.639
237.866
238.096
238.331
238.57
238.814
239.061
239.313
239.57
239.832
240.098
240.369
240.645
240.926
241.212
241.503
241.8
242.103
242.411
242.725
243.045
243.37
243.702
244.039
244.383
244.732
245.088
245.449
245.817
246.191
246.571
246.957
247.35
247.749
248.154
248.566
248.984
249.409
249.84
250.277
250.721
251.172
251.628
252.092
252.561
253.037
253.519
254.008
254.503
255.004
255.512
256.026
256.546
257.073
257.606
258.145
258.691
259.243
259.802
260.366
260.937
261.514
262.098
262.687
263.282
263.883
264.491
265.103
265.722
266.346
266.975
267.609
268.248
268.892
269.541
270.194
270.851
271.512
272.177
272.846
273.517
274.191
274.868
275.548
276.23
276.913
277.598
278.285
278.972
279.661
280.349
281.038
281.727
282.415
283.102
283.787
284.471
285.154
285.835
286.514
287.193
287.868
288.537
289.19
289.812
290.379
290.861
291.232
291.433
291.359
290.829
288.983
238.432
237.868
229.783
229.866
229.95
230.035
230.12
230.205
230.291
230.377
230.463
230.55
230.637
230.725
230.814
230.903
230.994
231.086
231.18
231.275
231.372
231.47
231.571
231.673
231.778
231.884
231.993
232.104
232.217
232.332
232.45
232.57
232.692
232.816
232.943
233.073
233.204
233.339
233.476
233.615
233.757
233.902
234.05
234.2
234.353
234.51
234.669
234.831
234.996
235.165
235.336
235.512
235.69
235.873
236.059
236.249
236.442
236.64
236.842
237.048
237.258
237.472
237.691
237.915
238.142
238.375
238.612
238.853
239.1
239.351
239.606
239.867
240.132
240.402
240.677
240.957
241.242
241.531
241.826
242.125
242.43
242.74
243.054
243.374
243.7
244.03
244.366
244.708
245.055
245.407
245.766
246.13
246.501
246.877
247.26
247.648
248.043
248.444
248.852
249.266
249.686
250.113
250.546
250.985
251.431
251.883
252.341
252.806
253.277
253.754
254.237
254.727
255.223
255.725
256.233
256.747
257.268
257.795
258.327
258.866
259.41
259.961
260.517
261.078
261.645
262.217
262.795
263.378
263.966
264.56
265.158
265.761
266.37
266.983
267.6
268.223
268.85
269.481
270.117
270.757
271.401
272.048
272.7
273.355
274.013
274.674
275.338
276.005
276.674
277.345
278.017
278.691
279.366
280.041
280.717
281.393
282.068
282.743
283.416
284.088
284.757
285.424
286.088
286.749
287.406
288.058
288.706
289.349
289.986
290.617
291.242
291.861
292.472
293.077
293.674
294.264
294.847
295.422
295.99
296.551
297.105
297.647
298.169
298.656
299.085
299.431
299.669
299.722
299.627
299.234
298.363
296.298
231.305
231.415
231.527
231.64
231.754
231.87
231.986
232.104
232.222
232.342
232.463
232.585
232.708
232.833
232.96
233.089
233.22
233.354
233.489
233.628
233.768
233.912
234.058
234.208
234.36
234.515
234.673
234.834
234.998
235.165
235.336
235.509
235.686
235.866
236.05
236.236
236.427
236.62
236.817
237.018
237.223
237.431
237.643
237.859
238.079
238.303
238.531
238.764
239.001
239.242
239.488
239.739
239.994
240.254
240.519
240.789
241.064
241.344
241.629
241.919
242.215
242.516
242.822
243.133
243.45
243.772
244.1
244.433
244.771
245.115
245.465
245.82
246.18
246.546
246.917
247.294
247.677
248.065
248.459
248.858
249.264
249.675
250.092
250.514
250.943
251.378
251.819
252.266
252.719
253.178
253.643
254.115
254.592
255.076
255.566
256.062
256.565
257.073
257.588
258.108
258.634
259.166
259.704
260.247
260.795
261.349
261.909
262.473
263.043
263.617
264.197
264.782
265.371
265.965
266.563
267.166
267.773
268.384
268.999
269.618
270.24
270.866
271.496
272.128
272.763
273.402
274.043
274.686
275.333
275.981
276.631
277.284
277.938
278.594
279.25
279.908
280.567
281.226
281.885
282.544
283.202
283.859
284.515
285.169
285.821
286.47
287.116
287.758
288.396
289.029
289.658
290.28
290.897
291.507
292.11
292.706
293.294
293.875
294.447
295.011
295.566
296.112
296.649
297.176
297.692
298.197
298.692
299.174
299.643
300.099
300.541
300.969
301.382
301.78
302.164
302.538
302.901
303.253
303.592
303.911
304.198
304.431
304.584
304.614
304.541
304.284
303.857
303.111
301.957
299.983
233.351
233.497
233.645
233.796
233.948
234.103
234.259