/*--------------------------------*- C++ -*----------------------------------*\
| =========                 |                                                 |
| \\      /  F ield         | OpenFOAM: The Open Source CFD Toolbox           |
|  \\    /   O peration     | Version:  v1706                                 |
|   \\  /    A nd           | Web:      www.OpenFOAM.com                      |
|    \\/     M anipulation  |                                                 |
\*---------------------------------------------------------------------------*/
FoamFile
{
    version     2.0;
    format      ascii;
    class       volVectorField;
    location    "1.4e-05";
    object      U;
}
// * * * * * * * * * * * * * * * * * * * * * * * * * * * * * * * * * * * * * //

dimensions      [0 1 -1 0 0 0 0];


internalField   nonuniform List<vector> 
30104
(
(978.524 0.0807033 3.98628e-15)
(978.523 0.0834829 6.58384e-15)
(978.521 0.0861868 5.47413e-15)
(978.519 0.0888087 4.2872e-15)
(978.518 0.0913458 5.39246e-15)
(978.517 0.0937951 4.51781e-15)
(978.516 0.0961488 1.60874e-15)
(978.514 0.098391 2.6405e-15)
(978.513 0.100499 5.67162e-15)
(978.512 0.102446 7.50822e-15)
(978.512 0.10421 5.49594e-15)
(978.511 0.105776 4.67534e-15)
(978.51 0.107119 3.10488e-15)
(978.51 0.10825 5.09438e-15)
(978.51 0.109137 6.7736e-15)
(978.51 0.109751 6.62363e-15)
(978.51 0.11013 5.72393e-15)
(978.544 0.0557869 3.0794e-15)
(978.544 0.0563525 4.03518e-15)
(978.543 0.0569183 3.96229e-15)
(978.543 0.057485 3.76419e-15)
(978.543 0.0580533 3.72158e-15)
(978.542 0.0586235 3.60485e-15)
(978.542 0.0591962 3.44328e-15)
(978.542 0.0597713 4.57424e-15)
(978.541 0.060349 3.90675e-15)
(978.541 0.060929 3.10174e-15)
(978.54 0.0615111 3.28026e-15)
(978.54 0.0620948 3.37341e-15)
(978.54 0.0626796 5.02962e-15)
(978.539 0.063265 3.64839e-15)
(978.539 0.0638505 1.46353e-15)
(978.539 0.0644354 2.60456e-15)
(978.538 0.0650193 2.73846e-15)
(978.538 0.0656016 3.48187e-15)
(978.537 0.0661821 4.46753e-15)
(978.537 0.0667604 2.67841e-15)
(978.537 0.0673365 4.8943e-15)
(978.536 0.0679104 4.39199e-15)
(978.536 0.0684822 2.75177e-15)
(978.535 0.0690523 2.86464e-15)
(978.535 0.0696212 2.78336e-15)
(978.535 0.0701897 2.95737e-15)
(978.534 0.0707586 2.88051e-15)
(978.534 0.0713289 2.94404e-15)
(978.534 0.0719018 3.097e-15)
(978.533 0.0724786 3.18931e-15)
(978.533 0.0730606 2.05885e-15)
(978.532 0.0736494 3.97665e-15)
(978.532 0.0742464 4.06681e-15)
(978.532 0.0748532 2.99356e-15)
(978.531 0.0754714 2.12453e-15)
(978.531 0.0761025 2.79581e-15)
(978.53 0.0767481 4.20362e-15)
(978.53 0.0774098 2.45959e-15)
(978.53 0.0780889 3.45079e-15)
(978.529 0.078787 3.69862e-15)
(978.529 0.0795054 2.87503e-15)
(978.528 0.0802456 3.69186e-15)
(978.528 0.0810089 3.59789e-15)
(978.527 0.0817965 4.63202e-15)
(978.527 0.08261 4.49374e-15)
(978.526 0.0834503 3.38922e-15)
(978.526 0.084319 3.31224e-15)
(978.525 0.085217 2.97569e-15)
(978.524 0.0861456 2.77699e-15)
(978.524 0.087106 1.84547e-15)
(978.523 0.088099 4.12312e-15)
(978.522 0.0891258 2.65261e-15)
(978.522 0.0901871 1.90878e-15)
(978.521 0.0912838 3.03296e-15)
(978.52 0.0924166 3.31703e-15)
(978.52 0.0935861 1.64421e-15)
(978.519 0.0947925 3.23752e-15)
(978.518 0.0960363 2.68452e-15)
(978.517 0.0973174 2.20487e-15)
(978.517 0.0986357 1.95489e-15)
(978.516 0.0999908 2.26126e-15)
(978.515 0.101382 3.75799e-15)
(978.514 0.102808 3.29649e-15)
(978.513 0.104269 3.1067e-15)
(978.512 0.105762 4.65001e-15)
(978.511 0.107286 3.66615e-15)
(978.51 0.108838 3.68288e-15)
(978.509 0.110417 3.97585e-15)
(978.509 0.11202 3.7048e-15)
(978.508 0.113645 3.87788e-15)
(978.507 0.115288 3.08992e-15)
(978.506 0.116947 2.9628e-15)
(978.505 0.118618 2.76322e-15)
(978.504 0.120299 1.80048e-15)
(978.503 0.121985 3.9907e-15)
(978.502 0.123675 3.75931e-15)
(978.501 0.125364 2.77918e-15)
(978.5 0.12705 4.85043e-16)
(978.499 0.128729 9.09103e-16)
(978.498 0.130399 2.65681e-15)
(978.497 0.132057 1.58121e-15)
(978.496 0.1337 2.54622e-15)
(978.495 0.135327 1.45557e-15)
(978.494 0.136934 2.02924e-15)
(978.493 0.13852 4.28822e-15)
(978.492 0.140083 3.83374e-15)
(978.491 0.141622 2.8543e-15)
(978.49 0.143135 2.26839e-15)
(978.489 0.144621 2.98461e-15)
(978.488 0.146079 3.57614e-15)
(978.487 0.147508 3.20737e-15)
(978.486 0.148907 3.65917e-15)
(978.485 0.150276 3.80815e-15)
(978.484 0.151614 2.21535e-15)
(978.483 0.152922 1.18332e-15)
(978.483 0.154199 2.50782e-15)
(978.482 0.155446 5.26185e-16)
(978.481 0.156662 9.45104e-16)
(978.48 0.157849 2.63705e-15)
(978.479 0.159007 2.87298e-15)
(978.478 0.160137 2.99928e-15)
(978.477 0.161242 2.75671e-15)
(978.476 0.162322 2.13201e-15)
(978.475 0.163381 2.38322e-15)
(978.475 0.16442 2.47049e-15)
(978.474 0.165443 2.39291e-15)
(978.473 0.166452 1.3934e-15)
(978.472 0.167452 1.48742e-15)
(978.472 0.168445 3.71248e-15)
(978.471 0.169437 3.65093e-15)
(978.47 0.170431 2.90477e-15)
(978.469 0.171433 3.18015e-15)
(978.469 0.172446 2.92535e-15)
(978.468 0.173477 2.42266e-15)
(978.467 0.17453 1.69752e-15)
(978.467 0.175612 2.35119e-15)
(978.466 0.176727 2.64248e-15)
(978.465 0.177881 2.93374e-15)
(978.464 0.17908 2.7523e-15)
(978.464 0.180331 2.48191e-15)
(978.463 0.18164 2.609e-15)
(978.462 0.183011 1.6605e-15)
(978.461 0.184453 3.50925e-15)
(978.46 0.185969 2.70227e-15)
(978.459 0.187566 2.61312e-16)
(978.458 0.189249 3.34052e-16)
(978.457 0.191024 1.02911e-15)
(978.456 0.192894 1.38411e-15)
(978.455 0.194865 1.8411e-15)
(978.454 0.196939 1.79639e-15)
(978.452 0.199119 2.25583e-15)
(978.451 0.201408 2.39671e-15)
(978.449 0.203807 2.06972e-15)
(978.448 0.206318 2.24343e-15)
(978.446 0.208941 1.77806e-15)
(978.444 0.211675 2.33451e-15)
(978.442 0.21452 1.49154e-15)
(978.44 0.217474 2.53167e-15)
(978.438 0.220538 2.21218e-15)
(978.436 0.223708 2.19225e-15)
(978.434 0.226983 3.51026e-15)
(978.432 0.230362 3.49016e-15)
(978.43 0.233842 2.9052e-15)
(978.427 0.237422 2.65899e-15)
(978.425 0.2411 1.90598e-15)
(978.423 0.244873 2.58302e-15)
(978.42 0.24874 3.41271e-15)
(978.417 0.252701 2.47683e-15)
(978.415 0.256754 1.65281e-15)
(978.412 0.2609 2.28841e-15)
(978.41 0.26514 2.6328e-15)
(978.407 0.269473 1.64658e-15)
(978.404 0.273899 2.42254e-15)
(978.401 0.278422 2.18818e-15)
(978.398 0.283043 2.7789e-15)
(978.396 0.287766 3.17766e-15)
(978.393 0.292593 2.81951e-15)
(978.39 0.297527 3.1036e-15)
(978.387 0.302573 2.14661e-15)
(978.384 0.307733 1.44896e-15)
(978.381 0.31301 1.48806e-15)
(978.377 0.318409 1.93864e-15)
(978.374 0.323931 1.19652e-15)
(978.371 0.329578 2.22307e-15)
(978.368 0.335353 2.15797e-15)
(978.364 0.341256 2.70539e-15)
(978.361 0.347289 3.24959e-15)
(978.357 0.353447 2.13116e-15)
(978.354 0.359733 1.43943e-15)
(978.35 0.366141 1.16436e-15)
(978.347 0.37267 2.84422e-15)
(978.343 0.379311 1.97263e-15)
(978.34 0.386064 2.02058e-15)
(978.336 0.392916 1.67602e-15)
(978.332 0.399867 1.34399e-15)
(978.328 0.406901 1.27213e-15)
(978.324 0.414015 2.29762e-15)
(978.321 0.421196 1.64571e-15)
(978.317 0.428435 1.35252e-15)
(978.313 0.435726 1.41952e-15)
(978.309 0.443047 1.52427e-15)
(978.305 0.450404 2.09621e-15)
(978.3 0.457756 2.62298e-15)
(978.296 0.465141 2.3496e-15)
(978.292 0.472473 2.81143e-15)
(978.288 0.479843 2.03475e-15)
(978.284 0.487116 1.81709e-15)
(978.28 0.4944 2.62197e-15)
(978.275 0.501644 2.8077e-15)
(978.271 0.508726 2.47174e-15)
(978.268 0.515596 2.21109e-15)
(978.268 0.51792 2.02014e-15)
(978.301 0.481564 2.09531e-15)
(978.256 0.454067 1.39335e-14)
(978.246 0.471425 1.39538e-14)
(978.237 0.488324 1.18968e-14)
(978.228 0.504648 1.23443e-14)
(978.219 0.52027 1.29713e-14)
(978.212 0.535062 1.24055e-14)
(978.205 0.548903 1.15412e-14)
(978.199 0.561699 1.35708e-14)
(978.194 0.573383 1.48315e-14)
(978.189 0.583913 1.33346e-14)
(978.186 0.593266 1.36307e-14)
(978.183 0.601409 1.54192e-14)
(978.181 0.608314 1.63913e-14)
(978.18 0.613992 1.47549e-14)
(978.18 0.618416 1.45911e-14)
(978.181 0.62159 1.40879e-14)
(978.182 0.623578 1.16925e-14)
(978.355 0.345092 6.13068e-15)
(978.353 0.348868 8.93565e-15)
(978.351 0.352678 1.07159e-14)
(978.348 0.356527 1.0233e-14)
(978.346 0.36042 9.78259e-15)
(978.343 0.364362 9.70925e-15)
(978.34 0.368356 8.2582e-15)
(978.338 0.372406 1.01569e-14)
(978.335 0.376518 1.05892e-14)
(978.332 0.380695 7.88508e-15)
(978.33 0.384941 6.32823e-15)
(978.327 0.389261 8.28858e-15)
(978.324 0.393657 8.50223e-15)
(978.321 0.398134 7.60891e-15)
(978.318 0.402696 5.51212e-15)
(978.315 0.407346 7.30428e-15)
(978.312 0.412087 7.5663e-15)
(978.309 0.416923 8.47292e-15)
(978.306 0.421855 1.09146e-14)
(978.303 0.426887 9.41619e-15)
(978.299 0.432019 1.04087e-14)
(978.296 0.437254 1.02441e-14)
(978.293 0.44259 9.35323e-15)
(978.289 0.448029 9.16408e-15)
(978.286 0.453569 8.43669e-15)
(978.282 0.459209 8.20101e-15)
(978.278 0.464946 7.95684e-15)
(978.275 0.470778 7.79988e-15)
(978.271 0.476701 7.72813e-15)
(978.267 0.482711 7.74092e-15)
(978.263 0.488803 7.21049e-15)
(978.26 0.494973 9.47416e-15)
(978.256 0.501215 8.30632e-15)
(978.252 0.507525 7.62827e-15)
(978.248 0.513897 5.75815e-15)
(978.244 0.520325 8.60752e-15)
(978.24 0.526806 9.01226e-15)
(978.236 0.533333 7.25976e-15)
(978.231 0.539904 7.96375e-15)
(978.227 0.546514 9.81076e-15)
(978.223 0.55316 9.25675e-15)
(978.219 0.559839 1.03077e-14)
(978.215 0.566549 7.76984e-15)
(978.21 0.573286 8.72952e-15)
(978.206 0.58005 1.04733e-14)
(978.202 0.586839 8.43005e-15)
(978.197 0.593652 6.1033e-15)
(978.193 0.600488 7.16496e-15)
(978.188 0.607345 8.8335e-15)
(978.184 0.614223 6.79592e-15)
(978.179 0.621121 8.24417e-15)
(978.175 0.628038 8.25933e-15)
(978.17 0.634975 8.0766e-15)
(978.166 0.64193 7.82882e-15)
(978.161 0.648903 5.25712e-15)
(978.156 0.655894 6.74868e-15)
(978.152 0.662904 8.41803e-15)
(978.147 0.669931 8.57679e-15)
(978.142 0.676979 9.36862e-15)
(978.137 0.684047 6.96555e-15)
(978.133 0.691137 6.24532e-15)
(978.128 0.698252 7.01052e-15)
(978.123 0.705394 7.07844e-15)
(978.118 0.712567 7.38783e-15)
(978.113 0.719775 9.20696e-15)
(978.109 0.727024 8.22318e-15)
(978.104 0.734319 6.56229e-15)
(978.099 0.741669 6.41799e-15)
(978.094 0.749079 8.48069e-15)
(978.089 0.756561 7.55474e-15)
(978.084 0.764123 7.57773e-15)
(978.079 0.771777 6.89447e-15)
(978.074 0.779533 6.44875e-15)
(978.069 0.787405 7.17911e-15)
(978.064 0.795407 9.89681e-15)
(978.058 0.803551 7.74891e-15)
(978.053 0.811852 6.33521e-15)
(978.048 0.820326 5.27385e-15)
(978.042 0.828986 5.84801e-15)
(978.036 0.83785 5.35431e-15)
(978.03 0.846932 3.98238e-15)
(978.024 0.856248 5.22833e-15)
(978.018 0.865813 6.36924e-15)
(978.012 0.875642 7.93918e-15)
(978.005 0.885751 7.74128e-15)
(977.999 0.896154 7.07753e-15)
(977.992 0.906866 5.54092e-15)
(977.985 0.9179 6.02713e-15)
(977.977 0.929269 7.4258e-15)
(977.969 0.940988 7.20788e-15)
(977.962 0.953069 7.74101e-15)
(977.953 0.965523 7.16987e-15)
(977.945 0.978362 6.64154e-15)
(977.936 0.991598 4.42735e-15)
(977.927 1.00524 3.50719e-15)
(977.918 1.0193 5.68125e-15)
(977.909 1.03379 2.96961e-15)
(977.899 1.0487 5.45318e-15)
(977.889 1.06406 6.80942e-15)
(977.879 1.07987 4.87959e-15)
(977.868 1.09613 5.99169e-15)
(977.857 1.11285 4.65175e-15)
(977.846 1.13002 5.75371e-15)
(977.835 1.14766 6.83873e-15)
(977.824 1.16576 7.11846e-15)
(977.812 1.18433 5.66776e-15)
(977.8 1.20335 5.4506e-15)
(977.788 1.22284 6.65376e-15)
(977.776 1.24277 5.98084e-15)
(977.763 1.26316 6.42481e-15)
(977.751 1.28399 9.11576e-15)
(977.738 1.30526 8.54677e-15)
(977.725 1.32694 5.47547e-15)
(977.712 1.34904 6.32611e-15)
(977.698 1.37153 6.01743e-15)
(977.685 1.3944 5.39462e-15)
(977.671 1.41762 8.07086e-15)
(977.657 1.44119 8.03547e-15)
(977.643 1.46507 6.40567e-15)
(977.629 1.48924 6.85041e-15)
(977.615 1.51368 4.80589e-15)
(977.6 1.53835 5.50753e-15)
(977.585 1.56323 9.14464e-15)
(977.571 1.5883 7.32711e-15)
(977.556 1.61351 4.62927e-15)
(977.541 1.63884 4.23155e-15)
(977.526 1.66425 4.03576e-15)
(977.51 1.68972 4.14687e-15)
(977.495 1.71521 3.82473e-15)
(977.479 1.74068 5.07617e-15)
(977.464 1.76612 6.25124e-15)
(977.448 1.79148 3.74441e-15)
(977.432 1.81674 4.97301e-15)
(977.416 1.84188 5.39616e-15)
(977.401 1.86687 6.76904e-15)
(977.385 1.8917 6.83941e-15)
(977.369 1.91635 5.42875e-15)
(977.353 1.9408 5.00983e-15)
(977.337 1.96505 5.90685e-15)
(977.32 1.9891 7.03373e-15)
(977.304 2.01295 7.43336e-15)
(977.288 2.03661 7.17007e-15)
(977.272 2.06007 6.80108e-15)
(977.256 2.08337 6.39208e-15)
(977.24 2.10651 6.45094e-15)
(977.224 2.12952 5.82171e-15)
(977.208 2.15243 5.19573e-15)
(977.192 2.17526 5.96105e-15)
(977.176 2.19806 4.37689e-15)
(977.16 2.22086 4.81667e-15)
(977.144 2.24368 5.07241e-15)
(977.128 2.26658 5.3718e-15)
(977.112 2.28959 6.52261e-15)
(977.095 2.31274 6.23256e-15)
(977.079 2.33606 6.03147e-15)
(977.063 2.35961 6.50275e-15)
(977.046 2.3834 5.76211e-15)
(977.029 2.40746 6.99487e-15)
(977.012 2.43184 5.9822e-15)
(976.995 2.45656 4.77847e-15)
(976.978 2.48165 6.02798e-15)
(976.961 2.50714 4.85991e-15)
(976.943 2.53306 4.51188e-15)
(976.925 2.55945 4.24664e-15)
(976.907 2.58631 3.60583e-15)
(976.889 2.61371 5.10628e-15)
(976.87 2.64166 6.54012e-15)
(976.851 2.67021 6.40668e-15)
(976.832 2.69938 5.31613e-15)
(976.812 2.72924 6.12807e-15)
(976.792 2.75978 4.80993e-15)
(976.772 2.79112 3.77494e-15)
(976.751 2.82322 5.51429e-15)
(976.73 2.85622 5.55631e-15)
(976.708 2.89009 4.61593e-15)
(976.685 2.92496 5.14932e-15)
(976.663 2.96082 4.92348e-15)
(976.639 2.99777 4.74067e-15)
(976.615 3.03585 4.34627e-15)
(976.59 3.07508 4.08496e-15)
(976.565 3.11563 4.21621e-15)
(976.538 3.15732 4.04336e-15)
(976.511 3.2006 4.42929e-15)
(976.483 3.24485 4.32987e-15)
(976.454 3.29115 3.44357e-15)
(976.425 3.33804 4.09879e-15)
(976.394 3.38745 6.27454e-15)
(976.362 3.43747 6.54877e-15)
(976.33 3.48907 6.81671e-15)
(976.296 3.54333 6.44175e-15)
(976.262 3.60091 5.6247e-15)
(976.254 3.65031 4.14234e-15)
(976.416 3.49834 3.97027e-15)
(977.598 1.35332 2.03352e-14)
(977.569 1.40385 2.19835e-14)
(977.542 1.45322 2.072e-14)
(977.516 1.50121 2.09853e-14)
(977.492 1.54762 2.23221e-14)
(977.47 1.59227 2.04076e-14)
(977.45 1.63493 2.0076e-14)
(977.431 1.67539 2.05782e-14)
(977.415 1.71336 2.08691e-14)
(977.4 1.74858 2.0196e-14)
(977.389 1.78079 2.12643e-14)
(977.379 1.80976 2.22786e-14)
(977.372 1.83529 1.96874e-14)
(977.368 1.85712 2.03765e-14)
(977.366 1.87499 2.26196e-14)
(977.367 1.88897 2.15923e-14)
(977.805 1.19029 1.39449e-14)
(977.796 1.20543 1.46164e-14)
(977.786 1.22064 1.51276e-14)
(977.776 1.23596 1.51687e-14)
(977.766 1.2514 1.55154e-14)
(977.756 1.26698 1.4635e-14)
(977.746 1.28272 1.43946e-14)
(977.736 1.29863 1.68476e-14)
(977.725 1.31473 1.46254e-14)
(977.715 1.33102 1.50119e-14)
(977.704 1.34752 1.54238e-14)
(977.693 1.36422 1.45129e-14)
(977.682 1.38114 1.53313e-14)
(977.671 1.39827 1.36304e-14)
(977.66 1.41562 1.08831e-14)
(977.648 1.43317 1.17038e-14)
(977.637 1.45094 1.1751e-14)
(977.625 1.46891 1.41526e-14)
(977.613 1.48707 1.42436e-14)
(977.601 1.50544 1.20639e-14)
(977.589 1.52399 1.44117e-14)
(977.577 1.54273 1.43264e-14)
(977.564 1.56165 1.33626e-14)
(977.552 1.58075 1.35361e-14)
(977.539 1.60002 1.35328e-14)
(977.527 1.61948 1.28821e-14)
(977.514 1.63911 1.28812e-14)
(977.501 1.65892 1.25608e-14)
(977.488 1.67892 1.24333e-14)
(977.475 1.69911 1.33349e-14)
(977.461 1.7195 1.2344e-14)
(977.448 1.74011 1.29329e-14)
(977.434 1.76095 1.26184e-14)
(977.42 1.78203 1.24901e-14)
(977.406 1.80338 1.2139e-14)
(977.392 1.825 1.46373e-14)
(977.378 1.84693 1.04123e-14)
(977.364 1.86917 1.20938e-14)
(977.349 1.89176 1.33205e-14)
(977.334 1.91472 1.28673e-14)
(977.319 1.93807 1.343e-14)
(977.303 1.96183 1.48097e-14)
(977.288 1.98602 1.1534e-14)
(977.272 2.01068 1.32696e-14)
(977.255 2.03582 1.21621e-14)
(977.239 2.06146 1.2622e-14)
(977.221 2.08764 1.37592e-14)
(977.204 2.11438 1.39501e-14)
(977.186 2.1417 1.27804e-14)
(977.168 2.16963 1.10995e-14)
(977.149 2.19821 1.10898e-14)
(977.13 2.22745 1.15883e-14)
(977.111 2.25739 1.13802e-14)
(977.091 2.28805 1.11633e-14)
(977.07 2.31946 1.24355e-14)
(977.049 2.35166 1.37974e-14)
(977.028 2.38466 1.10885e-14)
(977.006 2.4185 1.22803e-14)
(976.984 2.4532 1.38374e-14)
(976.961 2.48879 1.24256e-14)
(976.937 2.52528 1.21465e-14)
(976.913 2.5627 1.18097e-14)
(976.889 2.60106 1.23504e-14)
(976.863 2.64038 1.19257e-14)
(976.838 2.68068 9.58041e-15)
(976.812 2.72195 1.01756e-14)
(976.785 2.7642 1.31666e-14)
(976.758 2.80744 1.1114e-14)
(976.73 2.85165 1.17433e-14)
(976.702 2.89684 1.35123e-14)
(976.673 2.94297 1.0811e-14)
(976.644 2.99004 1.14695e-14)
(976.615 3.03802 1.2341e-14)
(976.585 3.08688 1.22363e-14)
(976.554 3.13659 1.04775e-14)
(976.523 3.18709 1.01007e-14)
(976.492 3.23836 1.20986e-14)
(976.46 3.29035 1.04635e-14)
(976.428 3.343 1.00411e-14)
(976.395 3.39626 8.92463e-15)
(976.362 3.45007 1.02637e-14)
(976.329 3.5044 1.15877e-14)
(976.295 3.55916 1.21481e-14)
(976.261 3.61432 1.09604e-14)
(976.227 3.66982 1.11435e-14)
(976.192 3.72561 1.09342e-14)
(976.157 3.78164 9.91369e-15)
(976.122 3.83786 9.1795e-15)
(976.086 3.89424 9.30247e-15)
(976.05 3.95074 1.06017e-14)
(976.014 4.00733 1.22715e-14)
(975.977 4.06398 1.05596e-14)
(975.94 4.12067 9.70715e-15)
(975.903 4.17739 9.77601e-15)
(975.866 4.23414 8.26183e-15)
(975.828 4.29091 9.1744e-15)
(975.79 4.34772 8.47142e-15)
(975.752 4.40457 1.10541e-14)
(975.714 4.46148 9.65614e-15)
(975.675 4.51847 8.84874e-15)
(975.636 4.57557 9.65796e-15)
(975.597 4.63282 9.51397e-15)
(975.558 4.69024 9.12965e-15)
(975.518 4.74789 1.1022e-14)
(975.479 4.8058 1.12058e-14)
(975.439 4.86404 7.96215e-15)
(975.399 4.92267 8.83588e-15)
(975.358 4.98174 1.14518e-14)
(975.318 5.04134 1.01336e-14)
(975.277 5.10154 1.14871e-14)
(975.236 5.16241 1.19908e-14)
(975.194 5.22404 1.0638e-14)
(975.152 5.28652 8.86811e-15)
(975.11 5.34992 9.83931e-15)
(975.067 5.41435 9.75243e-15)
(975.023 5.4799 9.62302e-15)
(974.979 5.54666 1.03074e-14)
(974.935 5.61473 1.05838e-14)
(974.89 5.68421 9.72629e-15)
(974.843 5.7552 1.01918e-14)
(974.797 5.82781 1.0074e-14)
(974.749 5.90215 9.35772e-15)
(974.7 5.97832 1.05951e-14)
(974.65 6.05641 1.03144e-14)
(974.599 6.13655 9.56505e-15)
(974.546 6.21883 8.74522e-15)
(974.493 6.30334 8.00784e-15)
(974.437 6.39019 8.77058e-15)
(974.381 6.47946 6.28473e-15)
(974.322 6.57125 7.49566e-15)
(974.262 6.66564 8.08677e-15)
(974.2 6.76269 7.85508e-15)
(974.137 6.86248 1.02667e-14)
(974.071 6.96508 9.13152e-15)
(974.003 7.07052 8.73136e-15)
(973.933 7.17887 9.02747e-15)
(973.862 7.29015 8.99636e-15)
(973.788 7.40439 9.15755e-15)
(973.712 7.52162 1.04929e-14)
(973.634 7.64184 8.93129e-15)
(973.553 7.76505 8.84311e-15)
(973.471 7.89124 9.17934e-15)
(973.387 8.02039 9.21095e-15)
(973.3 8.15248 9.078e-15)
(973.212 8.28746 8.03819e-15)
(973.121 8.4253 7.81312e-15)
(973.029 8.56595 8.40488e-15)
(972.935 8.70935 9.40101e-15)
(972.839 8.85546 7.79289e-15)
(972.741 9.00423 7.18915e-15)
(972.642 9.15565 7.83541e-15)
(972.541 9.30973 7.90412e-15)
(972.439 9.4665 8.35365e-15)
(972.335 9.62602 6.69305e-15)
(972.23 9.78834 6.68433e-15)
(972.123 9.95352 8.55639e-15)
(972.015 10.1217 8.74368e-15)
(971.905 10.2929 8.68242e-15)
(971.793 10.4672 7.5089e-15)
(971.679 10.6449 7.59296e-15)
(971.564 10.8261 7.63972e-15)
(971.447 11.0108 6.10674e-15)
(971.328 11.1995 6.77489e-15)
(971.207 11.3921 7.54618e-15)
(971.083 11.589 7.89652e-15)
(970.958 11.7903 8.07726e-15)
(970.83 11.9964 7.35039e-15)
(970.699 12.2073 7.89629e-15)
(970.566 12.4235 1.00646e-14)
(970.43 12.6449 7.38273e-15)
(970.291 12.8722 7.30709e-15)
(970.149 13.105 8.56322e-15)
(970.003 13.3443 8.89016e-15)
(969.855 13.5893 7.59536e-15)
(969.703 13.8413 6.80051e-15)
(969.548 14.0992 6.57515e-15)
(969.388 14.3644 7.69051e-15)
(969.226 14.6356 6.99434e-15)
(969.059 14.9144 6.23328e-15)
(968.889 15.1994 5.91011e-15)
(968.714 15.4916 6.85874e-15)
(968.536 15.7905 6.37026e-15)
(968.354 16.0957 7.2936e-15)
(968.167 16.4088 7.2782e-15)
(967.977 16.7256 7.06485e-15)
(967.781 17.0534 8.23144e-15)
(967.585 17.3802 6.68352e-15)
(967.38 17.7218 6.87414e-15)
(967.174 18.0622 8.54075e-15)
(966.971 18.3992 6.78941e-15)
(966.743 18.7958 6.91147e-15)
(966.588 19.1467 7.41675e-15)
(967.099 18.7856 6.9287e-15)
(975.988 3.5597 2.91679e-14)
(975.912 3.69662 2.78288e-14)
(975.84 3.83017 2.80656e-14)
(975.772 3.9596 3.1077e-14)
(975.708 4.08413 2.93874e-14)
(975.65 4.20294 2.62773e-14)
(975.597 4.3153 2.83902e-14)
(975.55 4.4205 2.81697e-14)
(975.51 4.51794 2.75326e-14)
(975.476 4.60707 2.94596e-14)
(975.448 4.68741 3.22031e-14)
(975.428 4.75851 3.00298e-14)
(975.414 4.82004 2.82907e-14)
(975.408 4.87186 2.76063e-14)
(975.408 4.91403 2.84414e-14)
(975.414 4.94648 2.72648e-14)
(976.317 3.46775 1.99198e-14)
(976.286 3.51574 1.86508e-14)
(976.255 3.56421 1.94229e-14)
(976.224 3.61321 1.91589e-14)
(976.192 3.6628 2.15309e-14)
(976.159 3.71304 2.06695e-14)
(976.126 3.76398 1.82458e-14)
(976.093 3.81567 1.93163e-14)
(976.059 3.86816 2.07641e-14)
(976.024 3.92149 2.08827e-14)
(975.989 3.9757 1.91275e-14)
(975.953 4.03084 1.95236e-14)
(975.916 4.08696 1.83463e-14)
(975.879 4.14409 1.92075e-14)
(975.841 4.20229 1.96382e-14)
(975.803 4.26158 1.81385e-14)
(975.764 4.32202 1.84266e-14)
(975.724 4.38365 1.72127e-14)
(975.683 4.44651 1.68932e-14)
(975.641 4.51066 1.89913e-14)
(975.599 4.57613 2.0276e-14)
(975.556 4.64297 2.0989e-14)
(975.512 4.71121 1.9567e-14)
(975.467 4.78091 1.80567e-14)
(975.421 4.85209 1.68415e-14)
(975.374 4.92478 1.75949e-14)
(975.327 4.99901 1.76779e-14)
(975.278 5.07481 1.79223e-14)
(975.229 5.15218 2.05671e-14)
(975.178 5.23114 1.82224e-14)
(975.127 5.31168 1.68372e-14)
(975.075 5.39378 1.86437e-14)
(975.022 5.47745 1.67711e-14)
(974.968 5.56264 1.76342e-14)
(974.913 5.64932 1.81494e-14)
(974.857 5.73746 1.83617e-14)
(974.8 5.82701 1.79252e-14)
(974.743 5.91792 1.88204e-14)
(974.685 6.01013 1.6996e-14)
(974.626 6.1036 1.51745e-14)
(974.566 6.19826 1.80315e-14)
(974.505 6.29407 1.59773e-14)
(974.444 6.39097 1.70126e-14)
(974.381 6.48893 1.80343e-14)
(974.319 6.58789 1.75785e-14)
(974.255 6.68784 1.69157e-14)
(974.19 6.78874 1.63634e-14)
(974.125 6.8906 1.60236e-14)
(974.059 6.9934 1.68084e-14)
(973.992 7.09715 1.36977e-14)
(973.925 7.20187 1.48609e-14)
(973.856 7.30757 1.71804e-14)
(973.787 7.41427 1.68448e-14)
(973.716 7.52201 1.64287e-14)
(973.645 7.6308 1.73592e-14)
(973.573 7.74067 1.71386e-14)
(973.5 7.85165 1.51848e-14)
(973.426 7.96377 1.61598e-14)
(973.351 8.07705 1.73483e-14)
(973.275 8.19154 1.69751e-14)
(973.199 8.30727 1.69831e-14)
(973.121 8.42427 1.60775e-14)
(973.042 8.54258 1.53735e-14)
(972.962 8.66225 1.54292e-14)
(972.882 8.78331 1.30308e-14)
(972.8 8.90582 1.43952e-14)
(972.717 9.02982 1.7576e-14)
(972.633 9.15536 1.62544e-14)
(972.549 9.28252 1.60505e-14)
(972.463 9.41134 1.67405e-14)
(972.376 9.54191 1.53829e-14)
(972.288 9.67429 1.57718e-14)
(972.199 9.80858 1.53076e-14)
(972.109 9.94486 1.54068e-14)
(972.018 10.0832 1.54788e-14)
(971.926 10.2238 1.51526e-14)
(971.832 10.3668 1.54306e-14)
(971.737 10.5121 1.48089e-14)
(971.641 10.6601 1.50955e-14)
(971.543 10.8108 1.45582e-14)
(971.443 10.9644 1.58239e-14)
(971.342 11.1211 1.40306e-14)
(971.239 11.2809 1.42914e-14)
(971.134 11.4442 1.3958e-14)
(971.026 11.611 1.59047e-14)
(970.917 11.7815 1.50368e-14)
(970.804 11.956 1.42475e-14)
(970.69 12.1345 1.34881e-14)
(970.572 12.3173 1.25938e-14)
(970.451 12.5045 1.52657e-14)
(970.328 12.6963 1.61582e-14)
(970.201 12.8928 1.4078e-14)
(970.071 13.0942 1.48849e-14)
(969.937 13.3006 1.44018e-14)
(969.8 13.5121 1.30966e-14)
(969.659 13.7289 1.25644e-14)
(969.514 13.9511 1.25782e-14)
(969.366 14.1788 1.36758e-14)
(969.214 14.4121 1.3912e-14)
(969.058 14.6513 1.2492e-14)
(968.898 14.8965 1.41575e-14)
(968.734 15.1479 1.31703e-14)
(968.566 15.4057 1.3728e-14)
(968.393 15.6702 1.37161e-14)
(968.217 15.9414 1.30673e-14)
(968.037 16.2197 1.21511e-14)
(967.852 16.5052 1.39982e-14)
(967.663 16.7981 1.3592e-14)
(967.47 17.0987 1.27216e-14)
(967.272 17.4071 1.17264e-14)
(967.071 17.7234 1.40963e-14)
(966.865 18.048 1.48536e-14)
(966.654 18.3809 1.23471e-14)
(966.439 18.7223 1.25317e-14)
(966.22 19.0723 1.27471e-14)
(965.996 19.4312 1.10945e-14)
(965.767 19.7989 1.26729e-14)
(965.534 20.1756 1.26416e-14)
(965.296 20.5613 1.44452e-14)
(965.054 20.9561 1.63539e-14)
(964.807 21.3599 1.31572e-14)
(964.555 21.7728 1.22753e-14)
(964.298 22.1948 1.35386e-14)
(964.036 22.6256 1.39121e-14)
(963.769 23.0654 1.34463e-14)
(963.497 23.5138 1.33533e-14)
(963.22 23.9707 1.10944e-14)
(962.938 24.4359 1.23728e-14)
(962.651 24.9091 1.32189e-14)
(962.359 25.39 1.17991e-14)
(962.062 25.8782 1.18455e-14)
(961.759 26.3735 1.09405e-14)
(961.452 26.8752 1.10289e-14)
(961.14 27.383 1.10235e-14)
(960.822 27.8964 1.15652e-14)
(960.501 28.4149 1.13185e-14)
(960.174 28.938 1.29561e-14)
(959.843 29.4651 1.28942e-14)
(959.508 29.9957 1.12252e-14)
(959.169 30.5292 1.11002e-14)
(958.827 31.065 9.64339e-15)
(958.48 31.6027 1.13026e-14)
(958.131 32.1417 1.17762e-14)
(957.779 32.6813 1.20526e-14)
(957.425 33.2212 1.14397e-14)
(957.068 33.7608 1.45182e-14)
(956.71 34.2996 1.23538e-14)
(956.351 34.8372 1.25919e-14)
(955.992 35.3732 1.15353e-14)
(955.632 35.9073 1.17989e-14)
(955.272 36.4397 1.17243e-14)
(954.911 36.9706 9.77713e-15)
(954.55 37.5005 1.04419e-14)
(954.189 38.0298 9.59435e-15)
(953.828 38.5591 1.01577e-14)
(953.465 39.0889 9.99496e-15)
(953.102 39.6197 1.11959e-14)
(952.738 40.1522 1.21126e-14)
(952.372 40.6868 1.08597e-14)
(952.004 41.2244 1.05483e-14)
(951.635 41.7654 1.13398e-14)
(951.263 42.3108 1.07059e-14)
(950.888 42.8609 1.07891e-14)
(950.51 43.417 9.82966e-15)
(950.127 43.9792 1.09384e-14)
(949.74 44.5492 1.10286e-14)
(949.349 45.1266 9.53488e-15)
(948.951 45.7139 9.91705e-15)
(948.547 46.3099 9.72006e-15)
(948.136 46.9183 9.29985e-15)
(947.718 47.5368 1.18006e-14)
(947.29 48.1706 1.0195e-14)
(946.854 48.8157 1.13915e-14)
(946.406 49.4799 1.15723e-14)
(945.949 50.1565 1.06023e-14)
(945.478 50.8565 9.86686e-15)
(944.996 51.5703 1.12233e-14)
(944.497 52.3121 9.5923e-15)
(943.986 53.0699 8.573e-15)
(943.456 53.8599 8.6106e-15)
(942.912 54.6697 9.92251e-15)
(942.346 55.5141 8.42351e-15)
(941.762 56.3862 7.72885e-15)
(941.158 57.29 9.03884e-15)
(940.528 58.2383 9.01276e-15)
(939.883 59.2026 8.42181e-15)
(939.196 60.2465 8.23758e-15)
(938.51 61.2704 7.91582e-15)
(937.764 62.4171 1.04142e-14)
(937.008 63.5628 1.0126e-14)
(936.307 64.6251 1.03048e-14)
(935.353 66.6575 9.79099e-15)
(936.222 65.7812 9.30463e-15)
(972.328 8.5563 3.56711e-14)
(972.16 8.86576 3.71444e-14)
(972 9.16699 4.00159e-14)
(971.851 9.45885 4.0264e-14)
(971.712 9.74029 3.69159e-14)
(971.584 10.0102 3.71669e-14)
(971.468 10.2675 3.82172e-14)
(971.365 10.5108 3.76693e-14)
(971.275 10.7386 3.70291e-14)
(971.199 10.9497 3.97701e-14)
(971.138 11.1426 3.90574e-14)
(971.091 11.3162 3.60361e-14)
(971.059 11.4691 3.62459e-14)
(971.044 11.5996 3.33621e-14)
(971.044 11.7058 3.48471e-14)
(972.369 9.53138 2.63547e-14)
(972.274 9.68192 2.4837e-14)
(972.177 9.83361 2.42212e-14)
(972.08 9.98656 2.34165e-14)
(971.981 10.1409 2.59991e-14)
(971.881 10.2968 2.37287e-14)
(971.78 10.4543 2.36975e-14)
(971.677 10.6138 2.55215e-14)
(971.573 10.7752 2.53985e-14)
(971.467 10.9388 2.56371e-14)
(971.359 11.1047 2.47601e-14)
(971.25 11.273 2.46017e-14)
(971.139 11.4438 2.57139e-14)
(971.026 11.6173 2.56499e-14)
(970.911 11.7935 2.31938e-14)
(970.795 11.9725 2.51164e-14)
(970.676 12.1544 2.56317e-14)
(970.556 12.3392 2.36413e-14)
(970.433 12.527 2.4453e-14)
(970.308 12.7178 2.23662e-14)
(970.182 12.9117 2.16697e-14)
(970.053 13.1087 2.29285e-14)
(969.922 13.3088 2.25638e-14)
(969.789 13.512 2.26229e-14)
(969.653 13.7184 2.20397e-14)
(969.516 13.9279 2.2487e-14)
(969.376 14.1407 2.27951e-14)
(969.235 14.3566 2.30246e-14)
(969.091 14.5758 2.38688e-14)
(968.945 14.7983 2.28779e-14)
(968.797 15.024 2.28918e-14)
(968.646 15.253 2.26602e-14)
(968.494 15.4854 2.24572e-14)
(968.339 15.7212 2.33483e-14)
(968.182 15.9605 2.27806e-14)
(968.023 16.2033 2.36155e-14)
(967.861 16.4499 2.32365e-14)
(967.698 16.7002 2.30075e-14)
(967.531 16.9544 2.10451e-14)
(967.363 17.2127 1.96441e-14)
(967.192 17.4752 1.96314e-14)
(967.018 17.742 2.06994e-14)
(966.841 18.0134 2.07485e-14)
(966.662 18.2894 2.02308e-14)
(966.479 18.5704 1.89111e-14)
(966.293 18.8563 1.97535e-14)
(966.104 19.1475 2.03194e-14)
(965.912 19.4441 2.09246e-14)
(965.716 19.7463 2.09135e-14)
(965.516 20.0542 2.02344e-14)
(965.312 20.3681 2.15794e-14)
(965.104 20.6881 2.11719e-14)
(964.892 21.0146 2.20072e-14)
(964.675 21.348 1.96437e-14)
(964.453 21.6885 2.01846e-14)
(964.226 22.0365 2.08527e-14)
(963.994 22.3925 2.11418e-14)
(963.757 22.7567 2.19946e-14)
(963.514 23.1296 1.89523e-14)
(963.265 23.5116 1.78921e-14)
(963.01 23.9031 2.16147e-14)
(962.749 24.3044 2.21708e-14)
(962.482 24.7161 1.8947e-14)
(962.208 25.1384 1.95172e-14)
(961.927 25.5719 2.0147e-14)
(961.639 26.0168 1.95881e-14)
(961.344 26.4736 1.99553e-14)
(961.042 26.9426 1.98151e-14)
(960.732 27.4242 1.96343e-14)
(960.415 27.9186 2.02783e-14)
(960.091 28.4261 1.88824e-14)
(959.759 28.9469 2.00245e-14)
(959.419 29.4813 1.90552e-14)
(959.072 30.0294 2.19802e-14)
(958.717 30.5913 1.94533e-14)
(958.355 31.1669 1.82501e-14)
(957.984 31.7563 1.83811e-14)
(957.607 32.3593 1.96603e-14)
(957.222 32.9758 1.96352e-14)
(956.829 33.6055 1.87095e-14)
(956.429 34.2482 1.81936e-14)
(956.022 34.9034 1.77463e-14)
(955.608 35.5708 1.73454e-14)
(955.187 36.2496 1.49127e-14)
(954.76 36.9395 1.68525e-14)
(954.326 37.6398 1.77396e-14)
(953.886 38.3497 1.79344e-14)
(953.44 39.0685 1.70699e-14)
(952.988 39.7955 1.77787e-14)
(952.531 40.5297 1.76162e-14)
(952.069 41.2703 1.77133e-14)
(951.602 42.0164 1.69542e-14)
(951.13 42.767 1.85189e-14)
(950.654 43.5211 1.73383e-14)
(950.175 44.2779 1.65717e-14)
(949.692 45.0364 1.62384e-14)
(949.207 45.7957 1.57685e-14)
(948.719 46.555 1.69199e-14)
(948.228 47.3141 1.75791e-14)
(947.735 48.0731 1.59133e-14)
(947.238 48.8321 1.66751e-14)
(946.739 49.5913 1.609e-14)
(946.237 50.3511 1.62491e-14)
(945.731 51.1116 1.67605e-14)
(945.222 51.8735 1.62568e-14)
(944.709 52.6373 1.58105e-14)
(944.192 53.4035 1.60996e-14)
(943.671 54.1728 1.45152e-14)
(943.146 54.9462 1.53664e-14)
(942.615 55.7244 1.44939e-14)
(942.079 56.5084 1.62199e-14)
(941.537 57.2992 1.50362e-14)
(940.989 58.0979 1.61161e-14)
(940.434 58.9057 1.55251e-14)
(939.871 59.7238 1.66774e-14)