/*--------------------------------*- C++ -*----------------------------------*\
| =========                 |                                                 |
| \\      /  F ield         | OpenFOAM: The Open Source CFD Toolbox           |
|  \\    /   O peration     | Version:  v1706                                 |
|   \\  /    A nd           | Web:      www.OpenFOAM.com                      |
|    \\/     M anipulation  |                                                 |
\*---------------------------------------------------------------------------*/
FoamFile
{
    version     2.0;
    format      ascii;
    class       volScalarField;
    location    "1.4e-05";
    object      wallHeatFlux;
}
// * * * * * * * * * * * * * * * * * * * * * * * * * * * * * * * * * * * * * //

dimensions      [1 0 -3 0 0 0 0];


internalField   uniform 0;

boundaryField
{
    cone
    {
        type            calculated;
        value           nonuniform List<scalar> 
119
(
-2001.56
-2002.03
-2002.41
-2002.7
-2002.92
-2003.07
-2003.17
-2003.23
-2003.25
-2003.23
-2003.19
-2003.12
-2003.03
-2002.93
-2002.81
-2002.68
-2002.54
-2002.39
-2002.23
-2002.06
-2001.9
-2001.72
-2001.55
-2001.37
-2001.19
-2001.01
-2000.83
-2000.64
-2000.46
-2000.27
-2000.08
-1999.9
-1999.71
-1999.52
-1999.34
-1999.15
-1998.97
-1998.78
-1998.6
-1998.41
-1998.23
-1998.04
-1997.86
-1997.68
-1997.5
-1997.31
-1997.13
-1996.95
-1996.77
-1996.59
-1996.41
-1996.24
-1996.06
-1995.88
-1995.7
-1995.53
-1995.35
-1995.18
-1995
-1994.83
-1994.65
-1994.48
-1994.31
-1994.14
-1993.96
-1993.79
-1993.62
-1993.45
-1993.28
-1993.12
-1992.95
-1992.78
-1992.61
-1992.45
-1992.28
-1992.12
-1991.95
-1991.79
-1991.62
-1991.46
-1991.3
-1991.13
-1990.97
-1990.81
-1990.65
-1990.49
-1990.34
-1990.18
-1990.03
-1989.89
-1989.76
-1989.64
-1989.54
-1989.47
-1989.45
-1989.46
-1989.54
-1989.67
-1989.86
-1990.1
-1990.38
-1990.68
-1990.98
-1991.25
-1991.49
-1991.72
-1991.98
-1992.37
-1993.06
-1994.31
-1996.51
-2000.22
-2006.31
-2016.02
-2031.18
-2054.97
-2093.37
-2156.25
-2250.38
)
;
    }
    inlet
    {
        type            calculated;
        value           uniform 0;
    }
    rWedge
    {
        type            wedge;
    }
    lWedge
    {
        type            wedge;
    }
    outlet
    {
        type            calculated;
        value           uniform 0;
    }
    procBoundary0to1
    {
        type            processor;
        value           uniform 0;
    }
    procBoundary0to2
    {
        type            processor;
        value           uniform 0;
    }
}


// ************************************************************************* //
