/*--------------------------------*- C++ -*----------------------------------*\
| =========                 |                                                 |
| \\      /  F ield         | OpenFOAM: The Open Source CFD Toolbox           |
|  \\    /   O peration     | Version:  v1706                                 |
|   \\  /    A nd           | Web:      www.OpenFOAM.com                      |
|    \\/     M anipulation  |                                                 |
\*---------------------------------------------------------------------------*/
FoamFile
{
    version     2.0;
    format      ascii;
    class       volScalarField;
    location    "3.4e-05";
    object      kappatr;
}
// * * * * * * * * * * * * * * * * * * * * * * * * * * * * * * * * * * * * * //

dimensions      [1 1 -3 -1 0 0 0];


internalField   nonuniform List<scalar> 
30038
(
0.014593
0.014593
0.014593
0.014593
0.014593
0.014593
0.014593
0.014593
0.014593
0.014593
0.014593
0.014593
0.014593
0.014593
0.014593
0.014593
0.014593
0.014593
0.014593
0.014593
0.014593
0.014593
0.014593
0.014593
0.014593
0.014593
0.014593
0.014593
0.014593
0.014593
0.014593
0.014593
0.014593
0.014593
0.014593
0.014593
0.014593
0.014593
0.014593
0.014593
0.014593
0.014593
0.014593
0.014593
0.014593
0.014593
0.014593
0.014593
0.014593
0.014593
0.014593
0.014593
0.014593
0.014593
0.014593
0.014593
0.014593
0.014593
0.014593
0.014593
0.014593
0.014593
0.014593
0.014593
0.014593
0.014593
0.014593
0.014593
0.014593
0.014593
0.014593
0.014593
0.014593
0.014593
0.014593
0.014593
0.014593
0.014593
0.014593
0.014593
0.014593
0.014593
0.014593
0.014593
0.014593
0.014593
0.014593
0.014593
0.014593
0.014593
0.014593
0.014593
0.014593
0.014593
0.014593
0.014593
0.014593
0.014593
0.014593
0.014593
0.014593
0.014593
0.014593
0.014593
0.014593
0.014593
0.014593
0.014593
0.014593
0.014593
0.014593
0.014593
0.014593
0.014593
0.014593
0.014593
0.014593
0.014593
0.014593
0.014593
0.014593
0.014593
0.014593
0.014593
0.014593
0.014593
0.014593
0.014593
0.014593
0.014593
0.014593
0.014593
0.014593
0.014593
0.014593
0.014593
0.014593
0.014593
0.014593
0.014593
0.014593
0.014593
0.014593
0.014593
0.014593
0.014593
0.014593
0.014593
0.014593
0.014593
0.014593
0.014593
0.014593
0.014593
0.014593
0.014593
0.014593
0.014593
0.014593
0.014593
0.014593
0.014593
0.014593
0.014593
0.014593
0.014593
0.014593
0.014593
0.014593
0.014593
0.014593
0.014593
0.014593
0.014593
0.014593
0.014593
0.014593
0.014593
0.014593
0.014593
0.014593
0.014593
0.014593
0.014593
0.014593
0.014593
0.014593
0.014593
0.014593
0.014593
0.014593
0.014593
0.014593
0.014593
0.014593
0.014593
0.014593
0.014593
0.014593
0.014593
0.014593
0.014593
0.014593
0.014593
0.014593
0.014593
0.014593
0.014593
0.014593
0.014593
0.014593
0.014593
0.014593
0.014593
0.014593
0.014593
0.014593
0.014593
0.014593
0.014593
0.014593
0.014593
0.014593
0.014593
0.014593
0.014593
0.014593
0.014593
0.014593
0.014593
0.014593
0.014593
0.014593
0.014593
0.014593
0.014593
0.014593
0.014593
0.014593
0.014593
0.014593
0.014593
0.014593
0.014593
0.014593
0.014593
0.014593
0.014593
0.014593
0.014593
0.014593
0.014593
0.014593
0.014593
0.014593
0.014593
0.014593
0.014593
0.014593
0.014593
0.014593
0.014593
0.014593
0.014593
0.014593
0.014593
0.014593
0.014593
0.014593
0.014593
0.014593
0.014593
0.014593
0.014593
0.014593
0.014593
0.014593
0.014593
0.014593
0.014593
0.014593
0.014593
0.014593
0.014593
0.014593
0.014593
0.014593
0.014593
0.014593
0.014593
0.014593
0.014593
0.014593
0.014593
0.014593
0.014593
0.014593
0.014593
0.014593
0.014593
0.014593
0.014593
0.014593
0.014593
0.014593
0.014593
0.014593
0.014593
0.014593
0.014593
0.014593
0.014593
0.014593
0.014593
0.014593
0.014593
0.014593
0.014593
0.014593
0.014593
0.014593
0.014593
0.014593
0.014593
0.014593
0.014593
0.014593
0.014593
0.014593
0.014593
0.014593
0.014593
0.014593
0.014593
0.014593
0.014593
0.014593
0.014593
0.014593
0.014593
0.014593
0.0145931
0.0145931
0.014593
0.014593
0.014593
0.014593
0.014593
0.014593
0.014593
0.014593
0.014593
0.014593
0.014593
0.014593
0.014593
0.014593
0.014593
0.014593
0.014593
0.014593
0.014593
0.014593
0.014593
0.014593
0.014593
0.014593
0.014593
0.014593
0.014593
0.014593
0.014593
0.014593
0.014593
0.014593
0.014593
0.014593
0.014593
0.0145931
0.0145931
0.0145931
0.0145932
0.014593
0.014593
0.014593
0.014593
0.014593
0.014593
0.014593
0.014593
0.014593
0.014593
0.014593
0.014593
0.014593
0.014593
0.014593
0.014593
0.014593
0.014593
0.014593
0.014593
0.014593
0.014593
0.014593
0.014593
0.014593
0.014593
0.014593
0.014593
0.014593
0.014593
0.014593
0.014593
0.0145931
0.0145931
0.0145931
0.0145932
0.0145933
0.0145934
0.0145936
0.014593
0.014593
0.014593
0.014593
0.014593
0.014593
0.014593
0.014593
0.014593
0.014593
0.014593
0.014593
0.014593
0.014593
0.014593
0.014593
0.014593
0.014593
0.014593
0.014593
0.014593
0.014593
0.014593
0.014593
0.014593
0.014593
0.014593
0.014593
0.014593
0.014593
0.0145931
0.0145931
0.0145931
0.0145932
0.0145933
0.0145934
0.0145936
0.0145938
0.0145942
0.0145948
0.014593
0.014593
0.014593
0.014593
0.014593
0.014593
0.014593
0.014593
0.014593
0.014593
0.014593
0.014593
0.014593
0.014593
0.014593
0.014593
0.014593
0.014593
0.014593
0.014593
0.014593
0.014593
0.014593
0.014593
0.014593
0.014593
0.014593
0.0145931
0.0145931
0.0145931
0.0145932
0.0145933
0.0145934
0.0145935
0.0145938
0.0145941
0.0145947
0.0145954
0.0145965
0.0145982
0.014593
0.014593
0.014593
0.014593
0.014593
0.014593
0.014593
0.014593
0.014593
0.014593
0.014593
0.014593
0.014593
0.014593
0.014593
0.014593
0.014593
0.014593
0.014593
0.014593
0.014593
0.014593
0.014593
0.014593
0.0145931
0.0145931
0.0145931
0.0145932
0.0145933
0.0145934
0.0145935
0.0145938
0.0145941
0.0145946
0.0145953
0.0145963
0.0145977
0.0145999
0.0146031
0.0146078
0.014593
0.014593
0.014593
0.014593
0.014593
0.014593
0.014593
0.014593
0.014593
0.014593
0.014593
0.014593
0.014593
0.014593
0.014593
0.014593
0.014593
0.014593
0.014593
0.014593
0.0145931
0.0145931
0.0145931
0.0145931
0.0145932
0.0145933
0.0145934
0.0145935
0.0145937
0.0145941
0.0145945
0.0145952
0.0145961
0.0145975
0.0145994
0.0146023
0.0146064
0.0146124
0.0146212
0.0146342
0.014593
0.014593
0.014593
0.014593
0.014593
0.014593
0.014593
0.014593
0.014593
0.014593
0.014593
0.014593
0.014593
0.014593
0.014593
0.014593
0.014593
0.0145931
0.0145931
0.0145931
0.0145931
0.0145932
0.0145933
0.0145934
0.0145935
0.0145937
0.0145941
0.0145945
0.0145951
0.014596
0.0145973
0.0145991
0.0146017
0.0146055
0.0146109
0.0146187
0.01463
0.0146464
0.0146703
0.0147053
0.014593
0.014593
0.014593
0.014593
0.014593
0.014593
0.014593
0.014593
0.014593
0.014593
0.014593
0.014593
0.014593
0.014593
0.0145931
0.0145931
0.0145931
0.0145931
0.0145932
0.0145933
0.0145934
0.0145935
0.0145938
0.0145941
0.0145945
0.0145951
0.014596
0.0145972
0.0145989
0.0146014
0.0146049
0.0146099
0.0146171
0.0146274
0.0146421
0.0146633
0.0146936
0.0147373
0.0148003
0.0148913
0.014593
0.014593
0.014593
0.014593
0.014593
0.014593
0.014593
0.014593
0.014593
0.014593
0.014593
0.0145931
0.0145931
0.0145931
0.0145932
0.0145932
0.0145933
0.0145934
0.0145936
0.0145938
0.0145941
0.0145945
0.0145951
0.014596
0.0145971
0.0145988
0.0146012
0.0146045
0.0146093
0.014616
0.0146255
0.0146391
0.0146584
0.0146858
0.0147249
0.0147806
0.0148597
0.014972
0.0151308
0.0153543
0.014593
0.014593
0.014593
0.014593
0.014593
0.014593
0.014593
0.014593
0.0145931
0.0145931
0.0145931
0.0145931
0.0145932
0.0145932
0.0145933
0.0145934
0.0145936
0.0145938
0.0145941
0.0145946
0.0145952
0.014596
0.0145972
0.0145988
0.0146011
0.0146044
0.0146089
0.0146153
0.0146243
0.014637
0.0146549
0.0146802
0.014716
0.0147665
0.0148377
0.014938
0.0150785
0.0152742
0.0155446
0.0159135
0.0164083
0.014593
0.014593
0.014593
0.014593
0.014593
0.0145931
0.0145931
0.0145931
0.0145931
0.0145932
0.0145933
0.0145933
0.0145935
0.0145936
0.0145939
0.0145942
0.0145946
0.0145953
0.0145961
0.0145973
0.0145989
0.0146012
0.0146044
0.0146088
0.014615
0.0146236
0.0146357
0.0146526
0.0146764
0.0147097
0.0147563
0.0148217
0.0149129
0.01504
0.015216
0.0154577
0.0157861
0.0162256
0.0168024
0.017541
0.0184562
0.014593
0.014593
0.0145931
0.0145931
0.0145931
0.0145931
0.0145932
0.0145932
0.0145933
0.0145934
0.0145935
0.0145937
0.0145939
0.0145943
0.0145948
0.0145954
0.0145963
0.0145975
0.0145991
0.0146014
0.0146046
0.014609
0.014615
0.0146235
0.0146352
0.0146514
0.0146741
0.0147055
0.0147493
0.0148102
0.0148947
0.0150116
0.0151726
0.0153926
0.0156903
0.0160877
0.0166089
0.017277
0.0181105
0.0191182
0.0202919
0.0216024
0.0145931
0.0145931
0.0145931
0.0145931
0.0145932
0.0145932
0.0145933
0.0145934
0.0145936
0.0145938
0.014594
0.0145944
0.0145949
0.0145956
0.0145965
0.0145977
0.0145995
0.0146018
0.014605
0.0146094
0.0146155
0.0146238
0.0146353
0.0146512
0.0146731
0.0147033
0.0147451
0.0148028
0.0148823
0.0149915
0.0151409
0.0153441
0.0156179
0.0159825
0.0164599
0.0170725
0.0178392
0.0187707
0.0198643
0.0210996
0.0224392
0.0238258
0.0251878
0.0145932
0.0145932
0.0145933
0.0145934
0.0145935
0.0145937
0.0145939
0.0145942
0.0145946
0.0145951
0.0145958
0.0145968
0.0145981
0.0145999
0.0146023
0.0146056
0.0146101
0.0146163
0.0146247
0.0146361
0.0146519
0.0146734
0.0147029
0.0147434
0.0147989
0.0148748
0.0149784
0.0151193
0.0153097
0.015565
0.0159036
0.0163462
0.0169138
0.0176254
0.0184936
0.01952
0.0206912
0.0219755
0.0233263
0.0246777
0.0259457
0.0270437
0.0279317
0.0145933
0.0145934
0.0145936
0.0145938
0.014594
0.0145943
0.0145948
0.0145953
0.0145961
0.0145972
0.0145986
0.0146005
0.014603
0.0146065
0.0146111
0.0146175
0.014626
0.0146377
0.0146535
0.014675
0.0147043
0.0147441
0.0147983
0.0148719
0.0149717
0.0151064
0.0152874
0.0155287
0.0158474
0.0162624
0.0167939
0.0174602
0.0182749
0.0192427
0.0203551
0.0215878
0.0229017
0.0242424
0.0255372
0.0267017
0.0276673
0.0284084
0.0289361
0.0292992
0.0145937
0.0145939
0.0145942
0.0145945
0.014595
0.0145957
0.0145965
0.0145976
0.0145992
0.0146012
0.0146039
0.0146076
0.0146125
0.0146191
0.014628
0.01464
0.0146561
0.0146779
0.0147074
0.0147472
0.0148009
0.0148733
0.0149708
0.0151015
0.015276
0.0155073
0.0158111
0.016205
0.016708
0.0173378
0.0181079
0.0190253
0.020085
0.0212685
0.0225424
0.0238616
0.025165
0.0263757
0.0274188
0.0282489
0.0288627
0.0292879
0.0295684
0.0297433
0.0298514
0.0145944
0.0145948
0.0145953
0.014596
0.014597
0.0145983
0.0145999
0.0146022
0.0146051
0.0146091
0.0146143
0.0146213
0.0146306
0.0146431
0.0146599
0.0146823
0.0147124
0.0147527
0.0148067
0.0148791
0.0149757
0.0151044
0.015275
0.0154996
0.0157929
0.0161714
0.0166527
0.0172537
0.0179878
0.0188628
0.0198766
0.0210145
0.0222487
0.0235401
0.0248374
0.0260736
0.0271743
0.0280825
0.0287776
0.0292753
0.0296113
0.0298273
0.0299595
0.0300374
0.0300809
0.0301025
0.0145951
0.0145957
0.0145966
0.0145976
0.0145991
0.0146009
0.0146034
0.0146066
0.0146109
0.0146166
0.0146241
0.0146341
0.0146473
0.0146649
0.0146883
0.0147195
0.0147609
0.0148161
0.0148893
0.0149864
0.0151149
0.0152839
0.015505
0.0157919
0.0161599
0.0166255
0.0172048
0.0179108
0.0187511
0.0197257
0.0208232
0.0220197
0.0232806
0.0245625
0.0258077
0.0269472
0.0279179
0.0286856
0.0292525
0.0296465
0.0299062
0.0300696
0.0301672
0.0302222
0.0302511
0.0302619
0.0302615
0.0302589
0.0145984
0.0146001
0.0146022
0.0146049
0.0146085
0.0146133
0.0146195
0.0146277
0.0146385
0.0146527
0.0146715
0.0146962
0.0147289
0.0147721
0.0148292
0.0149044
0.0150034
0.0151333
0.0153031
0.0155236
0.0158076
0.0161697
0.0166252
0.0171892
0.017874
0.0186871
0.0196294
0.0206919
0.0218538
0.0230844
0.0243455
0.0255878
0.0267494
0.0277665
0.0285954
0.0292255
0.0296758
0.0299803
0.0301764
0.0302964
0.0303662
0.0304037
0.0304213
0.0304215
0.0304185
0.0304109
0.0303965
0.030377
0.0146013
0.0146037
0.0146069
0.014611
0.0146163
0.0146232
0.0146322
0.0146441
0.0146595
0.0146798
0.0147064
0.0147412
0.0147869
0.0148467
0.014925
0.0150272
0.0151604
0.0153331
0.0155557
0.0158404
0.0162007
0.0166512
0.0172058
0.0178759
0.0186688
0.0195854
0.0206183
0.0217493
0.0229512
0.0241889
0.0254203
0.0265908
0.0276393
0.0285166
0.0292016
0.0297038
0.0300519
0.0302813
0.0304254
0.0305108
0.0305583
0.0305815
0.0305875
0.0305836
0.0305777
0.0305646
0.0305454
0.0305224
0.030497
0.0304696
0.014614
0.0146201
0.0146279
0.014638
0.0146511
0.0146682
0.0146904
0.0147193
0.0147568
0.0148057
0.0148693
0.0149519
0.0150589
0.0151971
0.015375
0.0156024
0.0158911
0.0162538
0.016704
0.0172545
0.017916
0.0186949
0.019592
0.0206009
0.0217056
0.0228806
0.0240943
0.0253098
0.0264788
0.0275454
0.028458
0.029188
0.0297361
0.0301248
0.0303867
0.0305547
0.030657
0.030715
0.0307453
0.0307562
0.0307531
0.0307465
0.030736
0.0307179
0.0306952
0.0306701
0.030642
0.0306126
0.030584
0.0305564
0.0146453
0.0146601
0.0146792
0.0147038
0.0147356
0.0147766
0.0148296
0.014898
0.0149862
0.0150995
0.0152448
0.0154302
0.0156654
0.0159614
0.0163303
0.0167846
0.0173361
0.0179945
0.0187653
0.0196487
0.0206388
0.0217211
0.0228719
0.0240621
0.0252583
0.0264187
0.0274922
0.0284279
0.0291922
0.0297784
0.030203
0.030495
0.0306863
0.0308054
0.0308744
0.0309116
0.0309277
0.030927
0.0309202
0.0309104
0.0308941
0.0308718
0.0308465
0.0308186
0.0307884
0.0307578
0.0307282
0.0306991
0.0306708
0.0306433
0.0147207
0.0147561
0.0148015
0.0148597
0.0149343
0.0150295
0.015151
0.0153055
0.0155009
0.0157467
0.0160534
0.0164324
0.0168952
0.0174526
0.018113
0.0188808
0.0197558
0.0207319
0.0217957
0.0229249
0.0240925
0.0252677
0.0264141
0.0274854
0.028433
0.0292209
0.0298365
0.0302911
0.0306095
0.0308221
0.030957
0.0310372
0.0310815
0.0311026
0.0311048
0.031098
0.0310876
0.031073
0.0310514
0.0310262
0.0309988
0.0309683
0.0309365
0.0309052
0.0308746
0.0308442
0.0308146
0.0307855
0.0307571
0.0307292
0.0148975
0.0149797
0.0150838
0.0152156
0.0153816
0.0155898
0.0158494
0.0161703
0.0165632
0.0170388
0.0176065
0.0182735
0.0190433
0.0199146
0.020881
0.0219296
0.0230397
0.0241855
0.0253388
0.0264672
0.027529
0.0284788
0.0292798
0.0299158
0.0303932
0.0307334
0.0309643
0.0311135
0.0312042
0.0312552
0.0312806
0.0312863
0.0312808
0.0312694
0.0312552
0.0312347
0.0312095
0.0311817
0.0311514
0.0311188
0.031086
0.031054
0.0310223
0.0309909
0.0309602
0.0309299
0.0309
0.0308705
0.0308417
0.0308133
0.015296
0.0154763
0.0157004
0.015977
0.0163158
0.0167266
0.0172189
0.0178013
0.0184793
0.0192552
0.0201268
0.0210871
0.0221237
0.0232167
0.0243414
0.0254719
0.0265791
0.0276255
0.0285691
0.0293738
0.030021
0.0305135
0.0308698
0.0311153
0.0312764
0.0313763
0.0314334
0.0314625
0.0314717
0.0314672
0.0314554
0.0314403
0.0314215
0.031396
0.0313679
0.0313379
0.0313049
0.0312709
0.0312374
0.0312043
0.0311714
0.0311391
0.0311073
0.0310758
0.0310446
0.0310139
0.0309835
0.0309535
0.0309242
0.0308953
0.0161343
0.0164947
0.0169272
0.0174404
0.0180413
0.0187341
0.0195198
0.020395
0.0213521
0.0223788
0.023456
0.0245601
0.025667
0.0267504
0.0277765
0.0287065
0.0295059
0.0301554
0.0306555
0.0310217
0.0312774
0.0314475
0.0315546
0.0316168
0.0316494
0.0316612
0.0316574
0.0316457
0.0316298
0.0316112
0.031586
0.0315575
0.0315272
0.0314941
0.0314592
0.0314243
0.03139
0.0313558
0.031322
0.0312887
0.0312557
0.031223
0.0311907
0.0311587
0.031127
0.0310957
0.0310648
0.0310343
0.0310045
0.0309751
0.0177088
0.0183318
0.0190427
0.0198409
0.0207221
0.0216781
0.0226963
0.0237585
0.0248417
0.0259239
0.026981
0.0279824
0.0288923
0.0296784
0.0303218
0.0308216
0.0311914
0.0314523
0.0316281
0.0317401
0.031806
0.0318412
0.0318548
0.0318519
0.0318406
0.0318235
0.0318041
0.0317798
0.0317506
0.0317198
0.0316867
0.0316511
0.031615
0.0315794
0.031544
0.0315086
0.0314739
0.0314395
0.0314054
0.0313716
0.0313381
0.0313049
0.031272
0.0312394
0.0312071
0.0311753
0.0311439
0.0311129
0.0310826
0.0310528
0.0202229
0.0211116
0.0220675
0.0230779
0.0241247
0.0251862
0.0262421
0.0272702
0.0282428
0.0291266
0.0298921
0.0305215
0.0310136
0.0313805
0.0316418
0.0318194
0.0319337
0.0320017
0.0320383
0.0320529
0.0320505
0.0320395
0.0320211
0.0320006
0.0319767
0.0319469
0.0319155
0.0318824
0.0318463
0.0318091
0.0317722
0.0317356
0.031699
0.0316629
0.0316271
0.0315916
0.0315564
0.0315215
0.0314868
0.0314523
0.0314182
0.0313844
0.0313508
0.0313177
0.0312849
0.0312525
0.0312206
0.0311892
0.0311585
0.0311283
0.0235247
0.0245549
0.0255931
0.0266205
0.0276169
0.0285564
0.0294086
0.0301466
0.0307547
0.0312321
0.03159
0.0318466
0.0320223
0.0321362
0.0322045
0.0322412
0.032256
0.0322536
0.0322419
0.032223
0.0322011
0.032177
0.0321467
0.0321144
0.0320808
0.0320444
0.0320064
0.0319683
0.0319305
0.0318928
0.0318553
0.0318183
0.0317815
0.0317448
0.0317085
0.0316725
0.0316366
0.031601
0.0315657
0.0315306
0.0314959
0.0314614
0.0314273
0.0313936
0.0313603
0.0313274
0.0312951
0.0312633
0.0312322
0.0312017
0.0270576
0.0280189
0.0289211
0.0297363
0.0304405
0.0310206
0.0314768
0.03182
0.0320671
0.0322371
0.0323479
0.0324144
0.0324502
0.0324641
0.0324612
0.0324488
0.0324289
0.0324055
0.0323801
0.0323503
0.0323168
0.0322824
0.0322457
0.0322068
0.0321676
0.0321288
0.0320899
0.0320511
0.0320127
0.0319747
0.0319368
0.0318992
0.0318618
0.0318246
0.0317876
0.0317509
0.0317144
0.0316781
0.0316421
0.0316064
0.0315711
0.031536
0.0315014
0.0314672
0.0314334
0.0314001
0.0313673
0.0313352
0.0313038
0.031273
0.0301065
0.0307711
0.0313171
0.0317463
0.0320696
0.032303
0.032464
0.0325688
0.0326317
0.0326651
0.0326772
0.0326732
0.0326597
0.0326387
0.0326136
0.032587
0.0325568
0.0325223
0.0324869
0.0324499
0.0324103
0.0323701
0.0323301
0.0322901
0.0322501
0.0322105
0.0321713
0.0321321
0.0320932
0.0320546
0.0320161
0.0319778
0.0319397
0.0319018
0.0318642
0.0318267
0.0317895
0.0317526
0.031716
0.0316797
0.0316438
0.0316082
0.0315731
0.0315384
0.0315041
0.0314704
0.0314373
0.0314048
0.0313731
0.0313421
0.0320383
0.0323374
0.0325533
0.0327022
0.0327987
0.0328563
0.032886
0.0328951
0.0328896
0.0328745
0.0328518
0.0328253
0.0327975
0.0327664
0.0327308
0.0326944
0.0326568
0.0326166
0.0325754
0.0325343
0.0324933
0.0324522
0.0324114
0.0323709
0.0323306
0.0322905
0.0322506
0.0322109
0.0321713
0.032132
0.0320928
0.0320538
0.032015
0.0319764
0.0319381
0.0319
0.0318622
0.0318246
0.0317874
0.0317506
0.0317141
0.031678
0.0316424
0.0316073
0.0315726
0.0315386
0.0315051
0.0314723
0.0314404
0.0314091
0.0329506
0.0330367
0.0330876
0.0331127
0.0331178
0.0331103
0.0330931
0.0330685
0.0330405
0.0330114
0.0329785
0.0329426
0.032905
0.0328665
0.0328256
0.0327834
0.0327413
0.0326993
0.0326572
0.0326152
0.0325736
0.0325321
0.0324908
0.0324497
0.0324088
0.0323681
0.0323275
0.032287
0.0322468
0.0322067
0.0321668
0.0321271
0.0320876
0.0320484
0.0320094
0.0319707
0.0319323
0.0318941
0.0318564
0.031819
0.031782
0.0317455
0.0317094
0.0316738
0.0316388
0.0316044
0.0315707
0.0315376
0.0315054
0.031474
0.0333445
0.0333447
0.0333348
0.0333152
0.0332886
0.033259
0.0332283
0.0331939
0.0331571
0.0331183
0.0330786
0.0330371
0.0329941
0.032951
0.032908
0.0328648
0.0328217
0.032779
0.0327365
0.032694
0.0326518
0.0326098
0.0325678
0.0325261
0.0324845
0.032443
0.0324017
0.0323605
0.0323195
0.0322788
0.0322382
0.0321978
0.0321577
0.0321178
0.0320782
0.0320388
0.0319998
0.0319612
0.0319229
0.031885
0.0318475
0.0318105
0.031774
0.0317381
0.0317027
0.031668
0.031634
0.0316007
0.0315683
0.0315367
0.0335629
0.0335405
0.0335116
0.0334803
0.0334481
0.0334121
0.0333741
0.0333344
0.0332935
0.0332512
0.0332074
0.0331632
0.0331192
0.0330751
0.0330309
0.0329871
0.0329436
0.0329
0.0328566
0.0328135
0.0327705
0.0327276
0.0326848
0.0326422
0.0325997
0.0325574
0.0325152
0.0324731
0.0324313
0.0323896
0.0323481
0.0323069
0.0322659
0.0322251
0.0321846
0.0321444
0.0321045
0.0320649
0.0320257
0.0319869
0.0319486
0.0319107
0.0318732
0.0318364
0.0318001
0.0317644
0.0317294
0.0316951
0.0316616
0.031629
0.0315972
0.0337046
0.0336706
0.0336329
0.0335935
0.033553
0.0335108
0.0334675
0.0334229
0.0333777
0.0333328
0.0332878
0.0332426
0.0331978
0.0331532
0.0331086
0.0330641
0.0330199
0.0329758
0.0329318
0.032888
0.0328442
0.0328006
0.0327571
0.0327138
0.0326706
0.0326275
0.0325846
0.0325419
0.0324994
0.032457
0.0324149
0.032373
0.0323314
0.03229
0.0322489
0.0322081
0.0321677
0.0321276
0.0320879
0.0320486
0.0320098
0.0319714
0.0319336
0.0318964
0.0318597
0.0318237
0.0317885
0.0317539
0.0317202
0.0316875
0.0316555
0.033856
0.0338153
0.0337737
0.0337304
0.033686
0.0336406
0.0335945
0.0335486
0.0335027
0.0334566
0.0334107
0.0333652
0.0333195
0.0332741
0.0332289
0.0331837
0.0331386
0.0330937
0.0330489
0.0330042
0.0329597
0.0329152
0.0328709
0.0328267
0.0327826
0.0327387
0.032695
0.0326514
0.032608
0.0325648
0.0325218
0.032479
0.0324365
0.0323943
0.0323523
0.0323107
0.0322693
0.0322283
0.0321878
0.0321476
0.0321078
0.0320686
0.0320298
0.0319916
0.031954
0.0319171
0.0318808
0.0318452
0.0318105
0.0317766
0.0317436
0.0317115
0.033952
0.0339065
0.0338602
0.0338133
0.0337663
0.0337197
0.0336727
0.0336258
0.0335793
0.0335328
0.0334863
0.0334401
0.0333939
0.0333479
0.0333019
0.0332561
0.0332104
0.0331647
0.0331192
0.0330738
0.0330286
0.0329834
0.0329384
0.0328935
0.0328487
0.0328041
0.0327597
0.0327155
0.0326714
0.0326276
0.032584
0.0325406
0.0324975
0.0324547
0.0324121
0.0323699
0.0323281
0.0322866
0.0322455
0.0322048
0.0321647
0.032125
0.0320858
0.0320473
0.0320093
0.0319721
0.0319355
0.0318997
0.0318647
0.0318306
0.0317975
0.0317652
0.0340338
0.033986
0.0339384
0.0338906
0.0338428
0.0337954
0.033748
0.0337006
0.0336534
0.0336064
0.0335593
0.0335124
0.0334656
0.0334189
0.0333723
0.0333257
0.0332793
0.033233
0.0331868
0.0331407
0.0330947
0.0330489
0.0330031
0.0329576
0.0329121
0.0328669
0.0328218
0.0327769
0.0327323
0.0326878
0.0326436
0.0325996
0.0325559
0.0325125
0.0324694
0.0324267
0.0323843
0.0323423
0.0323008
0.0322597
0.0322191
0.032179
0.0321395
0.0321005
0.0320623
0.0320247
0.0319878
0.0319518
0.0319165
0.0318822
0.0318489
0.0318165
0.0341103
0.0340616
0.0340133
0.0339651
0.0339167
0.0338687
0.0338207
0.0337728
0.033725
0.0336772
0.0336296
0.033582
0.0335345
0.0334871
0.0334398
0.0333926
0.0333454
0.0332984
0.0332515
0.0332048
0.0331581
0.0331116
0.0330652
0.033019
0.0329729
0.032927
0.0328813
0.0328358
0.0327905
0.0327454
0.0327006
0.0326561
0.0326118
0.0325679
0.0325242
0.032481
0.0324381
0.0323956
0.0323536
0.0323121
0.032271
0.0322306
0.0321906
0.0321514
0.0321127
0.0320748
0.0320377
0.0320014
0.0319659
0.0319313
0.0318978
0.0318653
0.0341838
0.0341346
0.0340857
0.0340369
0.033988
0.0339393
0.0338907
0.0338422
0.0337937
0.0337453
0.033697
0.0336487
0.0336006
0.0335525
0.0335045
0.0334566
0.0334088
0.0333612
0.0333136
0.0332661
0.0332188
0.0331716
0.0331246
0.0330777
0.033031
0.0329845
0.0329382
0.0328921
0.0328462
0.0328005
0.0327551
0.03271
0.0326652
0.0326207
0.0325765
0.0325328
0.0324894
0.0324465
0.032404
0.032362
0.0323205
0.0322796
0.0322393
0.0321997
0.0321607
0.0321225
0.0320851
0.0320484
0.0320127
0.0319779
0.0319442
0.0319114
0.0342546
0.0342049
0.0341554
0.034106
0.0340566
0.0340072
0.033958
0.0339088
0.0338597
0.0338106
0.0337616
0.0337127
0.0336639
0.0336151
0.0335665
0.0335179
0.0334695
0.0334212
0.0333729
0.0333248
0.0332769
0.033229
0.0331814
0.0331339
0.0330865
0.0330394
0.0329924
0.0329457
0.0328992
0.032853
0.032807
0.0327614
0.032716
0.032671
0.0326263
0.032582
0.0325382
0.0324948
0.0324518
0.0324094
0.0323675
0.0323262
0.0322855
0.0322455
0.0322062
0.0321676
0.0321298
0.0320929
0.0320569
0.0320218
0.0319879
0.0319548
0.0343227
0.0342725
0.0342224
0.0341723
0.0341223
0.0340723
0.0340224
0.0339726
0.0339228
0.0338731
0.0338235
0.0337739
0.0337244
0.0336751
0.0336258
0.0335766
0.0335275
0.0334785
0.0334296
0.0333809
0.0333323
0.0332838
0.0332355
0.0331874
0.0331394
0.0330917
0.0330441
0.0329968
0.0329497
0.0329029
0.0328564
0.0328102
0.0327643
0.0327187
0.0326735
0.0326288
0.0325844
0.0325405
0.0324971
0.0324542
0.0324119
0.0323701
0.0323291
0.0322886
0.032249
0.03221
0.0321719
0.0321347
0.0320984
0.032063
0.0320287
0.0319954
0.0343373
0.0342865
0.0342358
0.0341852
0.0341346
0.0340841
0.0340336
0.0339832
0.0339329
0.0338826
0.0338324
0.0337823
0.0337323
0.0336823
0.0336325
0.0335827
0.0335331
0.0334836
0.0334343
0.033385
0.0333359
0.033287
0.0332383
0.0331897
0.0331414
0.0330932
0.0330453
0.0329977
0.0329503
0.0329032
0.0328564
0.03281
0.0327639
0.0327182
0.0326729
0.032628
0.0325836
0.0325397
0.0324964
0.0324536
0.0324114
0.0323699
0.0323291
0.032289
0.0322497
0.0322112
0.0321736
0.032137
0.0321013
0.0320667
0.0320331
0.0343993
0.0343479
0.0342966
0.0342454
0.0341942
0.034143
0.0340919
0.0340409
0.0339899
0.033939
0.0338882
0.0338375
0.0337868
0.0337362
0.0336857
0.0336354
0.0335851
0.033535
0.033485
0.0334351
0.0333854
0.0333359
0.0332866
0.0332374
0.0331884
0.0331397
0.0330912
0.033043
0.032995
0.0329474
0.0329
0.032853
0.0328064
0.0327602
0.0327143
0.032669
0.0326241
0.0325797
0.0325359
0.0324926
0.03245
0.032408
0.0323668
0.0323263
0.0322865
0.0322477
0.0322097
0.0321726
0.0321366
0.0321016
0.0320677
0.0344585
0.0344066
0.0343547
0.0343028
0.034251
0.0341992
0.0341475
0.0340959
0.0340443
0.0339928
0.0339413
0.0338899
0.0338387
0.0337875
0.0337364
0.0336854
0.0336345
0.0335837
0.0335331
0.0334826
0.0334323
0.0333822
0.0333322
0.0332824
0.0332329
0.0331836
0.0331345
0.0330857
0.0330371
0.0329889
0.032941
0.0328934
0.0328462
0.0327995
0.0327531
0.0327072
0.0326618
0.0326169
0.0325726
0.0325288
0.0324857
0.0324433
0.0324016
0.0323606
0.0323204
0.0322811
0.0322427
0.0322052
0.0321688
0.0321334
0.032099
0.0344625
0.03441
0.0343575
0.0343051
0.0342528
0.0342004
0.0341482
0.034096
0.0340438
0.0339918
0.0339398
0.0338879
0.033836
0.0337843
0.0337327
0.0336812
0.0336298
0.0335786
0.0335275
0.0334766
0.0334258
0.0333752
0.0333248
0.0332747
0.0332247
0.0331751
0.0331256
0.0330765
0.0330277
0.0329792
0.0329311
0.0328833
0.032836
0.0327891
0.0327426
0.0326967
0.0326512
0.0326064
0.0325621
0.0325185
0.0324756
0.0324333
0.0323919
0.0323512
0.0323114
0.0322726
0.0322347
0.0321977
0.0321619
0.0321271
0.0345158
0.0344627
0.0344096
0.0343566
0.0343036
0.0342507
0.0341978
0.034145
0.0340922
0.0340395
0.0339869
0.0339344
0.033882
0.0338296
0.0337774
0.0337252
0.0336732
0.0336214
0.0335697
0.0335181
0.0334667
0.0334155
0.0333645
0.0333138
0.0332632
0.0332129
0.0331629
0.0331132
0.0330637
0.0330147
0.0329659
0.0329176
0.0328697
0.0328222
0.0327752
0.0327286
0.0326826
0.0326372
0.0325924
0.0325483
0.0325048
0.032462
0.03242
0.0323789
0.0323386
0.0322992
0.0322608
0.0322234
0.0321871
0.0321517
0.0345663
0.0345126
0.034459
0.0344054
0.0343518
0.0342983
0.0342448
0.0341913
0.034138
0.0340847
0.0340314
0.0339783
0.0339252
0.0338722
0.0338194
0.0337666
0.033714
0.0336615
0.0336091
0.0335569
0.0335049
0.0334531
0.0334015
0.0333501
0.0332989
0.033248
0.0331973
0.033147
0.033097
0.0330473
0.0329979
0.032949
0.0329004
0.0328523
0.0328047
0.0327576
0.032711
0.032665
0.0326196
0.0325749
0.0325308
0.0324875
0.032445
0.0324033
0.0323624
0.0323225
0.0322835
0.0322456
0.0322087
0.0321728
0.0346142
0.03456
0.0345057
0.0344515
0.0343973
0.0343432
0.0342891
0.034235
0.034181
0.0341271
0.0340732
0.0340194
0.0339657
0.0339121
0.0338586
0.0338052
0.033752
0.0336988
0.0336458
0.033593
0.0335404
0.0334879
0.0334356
0.0333836
0.0333318
0.0332802
0.0332289
0.0331779
0.0331272
0.0330769
0.0330269
0.0329773
0.0329282
0.0328795
0.0328312
0.0327835
0.0327363
0.0326896
0.0326436
0.0325983
0.0325536
0.0325097
0.0324666
0.0324242
0.0323828
0.0323423
0.0323028
0.0322642
0.0322268
0.0321903
0.0346595
0.0346046
0.0345497
0.0344949
0.0344401
0.0343854
0.0343306
0.034276
0.0342214
0.0341668
0.0341123
0.0340579
0.0340035
0.0339493
0.0338951
0.0338411
0.0337872
0.0337334
0.0336797
0.0336263
0.0335729
0.0335198
0.0334669
0.0334142
0.0333617
0.0333095
0.0332575
0.0332059
0.0331545
0.0331035
0.0330529
0.0330027
0.0329528
0.0329034
0.0328545
0.0328061
0.0327583
0.032711
0.0326643
0.0326183
0.032573
0.0325285
0.0324847
0.0324418
0.0323997
0.0323586
0.0323184
0.0322792
0.0322412
0.0322041
0.034702
0.0346465
0.0345911
0.0345356
0.0344802
0.0344248
0.0343695
0.0343142
0.0342589
0.0342037
0.0341486
0.0340935
0.0340385
0.0339836
0.0339288
0.0338741
0.0338196
0.0337651
0.0337108
0.0336566
0.0336026
0.0335488
0.0334952
0.0334418
0.0333887
0.0333358
0.0332831
0.0332308
0.0331788
0.0331271
0.0330757
0.0330248
0.0329743
0.0329242
0.0328746
0.0328255
0.032777
0.032729
0.0326817
0.032635
0.032589
0.0325438
0.0324994
0.0324557
0.032413
0.0323712
0.0323304
0.0322906
0.0322519
0.0322141
0.0347418
0.0346857
0.0346297
0.0345736
0.0345176
0.0344616
0.0344056
0.0343497
0.0342938
0.0342379
0.0341821
0.0341264
0.0340707
0.0340152
0.0339597
0.0339043
0.033849
0.0337939
0.0337389
0.033684
0.0336294
0.0335748
0.0335205
0.0334664
0.0334126
0.0333589
0.0333056
0.0332525
0.0331998
0.0331474
0.0330953
0.0330437
0.0329924
0.0329416
0.0328913
0.0328415
0.0327923
0.0327436
0.0326955
0.0326482
0.0326015
0.0325555
0.0325104
0.0324661
0.0324226
0.0323801
0.0323386
0.0322981
0.0322587
0.0322202
0.0347222
0.0346655
0.0346088
0.0345522
0.0344955
0.0344389
0.0343823
0.0343257
0.0342692
0.0342128
0.0341563
0.0341
0.0340438
0.0339876
0.0339315
0.0338755
0.0338197
0.033764
0.0337084
0.033653
0.0335978
0.0335427
0.0334879
0.0334333
0.033379
0.0333249
0.0332711
0.0332176
0.0331644
0.0331116
0.0330592
0.0330072
0.0329557
0.0329046
0.0328541
0.0328041
0.0327546
0.0327058
0.0326577
0.0326103
0.0325636
0.0325177
0.0324727
0.0324285
0.0323853
0.032343
0.0323018
0.0322617
0.0322225
0.0347559
0.0346986
0.0346412
0.0345839
0.0345266
0.0344693
0.0344121
0.0343548
0.0342976
0.0342405
0.0341834
0.0341263
0.0340694
0.0340125
0.0339557
0.033899
0.0338424
0.033786
0.0337297
0.0336735
0.0336176
0.0335618
0.0335062
0.0334508
0.0333957
0.0333409
0.0332863
0.033232
0.0331781
0.0331245
0.0330713
0.0330186
0.0329662
0.0329144
0.0328631
0.0328123
0.0327621
0.0327125
0.0326636
0.0326154
0.0325679
0.0325212
0.0324755
0.0324306
0.0323867
0.0323438
0.0323019
0.0322611
0.0322212
0.0347867
0.0347287
0.0346707
0.0346128
0.0345548
0.0344968
0.0344389
0.0343809
0.034323
0.0342652
0.0342074
0.0341496
0.0340919
0.0340343
0.0339768
0.0339193
0.033862
0.0338048
0.0337477
0.0336908
0.0336341
0.0335775
0.0335212
0.033465
0.0334091
0.0333535
0.0332981
0.033243
0.0331883
0.0331339
0.0330799
0.0330263
0.0329732
0.0329206
0.0328684
0.0328168