/*--------------------------------*- C++ -*----------------------------------*\
| =========                 |                                                 |
| \\      /  F ield         | OpenFOAM: The Open Source CFD Toolbox           |
|  \\    /   O peration     | Version:  v1706                                 |
|   \\  /    A nd           | Web:      www.OpenFOAM.com                      |
|    \\/     M anipulation  |                                                 |
\*---------------------------------------------------------------------------*/
FoamFile
{
    version     2.0;
    format      ascii;
    class       volScalarField;
    location    "3.4e-05";
    object      kappave;
}
// * * * * * * * * * * * * * * * * * * * * * * * * * * * * * * * * * * * * * //

dimensions      [1 1 -3 -1 0 0 0];


internalField   nonuniform List<scalar> 
30038
(
1.46038e-10
1.46038e-10
1.46038e-10
1.46038e-10
1.46038e-10
1.46038e-10
1.46038e-10
1.46038e-10
1.46038e-10
1.46038e-10
1.46038e-10
1.46038e-10
1.46038e-10
1.46038e-10
1.46038e-10
1.46038e-10
1.46038e-10
1.46038e-10
1.46038e-10
1.46038e-10
1.46038e-10
1.46038e-10
1.46038e-10
1.46038e-10
1.46038e-10
1.46038e-10
1.46038e-10
1.46038e-10
1.46038e-10
1.46038e-10
1.46038e-10
1.46038e-10
1.46038e-10
1.46038e-10
1.46038e-10
1.46038e-10
1.46038e-10
1.46038e-10
1.46038e-10
1.46038e-10
1.46038e-10
1.46038e-10
1.46038e-10
1.46038e-10
1.46038e-10
1.46038e-10
1.46038e-10
1.46038e-10
1.46038e-10
1.46038e-10
1.46038e-10
1.46038e-10
1.46038e-10
1.46038e-10
1.46038e-10
1.46038e-10
1.46038e-10
1.46038e-10
1.46038e-10
1.46038e-10
1.46038e-10
1.46038e-10
1.46038e-10
1.46038e-10
1.46038e-10
1.46038e-10
1.46038e-10
1.46038e-10
1.46038e-10
1.46038e-10
1.46038e-10
1.46038e-10
1.46038e-10
1.46038e-10
1.46038e-10
1.46038e-10
1.46038e-10
1.46038e-10
1.46038e-10
1.46038e-10
1.46038e-10
1.46038e-10
1.46038e-10
1.46038e-10
1.46038e-10
1.46038e-10
1.46038e-10
1.46038e-10
1.46038e-10
1.46038e-10
1.46038e-10
1.46038e-10
1.46038e-10
1.46038e-10
1.46038e-10
1.46038e-10
1.46038e-10
1.46038e-10
1.46038e-10
1.46038e-10
1.46038e-10
1.46038e-10
1.46038e-10
1.46038e-10
1.46038e-10
1.46038e-10
1.46038e-10
1.46038e-10
1.46038e-10
1.46038e-10
1.46038e-10
1.46038e-10
1.46038e-10
1.46038e-10
1.46038e-10
1.46038e-10
1.46038e-10
1.46038e-10
1.46038e-10
1.46038e-10
1.46038e-10
1.46038e-10
1.46038e-10
1.46038e-10
1.46038e-10
1.46038e-10
1.46038e-10
1.46038e-10
1.46038e-10
1.46038e-10
1.46038e-10
1.46038e-10
1.46038e-10
1.46038e-10
1.46038e-10
1.46038e-10
1.46038e-10
1.46038e-10
1.46038e-10
1.46038e-10
1.46038e-10
1.46038e-10
1.46038e-10
1.46038e-10
1.46038e-10
1.46038e-10
1.46038e-10
1.46038e-10
1.46038e-10
1.46038e-10
1.46038e-10
1.46038e-10
1.46038e-10
1.46038e-10
1.46038e-10
1.46038e-10
1.46038e-10
1.46038e-10
1.46038e-10
1.46038e-10
1.46038e-10
1.46038e-10
1.46038e-10
1.46038e-10
1.46038e-10
1.46038e-10
1.46038e-10
1.46038e-10
1.46038e-10
1.46038e-10
1.46038e-10
1.46038e-10
1.46038e-10
1.46038e-10
1.46038e-10
1.46038e-10
1.46038e-10
1.46038e-10
1.46038e-10
1.46038e-10
1.46038e-10
1.46038e-10
1.46038e-10
1.46038e-10
1.46038e-10
1.46038e-10
1.46038e-10
1.46038e-10
1.46038e-10
1.46038e-10
1.46038e-10
1.46038e-10
1.46038e-10
1.46038e-10
1.46038e-10
1.46038e-10
1.46038e-10
1.46038e-10
1.46038e-10
1.46038e-10
1.46038e-10
1.46038e-10
1.46038e-10
1.46038e-10
1.46038e-10
1.46038e-10
1.46038e-10
1.46038e-10
1.46038e-10
1.46038e-10
1.46038e-10
1.46038e-10
1.46038e-10
1.46038e-10
1.46038e-10
1.46038e-10
1.46038e-10
1.46038e-10
1.46038e-10
1.46038e-10
1.46038e-10
1.46038e-10
1.46038e-10
1.46038e-10
1.46038e-10
1.46038e-10
1.46038e-10
1.46038e-10
1.46038e-10
1.46038e-10
1.46038e-10
1.46038e-10
1.46038e-10
1.46038e-10
1.46038e-10
1.46038e-10
1.46038e-10
1.46038e-10
1.46038e-10
1.46038e-10
1.46038e-10
1.46038e-10
1.46038e-10
1.46038e-10
1.46038e-10
1.46038e-10
1.46038e-10
1.46038e-10
1.46038e-10
1.46038e-10
1.46038e-10
1.46038e-10
1.46038e-10
1.46038e-10
1.46038e-10
1.46038e-10
1.46038e-10
1.46038e-10
1.46038e-10
1.46038e-10
1.46038e-10
1.46038e-10
1.46038e-10
1.46038e-10
1.46038e-10
1.46038e-10
1.46038e-10
1.46038e-10
1.46038e-10
1.46038e-10
1.46038e-10
1.46038e-10
1.46038e-10
1.46038e-10
1.46038e-10
1.46038e-10
1.46038e-10
1.46038e-10
1.46038e-10
1.46038e-10
1.46038e-10
1.46038e-10
1.46038e-10
1.46038e-10
1.46038e-10
1.46038e-10
1.46038e-10
1.46038e-10
1.46038e-10
1.46038e-10
1.46038e-10
1.46038e-10
1.46038e-10
1.46038e-10
1.46038e-10
1.46038e-10
1.46038e-10
1.46038e-10
1.46038e-10
1.46038e-10
1.46038e-10
1.46038e-10
1.46038e-10
1.46038e-10
1.46038e-10
1.46038e-10
1.46038e-10
1.46038e-10
1.46038e-10
1.46038e-10
1.46038e-10
1.46038e-10
1.46038e-10
1.46038e-10
1.46038e-10
1.46038e-10
1.46038e-10
1.46038e-10
1.46038e-10
1.46038e-10
1.46038e-10
1.46038e-10
1.46038e-10
1.46038e-10
1.46038e-10
1.46038e-10
1.46038e-10
1.46038e-10
1.46038e-10
1.46038e-10
1.46038e-10
1.46038e-10
1.46038e-10
1.46038e-10
1.46038e-10
1.46038e-10
1.46038e-10
1.46038e-10
1.46038e-10
1.46038e-10
1.46038e-10
1.46038e-10
1.46038e-10
1.46038e-10
1.46038e-10
1.46038e-10
1.46038e-10
1.46038e-10
1.46038e-10
1.46038e-10
1.46038e-10
1.46038e-10
1.46038e-10
1.46038e-10
1.46038e-10
1.46038e-10
1.46038e-10
1.46038e-10
1.46038e-10
1.46038e-10
1.46038e-10
1.46038e-10
1.46038e-10
1.46038e-10
1.46038e-10
1.46038e-10
1.46038e-10
1.46038e-10
1.46038e-10
1.46038e-10
1.46038e-10
1.46038e-10
1.46038e-10
1.46038e-10
1.46038e-10
1.46038e-10
1.46038e-10
1.46038e-10
1.46038e-10
1.46039e-10
1.46039e-10
1.4604e-10
1.46038e-10
1.46038e-10
1.46038e-10
1.46038e-10
1.46038e-10
1.46038e-10
1.46038e-10
1.46038e-10
1.46038e-10
1.46038e-10
1.46038e-10
1.46038e-10
1.46038e-10
1.46038e-10
1.46038e-10
1.46038e-10
1.46038e-10
1.46038e-10
1.46038e-10
1.46038e-10
1.46038e-10
1.46038e-10
1.46038e-10
1.46038e-10
1.46038e-10
1.46038e-10
1.46038e-10
1.46038e-10
1.46038e-10
1.46038e-10
1.46038e-10
1.46038e-10
1.46038e-10
1.46039e-10
1.46039e-10
1.4604e-10
1.4604e-10
1.46042e-10
1.46044e-10
1.46038e-10
1.46038e-10
1.46038e-10
1.46038e-10
1.46038e-10
1.46038e-10
1.46038e-10
1.46038e-10
1.46038e-10
1.46038e-10
1.46038e-10
1.46038e-10
1.46038e-10
1.46038e-10
1.46038e-10
1.46038e-10
1.46038e-10
1.46038e-10
1.46038e-10
1.46038e-10
1.46038e-10
1.46038e-10
1.46038e-10
1.46038e-10
1.46038e-10
1.46038e-10
1.46038e-10
1.46038e-10
1.46038e-10
1.46038e-10
1.46038e-10
1.46039e-10
1.46039e-10
1.4604e-10
1.4604e-10
1.46042e-10
1.46043e-10
1.46046e-10
1.4605e-10
1.46056e-10
1.46038e-10
1.46038e-10
1.46038e-10
1.46038e-10
1.46038e-10
1.46038e-10
1.46038e-10
1.46038e-10
1.46038e-10
1.46038e-10
1.46038e-10
1.46038e-10
1.46038e-10
1.46038e-10
1.46038e-10
1.46038e-10
1.46038e-10
1.46038e-10
1.46038e-10
1.46038e-10
1.46038e-10
1.46038e-10
1.46038e-10
1.46038e-10
1.46038e-10
1.46038e-10
1.46038e-10
1.46038e-10
1.46039e-10
1.46039e-10
1.46039e-10
1.4604e-10
1.46041e-10
1.46043e-10
1.46045e-10
1.46049e-10
1.46054e-10
1.46062e-10
1.46073e-10
1.4609e-10
1.46038e-10
1.46038e-10
1.46038e-10
1.46038e-10
1.46038e-10
1.46038e-10
1.46038e-10
1.46038e-10
1.46038e-10
1.46038e-10
1.46038e-10
1.46038e-10
1.46038e-10
1.46038e-10
1.46038e-10
1.46038e-10
1.46038e-10
1.46038e-10
1.46038e-10
1.46038e-10
1.46038e-10
1.46038e-10
1.46038e-10
1.46038e-10
1.46038e-10
1.46039e-10
1.46039e-10
1.46039e-10
1.4604e-10
1.46041e-10
1.46043e-10
1.46045e-10
1.46049e-10
1.46053e-10
1.4606e-10
1.4607e-10
1.46085e-10
1.46107e-10
1.46139e-10
1.46186e-10
1.46038e-10
1.46038e-10
1.46038e-10
1.46038e-10
1.46038e-10
1.46038e-10
1.46038e-10
1.46038e-10
1.46038e-10
1.46038e-10
1.46038e-10
1.46038e-10
1.46038e-10
1.46038e-10
1.46038e-10
1.46038e-10
1.46038e-10
1.46038e-10
1.46038e-10
1.46038e-10
1.46038e-10
1.46038e-10
1.46039e-10
1.46039e-10
1.4604e-10
1.4604e-10
1.46041e-10
1.46043e-10
1.46045e-10
1.46048e-10
1.46053e-10
1.46059e-10
1.46069e-10
1.46082e-10
1.46102e-10
1.4613e-10
1.46171e-10
1.46232e-10
1.4632e-10
1.4645e-10
1.46038e-10
1.46038e-10
1.46038e-10
1.46038e-10
1.46038e-10
1.46038e-10
1.46038e-10
1.46038e-10
1.46038e-10
1.46038e-10
1.46038e-10
1.46038e-10
1.46038e-10
1.46038e-10
1.46038e-10
1.46038e-10
1.46038e-10
1.46038e-10
1.46038e-10
1.46039e-10
1.46039e-10
1.4604e-10
1.4604e-10
1.46041e-10
1.46043e-10
1.46045e-10
1.46048e-10
1.46053e-10
1.46059e-10
1.46068e-10
1.4608e-10
1.46099e-10
1.46125e-10
1.46163e-10
1.46217e-10
1.46295e-10
1.46408e-10
1.46572e-10
1.46811e-10
1.47162e-10
1.46038e-10
1.46038e-10
1.46038e-10
1.46038e-10
1.46038e-10
1.46038e-10
1.46038e-10
1.46038e-10
1.46038e-10
1.46038e-10
1.46038e-10
1.46038e-10
1.46038e-10
1.46038e-10
1.46038e-10
1.46038e-10
1.46039e-10
1.46039e-10
1.4604e-10
1.4604e-10
1.46042e-10
1.46043e-10
1.46045e-10
1.46048e-10
1.46053e-10
1.46059e-10
1.46067e-10
1.46079e-10
1.46097e-10
1.46121e-10
1.46157e-10
1.46207e-10
1.46279e-10
1.46382e-10
1.46529e-10
1.46741e-10
1.47045e-10
1.47482e-10
1.48112e-10
1.49023e-10
1.46038e-10
1.46038e-10
1.46038e-10
1.46038e-10
1.46038e-10
1.46038e-10
1.46038e-10
1.46038e-10
1.46038e-10
1.46038e-10
1.46038e-10
1.46038e-10
1.46038e-10
1.46039e-10
1.46039e-10
1.4604e-10
1.46041e-10
1.46042e-10
1.46043e-10
1.46045e-10
1.46049e-10
1.46053e-10
1.46059e-10
1.46067e-10
1.46079e-10
1.46096e-10
1.46119e-10
1.46153e-10
1.462e-10
1.46268e-10
1.46363e-10
1.46499e-10
1.46692e-10
1.46967e-10
1.47358e-10
1.47915e-10
1.48707e-10
1.49832e-10
1.51421e-10
1.53658e-10
1.46038e-10
1.46038e-10
1.46038e-10
1.46038e-10
1.46038e-10
1.46038e-10
1.46038e-10
1.46038e-10
1.46038e-10
1.46038e-10
1.46039e-10
1.46039e-10
1.46039e-10
1.4604e-10
1.46041e-10
1.46042e-10
1.46044e-10
1.46046e-10
1.46049e-10
1.46053e-10
1.46059e-10
1.46068e-10
1.46079e-10
1.46096e-10
1.46119e-10
1.46151e-10
1.46197e-10
1.46261e-10
1.46351e-10
1.46478e-10
1.46657e-10
1.46911e-10
1.47269e-10
1.47774e-10
1.48487e-10
1.49491e-10
1.50897e-10
1.52856e-10
1.55563e-10
1.59257e-10
1.64211e-10
1.46038e-10
1.46038e-10
1.46038e-10
1.46038e-10
1.46038e-10
1.46038e-10
1.46038e-10
1.46039e-10
1.46039e-10
1.4604e-10
1.4604e-10
1.46041e-10
1.46042e-10
1.46044e-10
1.46046e-10
1.4605e-10
1.46054e-10
1.4606e-10
1.46069e-10
1.46081e-10
1.46097e-10
1.4612e-10
1.46152e-10
1.46196e-10
1.46258e-10
1.46344e-10
1.46465e-10
1.46635e-10
1.46872e-10
1.47205e-10
1.47672e-10
1.48326e-10
1.4924e-10
1.50512e-10
1.52274e-10
1.54694e-10
1.57982e-10
1.62383e-10
1.6816e-10
1.75559e-10
1.8473e-10
1.46038e-10
1.46038e-10
1.46038e-10
1.46038e-10
1.46039e-10
1.46039e-10
1.46039e-10
1.4604e-10
1.4604e-10
1.46041e-10
1.46043e-10
1.46045e-10
1.46047e-10
1.46051e-10
1.46055e-10
1.46062e-10
1.4607e-10
1.46082e-10
1.46099e-10
1.46122e-10
1.46154e-10
1.46198e-10
1.46258e-10
1.46343e-10
1.4646e-10
1.46622e-10
1.46849e-10
1.47164e-10
1.47602e-10
1.48212e-10
1.49058e-10
1.50228e-10
1.51839e-10
1.54042e-10
1.57023e-10
1.61003e-10
1.66223e-10
1.72916e-10
1.81269e-10
1.9137e-10
2.03143e-10
2.163e-10
1.46038e-10
1.46038e-10
1.46039e-10
1.46039e-10
1.46039e-10
1.4604e-10
1.46041e-10
1.46042e-10
1.46043e-10
1.46045e-10
1.46048e-10
1.46052e-10
1.46057e-10
1.46063e-10
1.46073e-10
1.46085e-10
1.46102e-10
1.46126e-10
1.46158e-10
1.46202e-10
1.46263e-10
1.46346e-10
1.46461e-10
1.4662e-10
1.46839e-10
1.47142e-10
1.4756e-10
1.48138e-10
1.48933e-10
1.50027e-10
1.51523e-10
1.53557e-10
1.56299e-10
1.5995e-10
1.64732e-10
1.70869e-10
1.78552e-10
1.87891e-10
1.98861e-10
2.11262e-10
2.24725e-10
2.38683e-10
2.52431e-10
1.46039e-10
1.4604e-10
1.4604e-10
1.46041e-10
1.46043e-10
1.46044e-10
1.46046e-10
1.46049e-10
1.46053e-10
1.46059e-10
1.46066e-10
1.46075e-10
1.46089e-10
1.46107e-10
1.46131e-10
1.46164e-10
1.46209e-10
1.4627e-10
1.46354e-10
1.46469e-10
1.46627e-10
1.46842e-10
1.47138e-10
1.47543e-10
1.48099e-10
1.48859e-10
1.49896e-10
1.51306e-10
1.53213e-10
1.5577e-10
1.59161e-10
1.63594e-10
1.69282e-10
1.76413e-10
1.85118e-10
1.95415e-10
2.07172e-10
2.2008e-10
2.33677e-10
2.47311e-10
2.6015e-10
2.71336e-10
2.80488e-10
1.46041e-10
1.46042e-10
1.46043e-10
1.46045e-10
1.46048e-10
1.46051e-10
1.46055e-10
1.46061e-10
1.46069e-10
1.46079e-10
1.46093e-10
1.46112e-10
1.46138e-10
1.46172e-10
1.46219e-10
1.46282e-10
1.46368e-10
1.46485e-10
1.46643e-10
1.46858e-10
1.47152e-10
1.4755e-10
1.48093e-10
1.4883e-10
1.49828e-10
1.51177e-10
1.5299e-10
1.55407e-10
1.58598e-10
1.62756e-10
1.68082e-10
1.7476e-10
1.82929e-10
1.9264e-10
2.03809e-10
2.16199e-10
2.29425e-10
2.42951e-10
2.56055e-10
2.67904e-10
2.77819e-10
2.85555e-10
2.91241e-10
2.95402e-10
1.46044e-10
1.46046e-10
1.46049e-10
1.46053e-10
1.46058e-10
1.46064e-10
1.46073e-10
1.46084e-10
1.46099e-10
1.4612e-10
1.46147e-10
1.46184e-10
1.46233e-10
1.46299e-10
1.46388e-10
1.46508e-10
1.4667e-10
1.46888e-10
1.47183e-10
1.47581e-10
1.48119e-10
1.48844e-10
1.4982e-10
1.51129e-10
1.52877e-10
1.55193e-10
1.58236e-10
1.62183e-10
1.67224e-10
1.73536e-10
1.81261e-10
1.90465e-10
2.01108e-10
2.13006e-10
2.25832e-10
2.39143e-10
2.52334e-10
2.64645e-10
2.75337e-10
2.83965e-10
2.9051e-10
2.95264e-10
2.98693e-10
3.0122e-10
3.03302e-10
1.46051e-10
1.46055e-10
1.46061e-10
1.46068e-10
1.46078e-10
1.4609e-10
1.46107e-10
1.46129e-10
1.46159e-10
1.46198e-10
1.46251e-10
1.46321e-10
1.46414e-10
1.4654e-10
1.46707e-10
1.46932e-10
1.47233e-10
1.47636e-10
1.48177e-10
1.48902e-10
1.49869e-10
1.51158e-10
1.52866e-10
1.55117e-10
1.58055e-10
1.61847e-10
1.66671e-10
1.72697e-10
1.80061e-10
1.88843e-10
1.99026e-10
2.10469e-10
2.22899e-10
2.35932e-10
2.49064e-10
2.61634e-10
2.72907e-10
2.82322e-10
2.89685e-10
2.95171e-10
2.99157e-10
3.02086e-10
3.04355e-10
3.06301e-10
3.08182e-10
3.10246e-10
1.46059e-10
1.46065e-10
1.46073e-10
1.46084e-10
1.46098e-10
1.46117e-10
1.46142e-10
1.46174e-10
1.46217e-10
1.46274e-10
1.46349e-10
1.46449e-10
1.46581e-10
1.46758e-10
1.46992e-10
1.47304e-10
1.47719e-10
1.48271e-10
1.49004e-10
1.49977e-10
1.51263e-10
1.52957e-10
1.55172e-10
1.58046e-10
1.61734e-10
1.66402e-10
1.72211e-10
1.79294e-10
1.87731e-10
1.97524e-10
2.08563e-10
2.20618e-10
2.3335e-10
2.46332e-10
2.58996e-10
2.70663e-10
2.80712e-10
2.88813e-10
2.95001e-10
2.99577e-10
3.02952e-10
3.05537e-10
3.07677e-10
3.09652e-10
3.11683e-10
3.13923e-10
3.16537e-10
3.19826e-10
1.46092e-10
1.46108e-10
1.46129e-10
1.46157e-10
1.46193e-10
1.46241e-10
1.46303e-10
1.46385e-10
1.46493e-10
1.46635e-10
1.46823e-10
1.47071e-10
1.47399e-10
1.47831e-10
1.48402e-10
1.49156e-10
1.50147e-10
1.51449e-10
1.53149e-10
1.55358e-10
1.58205e-10
1.61834e-10
1.66402e-10
1.72059e-10
1.78932e-10
1.87098e-10
1.96569e-10
2.07262e-10
2.18974e-10
2.31407e-10
2.44187e-10
2.5683e-10
2.68728e-10
2.79254e-10
2.87981e-10
2.94818e-10
2.99974e-10
3.03812e-10
3.06739e-10
3.09115e-10
3.11244e-10
3.13359e-10
3.15653e-10
3.18225e-10
3.21316e-10
3.25027e-10
3.29493e-10
3.35069e-10
1.46121e-10
1.46145e-10
1.46177e-10
1.46217e-10
1.46271e-10
1.4634e-10
1.46431e-10
1.46549e-10
1.46704e-10
1.46907e-10
1.47173e-10
1.47521e-10
1.47979e-10
1.48578e-10
1.49362e-10
1.50386e-10
1.5172e-10
1.53451e-10
1.55681e-10
1.58534e-10
1.62148e-10
1.66666e-10
1.7223e-10
1.78958e-10
1.86924e-10
1.96142e-10
2.06543e-10
2.17952e-10
2.30103e-10
2.42657e-10
2.55202e-10
2.67202e-10
2.78058e-10
2.87288e-10
2.94696e-10
3.00395e-10
3.04695e-10
3.0798e-10
3.1062e-10
3.12925e-10
3.15158e-10
3.17515e-10
3.20146e-10
3.23211e-10
3.26902e-10
3.31284e-10
3.36521e-10
3.42824e-10
3.50457e-10
3.59957e-10
1.46248e-10
1.46309e-10
1.46387e-10
1.46488e-10
1.4662e-10
1.46791e-10
1.47013e-10
1.47302e-10
1.47678e-10
1.48168e-10
1.48804e-10
1.49631e-10
1.50703e-10
1.52088e-10
1.53871e-10
1.56151e-10
1.59045e-10
1.62682e-10
1.67198e-10
1.72724e-10
1.79368e-10
1.87198e-10
1.96225e-10
2.06392e-10
2.17544e-10
2.29436e-10
2.41761e-10
2.5416e-10
2.66162e-10
2.77219e-10
2.86827e-10
2.94714e-10
3.00903e-10
3.05643e-10
3.09287e-10
3.12202e-10
3.14711e-10
3.17082e-10
3.19542e-10
3.22246e-10
3.25334e-10
3.29017e-10
3.33411e-10
3.38616e-10
3.44833e-10
3.52283e-10
3.61189e-10
3.71858e-10
3.84704e-10
4.00546e-10
1.46561e-10
1.46709e-10
1.469e-10
1.47147e-10
1.47465e-10
1.47876e-10
1.48407e-10
1.49093e-10
1.49976e-10
1.51111e-10
1.52567e-10
1.54426e-10
1.56783e-10
1.59752e-10
1.63453e-10
1.68012e-10
1.73551e-10
1.80167e-10
1.8792e-10
1.96816e-10
2.06802e-10
2.1774e-10
2.29401e-10
2.41505e-10
2.53728e-10
2.65666e-10
2.76817e-10
2.86687e-10
2.94951e-10
3.01561e-10
3.06703e-10
3.10696e-10
3.13891e-10
3.16619e-10
3.19151e-10
3.2173e-10
3.24534e-10
3.27689e-10
3.31406e-10
3.35832e-10
3.41061e-10
3.47264e-10
3.54658e-10
3.63466e-10
3.73946e-10
3.86424e-10
4.01266e-10
4.1889e-10
4.39885e-10
4.65467e-10
1.47316e-10
1.47671e-10
1.48126e-10
1.48709e-10
1.49456e-10
1.5041e-10
1.51628e-10
1.53176e-10
1.55136e-10
1.57601e-10
1.60678e-10
1.64481e-10
1.69129e-10
1.74729e-10
1.81369e-10
1.89099e-10
1.97918e-10
2.07774e-10
2.18538e-10
2.29998e-10
2.41894e-10
2.5393e-10
2.65753e-10
2.76914e-10
2.86941e-10
2.95484e-10
3.02437e-10
3.07932e-10
3.12247e-10
3.15718e-10
3.18671e-10
3.21383e-10
3.24104e-10
3.27032e-10
3.30289e-10
3.34074e-10
3.38556e-10
3.43859e-10
3.50106e-10
3.57513e-10
3.66307e-10
3.76719e-10
3.89055e-10
4.03665e-10
4.20932e-10
4.41294e-10
4.65267e-10
4.93464e-10
5.26726e-10
5.66819e-10
1.49088e-10
1.49911e-10
1.50955e-10
1.52276e-10
1.53941e-10
1.56029e-10
1.58633e-10
1.61854e-10
1.65799e-10
1.70577e-10
1.76285e-10
1.82998e-10
1.90755e-10
1.99546e-10
2.09317e-10
2.19945e-10
2.31233e-10
2.42934e-10
2.54778e-10
2.66455e-10
2.77559e-10
2.87653e-10
2.9638e-10
3.03595e-10
3.09383e-10
3.13987e-10
3.1772e-10
3.20898e-10
3.23805e-10
3.26688e-10
3.29757e-10
3.33153e-10
3.37053e-10
3.41629e-10
3.47036e-10
3.53387e-10
3.60871e-10
3.69718e-10
3.80156e-10
3.92461e-10
4.06973e-10
4.24064e-10
4.44144e-10
4.67694e-10
4.95262e-10
5.27473e-10
5.6505e-10
6.08854e-10
6.60072e-10
7.21197e-10
1.53084e-10
1.54892e-10
1.5714e-10
1.59917e-10
1.63319e-10
1.67446e-10
1.72397e-10
1.78257e-10
1.85087e-10
1.92915e-10
2.01722e-10
2.11447e-10
2.21974e-10
2.33115e-10
2.44634e-10
2.56284e-10
2.67789e-10
2.78788e-10
2.88873e-10
2.97699e-10
3.05097e-10
3.11117e-10
3.15968e-10
3.1994e-10
3.2334e-10
3.2645e-10
3.29511e-10
3.32744e-10
3.36309e-10
3.40362e-10
3.45076e-10
3.50622e-10
3.57137e-10
3.64761e-10
3.73732e-10
3.84287e-10
3.96669e-10
4.11205e-10
4.28259e-10
4.48225e-10
4.71554e-10
4.98772e-10
5.30465e-10
5.67302e-10
6.10047e-10
6.59568e-10
7.16858e-10
7.83097e-10
8.59918e-10
9.50773e-10
1.615e-10
1.65122e-10
1.69471e-10
1.74636e-10
1.80689e-10
1.87677e-10
1.95615e-10
2.04474e-10
2.14187e-10
2.2464e-10
2.35653e-10
2.47001e-10
2.58458e-10
2.69774e-10
2.80627e-10
2.90643e-10
2.99492e-10
3.06997e-10
3.13185e-10
3.18239e-10
3.22427e-10
3.26041e-10
3.29356e-10
3.32614e-10
3.36038e-10
3.39798e-10
3.44036e-10
3.4894e-10
3.54676e-10
3.614e-10
3.69233e-10
3.78406e-10
3.89154e-10
4.01717e-10
4.16396e-10
4.33548e-10
4.53559e-10
4.76856e-10
5.03938e-10
5.35365e-10
5.71771e-10
6.13875e-10
6.62493e-10
7.18543e-10
7.83064e-10
8.57229e-10
9.42377e-10
1.04009e-09
1.15258e-09
1.28452e-09
1.77353e-10
1.83637e-10
1.90819e-10
1.98898e-10
2.07838e-10
2.17565e-10
2.27965e-10
2.38865e-10
2.50049e-10
2.61311e-10
2.72425e-10
2.831e-10
2.92994e-10
3.018e-10
3.09344e-10
3.15641e-10
3.20853e-10
3.25228e-10
3.29046e-10
3.32571e-10
3.36042e-10
3.39682e-10
3.43665e-10
3.48132e-10
3.53277e-10
3.5925e-10
3.6623e-10
3.7435e-10
3.83799e-10
3.94828e-10
4.07675e-10
4.22616e-10
4.40002e-10
4.60209e-10
4.83649e-10
5.10798e-10
5.42198e-10
5.78448e-10
6.20232e-10
6.68323e-10
7.23588e-10
7.87004e-10
8.5967e-10
9.4282e-10
1.03784e-09
1.14628e-09
1.26993e-09
1.41086e-09
1.57201e-09
1.7596e-09
2.02815e-10
2.11856e-10
2.21616e-10
2.31976e-10
2.42769e-10
2.53791e-10
2.64854e-10
2.75753e-10
2.86224e-10
2.95953e-10
3.04659e-10
3.12183e-10
3.18533e-10
3.23862e-10
3.284e-10
3.32411e-10
3.3615e-10
3.39851e-10
3.43732e-10
3.47972e-10
3.52712e-10
3.58148e-10
3.64415e-10
3.71713e-10
3.80185e-10
3.89991e-10
4.01391e-10
4.14625e-10
4.2995e-10
4.47704e-10
4.68261e-10
4.92021e-10
5.19439e-10
5.51037e-10
5.87393e-10
6.29158e-10
6.7707e-10
7.31953e-10
7.94731e-10
8.66442e-10
9.4825e-10
1.04145e-09
1.14751e-09
1.26804e-09
1.40487e-09
1.56002e-09
1.7358e-09
1.93493e-09
2.16122e-09
2.42282e-09
2.36701e-10
2.47387e-10
2.58244e-10
2.69101e-10
2.79772e-10
2.90015e-10
2.99542e-10
3.081e-10
3.15552e-10
3.21911e-10
3.2732e-10
3.31999e-10
3.36196e-10
3.40158e-10
3.44107e-10
3.4826e-10
3.52794e-10
3.57853e-10
3.63627e-10
3.7026e-10
3.77943e-10
3.86842e-10
3.97094e-10
4.08959e-10
4.22683e-10
4.38516e-10
4.56776e-10
4.77837e-10
5.02091e-10
5.29978e-10
5.62e-10
5.98719e-10
6.40757e-10
6.88821e-10
7.437e-10
8.06276e-10
8.77534e-10
9.58577e-10
1.05063e-09
1.15507e-09
1.27342e-09
1.40738e-09
1.55885e-09
1.72993e-09
1.92297e-09
2.14057e-09
2.38568e-09
2.66178e-09
2.97376e-09
3.33212e-09
2.74065e-10
2.84495e-10
2.94488e-10
3.03781e-10
3.12153e-10
3.19491e-10
3.25821e-10
3.31284e-10
3.36089e-10
3.40472e-10
3.44666e-10
3.48889e-10
3.53349e-10
3.58221e-10
3.63651e-10
3.69826e-10
3.76893e-10
3.85035e-10
3.94432e-10
4.05237e-10
4.17669e-10
4.31997e-10
4.48466e-10
4.6738e-10
4.89106e-10
5.14034e-10
5.42588e-10
5.75256e-10
6.12588e-10
6.55186e-10
7.03727e-10
7.58971e-10
8.2176e-10
8.93037e-10
9.73853e-10
1.06538e-09
1.1689e-09
1.28588e-09
1.41791e-09
1.56678e-09
1.73445e-09
1.92313e-09
2.13522e-09
2.37342e-09
2.6407e-09
2.94036e-09
3.2761e-09
3.65232e-09
4.07521e-09
4.55808e-09
3.0869e-10
3.16845e-10
3.24039e-10
3.30315e-10
3.35816e-10
3.40742e-10
3.45318e-10
3.49765e-10
3.54291e-10
3.59099e-10
3.64359e-10
3.7022e-10
3.76865e-10
3.84441e-10
3.93129e-10
4.0312e-10
4.14573e-10
4.27688e-10
4.4274e-10
4.59985e-10
4.79706e-10
5.02266e-10
5.28053e-10
5.57484e-10
5.91033e-10
6.29236e-10
6.72678e-10
7.22013e-10
7.77977e-10
8.41384e-10
9.13137e-10
9.94242e-10
1.08581e-09
1.18909e-09
1.30545e-09
1.43641e-09
1.58365e-09
1.74904e-09
1.93463e-09
2.1427e-09
2.37575e-09
2.63657e-09
2.92821e-09
3.25404e-09
3.61777e-09
4.02352e-09
4.47589e-09
4.98033e-09
5.54455e-09
6.18521e-09
3.35451e-10
3.40987e-10
3.46043e-10
3.5083e-10
3.55557e-10
3.60428e-10
3.65635e-10
3.71339e-10
3.77703e-10
3.84894e-10
3.93063e-10
4.02396e-10
4.13086e-10
4.25296e-10
4.39218e-10
4.55134e-10
4.73302e-10
4.93995e-10
5.17567e-10
5.4441e-10
5.74935e-10
6.09604e-10
6.48941e-10
6.93521e-10
7.43977e-10
8.01023e-10
8.65447e-10
9.38121e-10
1.02001e-09
1.1122e-09
1.21586e-09
1.33231e-09
1.463e-09
1.60953e-09
1.77366e-09
1.95734e-09
2.16271e-09
2.39215e-09
2.64825e-09
2.93387e-09
3.25216e-09
3.60658e-09
4.00092e-09
4.43935e-09
4.92645e-09
5.46727e-09
6.06745e-09
6.73363e-09
7.47534e-09
8.31311e-09
3.57121e-10
3.62169e-10
3.67438e-10
3.73107e-10
3.79325e-10
3.86273e-10
3.94098e-10
4.02958e-10
4.13046e-10
4.24553e-10
4.37638e-10
4.52517e-10
4.69443e-10
4.88691e-10
5.10534e-10
5.35317e-10
5.6343e-10
5.9528e-10
6.3132e-10
6.72065e-10
7.18083e-10
7.69992e-10
8.28487e-10
8.94335e-10
9.6838e-10
1.05156e-09
1.14491e-09
1.24956e-09
1.36679e-09
1.49798e-09
1.64465e-09
1.8085e-09
1.99136e-09
2.19528e-09
2.42249e-09
2.67544e-09
2.95684e-09
3.26963e-09
3.61705e-09
4.00265e-09
4.43031e-09
4.90428e-09
5.42922e-09
6.01019e-09
6.65277e-09
7.36306e-09
8.14787e-09
9.01524e-09
9.97674e-09
1.10574e-08
3.81697e-10
3.8851e-10
3.96137e-10
4.047e-10
4.14366e-10
4.25332e-10
4.37787e-10
4.51894e-10
4.6788e-10
4.85987e-10
5.06494e-10
5.29684e-10
5.55887e-10
5.85496e-10
6.18918e-10
6.56599e-10
6.99048e-10
7.46824e-10
8.00533e-10
8.60853e-10
9.28535e-10
1.0044e-09
1.08937e-09
1.18443e-09
1.2907e-09
1.40938e-09
1.54181e-09
1.68946e-09
1.85394e-09
2.03702e-09
2.24064e-09
2.46692e-09
2.7182e-09
2.99702e-09
3.30616e-09
3.64869e-09
4.02792e-09
4.4475e-09
4.9114e-09
5.42395e-09
5.98988e-09
6.61434e-09
7.30293e-09
8.06178e-09
8.89754e-09
9.81752e-09
1.08298e-08
1.19441e-08
1.31741e-08
1.45501e-08
4.07555e-10
4.16975e-10
4.27575e-10
4.3956e-10
4.53117e-10
4.68408e-10
4.85672e-10
5.05148e-10
5.27115e-10
5.51866e-10
5.79725e-10
6.1108e-10
6.46344e-10
6.85956e-10
7.30418e-10
7.80288e-10
8.36162e-10
8.98705e-10
9.68655e-10
1.04682e-09
1.13408e-09
1.23141e-09
1.33989e-09
1.46069e-09
1.59511e-09
1.74456e-09
1.91058e-09
2.09488e-09
2.2993e-09
2.52589e-09
2.77687e-09
3.05464e-09
3.36186e-09
3.70142e-09
4.07645e-09
4.49039e-09
4.94697e-09
5.45024e-09
6.00463e-09
6.61494e-09
7.28638e-09
8.02464e-09
8.83586e-09
9.72674e-09
1.07045e-08
1.17771e-08
1.29532e-08
1.42421e-08
1.56554e-08
1.72094e-08
1.894e-08
4.5611e-10
4.70939e-10
4.87598e-10
5.06334e-10
5.27395e-10
5.51045e-10
5.77595e-10
6.07365e-10
6.40739e-10
6.78139e-10
7.2e-10
7.66818e-10
8.19145e-10
8.77572e-10
9.42755e-10
1.01542e-09
1.09637e-09
1.18645e-09
1.28663e-09
1.39795e-09
1.52156e-09
1.6587e-09
1.81075e-09
1.97921e-09
2.1657e-09
2.37201e-09
2.6001e-09
2.85208e-09
3.13028e-09
3.4372e-09
3.77559e-09
4.14844e-09
4.55898e-09
5.01075e-09
5.50756e-09
6.05357e-09
6.65328e-09
7.31158e-09
8.03375e-09
8.82554e-09
9.69314e-09
1.06433e-08
1.16832e-08
1.28209e-08
1.40647e-08
1.54239e-08
1.69086e-08
1.85298e-08
2.03008e-08
2.22409e-08
2.43923e-08
5.09969e-10
5.30402e-10
5.53281e-10
5.78869e-10
6.07484e-10
6.39452e-10
6.75152e-10
7.15009e-10
7.59462e-10
8.08999e-10
8.64176e-10
9.25581e-10
9.93859e-10
1.06973e-09
1.15397e-09
1.24743e-09
1.35105e-09
1.46586e-09
1.59297e-09
1.73359e-09
1.88907e-09
2.06084e-09
2.2505e-09
2.45977e-09
2.69052e-09
2.94479e-09
3.2248e-09
3.53297e-09
3.87192e-09
4.24447e-09
4.65373e-09
5.10302e-09
5.59597e-09
6.1365e-09
6.72886e-09
7.37762e-09
8.08777e-09
8.86466e-09
9.71408e-09
1.06423e-08
1.16561e-08
1.27627e-08
1.397e-08
1.52865e-08
1.67213e-08
1.82843e-08
1.99862e-08
2.18385e-08
2.3854e-08
2.60479e-08
2.84428e-08
3.10878e-08
6.11292e-10
6.42271e-10
6.76754e-10
7.15117e-10
7.5779e-10
8.05217e-10
8.57879e-10
9.16332e-10
9.81166e-10
1.05302e-09
1.1326e-09
1.22069e-09
1.31812e-09
1.42582e-09
1.54479e-09
1.67611e-09
1.821e-09
1.98074e-09
2.15674e-09
2.35055e-09
2.56383e-09
2.7984e-09
3.05622e-09
3.33944e-09
3.65036e-09
3.9915e-09
4.36558e-09
4.77554e-09
5.22456e-09
5.71609e-09
6.25384e-09
6.84182e-09
7.48438e-09
8.18619e-09
8.9523e-09
9.78813e-09
1.06995e-08
1.16929e-08
1.27749e-08
1.39529e-08
1.52347e-08
1.66289e-08
1.81445e-08
1.97913e-08
2.15797e-08
2.35212e-08
2.56279e-08
2.7913e-08
3.0391e-08
3.30795e-08
3.60041e-08
3.92217e-08
7.61595e-10
8.07481e-10
8.58297e-10
9.14528e-10
9.76727e-10
1.04549e-09
1.12144e-09
1.2053e-09
1.29783e-09
1.39985e-09
1.51229e-09
1.63613e-09
1.77245e-09
1.9224e-09
2.08727e-09
2.26844e-09
2.4674e-09
2.68577e-09
2.92532e-09
3.18795e-09
3.47573e-09
3.79089e-09
4.13585e-09
4.51321e-09
4.9258e-09
5.37665e-09
5.86907e-09
6.40657e-09
6.99299e-09
7.63243e-09
8.32932e-09
9.08842e-09
9.91485e-09
1.08141e-08
1.17922e-08
1.28553e-08
1.40104e-08
1.52648e-08
1.66263e-08
1.81034e-08
1.97052e-08
2.14412e-08
2.3322e-08
2.53587e-08
2.75632e-08
2.99484e-08
3.2528e-08
3.53169e-08
3.83317e-08
4.15919e-08
4.5127e-08
4.9002e-08
9.80229e-10
1.04669e-09
1.11992e-09
1.20055e-09
1.28928e-09
1.38689e-09
1.49419e-09
1.61208e-09
1.74155e-09
1.88365e-09
2.03953e-09
2.21045e-09
2.39775e-09
2.60289e-09
2.82747e-09
3.07318e-09
3.3419e-09
3.63561e-09
3.95649e-09
4.30686e-09
4.68923e-09
5.10632e-09
5.56106e-09
6.05658e-09
6.59627e-09
7.18378e-09
7.82302e-09
8.51818e-09
9.2738e-09
1.00947e-08
1.09861e-08
1.19536e-08
1.30032e-08
1.41412e-08
1.53745e-08
1.67105e-08
1.81571e-08
1.97226e-08
2.1416e-08
2.32471e-08
2.5226e-08
2.73639e-08
2.96724e-08
3.21642e-08
3.48528e-08
3.77524e-08
4.08786e-08
4.4248e-08
4.7879e-08
5.17936e-08
5.60253e-08
6.06475e-08
1.29202e-09
1.38629e-09
1.48967e-09
1.60297e-09
1.72709e-09
1.863e-09
2.01175e-09
2.17446e-09
2.35238e-09
2.54682e-09
2.75923e-09
2.99116e-09
3.24427e-09
3.52037e-09
3.82141e-09
4.1495e-09
4.50687e-09
4.89598e-09
5.31944e-09
5.78006e-09
6.28086e-09
6.8251e-09
7.41625e-09
8.05806e-09
8.75454e-09
9.51e-09
1.0329e-08
1.12166e-08
1.21779e-08
1.32186e-08
1.43448e-08
1.5563e-08
1.68799e-08
1.83031e-08
1.98403e-08
2.14999e-08
2.3291e-08
2.5223e-08
2.73062e-08
2.95515e-08
3.19704e-08
3.45753e-08
3.73795e-08
4.03969e-08
4.36426e-08
4.71326e-08
5.0884e-08
5.49152e-08
5.92467e-08
6.39031e-08
6.89216e-08
7.43849e-08
1.72836e-09
1.85954e-09
2.00276e-09
2.15907e-09
2.32959e-09
2.51553e-09
2.7182e-09
2.93901e-09
3.17948e-09
3.44125e-09
3.72609e-09
4.0359e-09
4.37272e-09
4.73873e-09
5.13632e-09
5.56799e-09
6.03649e-09
6.54471e-09
7.0958e-09
7.69309e-09
8.34017e-09
9.04089e-09
9.79934e-09
1.06199e-08
1.15073e-08
1.24666e-08
1.3503e-08
1.46223e-08
1.58307e-08
1.71345e-08
1.85407e-08
2.00568e-08
2.16905e-08
2.34503e-08
2.53451e-08
2.73843e-08
2.95781e-08
3.19371e-08
3.4473e-08
3.71977e-08
4.01243e-08
4.32665e-08
4.66389e-08
5.02571e-08
5.41378e-08
5.82984e-08
6.2758e-08
6.75367e-08
7.26569e-08
7.81458e-08
8.40449e-08
9.04465e-08
2.3284e-09
2.50775e-09
2.7028e-09
2.91483e-09
3.14524e-09
3.39553e-09
3.6673e-09
3.96228e-09
4.28233e-09
4.62945e-09
5.00577e-09
5.4136e-09
5.85538e-09
6.33376e-09
6.85155e-09
7.41177e-09
8.01765e-09
8.67264e-09
9.38043e-09
1.0145e-08
1.09704e-08
1.18613e-08
1.28223e-08
1.38587e-08
1.49757e-08
1.61793e-08
1.74754e-08
1.88708e-08
2.03723e-08
2.19873e-08
2.37237e-08
2.55898e-08
2.75946e-08
2.97474e-08
3.20583e-08
3.45379e-08
3.71973e-08
4.00487e-08
4.31047e-08
4.63788e-08
4.98852e-08
5.36392e-08
5.76568e-08
6.19552e-08
6.65524e-08
7.14677e-08
7.67218e-08
8.23366e-08
8.83368e-08
9.47518e-08
1.01628e-07
1.09067e-07
3.38148e-09
3.64291e-09
3.92608e-09
4.23267e-09
4.56452e-09
4.92357e-09
5.31192e-09
5.73181e-09
6.18561e-09
6.67591e-09
7.20543e-09
7.77709e-09
8.39401e-09
9.05953e-09
9.77718e-09
1.05508e-08
1.13843e-08
1.22821e-08
1.32487e-08
1.4289e-08
1.54081e-08
1.66116e-08
1.79052e-08
1.92952e-08
2.07882e-08
2.23911e-08
2.41114e-08
2.59569e-08
2.79359e-08
3.00573e-08
3.23304e-08
3.47651e-08
3.7372e-08
4.01621e-08
4.31472e-08
4.63398e-08
4.9753e-08
5.34008e-08
5.72981e-08
6.14604e-08
6.59043e-08
7.06474e-08
7.57084e-08
8.11068e-08
8.68636e-08
9.30011e-08
9.95431e-08
1.06516e-07
1.13952e-07
1.21902e-07
1.30478e-07
4.54164e-09
4.88691e-09
5.2596e-09
5.66176e-09
6.09558e-09
6.5634e-09
7.06769e-09
7.61114e-09
8.19656e-09
8.82699e-09
9.50565e-09
1.0236e-08
1.10216e-08
1.18663e-08
1.27744e-08
1.37502e-08
1.47983e-08
1.59237e-08
1.71316e-08
1.84276e-08
1.98175e-08
2.13077e-08
2.29047e-08
2.46155e-08
2.64476e-08
2.84089e-08
3.05075e-08
3.27523e-08
3.51526e-08
3.77181e-08
4.04594e-08
4.33872e-08
4.65132e-08
4.98497e-08
5.34095e-08
5.72062e-08
6.12544e-08