/*--------------------------------*- C++ -*----------------------------------*\
| =========                 |                                                 |
| \\      /  F ield         | OpenFOAM: The Open Source CFD Toolbox           |
|  \\    /   O peration     | Version:  v1706                                 |
|   \\  /    A nd           | Web:      www.OpenFOAM.com                      |
|    \\/     M anipulation  |                                                 |
\*---------------------------------------------------------------------------*/
FoamFile
{
    version     2.0;
    format      ascii;
    class       volScalarField;
    location    "3.4e-05";
    object      mu;
}
// * * * * * * * * * * * * * * * * * * * * * * * * * * * * * * * * * * * * * //

dimensions      [1 -1 -1 0 0 0 0];


internalField   nonuniform List<scalar> 
30038
(
1.0351e-05
1.0351e-05
1.0351e-05
1.0351e-05
1.0351e-05
1.0351e-05
1.0351e-05
1.0351e-05
1.0351e-05
1.0351e-05
1.0351e-05
1.0351e-05
1.0351e-05
1.0351e-05
1.0351e-05
1.0351e-05
1.0351e-05
1.0351e-05
1.0351e-05
1.0351e-05
1.0351e-05
1.0351e-05
1.0351e-05
1.0351e-05
1.0351e-05
1.0351e-05
1.0351e-05
1.0351e-05
1.0351e-05
1.0351e-05
1.0351e-05
1.0351e-05
1.0351e-05
1.0351e-05
1.0351e-05
1.0351e-05
1.0351e-05
1.0351e-05
1.0351e-05
1.0351e-05
1.0351e-05
1.0351e-05
1.0351e-05
1.0351e-05
1.0351e-05
1.0351e-05
1.0351e-05
1.0351e-05
1.0351e-05
1.0351e-05
1.0351e-05
1.0351e-05
1.0351e-05
1.0351e-05
1.0351e-05
1.0351e-05
1.0351e-05
1.0351e-05
1.0351e-05
1.0351e-05
1.0351e-05
1.0351e-05
1.0351e-05
1.0351e-05
1.0351e-05
1.0351e-05
1.0351e-05
1.0351e-05
1.0351e-05
1.0351e-05
1.0351e-05
1.0351e-05
1.0351e-05
1.0351e-05
1.0351e-05
1.0351e-05
1.0351e-05
1.0351e-05
1.0351e-05
1.0351e-05
1.0351e-05
1.0351e-05
1.0351e-05
1.0351e-05
1.0351e-05
1.0351e-05
1.0351e-05
1.0351e-05
1.0351e-05
1.0351e-05
1.0351e-05
1.0351e-05
1.0351e-05
1.0351e-05
1.0351e-05
1.0351e-05
1.0351e-05
1.0351e-05
1.0351e-05
1.0351e-05
1.0351e-05
1.0351e-05
1.0351e-05
1.0351e-05
1.0351e-05
1.0351e-05
1.0351e-05
1.0351e-05
1.0351e-05
1.0351e-05
1.0351e-05
1.0351e-05
1.0351e-05
1.0351e-05
1.0351e-05
1.0351e-05
1.0351e-05
1.0351e-05
1.0351e-05
1.0351e-05
1.0351e-05
1.0351e-05
1.0351e-05
1.0351e-05
1.0351e-05
1.0351e-05
1.0351e-05
1.0351e-05
1.0351e-05
1.0351e-05
1.0351e-05
1.0351e-05
1.0351e-05
1.0351e-05
1.0351e-05
1.0351e-05
1.0351e-05
1.0351e-05
1.0351e-05
1.0351e-05
1.0351e-05
1.0351e-05
1.0351e-05
1.0351e-05
1.0351e-05
1.0351e-05
1.0351e-05
1.0351e-05
1.0351e-05
1.0351e-05
1.0351e-05
1.0351e-05
1.0351e-05
1.0351e-05
1.0351e-05
1.0351e-05
1.0351e-05
1.0351e-05
1.0351e-05
1.0351e-05
1.0351e-05
1.0351e-05
1.0351e-05
1.0351e-05
1.0351e-05
1.0351e-05
1.0351e-05
1.0351e-05
1.0351e-05
1.0351e-05
1.0351e-05
1.0351e-05
1.0351e-05
1.0351e-05
1.0351e-05
1.0351e-05
1.0351e-05
1.0351e-05
1.0351e-05
1.0351e-05
1.0351e-05
1.0351e-05
1.0351e-05
1.0351e-05
1.0351e-05
1.0351e-05
1.0351e-05
1.0351e-05
1.0351e-05
1.0351e-05
1.0351e-05
1.0351e-05
1.0351e-05
1.0351e-05
1.0351e-05
1.0351e-05
1.0351e-05
1.0351e-05
1.0351e-05
1.0351e-05
1.0351e-05
1.0351e-05
1.0351e-05
1.0351e-05
1.0351e-05
1.0351e-05
1.0351e-05
1.0351e-05
1.0351e-05
1.0351e-05
1.0351e-05
1.0351e-05
1.0351e-05
1.0351e-05
1.0351e-05
1.0351e-05
1.0351e-05
1.0351e-05
1.0351e-05
1.0351e-05
1.0351e-05
1.0351e-05
1.0351e-05
1.0351e-05
1.0351e-05
1.0351e-05
1.0351e-05
1.0351e-05
1.0351e-05
1.0351e-05
1.0351e-05
1.0351e-05
1.0351e-05
1.0351e-05
1.0351e-05
1.0351e-05
1.0351e-05
1.0351e-05
1.0351e-05
1.0351e-05
1.0351e-05
1.0351e-05
1.0351e-05
1.0351e-05
1.0351e-05
1.0351e-05
1.0351e-05
1.0351e-05
1.0351e-05
1.0351e-05
1.0351e-05
1.0351e-05
1.0351e-05
1.0351e-05
1.0351e-05
1.0351e-05
1.0351e-05
1.0351e-05
1.0351e-05
1.0351e-05
1.0351e-05
1.0351e-05
1.0351e-05
1.0351e-05
1.0351e-05
1.0351e-05
1.0351e-05
1.0351e-05
1.0351e-05
1.0351e-05
1.0351e-05
1.0351e-05
1.0351e-05
1.0351e-05
1.0351e-05
1.0351e-05
1.0351e-05
1.0351e-05
1.0351e-05
1.0351e-05
1.0351e-05
1.0351e-05
1.0351e-05
1.0351e-05
1.0351e-05
1.0351e-05
1.0351e-05
1.0351e-05
1.0351e-05
1.0351e-05
1.0351e-05
1.0351e-05
1.0351e-05
1.0351e-05
1.0351e-05
1.0351e-05
1.0351e-05
1.0351e-05
1.0351e-05
1.0351e-05
1.0351e-05
1.0351e-05
1.0351e-05
1.0351e-05
1.0351e-05
1.0351e-05
1.0351e-05
1.0351e-05
1.0351e-05
1.0351e-05
1.0351e-05
1.0351e-05
1.0351e-05
1.0351e-05
1.0351e-05
1.0351e-05
1.0351e-05
1.0351e-05
1.0351e-05
1.0351e-05
1.0351e-05
1.0351e-05
1.0351e-05
1.0351e-05
1.0351e-05
1.0351e-05
1.0351e-05
1.0351e-05
1.0351e-05
1.0351e-05
1.0351e-05
1.0351e-05
1.0351e-05
1.0351e-05
1.0351e-05
1.0351e-05
1.0351e-05
1.0351e-05
1.0351e-05
1.0351e-05
1.0351e-05
1.0351e-05
1.03511e-05
1.0351e-05
1.0351e-05
1.0351e-05
1.0351e-05
1.0351e-05
1.0351e-05
1.0351e-05
1.0351e-05
1.0351e-05
1.0351e-05
1.0351e-05
1.0351e-05
1.0351e-05
1.0351e-05
1.0351e-05
1.0351e-05
1.0351e-05
1.0351e-05
1.0351e-05
1.0351e-05
1.0351e-05
1.0351e-05
1.0351e-05
1.0351e-05
1.0351e-05
1.0351e-05
1.0351e-05
1.0351e-05
1.0351e-05
1.0351e-05
1.0351e-05
1.0351e-05
1.0351e-05
1.0351e-05
1.0351e-05
1.0351e-05
1.03511e-05
1.03511e-05
1.03511e-05
1.0351e-05
1.0351e-05
1.0351e-05
1.0351e-05
1.0351e-05
1.0351e-05
1.0351e-05
1.0351e-05
1.0351e-05
1.0351e-05
1.0351e-05
1.0351e-05
1.0351e-05
1.0351e-05
1.0351e-05
1.0351e-05
1.0351e-05
1.0351e-05
1.0351e-05
1.0351e-05
1.0351e-05
1.0351e-05
1.0351e-05
1.0351e-05
1.0351e-05
1.0351e-05
1.0351e-05
1.0351e-05
1.0351e-05
1.0351e-05
1.0351e-05
1.0351e-05
1.0351e-05
1.03511e-05
1.03511e-05
1.03511e-05
1.03512e-05
1.03513e-05
1.03514e-05
1.0351e-05
1.0351e-05
1.0351e-05
1.0351e-05
1.0351e-05
1.0351e-05
1.0351e-05
1.0351e-05
1.0351e-05
1.0351e-05
1.0351e-05
1.0351e-05
1.0351e-05
1.0351e-05
1.0351e-05
1.0351e-05
1.0351e-05
1.0351e-05
1.0351e-05
1.0351e-05
1.0351e-05
1.0351e-05
1.0351e-05
1.0351e-05
1.0351e-05
1.0351e-05
1.0351e-05
1.0351e-05
1.0351e-05
1.0351e-05
1.0351e-05
1.03511e-05
1.03511e-05
1.03511e-05
1.03512e-05
1.03513e-05
1.03514e-05
1.03516e-05
1.03519e-05
1.03523e-05
1.0351e-05
1.0351e-05
1.0351e-05
1.0351e-05
1.0351e-05
1.0351e-05
1.0351e-05
1.0351e-05
1.0351e-05
1.0351e-05
1.0351e-05
1.0351e-05
1.0351e-05
1.0351e-05
1.0351e-05
1.0351e-05
1.0351e-05
1.0351e-05
1.0351e-05
1.0351e-05
1.0351e-05
1.0351e-05
1.0351e-05
1.0351e-05
1.0351e-05
1.0351e-05
1.0351e-05
1.0351e-05
1.03511e-05
1.03511e-05
1.03511e-05
1.03512e-05
1.03513e-05
1.03514e-05
1.03516e-05
1.03518e-05
1.03522e-05
1.03527e-05
1.03535e-05
1.03547e-05
1.0351e-05
1.0351e-05
1.0351e-05
1.0351e-05
1.0351e-05
1.0351e-05
1.0351e-05
1.0351e-05
1.0351e-05
1.0351e-05
1.0351e-05
1.0351e-05
1.0351e-05
1.0351e-05
1.0351e-05
1.0351e-05
1.0351e-05
1.0351e-05
1.0351e-05
1.0351e-05
1.0351e-05
1.0351e-05
1.0351e-05
1.0351e-05
1.0351e-05
1.03511e-05
1.03511e-05
1.03511e-05
1.03512e-05
1.03513e-05
1.03514e-05
1.03515e-05
1.03518e-05
1.03521e-05
1.03526e-05
1.03533e-05
1.03544e-05
1.03559e-05
1.03581e-05
1.03615e-05
1.0351e-05
1.0351e-05
1.0351e-05
1.0351e-05
1.0351e-05
1.0351e-05
1.0351e-05
1.0351e-05
1.0351e-05
1.0351e-05
1.0351e-05
1.0351e-05
1.0351e-05
1.0351e-05
1.0351e-05
1.0351e-05
1.0351e-05
1.0351e-05
1.0351e-05
1.0351e-05
1.0351e-05
1.0351e-05
1.03511e-05
1.03511e-05
1.03511e-05
1.03512e-05
1.03513e-05
1.03514e-05
1.03515e-05
1.03517e-05
1.03521e-05
1.03525e-05
1.03532e-05
1.03542e-05
1.03555e-05
1.03576e-05
1.03605e-05
1.03647e-05
1.0371e-05
1.03802e-05
1.0351e-05
1.0351e-05
1.0351e-05
1.0351e-05
1.0351e-05
1.0351e-05
1.0351e-05
1.0351e-05
1.0351e-05
1.0351e-05
1.0351e-05
1.0351e-05
1.0351e-05
1.0351e-05
1.0351e-05
1.0351e-05
1.0351e-05
1.0351e-05
1.03511e-05
1.03511e-05
1.03511e-05
1.03511e-05
1.03512e-05
1.03513e-05
1.03514e-05
1.03515e-05
1.03517e-05
1.03521e-05
1.03525e-05
1.03531e-05
1.0354e-05
1.03553e-05
1.03572e-05
1.03599e-05
1.03637e-05
1.03693e-05
1.03773e-05
1.03889e-05
1.04058e-05
1.04307e-05
1.0351e-05
1.0351e-05
1.0351e-05
1.0351e-05
1.0351e-05
1.0351e-05
1.0351e-05
1.0351e-05
1.0351e-05
1.0351e-05
1.0351e-05
1.0351e-05
1.0351e-05
1.0351e-05
1.0351e-05
1.03511e-05
1.03511e-05
1.03511e-05
1.03511e-05
1.03512e-05
1.03513e-05
1.03514e-05
1.03515e-05
1.03517e-05
1.03521e-05
1.03525e-05
1.03531e-05
1.0354e-05
1.03552e-05
1.03569e-05
1.03594e-05
1.0363e-05
1.03681e-05
1.03754e-05
1.03858e-05
1.04008e-05
1.04224e-05
1.04534e-05
1.0498e-05
1.05626e-05
1.0351e-05
1.0351e-05
1.0351e-05
1.0351e-05
1.0351e-05
1.0351e-05
1.0351e-05
1.0351e-05
1.0351e-05
1.0351e-05
1.0351e-05
1.0351e-05
1.03511e-05
1.03511e-05
1.03511e-05
1.03512e-05
1.03512e-05
1.03513e-05
1.03514e-05
1.03516e-05
1.03518e-05
1.03521e-05
1.03525e-05
1.03531e-05
1.03539e-05
1.03551e-05
1.03568e-05
1.03592e-05
1.03625e-05
1.03673e-05
1.03741e-05
1.03837e-05
1.03974e-05
1.04168e-05
1.04446e-05
1.04841e-05
1.05402e-05
1.06199e-05
1.07325e-05
1.0891e-05
1.0351e-05
1.0351e-05
1.0351e-05
1.0351e-05
1.0351e-05
1.0351e-05
1.0351e-05
1.0351e-05
1.0351e-05
1.0351e-05
1.03511e-05
1.03511e-05
1.03511e-05
1.03512e-05
1.03512e-05
1.03513e-05
1.03514e-05
1.03516e-05
1.03518e-05
1.03521e-05
1.03525e-05
1.03531e-05
1.0354e-05
1.03551e-05
1.03568e-05
1.03591e-05
1.03623e-05
1.03668e-05
1.03732e-05
1.03822e-05
1.03949e-05
1.04129e-05
1.04382e-05
1.04741e-05
1.05246e-05
1.05957e-05
1.06953e-05
1.08342e-05
1.10259e-05
1.12877e-05
1.16386e-05
1.0351e-05
1.0351e-05
1.0351e-05
1.0351e-05
1.0351e-05
1.0351e-05
1.03511e-05
1.03511e-05
1.03511e-05
1.03511e-05
1.03512e-05
1.03512e-05
1.03513e-05
1.03515e-05
1.03516e-05
1.03518e-05
1.03522e-05
1.03526e-05
1.03532e-05
1.0354e-05
1.03552e-05
1.03568e-05
1.03591e-05
1.03622e-05
1.03666e-05
1.03727e-05
1.03813e-05
1.03933e-05
1.04101e-05
1.04338e-05
1.04668e-05
1.05132e-05
1.05779e-05
1.06681e-05
1.07929e-05
1.09644e-05
1.11973e-05
1.1509e-05
1.19182e-05
1.24421e-05
1.30912e-05
1.0351e-05
1.0351e-05
1.0351e-05
1.0351e-05
1.03511e-05
1.03511e-05
1.03511e-05
1.03511e-05
1.03512e-05
1.03513e-05
1.03514e-05
1.03515e-05
1.03517e-05
1.03519e-05
1.03522e-05
1.03527e-05
1.03533e-05
1.03542e-05
1.03554e-05
1.0357e-05
1.03592e-05
1.03623e-05
1.03666e-05
1.03726e-05
1.03809e-05
1.03924e-05
1.04085e-05
1.04308e-05
1.04619e-05
1.05051e-05
1.0565e-05
1.06479e-05
1.07621e-05
1.09181e-05
1.11293e-05
1.14112e-05
1.17809e-05
1.22548e-05
1.2846e-05
1.35608e-05
1.43933e-05
1.53228e-05
1.0351e-05
1.03511e-05
1.03511e-05
1.03511e-05
1.03511e-05
1.03512e-05
1.03512e-05
1.03513e-05
1.03514e-05
1.03515e-05
1.03517e-05
1.0352e-05
1.03523e-05
1.03528e-05
1.03535e-05
1.03544e-05
1.03556e-05
1.03572e-05
1.03595e-05
1.03626e-05
1.03669e-05
1.03729e-05
1.0381e-05
1.03923e-05
1.04078e-05
1.04293e-05
1.04589e-05
1.04998e-05
1.05562e-05
1.06337e-05
1.07397e-05
1.08838e-05
1.1078e-05
1.13366e-05
1.16752e-05
1.21098e-05
1.26536e-05
1.33143e-05
1.409e-05
1.49662e-05
1.59164e-05
1.68999e-05
1.7866e-05
1.03511e-05
1.03511e-05
1.03512e-05
1.03513e-05
1.03513e-05
1.03515e-05
1.03516e-05
1.03518e-05
1.03521e-05
1.03525e-05
1.0353e-05
1.03537e-05
1.03546e-05
1.03559e-05
1.03576e-05
1.03599e-05
1.03631e-05
1.03675e-05
1.03735e-05
1.03816e-05
1.03927e-05
1.0408e-05
1.0429e-05
1.04577e-05
1.04971e-05
1.05509e-05
1.06244e-05
1.07243e-05
1.08593e-05
1.10404e-05
1.12806e-05
1.15945e-05
1.19972e-05
1.25019e-05
1.31178e-05
1.38458e-05
1.46765e-05
1.55875e-05
1.65456e-05
1.75042e-05
1.84036e-05
1.91824e-05
1.98123e-05
1.03512e-05
1.03513e-05
1.03514e-05
1.03515e-05
1.03517e-05
1.03519e-05
1.03522e-05
1.03527e-05
1.03532e-05
1.0354e-05
1.03549e-05
1.03563e-05
1.03581e-05
1.03606e-05
1.03639e-05
1.03683e-05
1.03744e-05
1.03827e-05
1.03939e-05
1.04092e-05
1.04299e-05
1.04582e-05
1.04966e-05
1.05488e-05
1.06196e-05
1.07151e-05
1.08435e-05
1.10147e-05
1.12407e-05
1.15351e-05
1.19121e-05
1.23847e-05
1.29626e-05
1.36491e-05
1.44381e-05
1.53125e-05
1.62444e-05
1.71955e-05
1.81138e-05
1.89398e-05
1.96248e-05
2.01504e-05
2.05247e-05
2.07823e-05
1.03515e-05
1.03516e-05
1.03518e-05
1.03521e-05
1.03524e-05
1.03529e-05
1.03535e-05
1.03543e-05
1.03554e-05
1.03568e-05
1.03588e-05
1.03614e-05
1.03648e-05
1.03695e-05
1.03758e-05
1.03843e-05
1.03958e-05
1.04112e-05
1.04321e-05
1.04604e-05
1.04985e-05
1.05498e-05
1.0619e-05
1.07117e-05
1.08355e-05
1.09996e-05
1.1215e-05
1.14944e-05
1.18512e-05
1.22979e-05
1.28442e-05
1.34949e-05
1.42466e-05
1.5086e-05
1.59896e-05
1.69254e-05
1.78499e-05
1.87086e-05
1.94485e-05
2.00373e-05
2.04727e-05
2.07743e-05
2.09732e-05
2.10973e-05
2.11739e-05
1.0352e-05
1.03523e-05
1.03526e-05
1.03532e-05
1.03538e-05
1.03547e-05
1.03559e-05
1.03575e-05
1.03596e-05
1.03624e-05
1.03661e-05
1.03711e-05
1.03777e-05
1.03866e-05
1.03984e-05
1.04144e-05
1.04357e-05
1.04643e-05
1.05026e-05
1.05539e-05
1.06224e-05
1.07137e-05
1.08347e-05
1.09941e-05
1.12021e-05
1.14706e-05
1.1812e-05
1.22383e-05
1.2759e-05
1.33796e-05
1.40987e-05
1.49058e-05
1.57813e-05
1.66973e-05
1.76175e-05
1.84943e-05
1.92751e-05
1.99193e-05
2.04123e-05
2.07653e-05
2.10037e-05
2.11569e-05
2.12506e-05
2.13059e-05
2.13367e-05
2.13521e-05
1.03525e-05
1.03529e-05
1.03535e-05
1.03543e-05
1.03553e-05
1.03566e-05
1.03584e-05
1.03607e-05
1.03637e-05
1.03677e-05
1.03731e-05
1.03801e-05
1.03895e-05
1.0402e-05
1.04186e-05
1.04407e-05
1.04701e-05
1.05092e-05
1.05612e-05
1.06301e-05
1.07212e-05
1.08411e-05
1.09979e-05
1.12014e-05
1.14624e-05
1.17927e-05
1.22036e-05
1.27044e-05
1.33004e-05
1.39917e-05
1.47701e-05
1.56188e-05
1.65132e-05
1.74225e-05
1.83057e-05
1.9114e-05
1.98025e-05
2.03471e-05
2.07491e-05
2.10286e-05
2.12129e-05
2.13287e-05
2.1398e-05
2.1437e-05
2.14575e-05
2.14652e-05
2.14649e-05
2.1463e-05
1.03549e-05
1.0356e-05
1.03575e-05
1.03595e-05
1.0362e-05
1.03654e-05
1.03698e-05
1.03756e-05
1.03833e-05
1.03933e-05
1.04067e-05
1.04242e-05
1.04474e-05
1.04781e-05
1.05185e-05
1.05719e-05
1.06421e-05
1.07343e-05
1.08547e-05
1.10111e-05
1.12125e-05
1.14694e-05
1.17925e-05
1.21925e-05
1.26783e-05
1.3255e-05
1.39234e-05
1.4677e-05
1.55012e-05
1.63741e-05
1.72686e-05
1.81497e-05
1.89737e-05
1.96952e-05
2.02831e-05
2.073e-05
2.10494e-05
2.12654e-05
2.14045e-05
2.14896e-05
2.15391e-05
2.15657e-05
2.15782e-05
2.15784e-05
2.15762e-05
2.15708e-05
2.15606e-05
2.15468e-05
1.03569e-05
1.03586e-05
1.03608e-05
1.03637e-05
1.03675e-05
1.03724e-05
1.03788e-05
1.03872e-05
1.03982e-05
1.04126e-05
1.04314e-05
1.04561e-05
1.04885e-05
1.05309e-05
1.05865e-05
1.0659e-05
1.07535e-05
1.0876e-05
1.10339e-05
1.12358e-05
1.14914e-05
1.18109e-05
1.22043e-05
1.26796e-05
1.3242e-05
1.38921e-05
1.46248e-05
1.54271e-05
1.62795e-05
1.71575e-05
1.80309e-05
1.88612e-05
1.96049e-05
2.02272e-05
2.0713e-05
2.10693e-05
2.13162e-05
2.14789e-05
2.15811e-05
2.16417e-05
2.16754e-05
2.16918e-05
2.16961e-05
2.16933e-05
2.16892e-05
2.16798e-05
2.16662e-05
2.16499e-05
2.16319e-05
2.16125e-05
1.03659e-05
1.03702e-05
1.03757e-05
1.03829e-05
1.03922e-05
1.04043e-05
1.04201e-05
1.04406e-05
1.04672e-05
1.05019e-05
1.0547e-05
1.06055e-05
1.06814e-05
1.07795e-05
1.09057e-05
1.1067e-05
1.12718e-05
1.1529e-05
1.18483e-05
1.22388e-05
1.2708e-05
1.32605e-05
1.38968e-05
1.46125e-05
1.5396e-05
1.62295e-05
1.70904e-05
1.79525e-05
1.87818e-05
1.95383e-05
2.01856e-05
2.07034e-05
2.10922e-05
2.13679e-05
2.15537e-05
2.16728e-05
2.17454e-05
2.17865e-05
2.1808e-05
2.18158e-05
2.18136e-05
2.18089e-05
2.18015e-05
2.17886e-05
2.17725e-05
2.17547e-05
2.17347e-05
2.17139e-05
2.16936e-05
2.1674e-05
1.03881e-05
1.03986e-05
1.04121e-05
1.04296e-05
1.04521e-05
1.04812e-05
1.05188e-05
1.05674e-05
1.06299e-05
1.07103e-05
1.08133e-05
1.09449e-05
1.11117e-05
1.13216e-05
1.15833e-05
1.19055e-05
1.22967e-05
1.27637e-05
1.33104e-05
1.3937e-05
1.46393e-05
1.54071e-05
1.62233e-05
1.70676e-05
1.7916e-05
1.87391e-05
1.95006e-05
2.01643e-05
2.07064e-05
2.11222e-05
2.14234e-05
2.16305e-05
2.17662e-05
2.18507e-05
2.18996e-05
2.1926e-05
2.19374e-05
2.19369e-05
2.19321e-05
2.19252e-05
2.19136e-05
2.18978e-05
2.18798e-05
2.186e-05
2.18386e-05
2.18169e-05
2.17959e-05
2.17753e-05
2.17552e-05
2.17356e-05
1.04416e-05
1.04667e-05
1.04989e-05
1.05402e-05
1.05931e-05
1.06606e-05
1.07468e-05
1.08564e-05
1.0995e-05
1.11694e-05
1.13869e-05
1.16557e-05
1.1984e-05
1.23794e-05
1.28477e-05
1.33924e-05
1.4013e-05
1.47054e-05
1.54599e-05
1.62609e-05
1.70891e-05
1.79227e-05
1.87359e-05
1.94957e-05
2.01679e-05
2.07267e-05
2.11634e-05
2.14858e-05
2.17117e-05
2.18625e-05
2.19582e-05
2.20151e-05
2.20465e-05
2.20615e-05
2.2063e-05
2.20582e-05
2.20508e-05
2.20405e-05
2.20252e-05
2.20073e-05
2.19878e-05
2.19662e-05
2.19436e-05
2.19215e-05
2.18997e-05
2.18782e-05
2.18572e-05
2.18365e-05
2.18164e-05
2.17966e-05
1.0567e-05
1.06253e-05
1.06992e-05
1.07926e-05
1.09104e-05
1.10581e-05
1.12422e-05
1.14698e-05
1.17485e-05
1.20858e-05
1.24885e-05
1.29616e-05
1.35077e-05
1.41257e-05
1.48111e-05
1.5555e-05
1.63424e-05
1.71551e-05
1.79731e-05
1.87735e-05
1.95267e-05
2.02004e-05
2.07686e-05
2.12197e-05
2.15582e-05
2.17996e-05
2.19634e-05
2.20692e-05
2.21335e-05
2.21697e-05
2.21877e-05
2.21918e-05
2.21878e-05
2.21798e-05
2.21697e-05
2.21552e-05
2.21373e-05
2.21176e-05
2.20961e-05
2.2073e-05
2.20497e-05
2.2027e-05
2.20045e-05
2.19823e-05
2.19605e-05
2.1939e-05
2.19177e-05
2.18968e-05
2.18764e-05
2.18562e-05
1.08497e-05
1.09775e-05
1.11365e-05
1.13327e-05
1.1573e-05
1.18644e-05
1.22136e-05
1.26267e-05
1.31076e-05
1.3658e-05
1.42762e-05
1.49574e-05
1.56926e-05
1.64679e-05
1.72657e-05
1.80676e-05
1.88529e-05
1.95951e-05
2.02644e-05
2.08352e-05
2.12942e-05
2.16436e-05
2.18964e-05
2.20705e-05
2.21848e-05
2.22556e-05
2.22961e-05
2.23167e-05
2.23233e-05
2.23201e-05
2.23117e-05
2.2301e-05
2.22876e-05
2.22696e-05
2.22496e-05
2.22284e-05
2.22049e-05
2.21808e-05
2.21571e-05
2.21336e-05
2.21102e-05
2.20873e-05
2.20648e-05
2.20424e-05
2.20204e-05
2.19985e-05
2.1977e-05
2.19557e-05
2.19349e-05
2.19144e-05
1.14442e-05
1.16999e-05
1.20067e-05
1.23707e-05
1.27969e-05
1.32884e-05
1.38457e-05
1.44664e-05
1.51453e-05
1.58735e-05
1.66376e-05
1.74208e-05
1.8206e-05
1.89744e-05
1.97022e-05
2.03619e-05
2.09289e-05
2.13896e-05
2.17443e-05
2.20041e-05
2.21854e-05
2.23061e-05
2.23821e-05
2.24262e-05
2.24493e-05
2.24577e-05
2.2455e-05
2.24467e-05
2.24354e-05
2.24222e-05
2.24044e-05
2.23841e-05
2.23627e-05
2.23392e-05
2.23144e-05
2.22897e-05
2.22653e-05
2.22411e-05
2.22171e-05
2.21935e-05
2.21701e-05
2.21469e-05
2.2124e-05
2.21013e-05
2.20788e-05
2.20566e-05
2.20347e-05
2.2013e-05
2.19919e-05
2.1971e-05
1.25611e-05
1.30029e-05
1.35072e-05
1.40734e-05
1.46984e-05
1.53765e-05
1.60988e-05
1.68522e-05
1.76205e-05
1.83882e-05
1.91379e-05
1.98483e-05
2.04937e-05
2.10512e-05
2.15076e-05
2.18622e-05
2.21244e-05
2.23095e-05
2.24342e-05
2.25137e-05
2.25604e-05
2.25854e-05
2.2595e-05
2.25929e-05
2.2585e-05
2.25728e-05
2.2559e-05
2.25418e-05
2.25211e-05
2.24993e-05
2.24758e-05
2.24505e-05
2.24249e-05
2.23997e-05
2.23745e-05
2.23495e-05
2.23249e-05
2.23005e-05
2.22763e-05
2.22523e-05
2.22285e-05
2.22049e-05
2.21816e-05
2.21585e-05
2.21356e-05
2.2113e-05
2.20907e-05
2.20687e-05
2.20473e-05
2.20261e-05
1.43443e-05
1.49747e-05
1.56527e-05
1.63694e-05
1.71119e-05
1.78649e-05
1.86138e-05
1.93431e-05
2.0033e-05
2.06599e-05
2.12028e-05
2.16493e-05
2.19983e-05
2.22586e-05
2.24439e-05
2.25699e-05
2.2651e-05
2.26992e-05
2.27252e-05
2.27355e-05
2.27339e-05
2.2726e-05
2.2713e-05
2.26985e-05
2.26815e-05
2.26604e-05
2.26381e-05
2.26146e-05
2.2589e-05
2.25626e-05
2.25364e-05
2.25105e-05
2.24845e-05
2.24589e-05
2.24335e-05
2.24083e-05
2.23833e-05
2.23586e-05
2.2334e-05
2.23095e-05
2.22853e-05
2.22613e-05
2.22375e-05
2.2214e-05
2.21908e-05
2.21678e-05
2.21452e-05
2.21229e-05
2.21011e-05
2.20797e-05
1.66863e-05
1.74171e-05
1.81535e-05
1.88823e-05
1.9589e-05
2.02554e-05
2.08599e-05
2.13834e-05
2.18147e-05
2.21533e-05
2.24072e-05
2.25892e-05
2.27138e-05
2.27946e-05
2.2843e-05
2.28691e-05
2.28796e-05
2.28779e-05
2.28696e-05
2.28561e-05
2.28407e-05
2.28236e-05
2.28021e-05
2.27792e-05
2.27553e-05
2.27295e-05
2.27025e-05
2.26755e-05
2.26487e-05
2.26219e-05
2.25954e-05
2.25691e-05
2.2543e-05
2.2517e-05
2.24913e-05
2.24657e-05
2.24403e-05
2.2415e-05
2.239e-05
2.23651e-05
2.23404e-05
2.2316e-05
2.22918e-05
2.22679e-05
2.22442e-05
2.22209e-05
2.2198e-05
2.21754e-05
2.21534e-05
2.21318e-05
1.91923e-05
1.98741e-05
2.05141e-05
2.10923e-05
2.15919e-05
2.20033e-05
2.23269e-05
2.25703e-05
2.27456e-05
2.28662e-05
2.29447e-05
2.2992e-05
2.30173e-05
2.30272e-05
2.30251e-05
2.30163e-05
2.30023e-05
2.29856e-05
2.29676e-05
2.29465e-05
2.29227e-05
2.28983e-05
2.28723e-05
2.28447e-05
2.28169e-05
2.27893e-05
2.27618e-05
2.27342e-05
2.2707e-05
2.268e-05
2.26532e-05
2.26265e-05
2.26e-05
2.25736e-05
2.25474e-05
2.25213e-05
2.24954e-05
2.24697e-05
2.24442e-05
2.24188e-05
2.23937e-05
2.23689e-05
2.23443e-05
2.232e-05
2.22961e-05
2.22725e-05
2.22492e-05
2.22264e-05
2.22041e-05
2.21823e-05
2.13549e-05
2.18263e-05
2.22136e-05
2.2518e-05
2.27474e-05
2.29129e-05
2.30271e-05
2.31014e-05
2.31461e-05
2.31698e-05
2.31783e-05
2.31755e-05
2.3166e-05
2.31511e-05
2.31333e-05
2.31144e-05
2.3093e-05
2.30685e-05
2.30434e-05
2.30171e-05
2.2989e-05
2.29605e-05
2.29321e-05
2.29038e-05
2.28754e-05
2.28473e-05
2.28195e-05
2.27917e-05
2.27641e-05
2.27367e-05
2.27094e-05
2.26822e-05
2.26552e-05
2.26284e-05
2.26016e-05
2.25751e-05
2.25487e-05
2.25225e-05
2.24966e-05
2.24708e-05
2.24453e-05
2.24201e-05
2.23952e-05
2.23706e-05
2.23463e-05
2.23224e-05
2.22989e-05
2.22758e-05
2.22534e-05
2.22314e-05
2.27252e-05
2.29373e-05
2.30905e-05
2.31961e-05
2.32645e-05
2.33054e-05
2.33265e-05
2.33329e-05
2.3329e-05
2.33183e-05
2.33022e-05
2.32834e-05
2.32637e-05
2.32416e-05
2.32163e-05
2.31906e-05
2.31639e-05
2.31354e-05
2.31061e-05
2.3077e-05
2.30479e-05
2.30187e-05
2.29898e-05
2.29611e-05
2.29325e-05
2.2904e-05
2.28757e-05
2.28476e-05
2.28195e-05
2.27916e-05
2.27638e-05
2.27361e-05
2.27086e-05
2.26813e-05
2.26541e-05
2.26271e-05
2.26002e-05
2.25736e-05
2.25472e-05
2.25211e-05
2.24952e-05
2.24696e-05
2.24444e-05
2.24194e-05
2.23949e-05
2.23707e-05
2.2347e-05
2.23237e-05
2.2301e-05
2.22789e-05
2.33723e-05
2.34334e-05
2.34694e-05
2.34872e-05
2.34909e-05
2.34855e-05
2.34733e-05
2.34559e-05
2.34361e-05
2.34154e-05
2.33921e-05
2.33666e-05
2.33399e-05
2.33126e-05
2.32836e-05
2.32537e-05
2.32238e-05
2.3194e-05
2.31642e-05
2.31343e-05
2.31048e-05
2.30754e-05
2.30461e-05
2.3017e-05
2.2988e-05
2.29591e-05
2.29303e-05
2.29016e-05
2.2873e-05
2.28446e-05
2.28163e-05
2.27882e-05
2.27602e-05
2.27323e-05
2.27047e-05
2.26772e-05
2.26499e-05
2.26229e-05
2.25961e-05
2.25696e-05
2.25434e-05
2.25175e-05
2.24919e-05
2.24666e-05
2.24418e-05
2.24174e-05
2.23935e-05
2.237e-05
2.23472e-05
2.23249e-05
2.36517e-05
2.36518e-05
2.36448e-05
2.36309e-05
2.3612e-05
2.3591e-05
2.35692e-05
2.35448e-05
2.35187e-05
2.34912e-05
2.34631e-05
2.34337e-05
2.34032e-05
2.33726e-05
2.33421e-05
2.33114e-05
2.32808e-05
2.32506e-05
2.32204e-05
2.31903e-05
2.31603e-05
2.31305e-05
2.31008e-05
2.30711e-05
2.30416e-05
2.30122e-05
2.29829e-05
2.29537e-05
2.29247e-05
2.28957e-05
2.28669e-05
2.28383e-05
2.28098e-05
2.27815e-05
2.27534e-05
2.27256e-05
2.26979e-05
2.26705e-05
2.26433e-05
2.26164e-05
2.25898e-05
2.25636e-05
2.25377e-05
2.25122e-05
2.24872e-05
2.24625e-05
2.24384e-05
2.24148e-05
2.23918e-05
2.23694e-05
2.38066e-05
2.37907e-05
2.37702e-05
2.3748e-05
2.37251e-05
2.36996e-05
2.36727e-05
2.36445e-05
2.36155e-05
2.35855e-05
2.35544e-05
2.35231e-05
2.34919e-05
2.34606e-05
2.34293e-05
2.33982e-05
2.33673e-05
2.33364e-05
2.33056e-05
2.3275e-05
2.32445e-05
2.32141e-05
2.31838e-05
2.31535e-05
2.31234e-05
2.30933e-05
2.30634e-05
2.30336e-05
2.30039e-05
2.29744e-05
2.29449e-05
2.29157e-05
2.28866e-05
2.28577e-05
2.28289e-05
2.28004e-05
2.27721e-05
2.27441e-05
2.27163e-05
2.26887e-05
2.26615e-05
2.26346e-05
2.26081e-05
2.25819e-05
2.25562e-05
2.25309e-05
2.2506e-05
2.24817e-05
2.24579e-05
2.24348e-05
2.24123e-05
2.39071e-05
2.3883e-05
2.38562e-05
2.38283e-05
2.37996e-05
2.37696e-05
2.3739e-05
2.37073e-05
2.36753e-05
2.36434e-05
2.36115e-05
2.35794e-05
2.35476e-05
2.3516e-05
2.34843e-05
2.34528e-05
2.34215e-05
2.33902e-05
2.33589e-05
2.33278e-05
2.32968e-05
2.32659e-05
2.3235e-05
2.32043e-05
2.31736e-05
2.31431e-05
2.31127e-05
2.30824e-05
2.30522e-05
2.30222e-05
2.29923e-05
2.29626e-05
2.2933e-05
2.29037e-05
2.28745e-05
2.28456e-05
2.28169e-05
2.27885e-05
2.27603e-05
2.27325e-05
2.27049e-05
2.26777e-05
2.26509e-05
2.26245e-05
2.25985e-05
2.2573e-05
2.2548e-05
2.25235e-05
2.24995e-05
2.24763e-05
2.24537e-05
2.40145e-05
2.39856e-05
2.39561e-05
2.39254e-05
2.38939e-05
2.38617e-05
2.3829e-05
2.37964e-05
2.37639e-05
2.37312e-05
2.36986e-05
2.36663e-05
2.3634e-05
2.36017e-05
2.35696e-05
2.35376e-05
2.35056e-05
2.34738e-05
2.3442e-05
2.34103e-05
2.33787e-05
2.33472e-05
2.33157e-05
2.32844e-05
2.32531e-05
2.3222e-05
2.31909e-05
2.316e-05
2.31293e-05
2.30986e-05
2.30681e-05
2.30378e-05
2.30076e-05
2.29777e-05
2.29479e-05
2.29184e-05
2.2889e-05
2.286e-05
2.28312e-05
2.28027e-05
2.27745e-05
2.27466e-05
2.27192e-05
2.26921e-05
2.26654e-05
2.26392e-05
2.26134e-05
2.25882e-05
2.25636e-05
2.25395e-05
2.25162e-05
2.24934e-05
2.40826e-05
2.40503e-05
2.40175e-05
2.39842e-05
2.39509e-05
2.39178e-05
2.38845e-05
2.38512e-05
2.38182e-05
2.37852e-05
2.37522e-05
2.37195e-05
2.36867e-05
2.36541e-05
2.36215e-05
2.3589e-05
2.35565e-05
2.35242e-05
2.34919e-05
2.34597e-05
2.34276e-05
2.33955e-05
2.33636e-05
2.33318e-05
2.33e-05
2.32684e-05
2.32369e-05
2.32055e-05
2.31743e-05
2.31432e-05
2.31122e-05
2.30815e-05
2.30509e-05
2.30205e-05
2.29903e-05
2.29604e-05
2.29307e-05
2.29013e-05
2.28721e-05
2.28433e-05
2.28148e-05
2.27867e-05
2.27589e-05
2.27315e-05
2.27046e-05
2.26782e-05
2.26523e-05
2.26269e-05
2.2602e-05
2.25778e-05
2.25543e-05
2.25315e-05
2.41406e-05
2.41067e-05
2.40729e-05
2.40391e-05
2.40051e-05
2.39715e-05
2.39379e-05
2.39043e-05
2.38708e-05
2.38374e-05
2.3804e-05
2.37708e-05
2.37376e-05
2.37044e-05
2.36714e-05
2.36384e-05
2.36054e-05
2.35726e-05
2.35398e-05
2.35071e-05
2.34745e-05
2.3442e-05
2.34095e-05
2.33772e-05
2.3345e-05
2.33129e-05
2.32809e-05
2.32491e-05
2.32174e-05
2.31859e-05
2.31545e-05
2.31233e-05
2.30923e-05
2.30615e-05
2.3031e-05
2.30007e-05
2.29706e-05
2.29408e-05
2.29114e-05
2.28822e-05
2.28534e-05
2.2825e-05
2.27969e-05
2.27693e-05
2.27422e-05
2.27155e-05
2.26894e-05
2.26638e-05
2.26388e-05
2.26144e-05
2.25908e-05
2.25678e-05
2.41948e-05
2.41603e-05
2.41261e-05
2.40919e-05
2.40576e-05
2.40235e-05
2.39895e-05
2.39555e-05
2.39215e-05
2.38877e-05
2.38539e-05
2.38201e-05
2.37864e-05
2.37528e-05
2.37193e-05
2.36858e-05
2.36523e-05
2.3619e-05
2.35857e-05
2.35526e-05
2.35195e-05
2.34865e-05
2.34536e-05
2.34208e-05
2.33881e-05
2.33555e-05
2.33231e-05
2.32908e-05
2.32587e-05
2.32267e-05
2.3195e-05
2.31634e-05
2.3132e-05
2.31008e-05
2.30699e-05
2.30392e-05
2.30088e-05
2.29786e-05
2.29488e-05
2.29194e-05
2.28903e-05
2.28615e-05
2.28332e-05
2.28054e-05
2.2778e-05
2.27511e-05
2.27247e-05
2.2699e-05
2.26738e-05
2.26493e-05
2.26255e-05
2.26024e-05
2.4247e-05
2.42121e-05
2.41774e-05
2.41428e-05
2.41081e-05
2.40736e-05
2.40391e-05
2.40047e-05
2.39703e-05
2.3936e-05
2.39017e-05
2.38675e-05
2.38333e-05
2.37992e-05
2.37652e-05
2.37312e-05
2.36973e-05
2.36635e-05
2.36297e-05
2.35961e-05
2.35625e-05
2.35291e-05
2.34957e-05
2.34625e-05
2.34293e-05
2.33963e-05
2.33635e-05
2.33307e-05
2.32982e-05
2.32658e-05
2.32336e-05
2.32016e-05
2.31698e-05
2.31383e-05
2.3107e-05
2.30759e-05
2.30451e-05
2.30147e-05
2.29845e-05
2.29548e-05
2.29254e-05
2.28963e-05
2.28678e-05
2.28396e-05
2.2812e-05
2.27849e-05
2.27583e-05
2.27324e-05
2.2707e-05
2.26823e-05
2.26584e-05
2.26352e-05
2.42972e-05
2.4262e-05
2.42268e-05
2.41918e-05
2.41567e-05
2.41217e-05
2.40868e-05
2.40519e-05
2.40171e-05
2.39823e-05
2.39475e-05
2.39128e-05
2.38782e-05
2.38436e-05
2.38091e-05
2.37747e-05
2.37403e-05
2.3706e-05
2.36718e-05
2.36377e-05
2.36037e-05
2.35698e-05
2.3536e-05
2.35023e-05
2.34687e-05
2.34353e-05
2.3402e-05
2.33688e-05
2.33358e-05
2.3303e-05
2.32704e-05
2.3238e-05
2.32059e-05
2.31739e-05
2.31423e-05
2.31108e-05
2.30797e-05
2.30489e-05
2.30185e-05
2.29884e-05
2.29587e-05
2.29294e-05
2.29005e-05
2.28721e-05
2.28442e-05
2.28169e-05
2.27901e-05
2.27639e-05
2.27384e-05
2.27135e-05
2.26894e-05
2.2666e-05
2.43455e-05
2.43099e-05
2.42743e-05
2.42388e-05
2.42034e-05
2.41679e-05
2.41325e-05
2.40972e-05
2.40619e-05
2.40266e-05
2.39914e-05
2.39563e-05
2.39212e-05
2.38861e-05
2.38512e-05
2.38163e-05
2.37814e-05
2.37467e-05
2.3712e-05
2.36775e-05
2.3643e-05
2.36086e-05
2.35744e-05
2.35402e-05
2.35062e-05
2.34723e-05
2.34386e-05
2.34051e-05
2.33717e-05
2.33385e-05
2.33055e-05
2.32727e-05
2.32401e-05
2.32078e-05
2.31757e-05
2.3144e-05
2.31125e-05
2.30814e-05
2.30506e-05
2.30202e-05
2.29902e-05
2.29606e-05
2.29314e-05
2.29027e-05
2.28746e-05
2.2847e-05
2.282e-05
2.27935e-05
2.27678e-05
2.27427e-05
2.27184e-05
2.26948e-05
2.43559e-05
2.43199e-05
2.42839e-05
2.4248e-05
2.42121e-05
2.41763e-05
2.41405e-05
2.41047e-05
2.4069e-05
2.40334e-05
2.39978e-05
2.39622e-05
2.39267e-05
2.38913e-05
2.38559e-05
2.38207e-05
2.37855e-05
2.37504e-05
2.37153e-05
2.36804e-05
2.36456e-05
2.36109e-05
2.35763e-05
2.35419e-05
2.35076e-05
2.34734e-05
2.34395e-05
2.34057e-05
2.33721e-05
2.33386e-05
2.33055e-05
2.32725e-05
2.32398e-05
2.32074e-05
2.31753e-05
2.31435e-05
2.3112e-05
2.30808e-05
2.30501e-05
2.30198e-05
2.29898e-05
2.29604e-05
2.29314e-05
2.2903e-05
2.28751e-05
2.28478e-05
2.28212e-05
2.27952e-05
2.27698e-05
2.27453e-05
2.27215e-05
2.43998e-05
2.43634e-05
2.4327e-05
2.42907e-05
2.42543e-05
2.42181e-05
2.41818e-05
2.41456e-05
2.41095e-05
2.40734e-05
2.40373e-05
2.40013e-05
2.39654e-05
2.39295e-05
2.38937e-05
2.3858e-05
2.38224e-05
2.37868e-05
2.37513e-05
2.3716e-05
2.36807e-05
2.36456e-05
2.36106e-05
2.35757e-05
2.3541e-05
2.35064e-05
2.3472e-05
2.34378e-05
2.34038e-05
2.337e-05
2.33364e-05
2.33031e-05
2.327e-05
2.32372e-05
2.32047e-05
2.31725e-05
2.31407e-05
2.31092e-05
2.30781e-05
2.30474e-05
2.30172e-05
2.29874e-05
2.29582e-05
2.29294e-05
2.29013e-05
2.28737e-05
2.28467e-05
2.28205e-05
2.27949e-05
2.27701e-05
2.2746e-05
2.44419e-05
2.4405e-05
2.43682e-05
2.43314e-05
2.42947e-05
2.42579e-05
2.42213e-05
2.41846e-05
2.4148e-05
2.41115e-05
2.4075e-05
2.40386e-05
2.40022e-05
2.39659e-05
2.39296e-05
2.38935e-05
2.38574e-05
2.38214e-05
2.37855e-05
2.37497e-05
2.3714e-05
2.36784e-05
2.3643e-05
2.36077e-05
2.35725e-05
2.35375e-05
2.35027e-05
2.34681e-05
2.34336e-05
2.33994e-05
2.33655e-05
2.33317e-05