/*--------------------------------*- C++ -*----------------------------------*\
| =========                 |                                                 |
| \\      /  F ield         | OpenFOAM: The Open Source CFD Toolbox           |
|  \\    /   O peration     | Version:  v1706                                 |
|   \\  /    A nd           | Web:      www.OpenFOAM.com                      |
|    \\/     M anipulation  |                                                 |
\*---------------------------------------------------------------------------*/
FoamFile
{
    version     2.0;
    format      ascii;
    class       volScalarField;
    location    "3.4e-05";
    object      Tov;
}
// * * * * * * * * * * * * * * * * * * * * * * * * * * * * * * * * * * * * * //

dimensions      [0 0 0 1 0 0 0];


internalField   nonuniform List<scalar> 
30038
(
144.4
144.4
144.4
144.4
144.4
144.4
144.4
144.4
144.4
144.4
144.4
144.4
144.4
144.4
144.4
144.4
144.4
144.4
144.4
144.4
144.4
144.4
144.4
144.4
144.4
144.4
144.4
144.4
144.4
144.4
144.4
144.4
144.4
144.4
144.4
144.4
144.4
144.4
144.4
144.4
144.4
144.4
144.4
144.4
144.4
144.4
144.4
144.4
144.4
144.4
144.4
144.4
144.4
144.4
144.4
144.4
144.4
144.4
144.4
144.4
144.4
144.4
144.4
144.4
144.4
144.4
144.4
144.4
144.4
144.4
144.4
144.4
144.4
144.4
144.4
144.4
144.4
144.4
144.4
144.4
144.4
144.4
144.4
144.4
144.4
144.4
144.4
144.4
144.4
144.4
144.4
144.4
144.4
144.4
144.4
144.4
144.4
144.4
144.4
144.4
144.4
144.4
144.4
144.4
144.4
144.4
144.4
144.4
144.4
144.4
144.4
144.4
144.4
144.4
144.4
144.4
144.4
144.4
144.4
144.4
144.4
144.4
144.4
144.4
144.4
144.4
144.4
144.4
144.4
144.4
144.4
144.4
144.4
144.4
144.4
144.4
144.4
144.4
144.4
144.4
144.4
144.4
144.4
144.4
144.4
144.4
144.4
144.4
144.4
144.4
144.4
144.4
144.4
144.4
144.4
144.4
144.4
144.4
144.4
144.4
144.4
144.4
144.4
144.4
144.4
144.4
144.4
144.4
144.4
144.4
144.4
144.4
144.4
144.4
144.4
144.4
144.4
144.4
144.4
144.4
144.4
144.4
144.4
144.4
144.4
144.4
144.4
144.4
144.4
144.4
144.4
144.4
144.4
144.4
144.4
144.4
144.4
144.4
144.4
144.4
144.4
144.4
144.4
144.4
144.4
144.4
144.4
144.4
144.4
144.4
144.4
144.4
144.4
144.4
144.4
144.4
144.4
144.4
144.4
144.4
144.4
144.4
144.4
144.4
144.4
144.4
144.4
144.4
144.4
144.4
144.4
144.4
144.4
144.4
144.4
144.4
144.4
144.4
144.4
144.4
144.4
144.4
144.4
144.4
144.4
144.4
144.4
144.4
144.4
144.4
144.4
144.4
144.4
144.4
144.4
144.4
144.4
144.4
144.4
144.4
144.4
144.4
144.4
144.4
144.4
144.4
144.4
144.4
144.4
144.4
144.4
144.4
144.4
144.4
144.4
144.4
144.4
144.4
144.4
144.4
144.4
144.4
144.4
144.4
144.4
144.4
144.4
144.4
144.4
144.4
144.4
144.4
144.4
144.4
144.4
144.4
144.4
144.4
144.4
144.4
144.4
144.4
144.4
144.4
144.4
144.4
144.4
144.4
144.4
144.4
144.4
144.4
144.4
144.4
144.4
144.4
144.4
144.4
144.4
144.4
144.4
144.4
144.4
144.4
144.4
144.4
144.4
144.4
144.4
144.4
144.4
144.4
144.4
144.4
144.4
144.4
144.4
144.4
144.4
144.4
144.4
144.401
144.401
144.4
144.4
144.4
144.4
144.4
144.4
144.4
144.4
144.4
144.4
144.4
144.4
144.4
144.4
144.4
144.4
144.4
144.4
144.4
144.4
144.4
144.4
144.4
144.4
144.4
144.4
144.4
144.4
144.4
144.4
144.4
144.4
144.4
144.4
144.401
144.401
144.401
144.402
144.403
144.4
144.4
144.4
144.4
144.4
144.4
144.4
144.4
144.4
144.4
144.4
144.4
144.4
144.4
144.4
144.4
144.4
144.4
144.4
144.4
144.4
144.4
144.4
144.4
144.4
144.4
144.4
144.4
144.4
144.4
144.4
144.401
144.401
144.401
144.402
144.403
144.404
144.406
144.408
144.4
144.4
144.4
144.4
144.4
144.4
144.4
144.4
144.4
144.4
144.4
144.4
144.4
144.4
144.4
144.4
144.4
144.4
144.4
144.4
144.4
144.4
144.4
144.4
144.4
144.4
144.4
144.4
144.4
144.401
144.401
144.401
144.402
144.402
144.404
144.405
144.408
144.411
144.416
144.424
144.4
144.4
144.4
144.4
144.4
144.4
144.4
144.4
144.4
144.4
144.4
144.4
144.4
144.4
144.4
144.4
144.4
144.4
144.4
144.4
144.4
144.4
144.4
144.4
144.4
144.4
144.401
144.401
144.401
144.402
144.402
144.403
144.405
144.407
144.41
144.415
144.422
144.432
144.447
144.47
144.4
144.4
144.4
144.4
144.4
144.4
144.4
144.4
144.4
144.4
144.4
144.4
144.4
144.4
144.4
144.4
144.4
144.4
144.4
144.4
144.4
144.4
144.4
144.401
144.401
144.401
144.402
144.402
144.403
144.405
144.407
144.41
144.414
144.421
144.43
144.444
144.463
144.492
144.535
144.598
144.4
144.4
144.4
144.4
144.4
144.4
144.4
144.4
144.4
144.4
144.4
144.4
144.4
144.4
144.4
144.4
144.4
144.4
144.4
144.4
144.401
144.401
144.401
144.402
144.402
144.403
144.405
144.407
144.41
144.414
144.42
144.429
144.441
144.459
144.486
144.524
144.579
144.659
144.777
144.951
144.4
144.4
144.4
144.4
144.4
144.4
144.4
144.4
144.4
144.4
144.4
144.4
144.4
144.4
144.4
144.4
144.4
144.401
144.401
144.401
144.402
144.402
144.404
144.405
144.407
144.41
144.414
144.42
144.428
144.44
144.457
144.481
144.516
144.567
144.639
144.744
144.895
145.114
145.434
145.903
144.4
144.4
144.4
144.4
144.4
144.4
144.4
144.4
144.4
144.4
144.4
144.4
144.4
144.401
144.401
144.401
144.401
144.402
144.403
144.404
144.405
144.407
144.41
144.414
144.42
144.428
144.439
144.456
144.479
144.512
144.559
144.626
144.722
144.859
145.056
145.339
145.746
146.332
147.177
148.399
144.4
144.4
144.4
144.4
144.4
144.4
144.4
144.4
144.4
144.4
144.401
144.401
144.401
144.401
144.402
144.403
144.404
144.405
144.407
144.41
144.414
144.42
144.428
144.439
144.455
144.478
144.509
144.554
144.617
144.707
144.834
145.016
145.274
145.642
146.166
146.912
147.975
149.487
151.632
154.665
144.4
144.4
144.4
144.4
144.4
144.4
144.4
144.4
144.401
144.401
144.401
144.402
144.402
144.403
144.404
144.406
144.408
144.411
144.415
144.421
144.429
144.44
144.456
144.478
144.509
144.552
144.612
144.698
144.818
144.988
145.228
145.567
146.046
146.723
147.68
149.028
150.924
153.575
157.258
162.32
169.172
144.4
144.4
144.4
144.4
144.401
144.401
144.401
144.401
144.402
144.402
144.403
144.405
144.406
144.408
144.412
144.416
144.422
144.43
144.442
144.457
144.479
144.51
144.552
144.611
144.694
144.809
144.971
145.197
145.515
145.961
146.587
147.463
148.691
150.405
152.786
156.073
160.567
166.634
174.685
185.136
198.303
144.4
144.4
144.401
144.401
144.401
144.402
144.402
144.403
144.404
144.405
144.407
144.409
144.413
144.417
144.423
144.432
144.444
144.46
144.482
144.513
144.555
144.613
144.695
144.807
144.964
145.181
145.484
145.906
146.493
147.31
148.446
150.022
152.198
155.185
159.252
164.725
171.973
181.382
193.303
207.973
225.407
245.298
144.401
144.401
144.401
144.402
144.402
144.403
144.404
144.406
144.408
144.41
144.414
144.419
144.425
144.434
144.447
144.463
144.486
144.517
144.56
144.619
144.7
144.812
144.966
145.178
145.471
145.876
146.436
147.21
148.279
149.75
151.769
154.526
158.262
163.271
169.893
178.489
189.401
202.882
219.015
237.616
258.226
280.023
301.876
144.402
144.403
144.404
144.405
144.407
144.409
144.412
144.416
144.421
144.428
144.437
144.45
144.468
144.492
144.524
144.569
144.629
144.711
144.823
144.977
145.187
145.475
145.871
146.414
147.158
148.178
149.574
151.476
154.058
157.538
162.184
168.309
176.252
186.342
198.847
213.902
231.422
251.042
272.118
293.641
314.22
332.331
347.173
144.404
144.406
144.408
144.41
144.413
144.418
144.423
144.431
144.442
144.456
144.474
144.5
144.534
144.58
144.642
144.727
144.842
144.997
145.209
145.497
145.889
146.423
147.15
148.139
149.482
151.302
153.755
157.043
161.41
167.146
174.566
183.986
195.677
209.806
226.358
245.076
265.446
286.662
307.549
326.66
342.735
355.208
364.161
370.357
144.409
144.412
144.415
144.42
144.427
144.435
144.447
144.462
144.482
144.51
144.546
144.595
144.661
144.749
144.868
145.028
145.244
145.536
145.931
146.464
147.185
148.158
149.471
151.236
153.601
156.75
160.911
166.35
173.362
182.245
193.267
206.61
222.31
240.19
259.834
280.593
301.506
321.279
338.577
352.511
362.911
370.16
374.964
377.968
379.827
144.418
144.424
144.431
144.441
144.453
144.47
144.493
144.522
144.562
144.615
144.685
144.778
144.903
145.07
145.294
145.595
145.998
146.538
147.263
148.236
149.537
151.275
153.587
156.645
160.662
165.884
172.587
181.053
191.537
204.23
219.198
236.323
255.27
275.495
296.212
316.313
334.5
349.705
361.461
369.942
375.698
379.411
381.686
383.031
383.781
384.155
144.428
144.436
144.447
144.462
144.481
144.506
144.539
144.582
144.639
144.715
144.816
144.949
145.126
145.362
145.675
146.093
146.648
147.388
148.373
149.682
151.417
153.708
156.719
160.647
165.724
172.207
180.361
190.43
202.599
216.954
233.421
251.725
271.4
291.79
311.961
330.725
346.934
359.898
369.55
376.299
380.766
383.582
385.269
386.219
386.719
386.907
386.9
386.854
144.473
144.494
144.522
144.559
144.608
144.671
144.754
144.864
145.008
145.198
145.449
145.781
146.219
146.799
147.565
148.577
149.911
151.667
153.969
156.973
160.864
165.86
172.203
180.14
189.902
201.665
215.525
231.435
249.166
268.313
288.311
308.372
327.446
344.392
358.367
369.088
376.8
382.039
385.423
387.499
388.708
389.357
389.663
389.667
389.615
389.484
389.235
388.897
144.511
144.544
144.585
144.64
144.711
144.804
144.925
145.083
145.29
145.561
145.917
146.384
146.996
147.8
148.854
150.233
152.034
154.377
157.411
161.314
166.291
172.567
180.375
189.93
201.399
214.872
230.323
247.559
266.223
285.808
305.648
324.824
342.26
357.029
368.676
377.278
383.272
387.234
389.729
391.21
392.035
392.437
392.543
392.475
392.373
392.146
391.813
391.416
390.975
390.5
144.681
144.762
144.866
145.002
145.177
145.406
145.703
146.09
146.594
147.25
148.104
149.216
150.66
152.531
154.947
158.051
162.013
167.027
173.306
181.065
190.505
201.779
214.97
230.061
246.887
265.118
284.299
303.853
322.977
340.687
356.037
368.442
377.83
384.527
389.055
391.969
393.744
394.754
395.281
395.472
395.418
395.303
395.121
394.807
394.413
393.977
393.489
392.979
392.483
392.004
145.099
145.297
145.553
145.882
146.308
146.859
147.571
148.491
149.679
151.21
153.178
155.699
158.913
162.981
168.09
174.437
182.224
191.635
202.807
215.811
230.634
247.126
264.982
283.786
303.017
321.986
339.797
355.527
368.513
378.555
385.875
390.93
394.25
396.322
397.524
398.173
398.454
398.442
398.324
398.154
397.869
397.483
397.043
396.557
396.031
395.5
394.987
394.481
393.989
393.511
146.109
146.584
147.193
147.976
148.979
150.264
151.907
154.002
156.664
160.028
164.253
169.512
175.992
183.88
193.341
204.496
217.403
232.042
248.274
265.813
284.27
303.171
321.91
339.683
355.612
369
379.553
387.394
392.914
396.609
398.96
400.359
401.132
401.501
401.541
401.422
401.241
400.987
400.611
400.171
399.694
399.162
398.609
398.064
397.531
397.002
396.487
395.981
395.488
395.003
148.484
149.591
150.998
152.781
155.037
157.879
161.439
165.87
171.337
178.015
186.074
195.661
206.878
219.768
234.299
250.338
267.614
285.756
304.325
322.784
340.411
356.385
370.006
380.916
389.158
395.062
399.083
401.687
403.272
404.164
404.609
404.711
404.613
404.415
404.166
403.81
403.368
402.884
402.354
401.786
401.214
400.655
400.102
399.557
399.022
398.493
397.973
397.46
396.958
396.464
153.874
156.328
159.393
163.198
167.889
173.623
180.563
188.861
198.643
209.995
222.939
237.431
253.336
270.395
288.248
306.488
324.63
342.025
357.913
371.61
382.725
391.242
397.434
401.715
404.532
406.281
407.281
407.792
407.954
407.876
407.67
407.405
407.075
406.63
406.138
405.614
405.036
404.442
403.856
403.279
402.704
402.14
401.585
401.035
400.493
399.956
399.427
398.905
398.394
397.891
165.371
170.38
176.443
183.708
192.309
202.354
213.903
226.962
241.472
257.292
274.17
291.754
309.665
327.461
344.554
360.241
373.871
385.042
393.703
400.078
404.544
407.525
409.404
410.495
411.068
411.277
411.211
411.006
410.727
410.401
409.96
409.459
408.929
408.349
407.737
407.126
406.525
405.927
405.336
404.754
404.177
403.606
403.041
402.482
401.93
401.383
400.845
400.313
399.793
399.281
187.538
196.505
206.87
218.672
231.895
246.467
262.239
278.959
296.284
313.862
331.282
348.011
363.395
376.827
387.916
396.589
403.037
407.605
410.69
412.659
413.819
414.439
414.679
414.628
414.431
414.129
413.788
413.362
412.849
412.308
411.727
411.102
410.468
409.843
409.222
408.603
407.995
407.393
406.795
406.204
405.617
405.036
404.461
403.891
403.328
402.772
402.223
401.683
401.154
400.635
224.379
237.804
252.469
268.214
284.786
301.851
319.08
336.092
352.395
367.385
380.499
391.373
399.93
406.343
410.926
414.05
416.063
417.264
417.909
418.168
418.127
417.932
417.609
417.248
416.827
416.302
415.749
415.166
414.531
413.877
413.229
412.585
411.942
411.308
410.681
410.058
409.44
408.828
408.22
407.617
407.019
406.427
405.84
405.26
404.687
404.121
403.564
403.015
402.479
401.952
275.256
291.672
308.461
325.315
341.879
357.695
372.201
384.885
395.421
403.743
410.014
414.525
417.622
419.633
420.84
421.491
421.752
421.71
421.505
421.17
420.784
420.359
419.824
419.255
418.661
418.02
417.35
416.679
416.014
415.349
414.689
414.039
413.391
412.748
412.11
411.477
410.848
410.223
409.603
408.989
408.379
407.776
407.178
406.588
406.005
405.431
404.865
404.309
403.766
403.234
332.555
348.623
363.883
377.818
389.966
400.049
408.024
414.053
418.409
421.413
423.372
424.552
425.186
425.434
425.382
425.163
424.812
424.398
423.948
423.421
422.829
422.221
421.572
420.885
420.194
419.507
418.822
418.137
417.461
416.791
416.124
415.462
414.804
414.15
413.5
412.854
412.212
411.576
410.944
410.318
409.697
409.083
408.476
407.876
407.285
406.702
406.129
405.566
405.017
404.479
384.19
395.701
405.225
412.754
418.45
422.574
425.425
427.285
428.403
428.996
429.211
429.141
428.902
428.53
428.085
427.613
427.078
426.466
425.84
425.185
424.483
423.771
423.064
422.357
421.65
420.95
420.258
419.567
418.88
418.199
417.521
416.846
416.176
415.509
414.846
414.187
413.534
412.885
412.242
411.604
410.973
410.349
409.733
409.124
408.524
407.934
407.354
406.785
406.23
405.687
417.894
423.179
427.005
429.649
431.365
432.391
432.922
433.085
432.987
432.719
432.316
431.845
431.35
430.798
430.164
429.52
428.852
428.139
427.408
426.679
425.952
425.224
424.502
423.787
423.073
422.363
421.659
420.957
420.259
419.564
418.873
418.185
417.502
416.822
416.147
415.476
414.811
414.151
413.497
412.849
412.208
411.574
410.949
410.332
409.725
409.127
408.541
407.966
407.407
406.86
434.067
435.602
436.51
436.958
437.051
436.917
436.611
436.174
435.675
435.155
434.57
433.93
433.262
432.577
431.85
431.1
430.352
429.606
428.859
428.113
427.375
426.64
425.908
425.181
424.457
423.736
423.018
422.303
421.592
420.884
420.179
419.479
418.782
418.09
417.403
416.721
416.044
415.373
414.709
414.051
413.401
412.759
412.125
411.501
410.886
410.282
409.69
409.111
408.547
407.995
441.099
441.103
440.925
440.576
440.101
439.572
439.024
438.41
437.753
437.062
436.354
435.615
434.849
434.081
433.316
432.548
431.781
431.022
430.267
429.513
428.763
428.017
427.274
426.533
425.796
425.062
424.33
423.602
422.878
422.157
421.44
420.727
420.018
419.314
418.615
417.922
417.235
416.554
415.879
415.212
414.553
413.902
413.261
412.629
412.008
411.399
410.801
410.217
409.649
409.094
445.009
444.608
444.09
443.53
442.952
442.309
441.63
440.92
440.189
439.434
438.651
437.862
437.079
436.292
435.505
434.725
433.949
433.173
432.402
431.635
430.87
430.108
429.349
428.593
427.839
427.088
426.34
425.596
424.855
424.117
423.384
422.654
421.929
421.209
420.494
419.784
419.08
418.382
417.691
417.007
416.332
415.664
415.006
414.357
413.718
413.091
412.476
411.874
411.285
410.713
410.156
447.549
446.939
446.264
445.557
444.832
444.076
443.302
442.504
441.695
440.892
440.088
439.281
438.48
437.684
436.888
436.096
435.309
434.523
433.739
432.959
432.181
431.406
430.633
429.863
429.096
428.332
427.572
426.814
426.06
425.31
424.565
423.823
423.087
422.355
421.629
420.909
420.194
419.487
418.787
418.094
417.41
416.734
416.068
415.413
414.768
414.135
413.514
412.908
412.315
411.739
411.179
450.269
449.538
448.791
448.014
447.216
446.403
445.576
444.753
443.932
443.106
442.285
441.47
440.655
439.843
439.035
438.229
437.424
436.624
435.825
435.029
434.235
433.444
432.655
431.869
431.086
430.306
429.529
428.756
427.986
427.22
426.458
425.701
424.948
424.2
423.457
422.721
421.99
421.266
420.549
419.84
419.139
418.446
417.763
417.09
416.428
415.777
415.138
414.513
413.902
413.305
412.726
412.163
451.996
451.178
450.345
449.502
448.659
447.821
446.978
446.137
445.304
444.47
443.638
442.81
441.985
441.161
440.34
439.522
438.705
437.891
437.079
436.269
435.462
434.658
433.856
433.057
432.262
431.469
430.679
429.894
429.112
428.334
427.56
426.791
426.027
425.269
424.516
423.769
423.028
422.295
421.569
420.851
420.142
419.441
418.751
418.071
417.402
416.745
416.101
415.471
414.855
414.255
413.672
413.106
453.469
452.608
451.751
450.892
450.032
449.181
448.33
447.479
446.633
445.788
444.945
444.105
443.267
442.431
441.597
440.766
439.936
439.109
438.284
437.461
436.641
435.824
435.01
434.198
433.39
432.585
431.783
430.986
430.192
429.402
428.618
427.838
427.063
426.294
425.53
424.774
424.024
423.281
422.546
421.82
421.102
420.394
419.697
419.01
418.335
417.672
417.023
416.387
415.767
415.163
414.577
414.007
454.845
453.968
453.099
452.231
451.361
450.497
449.636
448.774
447.916
447.059
446.204
445.352
444.501
443.652
442.805
441.96
441.118
440.278
439.44
438.605
437.772
436.943
436.116
435.292
434.471
433.654
432.841
432.032
431.226
430.426
429.63
428.839
428.054
427.275
426.501
425.735
424.976
424.224
423.481
422.746
422.02
421.305
420.6
419.907
419.225
418.556
417.902
417.261
416.636
416.028
415.438
414.865
456.17
455.284
454.402
453.523
452.644
451.768
450.894
450.021
449.15
448.281
447.414
446.548
445.685
444.823
443.964
443.107
442.252
441.399
440.549
439.701
438.856
438.014
437.175
436.339
435.507
434.678
433.853
433.032
432.216
431.404
430.598
429.796
429.001
428.211
427.428
426.652
425.884
425.123
424.371
423.628
422.895
422.172
421.46
420.76
420.072
419.397
418.737
418.091
417.461
416.848
416.254
415.677
457.448
456.552
455.659
454.768
453.878
452.99
452.103
451.218
450.335
449.454
448.574
447.696
446.82
445.946
445.074
444.205
443.337
442.472
441.609
440.75
439.893
439.038
438.188
437.34
436.496
435.656
434.819
433.987
433.16
432.338
431.52
430.709
429.903
429.104
428.311
427.526
426.748
425.979
425.218
424.467
423.726
422.995
422.276
421.568
420.874
420.193
419.526
418.875
418.24
417.622
417.023
416.441
458.678
457.772
456.866
455.964
455.062
454.162
453.263
452.366
451.471
450.577
449.685
448.795
447.907
447.021
446.137
445.255
444.375
443.498
442.623
441.751
440.882
440.017
439.154
438.295
437.439
436.588
435.74
434.897
434.059
433.226
432.398
431.576
430.76
429.951
429.149
428.354
427.568
426.789
426.02
425.26
424.511
423.773
423.046
422.331
421.63
420.942
420.269
419.612
418.971
418.347
417.743
417.156
458.941
458.025
457.11
456.196
455.284
454.374
453.465
452.558
451.652
450.748
449.846
448.945
448.047
447.151
446.257
445.366
444.477
443.59
442.706
441.826
440.948
440.074
439.203
438.337
437.474
436.615
435.761
434.912
434.069
433.231
432.398
431.572
430.753
429.941
429.137
428.341
427.554
426.776
426.008
425.25
424.503
423.769
423.046
422.338
421.643
420.963
420.299
419.652
419.022
418.412
417.82
460.061
459.133
458.207
457.282
456.358
455.436
454.515
453.596
452.678
451.763
450.849
449.936
449.026
448.118
447.213
446.309
445.408
444.51
443.615
442.723
441.834
440.948
440.066
439.188
438.314
437.444
436.58
435.72
434.865
434.017
433.174
432.338
431.509
430.687
429.873
429.068
428.271
427.484
426.707
425.941
425.186
424.443
423.713
422.996
422.294
421.607
420.936
420.282
419.645
419.028
418.429
461.132
460.193
459.255
458.319
457.383
456.449
455.517
454.586
453.657
452.73
451.804
450.88
449.958
449.038
448.121
447.206
446.293
445.383
444.477
443.573
442.672
441.775
440.882
439.992
439.107
438.227
437.351
436.48
435.615
434.756
433.903
433.057
432.217
431.385
430.562
429.746
428.94
428.144
427.357
426.582
425.818
425.067
424.328
423.603
422.893
422.198
421.519
420.857
420.213
419.589
418.982
461.205
460.255
459.307
458.361
457.415
456.471
455.529
454.588
453.649
452.712
451.776
450.842
449.911
448.982
448.055
447.131
446.21
445.291
444.376
443.464
442.555
441.651
440.75
439.854
438.962
438.075
437.193
436.317
435.447
434.584
433.727
432.877
432.035
431.201
430.375
429.559
428.753
427.957
427.172
426.399
425.638
424.89
424.157
423.437
422.734
422.047
421.377
420.724
420.092
419.477
462.168
461.207
460.248
459.29
458.333
457.378
456.424
455.472
454.521
453.572
452.625
451.679
450.736
449.796
448.857
447.921
446.988
446.058
445.131
444.208
443.288
442.372
441.459
440.552
439.649
438.751
437.858
436.971
436.09
435.215
434.347
433.487
432.634
431.789
430.953
430.127
429.31
428.504
427.709
426.926
426.156
425.398
424.655
423.926
423.214
422.517
421.838
421.177
420.536
419.912
463.083
462.111
461.141
460.172
459.203
458.237
457.271
456.307
455.345
454.384
453.426
452.469
451.514
450.561
449.611
448.664
447.719
446.777
445.839
444.903
443.972
443.044
442.12
441.201
440.286
439.377
438.473
437.574
436.682
435.796
434.917
434.045
433.181
432.325
431.479
430.641
429.814
428.997
428.192
427.398
426.617
425.85
425.096
424.358
423.635
422.929
422.24
421.569
420.918
420.284
463.951
462.968
461.986
461.005
460.026
459.047
458.071
457.095
456.121
455.149
454.178
453.21
452.243
451.279
450.317
449.358
448.401
447.447
446.497
445.55
444.606
443.667
442.731
441.8
440.873
439.952
439.036
438.126
437.222
436.324
435.433
434.55
433.675
432.808
431.95
431.101
430.262
429.434
428.618
427.813
427.021
426.243
425.479
424.729
423.996
423.279
422.58
421.898
421.237
420.593
464.77
463.776
462.783
461.791
460.8
459.81
458.821
457.834
456.849
455.865
454.882
453.902
452.924
451.947
450.973
450.002
449.033
448.068
447.105
446.146
445.19
444.238
443.291
442.347
441.409
440.475
439.547
438.625
437.709
436.799
435.896
435.001
434.113
433.234
432.364
431.504
430.653
429.814
428.985
428.169
427.366
426.576
425.8
425.04
424.295
423.567
422.857
422.164
421.492
420.836
465.541
464.536
463.531
462.528
461.525
460.524
459.524
458.525
457.527
456.531
455.537
454.544
453.554
452.566
451.58
450.596
449.615
448.637
447.662
446.69
445.722
444.758
443.798
442.842
441.891
440.945
440.004
439.069
438.141
437.218
436.303
435.395
434.495
433.604
432.721
431.848
430.986
430.134
429.293
428.465
427.649
426.847
426.059
425.287
424.53
423.79
423.068
422.364
421.68
421.013
466.263
465.247
464.231
463.215
462.201
461.188
460.176
459.165
458.156
457.148
456.141
455.136
454.134
453.133
452.134
451.138
450.145
449.154
448.166
447.182
446.201
445.224
444.251
443.282
442.318
441.359
440.406
439.458
438.516
437.581
436.653
435.732
434.819
433.914
433.019
432.133
431.257
430.392
429.539
428.698
427.869
427.055
426.255
425.47
424.701
423.948
423.214
422.498
421.801
421.121
465.908
464.88
463.853
462.827
461.802
460.778
459.755
458.733
457.713
456.694
455.676
454.661
453.648
452.636
451.627
450.621
449.617
448.617
447.619
446.625
445.635
444.649
443.667
442.69
441.717
440.75
439.789
438.834
437.885
436.943
436.009
435.082
434.164
433.255
432.356
431.467
430.589
429.722
428.867
428.026
427.198
426.385
425.586
424.804
424.039
423.292
422.562
421.854
421.162
466.518
465.479
464.44
463.402
462.364
461.328
460.293
459.258
458.225
457.194
456.164
455.135
454.109
453.085
452.063
451.043
450.026
449.012
448.001
446.994
445.99
444.99
443.994
443.003
442.017
441.036
440.061
439.091
438.129
437.173
436.225
435.284
434.352
433.429
432.516
431.613
430.72
429.84
428.971
428.116
427.274
426.447
425.636
424.842
424.065
423.306
422.564
421.843
421.139
467.077
466.026
464.975
463.924
462.874
461.825
460.777
459.73
458.684
457.64
456.596
455.555
454.515
453.477
452.442
451.409
450.378
449.35
448.325
447.304
446.286
445.272
444.262
443.257
442.257
441.261
440.272
439.288
438.311
437.341
436.378
435.423
434.476
433.539
432.611
431.693
430.786
429.892
429.01
428.142
427.288
426.448
425.624
424.817
424.027
423.255
422.501
421.766
421.048
466.52
465.456
464.393
463.33
462.269
461.207
460.147
459.088
458.03
456.973
455.918
454.865
453.813
452.764
451.717
450.672
449.63
448.591
447.555
446.523
445.494
444.47
443.45
442.435
441.425
440.42
439.422
438.43
437.444
436.466
435.496
434.535
433.583
432.642
431.711
430.79
429.882
428.987
428.105
427.237
426.385
425.547
424.726
423.922
423.136
422.369
421.621
420.89
466.96
465.883
464.807
463.731
462.656
461.582
460.508
459.435
458.364
457.293
456.224
455.157
454.091
453.027
451.966
450.906
449.85
448.796
447.746
446.698
445.655
444.615
443.58
442.55
441.524
440.504
439.491
438.483
437.484
436.492
435.508
434.532
433.566
432.611
431.665
430.731
429.809
428.899
428.002
427.12
426.253
425.402
424.567
423.749
422.95
422.169
421.408
420.663
466.254
465.165
464.076
462.987
461.899
460.811
459.725
458.639
457.554
456.471
455.389
454.309
453.23
452.154
451.08
450.008
448.939
447.873
446.811
445.752
444.697
443.646
442.601
441.561
440.526
439.498
438.476
437.462
436.455
435.457
434.467
433.486
432.514
431.554
430.605
429.668
428.743
427.832
426.936
426.055
425.189
424.341
423.51
422.697
421.903
421.129
420.371
466.568
465.465
464.362
463.259
462.157
461.055
459.954
458.854
457.755
456.657
455.56
454.465
453.371
452.28
451.19
450.103
449.018
447.937
446.859
445.786
444.716
443.65
442.59
441.535
440.486
439.443
438.406
437.376
436.354
435.34
434.334
433.338
432.352
431.376
430.412
429.46
428.521
427.596
426.685
425.79
424.911
424.049
423.205
422.379
421.572
420.785
420.014
465.705
464.588
463.471
462.355
461.238
460.123
459.008
457.893
456.78
455.668
454.557
453.448
452.341
451.236
450.135
449.035
447.939
446.847
445.758
444.673
443.593
442.517
441.446
440.381
439.322
438.269
437.224
436.186
435.156
434.135
433.124
432.122
431.132
430.153
429.186
428.233
427.294
426.369
425.46
424.568
423.692
422.835
421.997
421.177
420.377
419.593
465.885
464.753
463.622
462.49
461.359
460.228
459.098
457.968
456.839
455.712
454.587
453.463
452.341
451.222
450.105
448.991
447.88
446.771
445.666
444.566
443.469
442.377
441.291
440.21
439.135
438.066
437.005
435.951
434.906
433.87
432.843
431.827
430.822
429.828
428.847
427.88
426.927
425.988
425.066
424.161
423.272
422.402
421.551
420.719
419.907
419.112
466.001
464.855
463.708
462.561
461.415
460.27
459.125
457.981
456.837
455.695
454.555
453.417
452.28
451.144
450.011
448.881
447.754
446.629
445.508
444.392
443.279
442.171
441.069
439.972
438.881
437.797
436.72
435.651
434.591
433.539
432.498
431.467
430.447
429.439
428.444
427.463
426.496
425.545
424.609
423.691
422.79
421.908
421.045
420.201
419.378
418.57
466.054
464.893
463.732
462.571
461.41
460.25
459.09
457.932
456.773
455.616
454.459
453.305
452.152
451
449.851
448.705
447.561
446.421
445.284
444.151
443.023
441.899
440.781
439.668
438.561
437.462
436.37
435.286
434.21
433.144
432.088
431.042
430.008
428.986
427.978
426.983
426.003
425.039
424.091
423.161
422.248
421.355
420.48
419.625
418.79
417.972
466.044
464.869
463.694
462.519
461.343
460.167
458.991
457.817
456.642
455.469
454.297
453.126
451.957
450.789
449.624
448.462
447.302
446.146
444.993
443.844
442.7
441.561
440.427
439.298
438.177
437.062
435.955
434.855
433.765
432.684
431.614
430.554
429.507
428.472
427.45
426.442
425.45
424.474
423.514
422.572
421.648
420.743
419.858
418.993
418.148
417.32
465.973
464.782
463.591
462.4
461.208
460.017
458.826
457.635
456.445
455.255
454.067
452.88
451.695
450.512
449.331
448.153
446.977
445.805
444.636
443.472
442.312
441.157
440.008
438.864
437.727
436.598
435.476
434.362
433.257
432.163
431.078
430.005
428.944
427.896
426.862
425.842
424.838
423.85
422.879
421.926
420.992
420.077
419.182
418.307
417.453
416.615
465.834
464.627
463.421
462.214
461.007
459.8
458.593
457.386
456.18
454.975
453.771
452.568
451.367
450.168
448.971
447.777
446.586
445.398
444.214
443.034
441.859
440.689
439.524
438.366
437.214
436.07
434.934
433.806
432.688
431.579
430.482
429.396
428.322
427.262
426.216
425.185
424.169
423.171
422.189
421.226
420.283
419.358
418.454
417.571
416.707
415.861
464.405
463.183
461.961
460.738
459.515
458.292
457.07
455.848
454.628
453.408
452.189
450.973
449.758
448.546
447.336
446.129
444.926
443.727
442.532
441.342
440.157
438.978
437.805
436.639
435.481
434.331
433.19
432.058
430.937
429.827
428.729
427.643
426.571
425.514
424.472
423.446
422.438
421.447
420.475
419.522
418.589
417.677
416.785
415.914
415.06
464.115
462.878
461.64
460.402
459.163
457.925
456.687
455.45
454.213
452.978
451.744
450.512
449.282
448.055
446.83
445.608
444.39
443.176
441.966
440.761
439.562
438.369
437.182
436.003
434.831
433.668
432.514
431.37
430.237
429.115
428.005
426.909
425.826
424.759
423.707
422.671
421.654
420.654
419.674
418.713
417.773
416.853
415.954
415.076
414.216
463.758
462.505
461.251
459.998
458.744
457.491
456.237
454.985
453.733
452.483
451.234
449.987
448.741
447.499
446.259
445.023
443.79
442.562
441.338
440.12
438.907
437.7
436.5
435.307
434.123
432.948
431.782
430.626
429.481
428.348
427.228
426.121
425.029
423.952
422.891
421.847
420.821
419.814
418.826
417.858
416.911
415.985
415.081
414.197
413.332
462.064
460.796
459.527
458.258
456.989
455.721
454.454
453.187
451.922
450.658
449.396
448.137
446.88
445.626
444.376
443.129
441.887
440.65
439.418
438.191
436.972
435.759
434.555
433.358
432.171
430.994
429.827
428.672
427.529
426.399
425.283
424.182
423.096
422.027
420.976
419.943
418.929
417.934
416.961
416.008
415.078
414.168
413.28
412.41
461.556
460.273
458.989
457.706
456.422
455.14
453.857
452.576
451.297
450.019
448.743
447.469
446.198
444.931
443.667
442.407
441.152
439.902
438.657
437.419
436.187
434.963
433.747
432.539
431.341
430.154
428.977
427.812
426.66
425.521
424.397
423.287
422.194
421.118
420.06
419.021
418.001
417.002
416.024
415.067
414.132
413.22
412.328
411.454
460.981
459.684
458.386
457.088
455.79
454.493
453.197
451.902
450.608
449.317
448.027
446.74
445.456
444.176
442.899
441.627
440.359
439.097
437.84
436.59
435.348
434.112
432.886
431.668
430.46
429.263
428.077
426.904
425.743
424.597
423.465
422.349
421.249
420.167
419.104
418.059
417.035
416.032
415.05
414.09
413.153
412.237
411.343
410.467
460.341
459.029
457.717
456.405
455.094
453.783
452.474
451.165
449.859
448.554
447.251
445.952
444.655
443.362
442.073
440.789
439.51
438.237
436.969
435.709
434.455
433.21
431.974
430.747
429.53
428.324
427.131
425.949
424.782
423.628
422.49
421.368
420.263
419.177
418.109
417.061
416.034