/*--------------------------------*- C++ -*----------------------------------*\
| =========                 |                                                 |
| \\      /  F ield         | OpenFOAM: The Open Source CFD Toolbox           |
|  \\    /   O peration     | Version:  v1706                                 |
|   \\  /    A nd           | Web:      www.OpenFOAM.com                      |
|    \\/     M anipulation  |                                                 |
\*---------------------------------------------------------------------------*/
FoamFile
{
    version     2.0;
    format      ascii;
    class       volScalarField;
    location    "3.4e-05";
    object      Tv;
}
// * * * * * * * * * * * * * * * * * * * * * * * * * * * * * * * * * * * * * //

dimensions      [0 0 0 1 0 0 0];


internalField   nonuniform List<scalar> 
30038
(
144.4
144.4
144.4
144.4
144.4
144.4
144.4
144.4
144.4
144.4
144.4
144.4
144.4
144.4
144.4
144.4
144.4
144.4
144.4
144.4
144.4
144.4
144.4
144.4
144.4
144.4
144.4
144.4
144.4
144.4
144.4
144.4
144.4
144.4
144.4
144.4
144.4
144.4
144.4
144.4
144.4
144.4
144.4
144.4
144.4
144.4
144.4
144.4
144.4
144.4
144.4
144.4
144.4
144.4
144.4
144.4
144.4
144.4
144.4
144.4
144.4
144.4
144.4
144.4
144.4
144.4
144.4
144.4
144.4
144.4
144.4
144.4
144.4
144.4
144.4
144.4
144.4
144.4
144.4
144.4
144.4
144.4
144.4
144.4
144.4
144.4
144.4
144.4
144.4
144.4
144.4
144.4
144.4
144.4
144.4
144.4
144.4
144.4
144.4
144.4
144.4
144.4
144.4
144.4
144.4
144.4
144.4
144.4
144.4
144.4
144.4
144.4
144.4
144.4
144.4
144.4
144.4
144.4
144.4
144.4
144.4
144.4
144.4
144.4
144.4
144.4
144.4
144.4
144.4
144.4
144.4
144.4
144.4
144.4
144.4
144.4
144.4
144.4
144.4
144.4
144.4
144.4
144.4
144.4
144.4
144.4
144.4
144.4
144.4
144.4
144.4
144.4
144.4
144.4
144.4
144.4
144.4
144.4
144.4
144.4
144.4
144.4
144.4
144.4
144.4
144.4
144.4
144.4
144.4
144.4
144.4
144.4
144.4
144.4
144.4
144.4
144.4
144.4
144.4
144.4
144.4
144.4
144.4
144.4
144.4
144.4
144.4
144.4
144.4
144.4
144.4
144.4
144.4
144.4
144.4
144.4
144.4
144.4
144.4
144.4
144.4
144.4
144.4
144.4
144.4
144.4
144.4
144.4
144.4
144.4
144.4
144.4
144.4
144.4
144.4
144.4
144.4
144.4
144.4
144.4
144.4
144.4
144.4
144.4
144.4
144.4
144.4
144.4
144.4
144.4
144.4
144.4
144.4
144.4
144.4
144.4
144.4
144.4
144.4
144.4
144.4
144.4
144.4
144.4
144.4
144.4
144.4
144.4
144.4
144.4
144.4
144.4
144.4
144.4
144.4
144.4
144.4
144.4
144.4
144.4
144.4
144.4
144.4
144.4
144.4
144.4
144.4
144.4
144.4
144.4
144.4
144.4
144.4
144.4
144.4
144.4
144.4
144.4
144.4
144.4
144.4
144.4
144.4
144.4
144.4
144.4
144.4
144.4
144.4
144.4
144.4
144.4
144.4
144.4
144.4
144.4
144.4
144.4
144.4
144.4
144.4
144.4
144.4
144.4
144.4
144.4
144.4
144.4
144.4
144.4
144.4
144.4
144.4
144.4
144.4
144.4
144.4
144.4
144.4
144.4
144.4
144.4
144.4
144.4
144.4
144.4
144.4
144.4
144.4
144.4
144.4
144.4
144.4
144.4
144.4
144.4
144.4
144.4
144.4
144.4
144.4
144.4
144.4
144.4
144.4
144.4
144.4
144.4
144.4
144.4
144.4
144.4
144.4
144.4
144.4
144.4
144.4
144.4
144.4
144.4
144.4
144.4
144.4
144.4
144.4
144.4
144.4
144.4
144.4
144.4
144.4
144.4
144.4
144.4
144.4
144.4
144.4
144.4
144.4
144.4
144.4
144.4
144.4
144.4
144.4
144.4
144.4
144.4
144.4
144.4
144.4
144.4
144.4
144.4
144.4
144.4
144.4
144.4
144.4
144.4
144.4
144.4
144.4
144.4
144.4
144.4
144.4
144.4
144.4
144.4
144.4
144.4
144.4
144.4
144.4
144.4
144.4
144.4
144.4
144.4
144.4
144.4
144.4
144.4
144.4
144.4
144.4
144.4
144.4
144.4
144.4
144.4
144.4
144.4
144.4
144.4
144.4
144.4
144.4
144.4
144.4
144.4
144.4
144.4
144.4
144.4
144.4
144.4
144.4
144.4
144.4
144.4
144.4
144.4
144.4
144.4
144.4
144.4
144.4
144.4
144.4
144.4
144.4
144.4
144.4
144.4
144.4
144.4
144.4
144.4
144.4
144.4
144.4
144.4
144.4
144.4
144.4
144.4
144.4
144.4
144.4
144.4
144.4
144.4
144.4
144.4
144.4
144.4
144.4
144.4
144.4
144.4
144.4
144.4
144.4
144.4
144.4
144.4
144.4
144.4
144.4
144.4
144.4
144.4
144.4
144.4
144.4
144.4
144.4
144.4
144.4
144.4
144.4
144.4
144.4
144.4
144.4
144.4
144.4
144.4
144.4
144.4
144.4
144.4
144.4
144.4
144.4
144.4
144.4
144.4
144.4
144.4
144.4
144.4
144.4
144.4
144.4
144.4
144.4
144.4
144.4
144.4
144.4
144.4
144.4
144.4
144.4
144.4
144.4
144.4
144.4
144.4
144.4
144.4
144.4
144.4
144.4
144.4
144.4
144.4
144.4
144.4
144.4
144.4
144.4
144.4
144.4
144.4
144.4
144.4
144.4
144.4
144.4
144.4
144.4
144.4
144.4
144.4
144.4
144.4
144.4
144.4
144.4
144.4
144.4
144.4
144.4
144.4
144.4
144.4
144.4
144.4
144.4
144.4
144.4
144.4
144.4
144.4
144.4
144.4
144.4
144.4
144.4
144.4
144.4
144.4
144.4
144.4
144.4
144.4
144.4
144.4
144.4
144.4
144.4
144.4
144.4
144.4
144.4
144.4
144.4
144.4
144.4
144.4
144.4
144.4
144.4
144.4
144.4
144.4
144.4
144.4
144.4
144.4
144.4
144.4
144.4
144.4
144.4
144.4
144.4
144.4
144.4
144.4
144.4
144.4
144.4
144.4
144.4
144.4
144.4
144.4
144.4
144.4
144.4
144.4
144.4
144.4
144.4
144.4
144.4
144.4
144.4
144.4
144.4
144.4
144.4
144.4
144.4
144.4
144.4
144.4
144.4
144.4
144.4
144.4
144.4
144.4
144.4
144.4
144.4
144.4
144.4
144.4
144.4
144.4
144.4
144.4
144.4
144.4
144.4
144.4
144.4
144.4
144.4
144.4
144.4
144.4
144.4
144.4
144.4
144.4
144.4
144.4
144.4
144.4
144.4
144.4
144.4
144.4
144.4
144.4
144.4
144.4
144.4
144.4
144.4
144.4
144.4
144.4
144.4
144.4
144.4
144.4
144.4
144.4
144.4
144.4
144.4
144.4
144.4
144.4
144.4
144.4
144.4
144.4
144.4
144.4
144.4
144.4
144.4
144.4
144.4
144.4
144.4
144.4
144.4
144.4
144.4
144.4
144.4
144.4
144.4
144.4
144.4
144.4
144.4
144.4
144.4
144.4
144.4
144.4
144.4
144.4
144.4
144.4
144.4
144.4
144.4
144.4
144.4
144.4
144.4
144.4
144.4
144.4
144.4
144.4
144.4
144.4
144.4
144.401
144.401
144.4
144.4
144.4
144.4
144.4
144.4
144.4
144.4
144.4
144.4
144.4
144.4
144.4
144.4
144.4
144.4
144.4
144.4
144.4
144.4
144.4
144.4
144.4
144.4
144.4
144.4
144.4
144.4
144.4
144.4
144.4
144.4
144.4
144.4
144.4
144.4
144.4
144.401
144.401
144.402
144.402
144.404
144.4
144.4
144.4
144.4
144.4
144.4
144.4
144.4
144.4
144.4
144.4
144.4
144.4
144.4
144.4
144.4
144.4
144.4
144.4
144.4
144.4
144.4
144.4
144.4
144.4
144.4
144.4
144.4
144.4
144.4
144.4
144.4
144.4
144.4
144.4
144.401
144.401
144.402
144.402
144.404
144.405
144.407
144.41
144.4
144.4
144.4
144.4
144.4
144.4
144.4
144.4
144.4
144.4
144.4
144.4
144.4
144.4
144.4
144.4
144.4
144.4
144.4
144.4
144.4
144.4
144.4
144.4
144.4
144.4
144.4
144.4
144.4
144.4
144.4
144.4
144.401
144.401
144.402
144.402
144.404
144.405
144.407
144.41
144.413
144.417
144.423
144.4
144.4
144.4
144.4
144.4
144.4
144.4
144.4
144.4
144.4
144.4
144.4
144.4
144.4
144.4
144.4
144.4
144.4
144.4
144.4
144.4
144.4
144.4
144.4
144.4
144.4
144.4
144.4
144.4
144.401
144.401
144.401
144.402
144.402
144.404
144.405
144.407
144.41
144.413
144.417
144.423
144.43
144.439
144.45
144.4
144.4
144.4
144.4
144.4
144.4
144.4
144.4
144.4
144.4
144.4
144.4
144.4
144.4
144.4
144.4
144.4
144.4
144.4
144.4
144.4
144.4
144.4
144.4
144.4
144.4
144.4
144.401
144.401
144.401
144.402
144.403
144.404
144.405
144.407
144.41
144.413
144.418
144.423
144.43
144.439
144.45
144.464
144.481
144.503
144.4
144.4
144.4
144.4
144.4
144.4
144.4
144.4
144.4
144.4
144.4
144.4
144.4
144.4
144.4
144.4
144.4
144.4
144.4
144.4
144.4
144.4
144.4
144.4
144.4
144.401
144.401
144.401
144.402
144.403
144.404
144.405
144.408
144.41
144.414
144.418
144.424
144.431
144.44
144.451
144.464
144.481
144.502
144.527
144.559
144.599
144.4
144.4
144.4
144.4
144.4
144.4
144.4
144.4
144.4
144.4
144.4
144.4
144.4
144.4
144.4
144.4
144.4
144.4
144.4
144.4
144.4
144.4
144.4
144.4
144.401
144.401
144.401
144.402
144.403
144.404
144.406
144.408
144.411
144.414
144.419
144.425
144.432
144.441
144.452
144.466
144.482
144.503
144.528
144.559
144.597
144.643
144.7
144.771
144.4
144.4
144.4
144.4
144.4
144.4
144.4
144.4
144.4
144.4
144.4
144.4
144.4
144.4
144.4
144.4
144.4
144.4
144.4
144.4
144.401
144.401
144.401
144.402
144.402
144.403
144.404
144.406
144.409
144.411
144.415
144.42
144.426
144.434
144.443
144.454
144.468
144.485
144.506
144.531
144.562
144.6
144.645
144.7
144.766
144.846
144.942
145.061
144.4
144.4
144.4
144.4
144.4
144.4
144.4
144.4
144.4
144.4
144.4
144.4
144.4
144.4
144.4
144.4
144.4
144.4
144.4
144.401
144.401
144.401
144.402
144.403
144.404
144.405
144.407
144.409
144.412
144.416
144.422
144.428
144.436
144.445
144.457
144.471
144.488
144.51
144.535
144.566
144.604
144.649
144.704
144.77
144.848
144.942
145.053
145.185
145.342
145.531
144.4
144.4
144.4
144.4
144.4
144.4
144.4
144.4
144.4
144.4
144.4
144.4
144.4
144.4
144.4
144.4
144.401
144.401
144.401
144.402
144.403
144.404
144.406
144.408
144.41
144.414
144.418
144.423
144.43
144.438
144.448
144.46
144.475
144.493
144.515
144.541
144.572
144.611
144.656
144.711
144.777
144.855
144.947
145.057
145.186
145.338
145.516
145.723
145.964
146.25
144.4
144.4
144.4
144.4
144.4
144.4
144.4
144.4
144.4
144.4
144.4
144.4
144.401
144.401
144.401
144.402
144.402
144.403
144.405
144.406
144.409
144.411
144.415
144.42
144.426
144.433
144.441
144.452
144.465
144.48
144.499
144.521
144.548
144.581
144.62
144.666
144.721
144.787
144.866
144.958
145.067
145.195
145.345
145.52
145.722
145.956
146.224
146.529
146.878
147.281
144.4
144.4
144.4
144.4
144.4
144.4
144.4
144.4
144.401
144.401
144.401
144.401
144.402
144.403
144.404
144.405
144.407
144.41
144.413
144.417
144.422
144.428
144.436
144.446
144.457
144.47
144.487
144.506
144.53
144.558
144.591
144.631
144.679
144.735
144.802
144.881
144.974
145.084
145.211
145.36
145.533
145.733
145.963
146.225
146.523
146.861
147.239
147.661
148.132
148.664
144.4
144.4
144.4
144.4
144.4
144.401
144.401
144.401
144.402
144.403
144.403
144.405
144.406
144.409
144.411
144.415
144.42
144.425
144.432
144.44
144.451
144.463
144.477
144.495
144.515
144.54
144.569
144.604
144.646
144.695
144.753
144.821
144.902
144.996
145.106
145.235
145.384
145.557
145.755
145.982
146.241
146.535
146.865
147.235
147.647
148.102
148.602
149.147
149.741
150.397
144.4
144.401
144.401
144.401
144.402
144.402
144.403
144.404
144.406
144.408
144.41
144.413
144.418
144.423
144.429
144.436
144.446
144.457
144.47
144.486
144.504
144.526
144.553
144.584
144.62
144.664
144.715
144.775
144.845
144.928
145.024
145.136
145.266
145.417
145.59
145.788
146.015
146.272
146.562
146.888
147.253
147.656
148.102
148.589
149.12
149.695
150.312
150.972
151.678
152.442
144.402
144.402
144.403
144.404
144.405
144.407
144.409
144.412
144.416
144.421
144.426
144.433
144.442
144.452
144.464
144.479
144.496
144.516
144.54
144.568
144.601
144.64
144.685
144.739
144.801
144.875
144.96
145.059
145.174
145.306
145.459
145.634
145.834
146.061
146.317
146.606
146.93
147.29
147.688
148.126
148.604
149.124
149.685
150.288
150.931
151.613
152.333
153.091
153.888
154.738
144.405
144.407
144.409
144.412
144.415
144.419
144.425
144.431
144.439
144.449
144.46
144.474
144.49
144.508
144.53
144.556
144.586
144.622
144.663
144.711
144.768
144.834
144.91
144.999
145.101
145.22
145.356
145.512
145.689
145.892
146.12
146.378
146.667
146.99
147.347
147.742
148.174
148.646
149.157
149.707
150.297
150.926
151.592
152.295
153.032
153.804
154.607
155.441
156.307
157.221
144.415
144.419
144.424
144.43
144.438
144.447
144.457
144.47
144.485
144.503
144.524
144.548
144.576
144.609
144.647
144.691
144.743
144.803
144.872
144.953
145.046
145.152
145.275
145.415
145.575
145.757
145.963
146.195
146.455
146.746
147.069
147.426
147.818
148.247
148.713
149.217
149.759
150.339
150.955
151.608
152.295
153.016
153.769
154.552
155.364
156.203
157.068
157.957
158.874
159.833
144.437
144.445
144.456
144.468
144.483
144.5
144.519
144.542
144.569
144.6
144.636
144.677
144.725
144.78
144.845
144.919
145.004
145.101
145.213
145.341
145.487
145.652
145.839
146.049
146.286
146.55
146.843
147.168
147.526
147.918
148.345
148.807
149.306
149.841
150.412
151.019
151.659
152.333
153.039
153.775
154.541
155.333
156.152
156.996
157.862
158.75
159.659
160.588
161.539
162.528
144.482
144.498
144.517
144.54
144.565
144.595
144.629
144.668
144.713
144.765
144.825
144.894
144.973
145.064
145.167
145.285
145.419
145.571
145.742
145.935
146.152
146.394
146.663
146.96
147.288
147.648
148.041
148.468
148.929
149.424
149.954
150.518
151.116
151.746
152.408
153.101
153.822
154.572
155.347
156.148
156.971
157.817
158.684
159.57
160.475
161.397
162.336
163.291
164.265
165.273
144.564
144.593
144.626
144.664
144.707
144.757
144.814
144.879
144.953
145.038
145.135
145.245
145.37
145.511
145.67
145.849
146.049
146.273
146.521
146.796
147.099
147.432
147.795
148.19
148.618
149.078
149.571
150.097
150.656
151.247
151.868
152.52
153.201
153.909
154.644
155.404
156.187
156.993
157.82
158.666
159.532
160.415
161.315
162.23
163.161
164.105
165.063
166.035
167.024
168.044
144.707
144.755
144.809
144.872
144.943
145.024
145.116
145.22
145.337
145.47
145.619
145.786
145.973
146.182
146.413
146.669
146.951
147.261
147.599
147.967
148.366
148.795
149.256
149.749
150.272
150.827
151.412
152.026
152.669
153.339
154.035
154.757
155.502
156.27
157.059
157.868
158.696
159.542
160.405
161.283
162.177
163.085
164.007
164.942
165.889
166.847
167.818
168.8
169.797
170.823
144.941
145.019
145.108
145.207
145.319
145.445
145.587
145.745
145.921
146.118
146.336
146.576
146.841
147.131
147.448
147.793
148.167
148.57
149.002
149.465
149.957
150.48
151.031
151.611
152.219
152.854
153.515
154.2
154.91
155.642
156.395
157.168
157.961
158.771
159.599
160.442
161.301
162.175
163.062
163.962
164.874
165.798
166.734
167.68
168.637
169.604
170.581
171.568
172.57
173.598
145.315
145.436
145.572
145.723
145.892
146.079
146.285
146.513
146.764
147.039
147.338
147.663
148.016
148.396
148.804
149.24
149.706
150.199
150.721
151.27
151.846
152.449
153.077
153.729
154.405
155.103
155.822
156.562
157.321
158.097
158.891
159.702
160.527
161.367
162.221
163.088
163.967
164.859
165.761
166.675
167.598
168.532
169.475
170.428
171.39
172.361
173.341
174.33
175.332
176.36
145.721
145.883
146.063
146.261
146.479
146.718
146.98
147.265
147.574
147.909
148.269
148.657
149.071
149.512
149.98
150.475
150.997
151.545
152.118
152.716
153.337
153.982
154.649
155.336
156.044
156.771
157.516
158.278
159.056
159.85
160.658
161.48
162.315
163.163
164.022
164.893
165.775
166.667
167.569
168.481
169.402
170.332
171.271
172.218
173.173
174.137
175.109
176.088
177.077
178.077
179.102
146.472
146.702
146.954
147.227
147.523
147.843
148.187
148.557
148.952
149.372
149.818
150.29
150.787
151.31
151.856
152.427
153.02
153.636
154.274
154.932
155.61
156.307
157.021
157.753
158.501
159.264
160.042
160.834
161.639
162.456
163.285
164.126
164.977
165.839
166.711
167.592
168.483
169.382
170.29
171.206
172.131
173.063
174.004
174.951
175.907
176.869
177.839
178.816
179.802
180.799
181.819
147.222
147.508
147.816
148.147
148.502
148.881
149.283
149.711
150.162
150.638
151.137
151.66
152.206
152.774
153.364
153.975
154.606
155.256
155.925
156.611
157.314
158.033
158.767
159.516
160.279
161.054
161.842
162.643
163.454
164.276
165.109
165.951
166.803
167.665
168.535
169.413
170.3
171.195
172.098
173.008
173.926
174.851
175.783
176.722
177.668
178.621
179.58
180.547
181.52
182.501
183.493
184.507
148.49
148.856
149.243
149.654
150.088
150.545
151.025
151.527
152.051
152.596
153.162
153.748
154.354
154.978
155.621
156.28
156.956
157.648
158.355
159.076
159.811
160.559
161.319
162.091
162.874
163.669
164.473
165.288
166.111
166.944
167.786
168.636
169.495
170.361
171.235
172.117
173.006
173.902
174.805
175.715
176.631
177.554
178.484
179.42
180.362
181.311
182.266
183.228
184.196
185.171
186.157
187.164
150.067
150.508
150.97
151.453
151.958
152.482
153.027
153.591
154.173
154.774
155.392
156.027
156.677
157.344
158.024
158.719
159.428
160.149
160.882
161.628
162.384
163.151
163.929
164.716
165.512
166.318
167.133
167.955
168.786
169.625
170.472
171.326
172.187
173.055
173.93
174.812
175.7
176.595
177.496
178.403
179.316
180.236
181.161
182.093
183.031
183.974
184.923
185.879
186.84
187.809
188.787
189.786
151.925
152.431
152.957
153.5
154.061
154.64
155.236
155.847
156.475
157.117
157.773
158.443
159.126
159.822
160.53
161.249
161.98
162.721
163.472
164.233
165.003
165.783
166.571
167.367
168.172
168.984
169.804
170.631
171.465
172.306
173.154
174.009
174.87
175.737
176.611
177.49
178.376
179.268
180.165
181.068
181.977
182.891
183.812
184.737
185.669
186.606
187.548
188.497
189.451
190.412
191.382
192.372
154.017
154.576
155.15
155.741
156.346
156.965
157.598
158.245
158.904
159.576
160.259
160.954
161.66
162.376
163.102
163.837
164.582
165.336
166.098
166.869
167.648
168.434
169.228
170.029
170.837
171.652
172.474
173.302
174.137
174.978
175.825
176.678
177.537
178.401
179.272
180.148
181.029
181.916
182.808
183.706
184.609
185.518
186.431
187.35
188.275
189.204
190.139
191.08
192.026
192.978
193.939
194.919
156.289
156.887
157.499
158.123
158.76
159.409
160.069
160.74
161.421
162.113
162.815
163.526
164.246
164.975
165.713
166.458
167.212
167.973
168.742
169.518
170.3
171.09
171.886
172.689
173.498
174.314
175.135
175.962
176.795
177.633
178.478
179.327
180.182
181.043
181.908
182.779
183.655
184.536
185.423
186.314
187.21
188.112
189.018
189.929
190.846
191.767
192.694
193.625
194.563
195.506
196.458
197.428
158.692
159.318
159.956
160.604
161.263
161.931
162.61
163.297
163.993
164.698
165.412
166.133
166.862
167.599
168.343
169.094
169.853
170.617
171.389
172.167
172.951
173.741
174.537
175.339
176.147
176.96
177.779
178.603
179.433
180.267
181.107
181.952
182.802
183.657
184.517
185.382
186.252
187.126
188.005
188.889
189.778
190.671
191.57
192.473
193.38
194.293
195.211
196.133
197.061
197.994
198.936
199.895
161.829
162.485
163.149
163.822
164.504
165.194
165.892
166.597
167.31
168.03
168.757
169.491
170.232
170.979
171.733
172.493
173.258
174.03
174.807
175.59
176.379
177.173
177.973
178.777
179.587
180.402
181.222
182.047
182.876
183.711
184.55
185.394
186.242
187.095
187.953
188.816
189.682
190.554
191.43
192.31
193.195
194.085
194.979
195.877
196.78
197.688
198.601
199.519
200.442
201.373
202.321
164.391
165.058
165.733
166.415
167.104
167.801
168.505
169.215
169.932
170.656
171.385
172.121
172.863
173.611
174.364
175.123
175.888
176.658
177.433
178.213
178.998
179.789
180.584
181.385
182.19
182.999
183.814
184.633
185.456
186.284
187.117
187.954
188.795
189.641
190.491
191.345
192.204
193.067
193.934
194.806
195.681
196.561
197.446
198.335
199.228
200.126
201.028
201.935
202.848
203.768
204.705
166.981
167.655
168.335
169.023
169.717
170.417
171.123
171.835
172.554
173.278
174.008
174.743
175.484
176.23
176.981
177.738
178.499
179.266
180.037
180.814
181.595
182.38
183.171
183.965
184.765
185.568
186.376
187.189
188.005
188.826
189.651
190.481
191.314
192.152
192.993
193.839
194.689
195.543
196.401
197.263
198.129
198.999
199.873
200.752
201.635
202.522
203.414
204.31
205.211
206.12
207.045
170.261
170.944
171.633
172.329
173.03
173.736
174.448
175.166
175.889
176.617
177.35
178.088
178.831
179.579
180.332
181.089
181.851
182.618
183.389
184.165
184.944
185.729
186.517
187.31
188.107
188.907
189.712
190.521
191.334
192.151
192.972
193.797
194.626
195.459
196.295
197.136
197.98
198.828
199.68
200.536
201.396
202.26
203.128
204
204.876
205.757
206.642
207.532
208.429
209.341
172.865
173.549
174.238
174.932
175.632
176.337
177.047
177.763
178.483
179.207
179.937
180.671
181.41
182.153
182.901
183.654
184.41
185.171
185.936
186.705
187.478
188.256
189.037
189.823
190.612
191.405
192.202
193.003
193.807
194.616
195.428
196.243
197.063
197.886
198.713
199.544
200.378
201.216
202.058
202.903
203.752
204.605
205.462
206.323
207.188
208.057
208.93
209.809
210.694
211.593
175.459
176.142
176.829
177.521
178.219
178.921
179.627
180.339
181.055
181.775
182.5
183.23
183.963
184.701
185.443
186.189
186.94
187.694
188.452
189.214
189.98
190.75
191.524
192.301
193.082
193.867
194.656
195.448
196.243
197.042
197.845
198.651
199.461
200.274
201.091
201.912
202.735
203.563
204.394
205.228
206.067
206.909
207.754
208.604
209.457
210.314
211.175
212.042
212.915
213.801
178.038
178.718
179.402
180.091
180.784
181.482
182.184
182.891
183.602
184.317
185.037
185.76
186.488
187.22
187.955
188.695
189.438
190.185
190.936
191.69
192.448
193.21
193.976
194.745
195.517
196.293
197.072
197.855
198.641
199.431
200.224
201.02
201.82
202.623
203.429
204.239
205.052
205.869
206.688
207.512
208.339
209.169
210.003
210.841
211.682
212.527
213.376
214.23
215.091
215.964
180.596
181.272
181.952
182.636
183.325
184.018
184.715
185.416
186.122
186.831
187.544
188.261
188.982
189.707
190.435
191.167
191.903
192.642
193.385
194.131
194.881
195.635
196.391
197.151
197.914
198.681
199.451
200.224
201.001
201.78
202.563
203.349
204.138
204.931
205.726
206.525
207.327
208.132
208.941
209.753
210.568
211.387
212.209
213.034
213.863
214.696
215.533
216.374
217.222
218.083
183.131
183.802
184.477
185.156
185.839
186.526
187.217
187.912
188.611
189.314
190.02
190.73
191.443
192.161
192.881
193.606
194.333
195.064
195.799
196.536
197.278
198.022
198.769
199.52
200.274
201.031
201.791
202.554
203.32
204.089
204.862
205.637
206.416
207.197
207.982
208.769
209.56
210.354
211.151
211.951
212.754
213.561
214.371
215.184
216.001
216.821
217.645
218.474
219.309
220.156
185.639
186.304
186.973
187.646
188.323
189.004
189.688
190.377
191.068
191.764
192.463
193.165
193.871
194.58
195.293
196.009
196.728
197.45
198.176
198.904
199.636
200.371
201.109
201.85
202.594
203.341
204.091
204.844
205.599
206.358
207.12
207.884
208.651
209.422
210.195
210.971
211.75
212.532
213.317
214.106
214.897
215.691
216.489
217.29
218.094
218.902
219.713
220.529
221.351
222.184
188.776
189.439
190.106
190.776
191.45
192.127
192.808
193.492
194.18
194.871
195.565
196.263
196.964
197.668
198.375
199.085
199.799
200.515
201.234
201.957
202.682
203.41
204.141
204.875
205.611
206.351
207.093
207.838
208.586
209.336
210.09
210.846
211.604
212.366
213.131
213.898
214.668
215.441
216.217
216.996
217.778
218.563
219.352
220.143
220.938
221.737
222.54
223.349
224.168
191.217
191.873
192.533
193.196
193.862
194.532
195.205
195.882
196.561
197.244
197.93
198.619
199.311
200.006
200.704
201.405
202.109
202.816
203.525
204.238
204.953
205.671
206.392
207.115
207.841
208.57
209.301
210.035
210.772
211.511
212.253
212.998
213.745
214.495
215.247
216.003
216.761
217.522
218.285
219.052
219.822
220.594
221.37
222.149
222.931
223.716
224.506
225.302
226.108
193.626
194.274
194.926
195.582
196.24
196.902
197.567
198.235
198.906
199.58
200.257
200.937
201.62
202.306
202.995
203.686
204.381
205.077
205.777
206.479
207.184
207.892
208.602
209.315
210.03
210.748
211.468
212.191
212.916
213.644
214.374
215.107
215.843
216.581
217.321
218.065
218.811
219.559
220.31
221.065
221.822
222.581
223.344
224.11
224.879
225.652
226.428
227.211
228.003
196.64
197.284
197.932
198.582
199.236
199.892
200.551
201.214
201.879
202.547
203.218
203.891
204.568
205.247
205.928
206.613
207.299
207.989
208.681
209.375
210.072
210.771
211.473
212.178
212.884
213.593
214.305
215.019
215.735
216.454
217.175
217.898
218.624
219.353
220.084
220.817
221.553
222.292
223.034
223.778
224.525
225.275
226.028
226.784
227.544
228.307
229.076
229.855
198.971
199.607
200.246
200.887
201.532
202.18
202.83
203.484
204.14
204.798
205.46
206.124
206.79
207.459
208.131
208.805
209.481
210.16
210.842
211.525
212.211
212.9
213.591
214.284
214.979
215.677
216.377
217.079
217.783
218.49
219.199
219.911
220.625
221.341
222.06
222.781
223.505
224.231
224.96
225.691
226.425
227.163
227.903
228.646
229.392
230.142
230.897
231.662
201.892
202.522
203.155
203.791
204.43
205.071
205.715
206.361
207.011
207.662
208.316
208.973
209.632
210.293
210.957
211.623
212.291
212.962
213.635
214.31
214.987
215.667
216.348
217.032
217.718
218.407
219.097
219.79
220.485
221.182
221.881
222.583
223.287
223.993
224.702
225.413
226.127
226.843
227.561
228.283
229.007
229.734
230.464
231.197
231.934
232.676
233.427
204.14
204.761
205.385
206.012
206.641
207.273
207.907
208.544
209.183
209.825
210.469
211.115
211.764
212.415
213.068
213.724
214.381
215.041
215.703
216.367
217.033
217.701
218.371
219.044
219.718
220.395
221.074
221.754
222.437
223.122
223.809
224.499
225.19
225.884
226.58
227.279
227.98
228.683
229.389
230.098
230.809
231.523
232.24
232.96
233.683
234.412
235.149
206.962
207.576
208.194
208.814
209.436
210.06
210.687
211.317
211.948
212.582
213.218
213.856
214.496
215.139
215.784
216.43
217.079
217.73
218.382
219.037
219.694
220.353
221.014
221.676
222.341
223.008
223.677
224.348
225.021
225.695
226.373
227.052
227.733
228.417
229.103
229.791
230.481
231.175
231.87
232.568
233.269
233.973
234.68
235.39
236.105
236.829
209.123
209.729
210.337
210.947
211.559
212.174
212.791
213.41
214.031
214.654
215.28
215.908
216.537
217.169
217.803
218.438
219.076
219.715
220.357
221
221.646
222.293
222.942
223.593
224.246
224.901
225.557
226.216
226.877
227.54
228.204
228.871
229.54
230.211
230.884
231.56
232.238
232.918
233.601
234.286
234.974
235.665
236.359
237.056
237.758
238.468
211.246
211.842
212.44
213.04
213.643
214.247
214.854
215.463
216.074
216.687
217.302
217.918
218.537
219.158
219.781
220.405
221.032
221.66
222.29
222.922
223.556
224.191
224.829
225.468
226.109
226.752
227.397
228.043
228.692
229.342
229.995
230.649
231.305
231.964
232.625
233.288
233.953
234.62
235.29
235.963
236.638
237.315
237.996
238.68
239.369
240.065
213.329
213.915
214.503
215.094
215.686
216.281
216.877
217.476
218.076
218.678
219.283
219.889
220.497
221.107
221.718
222.332
222.947
223.564
224.182
224.803
225.425
226.049
226.675
227.302
227.931
228.562
229.195
229.829
230.465
231.104
231.744
232.386
233.03
233.676
234.324
234.974
235.627
236.282
236.939
237.598
238.26
238.925
239.593
240.264
240.939
241.622
215.373
215.949
216.527
217.108
217.69
218.274
218.86
219.448
220.038
220.63
221.223
221.818
222.416
223.014
223.615
224.217
224.821
225.427
226.034
226.643
227.253
227.866
228.479
229.095
229.712
230.331
230.952
231.574
232.198
232.824
233.452
234.082
234.714
235.347
235.983
236.62
237.26
237.902
238.547
239.194
239.843
240.495
241.15
241.807
242.47
243.14
217.377
217.943
218.511
219.082
219.653
220.227
220.803
221.38
221.96
222.541
223.123
223.708
224.294
224.882
225.471
226.062
226.655
227.249
227.845
228.442
229.041
229.642
230.244
230.848
231.453
232.06
232.669
233.279
233.891
234.505
235.12
235.738
236.357
236.978
237.602
238.227
238.854
239.484
240.115
240.749
241.386
242.025
242.667
243.312
243.961
244.618
219.341
219.898
220.456
221.016
221.577
222.141
222.706
223.273
223.841
224.412
224.984
225.557
226.132
226.709
227.287
227.867
228.448
229.031
229.615
230.201
230.789
231.378
231.968
232.56
233.154
233.749
234.345
234.944
235.544
236.145
236.749
237.354
237.961
238.57
239.181
239.794
240.408
241.025
241.645
242.266
242.89
243.516
244.145
244.778
245.414
246.057
221.812
222.36
222.91
223.461
224.014
224.569
225.125
225.683
226.243
226.804
227.366
227.93
228.496
229.063
229.632
230.202
230.773
231.346
231.921
232.497
233.074
233.653
234.233
234.815
235.398
235.983
236.569
237.157
237.747
238.338
238.931
239.526
240.123
240.721
241.322
241.924
242.529
243.135
243.744
244.356
244.969
245.586
246.205
246.829
247.459
223.688
224.225
224.765
225.306
225.848
226.392
226.938
227.485
228.034
228.584
229.136
229.689
230.244
230.8
231.357
231.916
232.476
233.038
233.601
234.165
234.731
235.298
235.867
236.437
237.008
237.581
238.156
238.732
239.309
239.889
240.47
241.052
241.637
242.223
242.811
243.402
243.994
244.588
245.185
245.784
246.385
246.989
247.595
248.206
248.823
225.523
226.051
226.58
227.111
227.643
228.176
228.711
229.248
229.786
230.325
230.866
231.408
231.952
232.497
233.043
233.591
234.14
234.69
235.242
235.795
236.349
236.904
237.462
238.02
238.58
239.141
239.704
240.268
240.834
241.401
241.97
242.541
243.113
243.688
244.264
244.842
245.422
246.004
246.588
247.175
247.764
248.355
248.949
249.547
250.152
227.837
228.356
228.876
229.398
229.921
230.446
230.972
231.499
232.028
232.558
233.089
233.622
234.156
234.691
235.227
235.765
236.304
236.844
237.386
237.929
238.473
239.018
239.565
240.113
240.663
241.214
241.767
242.321
242.876
243.433
243.992
244.553
245.115
245.679
246.245
246.813
247.383
247.955
248.529
249.106
249.685
250.267
250.852
251.444
229.585
230.094
230.603
231.115
231.627
232.141
232.657
233.173
233.691
234.211
234.731
235.253
235.776
236.3
236.825
237.352
237.88
238.409
238.939
239.471
240.003
240.537
241.073
241.61
242.148
242.687
243.228
243.77
244.314
244.86
245.407
245.955
246.506
247.058
247.612
248.168
248.726
249.286
249.848
250.413
250.98
251.549
252.122
252.702
231.294
231.792
232.292
232.793
233.295
233.799
234.304
234.81
235.317
235.825
236.335
236.846
237.358
237.871
238.386
238.901
239.418
239.936
240.455
240.975
241.497
242.02
242.544
243.069
243.596
244.124
244.653
245.184
245.716
246.25
246.785
247.322
247.861
248.401
248.944
249.488
250.034
250.582
251.132
251.685
252.239
252.797
253.358
253.925
232.965
233.453
233.943
234.433
234.925
235.418
235.913
236.408
236.905
237.403
237.902
238.402
238.903
239.405
239.909
240.414
240.919
241.426
241.934
242.443
242.954
243.465
243.978
244.492
245.007
245.524
246.042
246.561
247.082
247.605
248.128
248.654
249.181
249.71
250.24
250.773
251.307
251.843
252.382
252.922
253.465
254.011
254.56
255.114
235.077
235.556
236.036
236.518
237.001
237.485
237.97
238.456
238.943
239.431
239.921
240.411
240.903
241.396
241.889
242.384
242.88
243.377
243.875
244.375
244.875
245.377
245.88
246.384
246.889
247.396
247.904
248.413
248.924
249.437
249.951
250.467
250.984
251.503
252.024
252.547
253.071
253.598
254.127
254.658
255.192
255.729
256.271
236.663
237.132
237.602
238.074
238.546
239.02
239.494
239.97
240.447
240.925
241.403
241.883
242.364
242.846
243.329
243.813
244.299
244.785
245.272
245.76
246.25
246.741
247.232
247.725
248.22
248.715
249.212
249.71
250.21
250.711
251.214
251.718
252.224
252.732
253.242
253.753
254.266
254.781
255.299
255.818
256.34
256.865
257.396
238.212
238.671
239.131
239.593
240.055
240.518
240.983
241.448
241.914
242.382
242.85
243.32
243.79
244.262
244.734
245.207
245.682
246.157
246.634
247.111
247.59
248.07
248.551
249.033
249.516
250.001
250.487
250.974
251.462
251.953