/*--------------------------------*- C++ -*----------------------------------*\
| =========                 |                                                 |
| \\      /  F ield         | OpenFOAM: The Open Source CFD Toolbox           |
|  \\    /   O peration     | Version:  v1706                                 |
|   \\  /    A nd           | Web:      www.OpenFOAM.com                      |
|    \\/     M anipulation  |                                                 |
\*---------------------------------------------------------------------------*/
FoamFile
{
    version     2.0;
    format      ascii;
    class       volVectorField;
    location    "3.4e-05";
    object      U;
}
// * * * * * * * * * * * * * * * * * * * * * * * * * * * * * * * * * * * * * //

dimensions      [0 1 -1 0 0 0 0];


internalField   nonuniform List<vector> 
30038
(
(978.58 -1.13604e-10 5.5287e-15)
(978.58 -1.15637e-10 3.80424e-15)
(978.58 -1.17355e-10 7.45631e-15)
(978.58 -1.19485e-10 3.39838e-15)
(978.58 -1.21291e-10 4.91638e-15)
(978.58 -1.23308e-10 5.40529e-15)
(978.58 -1.25466e-10 8.67745e-15)
(978.58 -1.28147e-10 8.67695e-15)
(978.58 -1.30159e-10 4.70827e-15)
(978.58 -1.32605e-10 6.3649e-15)
(978.58 -1.34718e-10 1.0074e-14)
(978.58 -1.37605e-10 6.5195e-15)
(978.58 -1.39724e-10 5.02616e-15)
(978.58 -1.4179e-10 3.51114e-15)
(978.58 -1.43002e-10 6.51189e-15)
(978.58 -1.45433e-10 8.69848e-15)
(978.58 -1.47187e-10 6.04558e-15)
(978.58 -1.47496e-10 2.87512e-15)
(978.58 -1.45676e-10 5.30732e-15)
(978.58 -1.39173e-10 7.79667e-15)
(978.58 -1.29373e-10 7.5292e-15)
(978.58 -1.18895e-10 4.3725e-15)
(978.58 -1.0238e-10 3.63893e-15)
(978.58 -7.17788e-11 7.36858e-15)
(978.58 -2.43364e-11 5.27259e-15)
(978.58 5.57012e-11 3.25398e-15)
(978.58 1.97686e-10 4.75879e-15)
(978.58 4.34812e-10 8.56852e-15)
(978.58 8.00696e-10 1.03883e-14)
(978.58 1.31778e-09 8.46565e-15)
(978.58 2.05464e-09 8.26538e-15)
(978.58 3.14335e-09 9.84209e-15)
(978.58 4.78696e-09 7.92e-15)
(978.58 7.29628e-09 8.043e-15)
(978.58 1.11604e-08 9.89258e-15)
(978.58 1.71477e-08 5.73366e-15)
(978.58 2.71752e-08 3.57599e-15)
(978.58 4.28001e-08 8.08628e-15)
(978.58 -3.27758e-10 1.78872e-14)
(978.58 -3.32514e-10 2.04594e-14)
(978.58 -3.37996e-10 1.92916e-14)
(978.58 -3.43723e-10 1.91661e-14)
(978.58 -3.48478e-10 2.18283e-14)
(978.58 -3.54081e-10 2.05893e-14)
(978.58 -3.59774e-10 2.30188e-14)
(978.58 -3.66415e-10 2.11691e-14)
(978.58 -3.72181e-10 1.65973e-14)
(978.58 -3.78375e-10 2.09449e-14)
(978.58 -3.82978e-10 1.93715e-14)
(978.58 -3.88405e-10 1.58345e-14)
(978.58 -3.93504e-10 1.82804e-14)
(978.58 -3.99258e-10 1.93642e-14)
(978.58 -4.02769e-10 2.0746e-14)
(978.58 -4.01285e-10 2.04079e-14)
(978.58 -3.93588e-10 2.00438e-14)
(978.58 -3.85275e-10 1.83875e-14)
(978.58 -3.74002e-10 1.80102e-14)
(978.58 -3.48522e-10 1.90816e-14)
(978.58 -3.14264e-10 1.8795e-14)
(978.58 -2.57423e-10 1.92464e-14)
(978.58 -1.54611e-10 1.95667e-14)
(978.58 2.34106e-11 1.90628e-14)
(978.58 3.45762e-10 1.8642e-14)
(978.58 8.78453e-10 2.04711e-14)
(978.58 1.7238e-09 2.10204e-14)
(978.58 2.94657e-09 2.06595e-14)
(978.58 4.66119e-09 2.35104e-14)
(978.58 7.17967e-09 2.09879e-14)
(978.58 1.09733e-08 2.02894e-14)
(978.58 1.67258e-08 2.7497e-14)
(978.58 2.54684e-08 2.61771e-14)
(978.58 3.87865e-08 2.42517e-14)
(978.58 5.91915e-08 2.42475e-14)
(978.58 9.03086e-08 2.06719e-14)
(978.58 1.40971e-07 2.13937e-14)
(978.58 2.21831e-07 2.39229e-14)
(978.58 -5.32803e-10 3.19497e-14)
(978.58 -5.39484e-10 3.42099e-14)
(978.58 -5.45863e-10 3.17672e-14)
(978.58 -5.54395e-10 2.93507e-14)
(978.58 -5.62603e-10 3.16901e-14)
(978.58 -5.70713e-10 3.30659e-14)
(978.58 -5.78863e-10 3.27839e-14)
(978.58 -5.86904e-10 2.69239e-14)
(978.58 -5.94919e-10 2.82536e-14)
(978.58 -6.02998e-10 2.83253e-14)
(978.58 -6.09805e-10 2.71074e-14)
(978.58 -6.13748e-10 2.96257e-14)
(978.58 -6.10786e-10 3.17837e-14)
(978.58 -6.08064e-10 3.25367e-14)
(978.58 -6.02709e-10 3.13786e-14)
(978.58 -5.9259e-10 3.4263e-14)
(978.58 -5.64381e-10 3.25583e-14)
(978.58 -5.25381e-10 3.18769e-14)
(978.58 -4.58434e-10 3.10163e-14)
(978.58 -3.41034e-10 3.08685e-14)
(978.58 -1.27358e-10 3.13606e-14)
(978.58 2.41132e-10 3.28964e-14)
(978.58 8.40669e-10 3.14975e-14)
(978.58 1.77148e-09 3.40014e-14)
(978.58 3.07175e-09 3.69522e-14)
(978.58 4.86226e-09 3.53324e-14)
(978.58 7.42451e-09 3.26885e-14)
(978.58 1.1262e-08 3.13177e-14)
(978.58 1.70574e-08 3.50914e-14)
(978.58 2.58056e-08 3.53181e-14)
(978.58 3.90113e-08 3.566e-14)
(978.58 5.89477e-08 3.72534e-14)
(978.58 8.91048e-08 3.61345e-14)
(978.58 1.34766e-07 3.66586e-14)
(978.58 2.04517e-07 3.76719e-14)
(978.58 3.10004e-07 3.65083e-14)
(978.58 4.82232e-07 3.42138e-14)
(978.58 7.4932e-07 3.66669e-14)
(978.58 -7.28871e-10 4.53277e-14)
(978.58 -7.38634e-10 4.50717e-14)
(978.58 -7.47516e-10 4.35258e-14)
(978.58 -7.56004e-10 4.2793e-14)
(978.58 -7.64623e-10 4.57955e-14)
(978.58 -7.7277e-10 4.24174e-14)
(978.58 -7.81154e-10 4.15225e-14)
(978.58 -7.88938e-10 4.17582e-14)
(978.58 -7.91864e-10 4.3434e-14)
(978.58 -7.90709e-10 4.13189e-14)
(978.58 -7.90714e-10 4.43178e-14)
(978.58 -7.85852e-10 4.48596e-14)
(978.58 -7.7404e-10 4.46565e-14)
(978.58 -7.38077e-10 3.97876e-14)
(978.58 -6.9505e-10 4.14224e-14)
(978.58 -6.13865e-10 4.26859e-14)
(978.58 -4.67782e-10 4.32035e-14)
(978.58 -2.07955e-10 4.74392e-14)
(978.58 2.21856e-10 4.798e-14)
(978.58 9.00791e-10 4.65741e-14)
(978.58 1.89653e-09 4.57831e-14)
(978.58 3.24744e-09 4.57253e-14)
(978.58 5.12326e-09 4.88977e-14)
(978.58 7.83432e-09 4.94267e-14)
(978.58 1.18929e-08 4.79896e-14)
(978.58 1.79697e-08 4.79966e-14)
(978.58 2.70291e-08 4.66961e-14)
(978.58 4.05477e-08 4.56983e-14)
(978.58 6.0763e-08 4.76314e-14)
(978.58 9.1041e-08 4.82363e-14)
(978.58 1.36476e-07 4.71995e-14)
(978.58 2.04791e-07 4.8656e-14)
(978.58 3.07791e-07 4.8258e-14)
(978.58 4.63234e-07 4.82756e-14)
(978.58 6.9985e-07 5.0673e-14)
(978.58 1.0563e-06 5.16828e-14)
(978.58 1.6352e-06 5.0669e-14)
(978.58 2.528e-06 5.101e-14)
(978.58 -9.12624e-10 5.43908e-14)
(978.58 -9.23419e-10 5.66682e-14)
(978.58 -9.32482e-10 5.67799e-14)
(978.58 -9.40334e-10 5.56666e-14)
(978.58 -9.45649e-10 5.38217e-14)
(978.58 -9.45128e-10 5.50127e-14)
(978.58 -9.47172e-10 5.63344e-14)
(978.58 -9.46099e-10 5.73634e-14)
(978.58 -9.39767e-10 5.82026e-14)
(978.58 -9.15633e-10 5.68479e-14)
(978.58 -8.81093e-10 5.57297e-14)
(978.58 -8.27438e-10 5.51692e-14)
(978.58 -7.2639e-10 5.3526e-14)
(978.58 -5.39155e-10 5.53659e-14)
(978.58 -2.2374e-10 5.86308e-14)
(978.58 2.8008e-10 6.09464e-14)
(978.58 1.05513e-09 6.35456e-14)
(978.58 2.12425e-09 6.09088e-14)
(978.58 3.5664e-09 5.94249e-14)
(978.58 5.5748e-09 6.13463e-14)
(978.58 8.51927e-09 5.7714e-14)
(978.58 1.29033e-08 5.78808e-14)
(978.58 1.93881e-08 6.257e-14)
(978.58 2.89473e-08 6.12622e-14)
(978.58 4.30864e-08 6.14521e-14)
(978.58 6.40468e-08 6.24772e-14)
(978.58 9.51631e-08 6.129e-14)
(978.58 1.41442e-07 5.53176e-14)
(978.58 2.10398e-07 5.501e-14)
(978.58 3.13333e-07 5.67562e-14)
(978.58 4.67303e-07 6.1814e-14)
(978.58 6.98038e-07 6.48205e-14)
(978.58 1.04471e-06 6.14962e-14)
(978.58 1.56598e-06 6.06504e-14)
(978.58 2.35632e-06 6.16385e-14)
(978.58 3.54255e-06 6.31519e-14)
(978.58 5.45789e-06 6.44928e-14)
(978.58 8.39511e-06 6.45018e-14)
(978.58 -1.0762e-09 7.03766e-14)
(978.58 -1.07893e-09 6.96526e-14)
(978.58 -1.08274e-09 6.54169e-14)
(978.58 -1.08391e-09 6.19435e-14)
(978.58 -1.08026e-09 6.54014e-14)
(978.58 -1.06931e-09 6.59316e-14)
(978.58 -1.03662e-09 6.66355e-14)
(978.58 -9.96286e-10 7.32924e-14)
(978.58 -9.22736e-10 7.27367e-14)
(978.58 -7.83329e-10 6.9901e-14)
(978.58 -5.43566e-10 6.99365e-14)
(978.58 -1.57803e-10 6.96117e-14)
(978.58 4.41751e-10 6.98292e-14)
(978.58 1.30418e-09 7.13446e-14)
(978.58 2.45896e-09 7.10828e-14)
(978.58 4.03101e-09 7.2643e-14)
(978.58 6.25805e-09 7.47233e-14)
(978.58 9.53077e-09 7.12711e-14)
(978.58 1.43367e-08 7.02338e-14)
(978.58 2.13612e-08 7.32856e-14)
(978.58 3.16368e-08 7.32255e-14)
(978.58 4.67089e-08 7.45493e-14)
(978.58 6.88477e-08 7.2841e-14)
(978.58 1.0142e-07 7.10847e-14)
(978.58 1.49449e-07 7.14885e-14)
(978.58 2.20403e-07 7.676e-14)
(978.58 3.25394e-07 7.6852e-14)
(978.58 4.81011e-07 7.06313e-14)
(978.58 7.12101e-07 7.29142e-14)
(978.58 1.05593e-06 7.3133e-14)
(978.58 1.5685e-06 7.18597e-14)
(978.58 2.334e-06 7.29265e-14)
(978.58 3.48013e-06 7.44019e-14)
(978.58 5.1975e-06 7.77627e-14)
(978.58 7.7915e-06 7.58622e-14)
(978.58 1.16714e-05 7.25184e-14)
(978.58 1.78989e-05 7.45206e-14)
(978.58 2.7396e-05 7.55514e-14)
(978.58 -1.20098e-09 7.90659e-14)
(978.58 -1.19678e-09 7.80039e-14)
(978.58 -1.17022e-09 8.14667e-14)
(978.58 -1.13554e-09 8.19215e-14)
(978.58 -1.07757e-09 7.95337e-14)
(978.58 -9.71105e-10 7.88015e-14)
(978.58 -7.82321e-10 8.25235e-14)
(978.58 -4.76743e-10 8.47231e-14)
(978.58 3.52817e-13 8.14714e-14)
(978.58 7.11596e-10 8.58861e-14)
(978.58 1.66962e-09 8.47342e-14)
(978.58 2.94656e-09 8.27527e-14)
(978.58 4.70603e-09 8.19666e-14)
(978.58 7.23902e-09 8.14231e-14)
(978.58 1.09302e-08 8.18527e-14)
(978.58 1.62806e-08 8.52307e-14)
(978.58 2.40186e-08 8.62175e-14)
(978.58 3.52516e-08 8.6684e-14)
(978.58 5.15886e-08 8.47407e-14)
(978.58 7.53815e-08 8.6733e-14)
(978.58 1.10093e-07 8.51667e-14)
(978.58 1.60829e-07 8.41292e-14)
(978.58 2.35119e-07 8.3665e-14)
(978.58 3.44093e-07 8.52626e-14)
(978.58 5.04245e-07 8.40496e-14)
(978.58 7.40026e-07 8.76141e-14)
(978.58 1.08777e-06 8.63598e-14)
(978.58 1.60157e-06 8.04298e-14)
(978.58 2.36216e-06 8.20907e-14)
(978.58 3.4901e-06 8.52043e-14)
(978.58 5.166e-06 8.56951e-14)
(978.58 7.66039e-06 8.61228e-14)
(978.58 1.13822e-05 8.9041e-14)
(978.58 1.69397e-05 9.13374e-14)
(978.58 2.53019e-05 9.1017e-14)
(978.58 3.77656e-05 8.82971e-14)
(978.58 5.76541e-05 8.87881e-14)
(978.58 8.78186e-05 8.92597e-14)
(978.58 -1.20575e-09 9.32385e-14)
(978.58 -1.12288e-09 9.46579e-14)
(978.58 -9.69517e-10 9.68979e-14)
(978.58 -7.16867e-10 9.89153e-14)
(978.58 -3.23363e-10 9.64075e-14)
(978.58 2.73916e-10 9.44092e-14)
(978.58 1.09206e-09 9.69862e-14)
(978.58 2.16372e-09 9.82293e-14)
(978.58 3.60765e-09 9.92583e-14)
(978.58 5.64109e-09 9.64103e-14)
(978.58 8.57975e-09 9.4558e-14)
(978.58 1.28014e-08 9.44187e-14)
(978.58 1.88439e-08 9.40285e-14)
(978.58 2.75167e-08 9.55807e-14)
(978.58 4.00033e-08 9.62828e-14)
(978.58 5.80084e-08 9.94425e-14)
(978.58 8.4005e-08 1.00281e-13)
(978.58 1.21615e-07 9.74875e-14)
(978.58 1.76123e-07 9.72651e-14)
(978.58 2.55255e-07 9.74091e-14)
(978.58 3.7034e-07 9.55862e-14)
(978.58 5.38028e-07 9.71815e-14)
(978.58 7.82811e-07 9.44801e-14)
(978.58 1.14077e-06 9.49878e-14)
(978.58 1.66515e-06 9.55834e-14)
(978.58 2.43469e-06 9.98184e-14)
(978.58 3.56602e-06 9.65811e-14)
(978.58 5.23223e-06 9.65621e-14)
(978.58 7.69064e-06 9.98536e-14)
(978.58 1.13244e-05 1.0128e-13)
(978.58 1.67054e-05 1.01743e-13)
(978.58 2.46877e-05 1.00931e-13)
(978.58 3.65573e-05 1.01027e-13)
(978.58 5.42209e-05 1.00162e-13)
(978.58 8.06989e-05 1.0286e-13)
(978.58 0.000120026 1.04121e-13)
(978.58 0.000182418 9.93146e-14)
(978.58 0.000276539 9.67772e-14)
(978.58 -8.95899e-10 1.09293e-13)
(978.58 -5.59748e-10 1.10065e-13)
(978.58 -5.13574e-11 1.12527e-13)
(978.58 6.62727e-10 1.12073e-13)
(978.58 1.59543e-09 1.11605e-13)
(978.58 2.82927e-09 1.11581e-13)
(978.58 4.52053e-09 1.12466e-13)
(978.58 6.93414e-09 1.09547e-13)
(978.58 1.03822e-08 1.09621e-13)
(978.58 1.52731e-08 1.07031e-13)
(978.58 2.22125e-08 1.05806e-13)
(978.58 3.2095e-08 1.08304e-13)
(978.58 4.61959e-08 1.04312e-13)
(978.58 6.63533e-08 1.09743e-13)
(978.58 9.52257e-08 1.09877e-13)
(978.58 1.36655e-07 1.10729e-13)
(978.58 1.96195e-07 1.0913e-13)
(978.58 2.81899e-07 1.07264e-13)
(978.58 4.05497e-07 1.07524e-13)
(978.58 5.84078e-07 1.0915e-13)
(978.58 8.42562e-07 1.08453e-13)
(978.58 1.21736e-06 1.08345e-13)
(978.58 1.76175e-06 1.06439e-13)
(978.58 2.55389e-06 1.06601e-13)
(978.58 3.70856e-06 1.08977e-13)
(978.58 5.39469e-06 1.10942e-13)
(978.58 7.8613e-06 1.11618e-13)
(978.58 1.14762e-05 1.08832e-13)
(978.58 1.67831e-05 1.09712e-13)
(978.58 2.4588e-05 1.10847e-13)
(978.58 3.60868e-05 1.12657e-13)
(978.58 5.30589e-05 1.12784e-13)
(978.58 7.81519e-05 1.12982e-13)
(978.58 0.000115337 1.1293e-13)
(978.58 0.000170483 1.16172e-13)
(978.58 0.000252833 1.1487e-13)
(978.58 0.000374716 1.11742e-13)
(978.579 0.000566976 1.10414e-13)
(978.579 0.000855484 1.10284e-13)
(978.58 1.18999e-09 1.22352e-13)
(978.58 2.2806e-09 1.21663e-13)
(978.58 3.74816e-09 1.23204e-13)
(978.58 5.79705e-09 1.2564e-13)
(978.58 8.69804e-09 1.23844e-13)
(978.58 1.27862e-08 1.24376e-13)
(978.58 1.85309e-08 1.22496e-13)
(978.58 2.66277e-08 1.18659e-13)
(978.58 3.80657e-08 1.18088e-13)
(978.58 5.42459e-08 1.1851e-13)
(978.58 7.71844e-08 1.20779e-13)
(978.58 1.09772e-07 1.17423e-13)
(978.58 1.56142e-07 1.1791e-13)
(978.58 2.22227e-07 1.22482e-13)
(978.58 3.16574e-07 1.22229e-13)
(978.58 4.51508e-07 1.21567e-13)
(978.58 6.44831e-07 1.19566e-13)
(978.58 9.22302e-07 1.22457e-13)
(978.58 1.32126e-06 1.21476e-13)
(978.58 1.89592e-06 1.2125e-13)
(978.58 2.72513e-06 1.19546e-13)
(978.58 3.92376e-06 1.1986e-13)
(978.58 5.65947e-06 1.20006e-13)
(978.58 8.17738e-06 1.22376e-13)
(978.58 1.18365e-05 1.23933e-13)
(978.58 1.71632e-05 1.23601e-13)
(978.58 2.49312e-05 1.22953e-13)
(978.58 3.62786e-05 1.19459e-13)
(978.58 5.28839e-05 1.21162e-13)
(978.58 7.72257e-05 1.25365e-13)
(978.58 0.000112971 1.25242e-13)
(978.58 0.000165554 1.25323e-13)
(978.58 0.000243039 1.24912e-13)
(978.58 0.000357468 1.25141e-13)
(978.579 0.000526585 1.26045e-13)
(978.579 0.000778183 1.2418e-13)
(978.579 0.00114926 1.22712e-13)
(978.578 0.00173131 1.25739e-13)
(978.577 0.00260017 1.26019e-13)
(978.58 7.55561e-09 1.38632e-13)
(978.58 1.10835e-08 1.36628e-13)
(978.58 1.59929e-08 1.35393e-13)
(978.58 2.28445e-08 1.35549e-13)
(978.58 3.24351e-08 1.33585e-13)
(978.58 4.58748e-08 1.35285e-13)
(978.58 6.4734e-08 1.36402e-13)
(978.58 9.12505e-08 1.33782e-13)
(978.58 1.28604e-07 1.31063e-13)
(978.58 1.81314e-07 1.32938e-13)
(978.58 2.55822e-07 1.32446e-13)
(978.58 3.61328e-07 1.32284e-13)
(978.58 5.10979e-07 1.30255e-13)
(978.58 7.2362e-07 1.30961e-13)
(978.58 1.0263e-06 1.37132e-13)
(978.58 1.45793e-06 1.37661e-13)
(978.58 2.07455e-06 1.3715e-13)
(978.58 2.957e-06 1.33631e-13)
(978.58 4.2221e-06 1.31089e-13)
(978.58 6.03896e-06 1.31919e-13)
(978.58 8.65277e-06 1.33418e-13)
(978.58 1.24196e-05 1.32996e-13)
(978.58 1.78577e-05 1.31481e-13)
(978.58 2.57218e-05 1.32567e-13)
(978.58 3.71139e-05 1.34867e-13)
(978.58 5.36454e-05 1.35958e-13)
(978.58 7.76764e-05 1.31636e-13)
(978.58 0.00011267 1.32958e-13)
(978.58 0.000163714 1.37497e-13)
(978.58 0.000238298 1.39152e-13)
(978.58 0.000347464 1.37502e-13)
(978.579 0.000507524 1.35159e-13)
(978.579 0.000742588 1.35567e-13)
(978.579 0.00108855 1.367e-13)
(978.578 0.00159807 1.37276e-13)
(978.577 0.00235326 1.3712e-13)
(978.576 0.00346314 1.3887e-13)
(978.574 0.00519417 1.38846e-13)
(978.57 0.00776479 1.36762e-13)
(978.58 2.02869e-08 1.5184e-13)
(978.58 2.85839e-08 1.49118e-13)
(978.58 4.01085e-08 1.48619e-13)
(978.58 5.61347e-08 1.49972e-13)
(978.58 7.84462e-08 1.49519e-13)
(978.58 1.09563e-07 1.5e-13)
(978.58 1.53032e-07 1.49893e-13)
(978.58 2.13866e-07 1.49455e-13)
(978.58 2.99159e-07 1.47227e-13)
(978.58 4.18965e-07 1.4856e-13)
(978.58 5.87536e-07 1.46404e-13)
(978.58 8.25129e-07 1.45632e-13)
(978.58 1.16059e-06 1.42948e-13)
(978.58 1.63508e-06 1.41624e-13)
(978.58 2.30743e-06 1.46819e-13)
(978.58 3.26181e-06 1.47879e-13)
(978.58 4.61885e-06 1.4569e-13)
(978.58 6.55178e-06 1.44791e-13)
(978.58 9.30971e-06 1.4456e-13)
(978.58 1.32516e-05 1.42609e-13)
(978.58 1.88954e-05 1.40832e-13)
(978.58 2.69902e-05 1.43021e-13)
(978.58 3.86202e-05 1.4363e-13)
(978.58 5.53583e-05 1.42619e-13)
(978.58 7.94897e-05 1.45696e-13)
(978.58 0.00011434 1.48941e-13)
(978.58 0.000164755 1.44779e-13)
(978.58 0.00023781 1.42977e-13)
(978.58 0.00034385 1.46825e-13)
(978.579 0.000498027 1.47971e-13)
(978.579 0.000722565 1.49525e-13)
(978.579 0.00105013 1.47255e-13)
(978.578 0.00152881 1.47864e-13)
(978.577 0.00222944 1.4997e-13)
(978.576 0.00325704 1.52174e-13)
(978.574 0.00476523 1.5078e-13)
(978.571 0.00699212 1.49644e-13)
(978.567 0.0102533 1.49915e-13)
(978.561 0.015311 1.48319e-13)
(978.552 0.0227827 1.48807e-13)
(978.58 6.97033e-08 1.65222e-13)
(978.58 9.64811e-08 1.64546e-13)
(978.58 1.33537e-07 1.63262e-13)
(978.58 1.84881e-07 1.61174e-13)
(978.58 2.56151e-07 1.61929e-13)
(978.58 3.55277e-07 1.63219e-13)
(978.58 4.93403e-07 1.63705e-13)
(978.58 6.86205e-07 1.61655e-13)
(978.58 9.55787e-07 1.61473e-13)
(978.58 1.33338e-06 1.62135e-13)
(978.58 1.86316e-06 1.56912e-13)
(978.58 2.60778e-06 1.57682e-13)
(978.58 3.65617e-06 1.57043e-13)
(978.58 5.13481e-06 1.56791e-13)
(978.58 7.22386e-06 1.58287e-13)
(978.58 1.01804e-05 1.57674e-13)
(978.58 1.4372e-05 1.54705e-13)
(978.58 2.0325e-05 1.53482e-13)
(978.58 2.8794e-05 1.5547e-13)
(978.58 4.08633e-05 1.5436e-13)
(978.58 5.80929e-05 1.57944e-13)
(978.58 8.27307e-05 1.59517e-13)
(978.58 0.000118022 1.60166e-13)
(978.58 0.000168657 1.57578e-13)
(978.58 0.000241432 1.56682e-13)
(978.58 0.0003462 1.57588e-13)
(978.579 0.000497278 1.56694e-13)
(978.579 0.000715499 1.56226e-13)
(978.579 0.00103123 1.57598e-13)
(978.578 0.00148881 1.60302e-13)
(978.577 0.00215305 1.60611e-13)
(978.576 0.00311885 1.60082e-13)
(978.574 0.0045255 1.59878e-13)
(978.572 0.00657727 1.61957e-13)
(978.568 0.00957611 1.62621e-13)
(978.562 0.013962 1.58399e-13)
(978.554 0.0204131 1.60352e-13)
(978.543 0.0298262 1.61536e-13)
(978.525 0.0443416 1.61554e-13)
(978.5 0.065669 1.61069e-13)
(978.58 2.26667e-07 1.77103e-13)
(978.58 3.11413e-07 1.74953e-13)
(978.58 4.28343e-07 1.75498e-13)
(978.58 5.89966e-07 1.76232e-13)
(978.58 8.13767e-07 1.76672e-13)
(978.58 1.12422e-06 1.7725e-13)
(978.58 1.55561e-06 1.7345e-13)
(978.58 2.15606e-06 1.71563e-13)
(978.58 2.99325e-06 1.75365e-13)
(978.58 4.16256e-06 1.7443e-13)
(978.58 5.79858e-06 1.70921e-13)
(978.58 8.09161e-06 1.74511e-13)
(978.58 1.13111e-05 1.7275e-13)
(978.58 1.58391e-05 1.69888e-13)
(978.58 2.22186e-05 1.69246e-13)
(978.58 3.12219e-05 1.65771e-13)
(978.58 4.39497e-05 1.64912e-13)
(978.58 6.19728e-05 1.67542e-13)
(978.58 8.75374e-05 1.68606e-13)
(978.58 0.00012386 1.71667e-13)
(978.58 0.000175555 1.7613e-13)
(978.58 0.000249251 1.71841e-13)
(978.58 0.00035449 1.70508e-13)
(978.579 0.000505022 1.70257e-13)
(978.579 0.000720697 1.69794e-13)
(978.579 0.00103022 1.6984e-13)
(978.578 0.00147515 1.68558e-13)
(978.577 0.00211579 1.68179e-13)
(978.576 0.00303969 1.75304e-13)
(978.574 0.00437429 1.7223e-13)
(978.572 0.00630513 1.68754e-13)
(978.568 0.0091032 1.685e-13)
(978.563 0.0131643 1.69264e-13)
(978.556 0.0190678 1.72632e-13)
(978.545 0.0276653 1.74515e-13)
(978.53 0.0401939 1.73456e-13)
(978.507 0.0585498 1.72171e-13)
(978.474 0.0852309 1.73649e-13)
(978.424 0.126133 1.77286e-13)
(978.354 0.185886 1.74641e-13)
(978.58 7.15877e-07 1.90056e-13)
(978.58 9.79448e-07 1.9051e-13)
(978.58 1.34218e-06 1.89522e-13)
(978.58 1.84227e-06 1.8729e-13)
(978.58 2.53289e-06 1.87608e-13)
(978.58 3.48828e-06 1.89195e-13)
(978.58 4.81222e-06 1.86951e-13)
(978.58 6.65007e-06 1.82136e-13)
(978.58 9.20577e-06 1.85985e-13)
(978.58 1.27658e-05 1.86964e-13)
(978.58 1.77333e-05 1.84461e-13)
(978.58 2.46764e-05 1.87106e-13)
(978.58 3.43972e-05 1.82617e-13)
(978.58 4.80296e-05 1.80041e-13)
(978.58 6.71799e-05 1.81747e-13)
(978.58 9.41267e-05 1.80466e-13)
(978.58 0.000132108 1.78274e-13)
(978.58 0.000185734 1.81658e-13)
(978.58 0.000261576 1.83119e-13)
(978.579 0.000369017 1.86091e-13)
(978.579 0.000521471 1.85223e-13)
(978.579 0.000738155 1.81708e-13)
(978.579 0.00104663 1.84011e-13)
(978.578 0.00148651 1.8271e-13)
(978.577 0.00211477 1.80456e-13)
(978.576 0.00301355 1.83064e-13)
(978.574 0.00430139 1.78941e-13)
(978.572 0.00614964 1.81833e-13)
(978.569 0.00880637 1.82588e-13)
(978.564 0.0126312 1.80391e-13)
(978.557 0.0181465 1.82541e-13)
(978.547 0.026111 1.84077e-13)
(978.532 0.0376311 1.8221e-13)
(978.511 0.0543149 1.81781e-13)
(978.481 0.0785243 1.85558e-13)
(978.438 0.113665 1.85902e-13)
(978.374 0.164937 1.86474e-13)
(978.283 0.239157 1.87104e-13)
(978.146 0.352219 1.85998e-13)
(977.952 0.516309 1.85217e-13)
(978.58 2.21422e-06 2.03543e-13)
(978.58 3.0202e-06 2.032e-13)
(978.58 4.12654e-06 2.01672e-13)
(978.58 5.64779e-06 2.00236e-13)
(978.58 7.74312e-06 1.9875e-13)
(978.58 1.06341e-05 1.98756e-13)
(978.58 1.46296e-05 1.99486e-13)
(978.58 2.0161e-05 1.98157e-13)
(978.58 2.78314e-05 1.99362e-13)
(978.58 3.84859e-05 1.98332e-13)
(978.58 5.33104e-05 1.98079e-13)
(978.58 7.39721e-05 1.98482e-13)
(978.58 0.000102818 1.93831e-13)
(978.58 0.000143159 1.94049e-13)
(978.58 0.000199669 1.96171e-13)
(978.58 0.000278961 1.94957e-13)
(978.579 0.000390402 1.94404e-13)
(978.579 0.000547283 1.94662e-13)
(978.579 0.000768491 1.9397e-13)
(978.579 0.00108091 1.95534e-13)
(978.578 0.00152288 1.95068e-13)
(978.577 0.00214911 1.93391e-13)
(978.576 0.00303788 1.93663e-13)
(978.574 0.00430127 1.93641e-13)
(978.572 0.00610004 1.93741e-13)
(978.569 0.00866507 1.93186e-13)
(978.564 0.0123285 1.94138e-13)
(978.557 0.0175689 1.94374e-13)
(978.547 0.0250762 1.92011e-13)
(978.534 0.0358476 1.95047e-13)
(978.514 0.0513239 1.95573e-13)
(978.486 0.0735941 1.97578e-13)
(978.446 0.105682 1.93062e-13)
(978.388 0.151983 1.93704e-13)
(978.305 0.218877 1.9713e-13)
(978.185 0.315591 1.99344e-13)
(978.012 0.456013 1.98624e-13)
(977.763 0.658306 1.96753e-13)
(977.392 0.964228 1.9673e-13)
(976.871 1.40462 1.99567e-13)
(978.58 6.72619e-06 2.17132e-13)
(978.58 9.14932e-06 2.15715e-13)
(978.58 1.24668e-05 2.14999e-13)
(978.58 1.70162e-05 2.11995e-13)
(978.58 2.32657e-05 2.12399e-13)
(978.58 3.18649e-05 2.155e-13)
(978.58 4.37175e-05 2.13932e-13)
(978.58 6.0082e-05 2.10908e-13)
(978.58 8.27141e-05 2.12354e-13)
(978.58 0.000114067 2.12591e-13)
(978.58 0.000157573 2.11553e-13)
(978.58 0.000218042 2.10621e-13)
(978.58 0.000302225 2.06914e-13)
(978.579 0.000419614 2.08639e-13)
(978.579 0.000583573 2.10533e-13)
(978.579 0.00081295 2.07623e-13)
(978.578 0.00113437 2.09315e-13)
(978.578 0.00158551 2.11155e-13)
(978.577 0.00221975 2.08625e-13)
(978.576 0.00311283 2.07438e-13)
(978.574 0.00437238 2.06141e-13)
(978.572 0.0061516 2.04834e-13)
(978.568 0.0086688 2.087e-13)
(978.564 0.0122356 2.09264e-13)
(978.557 0.0172975 2.09656e-13)
(978.548 0.0244921 2.07383e-13)
(978.535 0.0347331 2.05035e-13)
(978.516 0.0493319 2.04681e-13)
(978.489 0.0701728 2.04417e-13)
(978.451 0.099966 2.0656e-13)
(978.397 0.142615 2.0599e-13)
(978.32 0.203738 2.05623e-13)
(978.211 0.291458 2.06976e-13)
(978.053 0.417444 2.07001e-13)
(977.828 0.598673 2.0503e-13)
(977.505 0.859183 2.07581e-13)
(977.04 1.23539 2.08195e-13)
(976.376 1.77385 2.06835e-13)
(975.395 2.58055 2.08694e-13)
(974.032 3.72845 2.10662e-13)
(978.58 2.00835e-05 2.33283e-13)
(978.58 2.72469e-05 2.30797e-13)
(978.58 3.70288e-05 2.28138e-13)
(978.58 5.04086e-05 2.26694e-13)
(978.58 6.87404e-05 2.26939e-13)
(978.58 9.3899e-05 2.25994e-13)
(978.58 0.000128483 2.26217e-13)
(978.58 0.000176103 2.25508e-13)
(978.58 0.000241776 2.26584e-13)
(978.58 0.000332498 2.22427e-13)
(978.579 0.000458026 2.20866e-13)
(978.579 0.000632 2.21626e-13)
(978.579 0.000873512 2.20831e-13)
(978.578 0.00120933 2.22854e-13)
(978.578 0.00167704 2.2273e-13)
(978.577 0.00232949 2.24795e-13)
(978.575 0.00324107 2.24444e-13)
(978.574 0.00451675 2.21635e-13)
(978.571 0.00630471 2.22071e-13)
(978.568 0.0088146 2.22147e-13)
(978.563 0.0123433 2.17817e-13)
(978.557 0.0173121 2.1849e-13)
(978.547 0.0243194 2.19234e-13)
(978.535 0.0342163 2.17811e-13)
(978.516 0.0482145 2.19481e-13)
(978.491 0.0680421 2.17572e-13)
(978.454 0.0961664 2.18056e-13)
(978.403 0.136112 2.17571e-13)
(978.331 0.192918 2.16278e-13)
(978.228 0.273799 2.18937e-13)
(978.082 0.389086 2.2027e-13)
(977.875 0.553578 2.20699e-13)
(977.581 0.788411 2.21302e-13)
(977.161 1.12392 2.17755e-13)
(976.563 1.60334 2.1855e-13)
(975.711 2.28826 2.21542e-13)
(974.495 3.26795 2.22308e-13)
(972.775 4.65759 2.21438e-13)
(970.271 6.7103 2.22581e-13)
(966.854 9.57796 2.24552e-13)
(978.58 4.36587e-05 2.47142e-13)
(978.58 5.89775e-05 2.47719e-13)
(978.58 7.98064e-05 2.43232e-13)
(978.58 0.000108174 2.42529e-13)
(978.58 0.000146872 2.42761e-13)
(978.58 0.000199749 2.39073e-13)
(978.58 0.000272119 2.41261e-13)
(978.579 0.000371332 2.37788e-13)
(978.579 0.000507567 2.36447e-13)
(978.579 0.000694946 2.37993e-13)
(978.579 0.000953089 2.35321e-13)
(978.578 0.00130929 2.33063e-13)
(978.577 0.0018016 2.33377e-13)
(978.576 0.00248307 2.3515e-13)
(978.575 0.00342789 2.34092e-13)
(978.573 0.0047399 2.34497e-13)
(978.571 0.00656463 2.36357e-13)
(978.567 0.00910644 2.32593e-13)
(978.563 0.0126526 2.31557e-13)
(978.556 0.0176074 2.32157e-13)
(978.547 0.0245414 2.31576e-13)
(978.534 0.0342592 2.30119e-13)
(978.516 0.0478981 2.31148e-13)
(978.491 0.0670677 2.28711e-13)
(978.455 0.0940487 2.28534e-13)
(978.406 0.132076 2.33139e-13)
(978.336 0.185737 2.31127e-13)
(978.239 0.261552 2.29558e-13)
(978.101 0.368791 2.29798e-13)
(977.908 0.520631 2.32286e-13)
(977.634 0.735783 2.31883e-13)
(977.248 1.04081 2.27929e-13)
(976.702 1.47343 2.32766e-13)
(975.93 2.08712 2.3475e-13)
(974.838 2.95674 2.3125e-13)
(973.297 4.18819 2.33059e-13)
(971.126 5.92615 2.35615e-13)
(968.068 8.38282 2.34872e-13)
(963.83 11.8009 2.34033e-13)
(957.821 16.7342 2.35539e-13)
(949.889 23.4035 2.34399e-13)
(978.58 0.000126419 2.63579e-13)
(978.58 0.000170335 2.60383e-13)
(978.58 0.000229893 2.54642e-13)
(978.58 0.000310797 2.55989e-13)
(978.579 0.00042088 2.55434e-13)
(978.579 0.000570906 2.52548e-13)
(978.579 0.000775698 2.51989e-13)
(978.578 0.00105569 2.50694e-13)
(978.578 0.00143912 2.5286e-13)
(978.577 0.00196501 2.52903e-13)
(978.576 0.00268744 2.48153e-13)
(978.575 0.00368142 2.47568e-13)
(978.573 0.00505121 2.48836e-13)
(978.57 0.00694189 2.48221e-13)
(978.567 0.00955556 2.46424e-13)
(978.562 0.0131742 2.47915e-13)
(978.555 0.018192 2.4784e-13)
(978.545 0.0251604 2.45259e-13)
(978.532 0.0348521 2.44356e-13)
(978.514 0.0483507 2.44164e-13)
(978.489 0.0671778 2.43727e-13)
(978.454 0.0934742 2.45055e-13)
(978.406 0.130254 2.40052e-13)
(978.338 0.181761 2.37194e-13)
(978.244 0.253978 2.44042e-13)
(978.112 0.355348 2.45668e-13)
(977.928 0.497794 2.4133e-13)
(977.67 0.698125 2.41461e-13)
(977.308 0.980012 2.41787e-13)
(976.801 1.37684 2.43154e-13)
(976.089 1.93561 2.41827e-13)
(975.089 2.72204 2.43881e-13)
(973.689 3.82744 2.46817e-13)
(971.729 5.37855 2.45714e-13)
(968.995 7.54991 2.47316e-13)
(965.2 10.5755 2.45787e-13)
(959.975 14.7609 2.44505e-13)
(952.844 20.512 2.47449e-13)
(943.282 28.2904 2.50314e-13)
(930.369 39.0005 2.46732e-13)
(914.224 52.7175 2.46125e-13)
(978.58 0.000268414 2.76469e-13)
(978.579 0.000360138 2.74757e-13)
(978.579 0.000484013 2.67272e-13)
(978.579 0.000651574 2.68759e-13)
(978.579 0.000878582 2.70718e-13)
(978.578 0.00118662 2.67102e-13)
(978.578 0.00160528 2.67172e-13)
(978.577 0.00217519 2.68061e-13)
(978.576 0.00295224 2.66013e-13)
(978.574 0.00401338 2.67995e-13)
(978.572 0.00546479 2.66784e-13)
(978.569 0.00745311 2.60916e-13)
(978.565 0.0101812 2.60987e-13)
(978.56 0.0139297 2.61065e-13)
(978.553 0.0190883 2.60551e-13)
(978.543 0.0261982 2.61686e-13)
(978.53 0.0360119 2.62062e-13)
(978.511 0.0495773 2.57048e-13)
(978.486 0.0683546 2.54052e-13)
(978.451 0.0943833 2.54648e-13)
(978.403 0.130514 2.5604e-13)
(978.336 0.180731 2.56588e-13)
(978.243 0.250608 2.54413e-13)
(978.115 0.347953 2.54162e-13)
(977.937 0.483715 2.56805e-13)
(977.689 0.673221 2.57714e-13)
(977.345 0.937907 2.56219e-13)
(976.866 1.30774 2.54875e-13)
(976.198 1.82469 2.54114e-13)
(975.268 2.54712 2.53648e-13)
(973.974 3.55559 2.56651e-13)
(972.176 4.96109 2.59224e-13)
(969.684 6.91569 2.54013e-13)
(966.245 9.62444 2.51465e-13)
(961.532 13.354 2.54295e-13)
(955.136 18.4474 2.55988e-13)
(946.55 25.3393 2.564e-13)
(935.203 34.528 2.57143e-13)
(920.472 46.5749 2.60988e-13)
(901.988 61.8573 2.60024e-13)
(878.447 81.7432 2.5708e-13)
(851.068 105.345 2.5752e-13)
(978.579 0.000564505 2.87497e-13)
(978.579 0.000754226 2.86002e-13)
(978.578 0.00100936 2.83922e-13)
(978.578 0.001353 2.84193e-13)
(978.577 0.00181661 2.84893e-13)
(978.576 0.00244307 2.82472e-13)
(978.575 0.00329093 2.81237e-13)
(978.573 0.00444022 2.82296e-13)
(978.571 0.00600052 2.81161e-13)
(978.568 0.00812213 2.80272e-13)
(978.564 0.0110113 2.80498e-13)
(978.558 0.0149517 2.76232e-13)
(978.551 0.0203336 2.73624e-13)
(978.541 0.0276958 2.74689e-13)
(978.526 0.0377821 2.74396e-13)
(978.507 0.0516203 2.7365e-13)
(978.481 0.0706322 2.73414e-13)
(978.445 0.0967889 2.6999e-13)
(978.396 0.132825 2.6796e-13)
(978.329 0.182539 2.67115e-13)
(978.237 0.251198 2.69745e-13)
(978.11 0.34613 2.71086e-13)
(977.935 0.477535 2.68316e-13)
(977.694 0.659603 2.66346e-13)
(977.361 0.912028 2.69071e-13)
(976.901 1.26213 2.68344e-13)
(976.265 1.7479 2.66715e-13)
(975.386 2.42189 2.65479e-13)
(974.17 3.35632 2.65543e-13)
(972.494 4.64962 2.6457e-13)
(970.187 6.43616 2.6635e-13)
(967.022 8.89697 2.69269e-13)
(962.707 12.2684 2.66415e-13)
(956.875 16.8514 2.63429e-13)
(949.079 23.0247 2.66657e-13)
(938.786 31.2482 2.6782e-13)
(925.441 42.0097 2.68239e-13)
(908.535 55.7827 2.70256e-13)
(887.608 73.0378 2.69261e-13)
(862.142 94.3081 2.69619e-13)
(832.307 119.486 2.6979e-13)
(797.645 149.18 2.67185e-13)
(760.676 180.989 2.68375e-13)
(978.578 0.00156466 3.0025e-13)
(978.577 0.00208522 3.01491e-13)
(978.576 0.00278352 3.01105e-13)
(978.574 0.00372167 2.98282e-13)
(978.572 0.00498397 2.95774e-13)
(978.57 0.00668506 2.94405e-13)
(978.567 0.00898102 2.95054e-13)
(978.562 0.0120846 2.94146e-13)
(978.556 0.016286 2.92011e-13)
(978.548 0.0219822 2.91846e-13)
(978.537 0.029717 2.90305e-13)
(978.522 0.0402359 2.87829e-13)
(978.502 0.0545612 2.89119e-13)
(978.475 0.0740968 2.87701e-13)
(978.438 0.100774 2.86828e-13)
(978.387 0.137256 2.86846e-13)
(978.319 0.187211 2.84306e-13)
(978.225 0.255693 2.85732e-13)
(978.098 0.349677 2.84398e-13)
(977.923 0.478804 2.82793e-13)
(977.684 0.6564 2.85844e-13)
(977.357 0.90082 2.84501e-13)
(976.909 1.23735 2.80632e-13)
(976.293 1.70084 2.79858e-13)
(975.449 2.33931 2.81437e-13)
(974.29 3.21831 2.81427e-13)
(972.703 4.42656 2.78564e-13)
(970.534 6.08423 2.76637e-13)
(967.577 8.35262 2.7804e-13)
(963.569 11.4436 2.8059e-13)