/*--------------------------------*- C++ -*----------------------------------*\
| =========                 |                                                 |
| \\      /  F ield         | OpenFOAM: The Open Source CFD Toolbox           |
|  \\    /   O peration     | Version:  v1706                                 |
|   \\  /    A nd           | Web:      www.OpenFOAM.com                      |
|    \\/     M anipulation  |                                                 |
\*---------------------------------------------------------------------------*/
FoamFile
{
    version     2.0;
    format      ascii;
    class       volScalarField;
    location    "3.7e-05";
    object      alpha;
}
// * * * * * * * * * * * * * * * * * * * * * * * * * * * * * * * * * * * * * //

dimensions      [1 -1 -1 0 0 0 0];


internalField   nonuniform List<scalar> 
30038
(
1.40478e-05
1.40478e-05
1.40478e-05
1.40478e-05
1.40478e-05
1.40478e-05
1.40478e-05
1.40478e-05
1.40478e-05
1.40478e-05
1.40478e-05
1.40478e-05
1.40478e-05
1.40478e-05
1.40478e-05
1.40478e-05
1.40478e-05
1.40478e-05
1.40478e-05
1.40478e-05
1.40478e-05
1.40478e-05
1.40478e-05
1.40478e-05
1.40478e-05
1.40478e-05
1.40478e-05
1.40478e-05
1.40478e-05
1.40478e-05
1.40478e-05
1.40478e-05
1.40478e-05
1.40478e-05
1.40478e-05
1.40478e-05
1.40478e-05
1.40478e-05
1.40478e-05
1.40478e-05
1.40478e-05
1.40478e-05
1.40478e-05
1.40478e-05
1.40478e-05
1.40478e-05
1.40478e-05
1.40478e-05
1.40478e-05
1.40478e-05
1.40478e-05
1.40478e-05
1.40478e-05
1.40478e-05
1.40478e-05
1.40478e-05
1.40478e-05
1.40478e-05
1.40478e-05
1.40478e-05
1.40478e-05
1.40478e-05
1.40478e-05
1.40478e-05
1.40478e-05
1.40478e-05
1.40478e-05
1.40478e-05
1.40478e-05
1.40478e-05
1.40478e-05
1.40478e-05
1.40478e-05
1.40478e-05
1.40478e-05
1.40478e-05
1.40478e-05
1.40478e-05
1.40478e-05
1.40478e-05
1.40478e-05
1.40478e-05
1.40478e-05
1.40478e-05
1.40478e-05
1.40478e-05
1.40478e-05
1.40478e-05
1.40478e-05
1.40478e-05
1.40478e-05
1.40478e-05
1.40478e-05
1.40478e-05
1.40478e-05
1.40478e-05
1.40478e-05
1.40478e-05
1.40478e-05
1.40478e-05
1.40478e-05
1.40478e-05
1.40478e-05
1.40478e-05
1.40478e-05
1.40478e-05
1.40478e-05
1.40478e-05
1.40478e-05
1.40478e-05
1.40478e-05
1.40478e-05
1.40478e-05
1.40478e-05
1.40478e-05
1.40478e-05
1.40478e-05
1.40478e-05
1.40478e-05
1.40478e-05
1.40478e-05
1.40478e-05
1.40478e-05
1.40478e-05
1.40478e-05
1.40478e-05
1.40478e-05
1.40478e-05
1.40478e-05
1.40478e-05
1.40478e-05
1.40478e-05
1.40478e-05
1.40478e-05
1.40478e-05
1.40478e-05
1.40478e-05
1.40478e-05
1.40478e-05
1.40478e-05
1.40478e-05
1.40478e-05
1.40478e-05
1.40478e-05
1.40478e-05
1.40478e-05
1.40478e-05
1.40478e-05
1.40478e-05
1.40478e-05
1.40478e-05
1.40478e-05
1.40478e-05
1.40478e-05
1.40478e-05
1.40478e-05
1.40478e-05
1.40478e-05
1.40478e-05
1.40478e-05
1.40478e-05
1.40478e-05
1.40478e-05
1.40478e-05
1.40478e-05
1.40478e-05
1.40478e-05
1.40478e-05
1.40478e-05
1.40478e-05
1.40478e-05
1.40478e-05
1.40478e-05
1.40478e-05
1.40478e-05
1.40478e-05
1.40478e-05
1.40478e-05
1.40478e-05
1.40478e-05
1.40478e-05
1.40478e-05
1.40478e-05
1.40478e-05
1.40478e-05
1.40478e-05
1.40478e-05
1.40478e-05
1.40478e-05
1.40478e-05
1.40478e-05
1.40478e-05
1.40478e-05
1.40478e-05
1.40478e-05
1.40478e-05
1.40478e-05
1.40478e-05
1.40478e-05
1.40478e-05
1.40478e-05
1.40478e-05
1.40478e-05
1.40478e-05
1.40478e-05
1.40478e-05
1.40478e-05
1.40478e-05
1.40478e-05
1.40478e-05
1.40478e-05
1.40478e-05
1.40478e-05
1.40478e-05
1.40478e-05
1.40478e-05
1.40478e-05
1.40478e-05
1.40478e-05
1.40478e-05
1.40478e-05
1.40478e-05
1.40478e-05
1.40478e-05
1.40478e-05
1.40478e-05
1.40478e-05
1.40478e-05
1.40478e-05
1.40478e-05
1.40478e-05
1.40478e-05
1.40478e-05
1.40478e-05
1.40478e-05
1.40478e-05
1.40478e-05
1.40478e-05
1.40478e-05
1.40478e-05
1.40478e-05
1.40478e-05
1.40478e-05
1.40478e-05
1.40478e-05
1.40478e-05
1.40478e-05
1.40478e-05
1.40478e-05
1.40478e-05
1.40478e-05
1.40478e-05
1.40478e-05
1.40478e-05
1.40478e-05
1.40478e-05
1.40478e-05
1.40478e-05
1.40478e-05
1.40478e-05
1.40478e-05
1.40478e-05
1.40478e-05
1.40478e-05
1.40478e-05
1.40478e-05
1.40478e-05
1.40478e-05
1.40478e-05
1.40478e-05
1.40478e-05
1.40478e-05
1.40478e-05
1.40478e-05
1.40478e-05
1.40478e-05
1.40478e-05
1.40478e-05
1.40478e-05
1.40478e-05
1.40478e-05
1.40478e-05
1.40478e-05
1.40478e-05
1.40478e-05
1.40478e-05
1.40478e-05
1.40478e-05
1.40478e-05
1.40478e-05
1.40478e-05
1.40478e-05
1.40478e-05
1.40478e-05
1.40478e-05
1.40478e-05
1.40478e-05
1.40478e-05
1.40478e-05
1.40478e-05
1.40478e-05
1.40478e-05
1.40478e-05
1.40478e-05
1.40478e-05
1.40478e-05
1.40478e-05
1.40478e-05
1.40478e-05
1.40478e-05
1.40478e-05
1.40478e-05
1.40478e-05
1.40478e-05
1.40478e-05
1.40478e-05
1.40478e-05
1.40478e-05
1.40478e-05
1.40478e-05
1.40478e-05
1.40478e-05
1.40478e-05
1.40478e-05
1.40478e-05
1.40478e-05
1.40478e-05
1.40478e-05
1.40478e-05
1.40478e-05
1.40478e-05
1.40478e-05
1.40478e-05
1.40478e-05
1.40478e-05
1.40478e-05
1.40478e-05
1.40478e-05
1.40478e-05
1.40478e-05
1.40478e-05
1.40478e-05
1.40478e-05
1.40478e-05
1.40478e-05
1.40478e-05
1.40478e-05
1.40478e-05
1.40478e-05
1.40478e-05
1.40478e-05
1.40478e-05
1.40478e-05
1.40478e-05
1.40478e-05
1.40478e-05
1.40478e-05
1.40478e-05
1.40478e-05
1.40478e-05
1.40478e-05
1.40478e-05
1.40478e-05
1.40478e-05
1.40478e-05
1.40478e-05
1.40478e-05
1.40478e-05
1.40478e-05
1.40478e-05
1.40478e-05
1.40478e-05
1.40478e-05
1.40478e-05
1.40478e-05
1.40478e-05
1.40478e-05
1.40478e-05
1.40478e-05
1.40478e-05
1.40478e-05
1.40478e-05
1.40478e-05
1.40478e-05
1.40478e-05
1.40478e-05
1.40478e-05
1.40478e-05
1.40478e-05
1.40478e-05
1.40478e-05
1.40478e-05
1.40478e-05
1.40478e-05
1.40478e-05
1.40478e-05
1.40478e-05
1.40478e-05
1.40478e-05
1.40478e-05
1.40478e-05
1.40478e-05
1.40478e-05
1.40478e-05
1.40478e-05
1.40478e-05
1.40478e-05
1.40478e-05
1.40478e-05
1.40478e-05
1.40478e-05
1.40478e-05
1.40478e-05
1.40478e-05
1.40478e-05
1.40478e-05
1.40478e-05
1.40478e-05
1.40479e-05
1.40479e-05
1.4048e-05
1.40478e-05
1.40478e-05
1.40478e-05
1.40478e-05
1.40478e-05
1.40478e-05
1.40478e-05
1.40478e-05
1.40478e-05
1.40478e-05
1.40478e-05
1.40478e-05
1.40478e-05
1.40478e-05
1.40478e-05
1.40478e-05
1.40478e-05
1.40478e-05
1.40478e-05
1.40478e-05
1.40478e-05
1.40478e-05
1.40478e-05
1.40478e-05
1.40478e-05
1.40478e-05
1.40478e-05
1.40478e-05
1.40478e-05
1.40478e-05
1.40478e-05
1.40478e-05
1.40478e-05
1.40478e-05
1.40479e-05
1.40479e-05
1.4048e-05
1.4048e-05
1.40481e-05
1.40483e-05
1.40478e-05
1.40478e-05
1.40478e-05
1.40478e-05
1.40478e-05
1.40478e-05
1.40478e-05
1.40478e-05
1.40478e-05
1.40478e-05
1.40478e-05
1.40478e-05
1.40478e-05
1.40478e-05
1.40478e-05
1.40478e-05
1.40478e-05
1.40478e-05
1.40478e-05
1.40478e-05
1.40478e-05
1.40478e-05
1.40478e-05
1.40478e-05
1.40478e-05
1.40478e-05
1.40478e-05
1.40478e-05
1.40478e-05
1.40478e-05
1.40478e-05
1.40479e-05
1.40479e-05
1.40479e-05
1.4048e-05
1.40481e-05
1.40483e-05
1.40485e-05
1.40488e-05
1.40493e-05
1.40478e-05
1.40478e-05
1.40478e-05
1.40478e-05
1.40478e-05
1.40478e-05
1.40478e-05
1.40478e-05
1.40478e-05
1.40478e-05
1.40478e-05
1.40478e-05
1.40478e-05
1.40478e-05
1.40478e-05
1.40478e-05
1.40478e-05
1.40478e-05
1.40478e-05
1.40478e-05
1.40478e-05
1.40478e-05
1.40478e-05
1.40478e-05
1.40478e-05
1.40478e-05
1.40478e-05
1.40478e-05
1.40479e-05
1.40479e-05
1.40479e-05
1.4048e-05
1.40481e-05
1.40482e-05
1.40485e-05
1.40487e-05
1.40492e-05
1.40498e-05
1.40507e-05
1.4052e-05
1.40478e-05
1.40478e-05
1.40478e-05
1.40478e-05
1.40478e-05
1.40478e-05
1.40478e-05
1.40478e-05
1.40478e-05
1.40478e-05
1.40478e-05
1.40478e-05
1.40478e-05
1.40478e-05
1.40478e-05
1.40478e-05
1.40478e-05
1.40478e-05
1.40478e-05
1.40478e-05
1.40478e-05
1.40478e-05
1.40478e-05
1.40478e-05
1.40478e-05
1.40479e-05
1.40479e-05
1.40479e-05
1.4048e-05
1.40481e-05
1.40482e-05
1.40484e-05
1.40487e-05
1.40491e-05
1.40497e-05
1.40505e-05
1.40517e-05
1.40534e-05
1.40559e-05
1.40597e-05
1.40478e-05
1.40478e-05
1.40478e-05
1.40478e-05
1.40478e-05
1.40478e-05
1.40478e-05
1.40478e-05
1.40478e-05
1.40478e-05
1.40478e-05
1.40478e-05
1.40478e-05
1.40478e-05
1.40478e-05
1.40478e-05
1.40478e-05
1.40478e-05
1.40478e-05
1.40478e-05
1.40478e-05
1.40478e-05
1.40479e-05
1.40479e-05
1.4048e-05
1.4048e-05
1.40481e-05
1.40482e-05
1.40484e-05
1.40487e-05
1.40491e-05
1.40496e-05
1.40504e-05
1.40515e-05
1.40531e-05
1.40553e-05
1.40586e-05
1.40633e-05
1.40702e-05
1.40803e-05
1.40478e-05
1.40478e-05
1.40478e-05
1.40478e-05
1.40478e-05
1.40478e-05
1.40478e-05
1.40478e-05
1.40478e-05
1.40478e-05
1.40478e-05
1.40478e-05
1.40478e-05
1.40478e-05
1.40478e-05
1.40478e-05
1.40478e-05
1.40478e-05
1.40479e-05
1.40479e-05
1.40479e-05
1.4048e-05
1.4048e-05
1.40481e-05
1.40482e-05
1.40484e-05
1.40487e-05
1.40491e-05
1.40496e-05
1.40503e-05
1.40514e-05
1.40529e-05
1.4055e-05
1.4058e-05
1.40623e-05
1.40685e-05
1.40773e-05
1.40901e-05
1.41084e-05
1.41352e-05
1.40478e-05
1.40478e-05
1.40478e-05
1.40478e-05
1.40478e-05
1.40478e-05
1.40478e-05
1.40478e-05
1.40478e-05
1.40478e-05
1.40478e-05
1.40478e-05
1.40478e-05
1.40478e-05
1.40478e-05
1.40479e-05
1.40479e-05
1.40479e-05
1.4048e-05
1.4048e-05
1.40481e-05
1.40483e-05
1.40485e-05
1.40487e-05
1.40491e-05
1.40496e-05
1.40503e-05
1.40513e-05
1.40527e-05
1.40548e-05
1.40576e-05
1.40616e-05
1.40674e-05
1.40755e-05
1.4087e-05
1.41035e-05
1.41269e-05
1.41604e-05
1.42083e-05
1.42771e-05
1.40478e-05
1.40478e-05
1.40478e-05
1.40478e-05
1.40478e-05
1.40478e-05
1.40478e-05
1.40478e-05
1.40478e-05
1.40478e-05
1.40478e-05
1.40478e-05
1.40478e-05
1.40479e-05
1.40479e-05
1.40479e-05
1.4048e-05
1.40481e-05
1.40482e-05
1.40483e-05
1.40485e-05
1.40487e-05
1.40491e-05
1.40496e-05
1.40503e-05
1.40513e-05
1.40527e-05
1.40547e-05
1.40574e-05
1.40612e-05
1.40666e-05
1.40742e-05
1.4085e-05
1.41001e-05
1.41215e-05
1.41517e-05
1.41945e-05
1.42548e-05
1.434e-05
1.446e-05
1.46287e-05
1.40478e-05
1.40478e-05
1.40478e-05
1.40478e-05
1.40478e-05
1.40478e-05
1.40478e-05
1.40478e-05
1.40478e-05
1.40479e-05
1.40479e-05
1.40479e-05
1.40479e-05
1.4048e-05
1.40481e-05
1.40482e-05
1.40483e-05
1.40485e-05
1.40488e-05
1.40492e-05
1.40497e-05
1.40504e-05
1.40514e-05
1.40528e-05
1.40547e-05
1.40573e-05
1.40611e-05
1.40663e-05
1.40735e-05
1.40836e-05
1.40978e-05
1.41178e-05
1.41457e-05
1.41848e-05
1.42396e-05
1.43163e-05
1.44233e-05
1.4572e-05
1.47772e-05
1.5058e-05
1.54374e-05
1.40478e-05
1.40478e-05
1.40478e-05
1.40478e-05
1.40478e-05
1.40478e-05
1.40478e-05
1.40479e-05
1.40479e-05
1.40479e-05
1.4048e-05
1.4048e-05
1.40481e-05
1.40482e-05
1.40484e-05
1.40486e-05
1.40489e-05
1.40492e-05
1.40498e-05
1.40505e-05
1.40515e-05
1.40529e-05
1.40548e-05
1.40575e-05
1.40611e-05
1.40662e-05
1.40732e-05
1.40829e-05
1.40965e-05
1.41153e-05
1.41415e-05
1.4178e-05
1.42288e-05
1.42993e-05
1.43969e-05
1.45316e-05
1.47164e-05
1.49677e-05
1.53054e-05
1.57525e-05
1.63324e-05
1.70647e-05
1.40478e-05
1.40478e-05
1.40478e-05
1.40478e-05
1.40479e-05
1.40479e-05
1.40479e-05
1.40479e-05
1.4048e-05
1.40481e-05
1.40481e-05
1.40483e-05
1.40484e-05
1.40486e-05
1.40489e-05
1.40494e-05
1.40499e-05
1.40507e-05
1.40517e-05
1.40531e-05
1.40551e-05
1.40577e-05
1.40614e-05
1.40664e-05
1.40733e-05
1.40828e-05
1.40959e-05
1.41141e-05
1.41391e-05
1.41737e-05
1.42214e-05
1.42873e-05
1.43779e-05
1.45021e-05
1.46716e-05
1.49009e-05
1.52078e-05
1.5613e-05
1.6138e-05
1.6803e-05
1.76231e-05
1.86027e-05
1.97288e-05
1.40478e-05
1.40479e-05
1.40479e-05
1.40479e-05
1.4048e-05
1.4048e-05
1.40481e-05
1.40482e-05
1.40483e-05
1.40485e-05
1.40487e-05
1.40491e-05
1.40495e-05
1.40501e-05
1.40509e-05
1.4052e-05
1.40534e-05
1.40554e-05
1.40582e-05
1.40619e-05
1.40669e-05
1.40738e-05
1.40832e-05
1.40962e-05
1.41139e-05
1.41381e-05
1.41714e-05
1.42171e-05
1.42796e-05
1.4365e-05
1.44813e-05
1.46391e-05
1.48515e-05
1.51347e-05
1.55076e-05
1.59902e-05
1.66019e-05
1.7358e-05
1.82654e-05
1.93186e-05
2.04964e-05
2.17611e-05
2.30635e-05
1.40479e-05
1.40479e-05
1.4048e-05
1.40481e-05
1.40481e-05
1.40482e-05
1.40484e-05
1.40486e-05
1.40489e-05
1.40492e-05
1.40497e-05
1.40503e-05
1.40512e-05
1.40523e-05
1.40539e-05
1.4056e-05
1.40588e-05
1.40626e-05
1.40678e-05
1.40748e-05
1.40843e-05
1.40972e-05
1.41147e-05
1.41386e-05
1.41712e-05
1.42155e-05
1.42757e-05
1.43574e-05
1.4468e-05
1.4617e-05
1.48166e-05
1.50815e-05
1.54289e-05
1.58778e-05
1.64467e-05
1.71511e-05
1.8e-05
1.89917e-05
2.01104e-05
2.13247e-05
2.25897e-05
2.38453e-05
2.50138e-05
2.60324e-05
1.4048e-05
1.40481e-05
1.40482e-05
1.40483e-05
1.40485e-05
1.40487e-05
1.4049e-05
1.40494e-05
1.40499e-05
1.40506e-05
1.40515e-05
1.40528e-05
1.40544e-05
1.40566e-05
1.40596e-05
1.40636e-05
1.4069e-05
1.40762e-05
1.40859e-05
1.4099e-05
1.41167e-05
1.41406e-05
1.41729e-05
1.42165e-05
1.42754e-05
1.43548e-05
1.44615e-05
1.46043e-05
1.47944e-05
1.50454e-05
1.53732e-05
1.57955e-05
1.63298e-05
1.69916e-05
1.77911e-05
1.87295e-05
1.9796e-05
2.09653e-05
2.21995e-05
2.34475e-05
2.46422e-05
2.57089e-05
2.65908e-05
2.72646e-05
2.77561e-05
1.40483e-05
1.40484e-05
1.40486e-05
1.40489e-05
1.40492e-05
1.40496e-05
1.40502e-05
1.4051e-05
1.4052e-05
1.40534e-05
1.40552e-05
1.40575e-05
1.40607e-05
1.40649e-05
1.40706e-05
1.40781e-05
1.40882e-05
1.41017e-05
1.41197e-05
1.4144e-05
1.41765e-05
1.42201e-05
1.42786e-05
1.43568e-05
1.44612e-05
1.46001e-05
1.47837e-05
1.50247e-05
1.5338e-05
1.57398e-05
1.62469e-05
1.68743e-05
1.76324e-05
1.85248e-05
1.95439e-05
2.06701e-05
2.18707e-05
2.31026e-05
2.43091e-05
2.54208e-05
2.63728e-05
2.71281e-05
2.76861e-05
2.80749e-05
2.83301e-05
2.84954e-05
1.40486e-05
1.40488e-05
1.40491e-05
1.40495e-05
1.405e-05
1.40506e-05
1.40515e-05
1.40526e-05
1.40541e-05
1.40561e-05
1.40587e-05
1.40621e-05
1.40666e-05
1.40727e-05
1.40806e-05
1.40912e-05
1.41053e-05
1.41241e-05
1.4149e-05
1.41822e-05
1.42265e-05
1.42853e-05
1.43635e-05
1.44672e-05
1.4604e-05
1.47838e-05
1.50183e-05
1.53214e-05
1.57082e-05
1.61946e-05
1.67948e-05
1.75194e-05
1.83729e-05
1.93507e-05
2.04367e-05
2.16029e-05
2.28124e-05
2.40168e-05
2.5155e-05
2.61615e-05
2.69881e-05
2.76198e-05
2.80723e-05
2.83787e-05
2.85759e-05
2.8698e-05
2.87695e-05
2.88107e-05
1.40498e-05
1.40504e-05
1.40511e-05
1.40521e-05
1.40534e-05
1.4055e-05
1.40572e-05
1.40601e-05
1.40639e-05
1.40688e-05
1.40753e-05
1.40839e-05
1.40952e-05
1.41101e-05
1.41298e-05
1.41559e-05
1.41903e-05
1.42358e-05
1.42959e-05
1.43752e-05
1.44795e-05
1.46162e-05
1.47946e-05
1.50257e-05
1.53225e-05
1.56992e-05
1.61707e-05
1.67504e-05
1.74487e-05
1.82704e-05
1.92126e-05
2.02623e-05
2.13957e-05
2.25796e-05
2.37728e-05
2.49223e-05
2.59663e-05
2.68507e-05
2.75482e-05
2.80631e-05
2.84215e-05
2.86583e-05
2.88077e-05
2.88972e-05
2.89474e-05
2.89739e-05
2.89837e-05
2.89837e-05
1.40509e-05
1.40517e-05
1.40529e-05
1.40543e-05
1.40562e-05
1.40587e-05
1.40619e-05
1.40661e-05
1.40716e-05
1.40787e-05
1.40881e-05
1.41003e-05
1.41163e-05
1.41373e-05
1.41649e-05
1.4201e-05
1.42485e-05
1.43107e-05
1.43921e-05
1.44985e-05
1.46369e-05
1.48162e-05
1.50468e-05
1.5341e-05
1.57121e-05
1.6174e-05
1.67392e-05
1.74177e-05
1.82142e-05
1.91271e-05
2.01454e-05
2.12482e-05
2.24058e-05
2.35824e-05
2.47318e-05
2.57982e-05
2.67261e-05
2.74792e-05
2.8051e-05
2.84599e-05
2.87369e-05
2.89158e-05
2.90256e-05
2.90892e-05
2.91234e-05
2.91388e-05
2.91381e-05
2.91351e-05
2.91276e-05
2.91134e-05
1.40556e-05
1.40578e-05
1.40606e-05
1.40642e-05
1.4069e-05
1.40751e-05
1.4083e-05
1.40933e-05
1.41067e-05
1.41241e-05
1.41468e-05
1.41764e-05
1.42149e-05
1.4265e-05
1.43303e-05
1.4415e-05
1.45249e-05
1.46668e-05
1.48493e-05
1.50822e-05
1.53773e-05
1.57469e-05
1.6204e-05
1.67604e-05
1.74251e-05
1.82027e-05
1.90919e-05
2.00836e-05
2.11589e-05
2.22912e-05
2.3448e-05
2.45896e-05
2.56662e-05
2.6624e-05
2.74213e-05
2.80426e-05
2.8498e-05
2.88142e-05
2.90229e-05
2.91543e-05
2.92321e-05
2.92752e-05
2.92963e-05
2.93004e-05
2.92964e-05
2.92895e-05
2.92763e-05
2.92573e-05
2.92348e-05
2.92098e-05
1.40672e-05
1.40726e-05
1.40795e-05
1.40884e-05
1.41e-05
1.41148e-05
1.4134e-05
1.41589e-05
1.4191e-05
1.42325e-05
1.42862e-05
1.43555e-05
1.44448e-05
1.45598e-05
1.47071e-05
1.4895e-05
1.51331e-05
1.54323e-05
1.58044e-05
1.62613e-05
1.68139e-05
1.74705e-05
1.8235e-05
1.91062e-05
2.00758e-05
2.1127e-05
2.22356e-05
2.33715e-05
2.45001e-05
2.55772e-05
2.65527e-05
2.73827e-05
2.80445e-05
2.85409e-05
2.88933e-05
2.9131e-05
2.92839e-05
2.93769e-05
2.94295e-05
2.94567e-05
2.94656e-05
2.94618e-05
2.94551e-05
2.94437e-05
2.94257e-05
2.94031e-05
2.93782e-05
2.93502e-05
2.93214e-05
2.92934e-05
1.40953e-05
1.41084e-05
1.41251e-05
1.41465e-05
1.4174e-05
1.42094e-05
1.42547e-05
1.43128e-05
1.43874e-05
1.44828e-05
1.46044e-05
1.47592e-05
1.49549e-05
1.52009e-05
1.55076e-05
1.5886e-05
1.6347e-05
1.69006e-05
1.75542e-05
1.83109e-05
1.91692e-05
2.01214e-05
2.11521e-05
2.22387e-05
2.33536e-05
2.44658e-05
2.55362e-05
2.65191e-05
2.73705e-05
2.80633e-05
2.85937e-05
2.89781e-05
2.92427e-05
2.94162e-05
2.95243e-05
2.95866e-05
2.96201e-05
2.96338e-05
2.9632e-05
2.96248e-05
2.96142e-05
2.95977e-05
2.95758e-05
2.95507e-05
2.95228e-05
2.94928e-05
2.94626e-05
2.94334e-05
2.94049e-05
2.9377e-05
1.41623e-05
1.41932e-05
1.42325e-05
1.42826e-05
1.43464e-05
1.44275e-05
1.45304e-05
1.46608e-05
1.48251e-05
1.50312e-05
1.52881e-05
1.56056e-05
1.5994e-05
1.64633e-05
1.70224e-05
1.76776e-05
1.84313e-05
1.92813e-05
2.02202e-05
2.12337e-05
2.23003e-05
2.33945e-05
2.4488e-05
2.55465e-05
2.65283e-05
2.73911e-05
2.8105e-05
2.86617e-05
2.90725e-05
2.93605e-05
2.95529e-05
2.96752e-05
2.97475e-05
2.9787e-05
2.98056e-05
2.98059e-05
2.97989e-05
2.97878e-05
2.97727e-05
2.97513e-05
2.97261e-05
2.96989e-05
2.96686e-05
2.96372e-05
2.96063e-05
2.9576e-05
2.9546e-05
2.95167e-05
2.94882e-05
2.94602e-05
1.43176e-05
1.43884e-05
1.44776e-05
1.459e-05
1.47311e-05
1.49075e-05
1.51268e-05
1.53976e-05
1.57293e-05
1.61314e-05
1.66129e-05
1.71817e-05
1.78429e-05
1.85978e-05
1.94437e-05
2.03729e-05
2.13719e-05
2.24204e-05
2.34944e-05
2.45678e-05
2.56104e-05
2.65841e-05
2.74492e-05
2.81749e-05
2.87495e-05
2.91803e-05
2.94875e-05
2.96961e-05
2.98309e-05
2.99126e-05
2.99582e-05
2.99804e-05
2.9984e-05
2.99775e-05
2.99659e-05
2.9951e-05
2.99306e-05
2.99054e-05
2.98778e-05
2.98476e-05
2.98153e-05
2.97829e-05
2.97513e-05
2.972e-05
2.9689e-05
2.96587e-05
2.96288e-05
2.95992e-05
2.95703e-05
2.95419e-05
1.46642e-05
1.48185e-05
1.50096e-05
1.52451e-05
1.55331e-05
1.58825e-05
1.6302e-05
1.67996e-05
1.7382e-05
1.8053e-05
1.88129e-05
1.96581e-05
2.05807e-05
2.15675e-05
2.25992e-05
2.36534e-05
2.47057e-05
2.57289e-05
2.66888e-05
2.75483e-05
2.82771e-05
2.88614e-05
2.93054e-05
2.96265e-05
2.98478e-05
2.99931e-05
3.00828e-05
3.01337e-05
3.01591e-05
3.01659e-05
3.01605e-05
3.01481e-05
3.01324e-05
3.01131e-05
3.00879e-05
3.006e-05
3.00302e-05
2.99974e-05
2.99638e-05
2.99306e-05
2.98979e-05
2.98654e-05
2.98336e-05
2.98021e-05
2.9771e-05
2.97403e-05
2.971e-05
2.968e-05
2.96506e-05
2.96216e-05
1.53906e-05
1.56993e-05
1.607e-05
1.65106e-05
1.70279e-05
1.76273e-05
1.83115e-05
1.90795e-05
1.99267e-05
2.0845e-05
2.18215e-05
2.28375e-05
2.38716e-05
2.49016e-05
2.59027e-05
2.68438e-05
2.76908e-05
2.84145e-05
2.90004e-05
2.94506e-05
2.97801e-05
3.00101e-05
3.01631e-05
3.02591e-05
3.03145e-05
3.03427e-05
3.03518e-05
3.0347e-05
3.03343e-05
3.03182e-05
3.02991e-05
3.02739e-05
3.02455e-05
3.02155e-05
3.01826e-05
3.0148e-05
3.01136e-05
3.00796e-05
3.00458e-05
3.00124e-05
2.99796e-05
2.9947e-05
2.99147e-05
2.98829e-05
2.98513e-05
2.982e-05
2.97892e-05
2.97586e-05
2.97287e-05
2.96992e-05
1.67626e-05
1.7303e-05
1.79226e-05
1.86226e-05
1.9401e-05
2.02522e-05
2.11678e-05
2.21348e-05
2.31353e-05
2.4149e-05
2.51552e-05
2.61315e-05
2.70495e-05
2.78777e-05
2.8589e-05
2.91688e-05
2.96181e-05
2.99503e-05
3.01846e-05
3.03423e-05
3.04424e-05
3.05009e-05
3.05314e-05
3.05419e-05
3.05378e-05
3.05254e-05
3.05079e-05
3.04882e-05
3.04636e-05
3.04347e-05
3.04041e-05
3.03711e-05
3.03358e-05
3.03002e-05
3.02649e-05
3.02299e-05
3.01951e-05
3.01608e-05
3.01269e-05
3.00932e-05
3.00598e-05
3.00268e-05
2.9994e-05
2.99616e-05
2.99294e-05
2.98976e-05
2.98662e-05
2.98351e-05
2.98046e-05
2.97746e-05
1.89911e-05
1.97813e-05
2.06376e-05
2.15511e-05
2.25088e-05
2.34932e-05
2.44852e-05
2.54659e-05
2.64146e-05
2.73054e-05
2.81093e-05
2.88012e-05
2.93677e-05
2.98095e-05
3.01385e-05
3.03726e-05
3.05316e-05
3.06334e-05
3.06936e-05
3.07252e-05
3.07364e-05
3.07327e-05
3.07204e-05
3.07017e-05
3.06807e-05
3.06565e-05
3.0627e-05
3.05958e-05
3.05628e-05
3.0527e-05
3.04902e-05
3.04538e-05
3.04175e-05
3.03814e-05
3.03457e-05
3.03104e-05
3.02754e-05
3.02407e-05
3.02062e-05
3.0172e-05
3.01381e-05
3.01045e-05
3.00711e-05
3.0038e-05
3.00053e-05
2.99729e-05
2.99409e-05
2.99093e-05
2.98783e-05
2.98478e-05
2.19967e-05
2.29442e-05
2.39111e-05
2.48796e-05
2.58325e-05
2.67508e-05
2.76103e-05
2.83844e-05
2.90507e-05
2.95973e-05
3.00252e-05
3.03456e-05
3.0575e-05
3.07318e-05
3.08329e-05
3.08931e-05
3.09246e-05
3.09357e-05
3.09319e-05
3.09191e-05
3.08993e-05
3.08775e-05
3.08529e-05
3.08227e-05
3.07906e-05
3.07572e-05
3.07211e-05
3.06834e-05
3.06458e-05
3.06085e-05
3.05712e-05
3.05342e-05
3.04976e-05
3.04613e-05
3.04252e-05
3.03894e-05
3.03538e-05
3.03185e-05
3.02835e-05
3.02487e-05
3.02141e-05
3.01798e-05
3.01458e-05
3.01122e-05
3.00789e-05
3.00459e-05
3.00134e-05
2.99813e-05
2.99498e-05
2.99187e-05
2.53312e-05
2.62536e-05
2.7138e-05
2.79619e-05
2.87012e-05
2.9336e-05
2.98566e-05
3.02648e-05
3.05714e-05
3.07919e-05
3.09432e-05
3.10411e-05
3.10994e-05
3.11298e-05
3.114e-05
3.11356e-05
3.11218e-05
3.11011e-05
3.10778e-05
3.10521e-05
3.10221e-05
3.09889e-05
3.09548e-05
3.09183e-05
3.08798e-05
3.08411e-05
3.08026e-05
3.07643e-05
3.07259e-05
3.06881e-05
3.06505e-05
3.06132e-05
3.05761e-05
3.05393e-05
3.05026e-05
3.04662e-05
3.043e-05
3.0394e-05
3.03583e-05
3.03229e-05
3.02877e-05
3.02528e-05
3.02182e-05
3.0184e-05
3.01501e-05
3.01166e-05
3.00836e-05
3.00509e-05
3.0019e-05
2.99875e-05
2.83573e-05
2.90567e-05
2.96546e-05
3.01437e-05
3.05271e-05
3.08153e-05
3.10229e-05
3.11657e-05
3.1258e-05
3.13128e-05
3.13408e-05
3.13491e-05
3.13436e-05
3.13287e-05
3.13069e-05
3.12818e-05
3.12549e-05
3.12245e-05
3.11904e-05
3.11553e-05
3.11185e-05
3.10792e-05
3.10394e-05
3.09999e-05
3.09604e-05
3.09209e-05
3.08818e-05
3.08431e-05
3.08045e-05
3.07662e-05
3.07281e-05
3.06902e-05
3.06525e-05
3.0615e-05
3.05777e-05
3.05406e-05
3.05038e-05
3.04671e-05
3.04308e-05
3.03947e-05
3.03589e-05
3.03234e-05
3.02883e-05
3.02535e-05
3.0219e-05
3.0185e-05
3.01514e-05
3.01183e-05
3.00859e-05
3.00539e-05
3.04556e-05
3.08097e-05
3.10757e-05
3.12672e-05
3.13988e-05
3.14832e-05
3.15329e-05
3.15576e-05
3.15628e-05
3.15558e-05
3.15394e-05
3.1516e-05
3.14894e-05
3.14612e-05
3.143e-05
3.13947e-05
3.13587e-05
3.13213e-05
3.12815e-05
3.12407e-05
3.12001e-05
3.11596e-05
3.1119e-05
3.10787e-05
3.10388e-05
3.0999e-05
3.09595e-05
3.09202e-05
3.0881e-05
3.08421e-05
3.08033e-05
3.07648e-05
3.07264e-05
3.06882e-05
3.06503e-05
3.06126e-05
3.05751e-05
3.05378e-05
3.05008e-05
3.04641e-05
3.04277e-05
3.03916e-05
3.03559e-05
3.03205e-05
3.02856e-05
3.0251e-05
3.02169e-05
3.01833e-05
3.01504e-05
3.0118e-05
3.15232e-05
3.16412e-05
3.17162e-05
3.17596e-05
3.17798e-05
3.17811e-05
3.17721e-05
3.17537e-05
3.17284e-05
3.17004e-05
3.16709e-05
3.16382e-05
3.16023e-05
3.15651e-05
3.15269e-05
3.14863e-05
3.14446e-05
3.1403e-05
3.13615e-05
3.13199e-05
3.12785e-05
3.12375e-05
3.11966e-05
3.11558e-05
3.11154e-05
3.10751e-05
3.10349e-05
3.0995e-05
3.09552e-05
3.09156e-05
3.08761e-05
3.08369e-05
3.07979e-05
3.0759e-05
3.07204e-05
3.0682e-05
3.06439e-05
3.0606e-05
3.05684e-05
3.05311e-05
3.04941e-05
3.04574e-05
3.04211e-05
3.03852e-05
3.03497e-05
3.03146e-05
3.02801e-05
3.0246e-05
3.02126e-05
3.01797e-05
3.19561e-05
3.19918e-05
3.20063e-05
3.2004e-05
3.19923e-05
3.19715e-05
3.19441e-05
3.19146e-05
3.18836e-05
3.18493e-05
3.18126e-05
3.17742e-05
3.17349e-05
3.16938e-05
3.16512e-05
3.16086e-05
3.15662e-05
3.15236e-05
3.1481e-05
3.14389e-05
3.13969e-05
3.13551e-05
3.13135e-05
3.12721e-05
3.12308e-05
3.11897e-05
3.11487e-05
3.11079e-05
3.10673e-05
3.10268e-05
3.09865e-05
3.09464e-05
3.09065e-05
3.08668e-05
3.08273e-05
3.07881e-05
3.0749e-05
3.07103e-05
3.06718e-05
3.06335e-05
3.05956e-05
3.0558e-05
3.05208e-05
3.04839e-05
3.04475e-05
3.04114e-05
3.03759e-05
3.03408e-05
3.03062e-05
3.02724e-05
3.02391e-05
3.22312e-05
3.22158e-05
3.21922e-05
3.21629e-05
3.21317e-05
3.20992e-05
3.20632e-05
3.20256e-05
3.19861e-05
3.19455e-05
3.19037e-05
3.18603e-05
3.18167e-05
3.17733e-05
3.17298e-05
3.16862e-05
3.1643e-05
3.16e-05
3.1557e-05
3.15143e-05
3.14719e-05
3.14295e-05
3.13873e-05
3.13452e-05
3.13032e-05
3.12615e-05
3.12198e-05
3.11784e-05
3.11371e-05
3.10959e-05
3.1055e-05
3.10142e-05
3.09736e-05
3.09333e-05
3.08931e-05
3.08532e-05
3.08135e-05
3.07741e-05
3.0735e-05
3.06962e-05
3.06577e-05
3.06195e-05
3.05817e-05
3.05443e-05
3.05073e-05
3.04707e-05
3.04346e-05
3.03991e-05
3.03641e-05
3.03298e-05
3.02961e-05
3.24157e-05
3.23845e-05
3.23516e-05
3.23173e-05
3.22798e-05
3.22407e-05
3.22005e-05
3.21587e-05
3.21159e-05
3.20717e-05
3.20271e-05
3.19828e-05
3.19384e-05
3.18938e-05
3.18496e-05
3.18056e-05
3.17616e-05
3.17178e-05
3.16743e-05
3.16309e-05
3.15876e-05
3.15444e-05
3.15014e-05
3.14585e-05
3.14158e-05
3.13732e-05
3.13307e-05
3.12884e-05
3.12463e-05
3.12043e-05
3.11625e-05
3.11208e-05
3.10794e-05
3.10382e-05
3.09972e-05
3.09564e-05
3.09158e-05
3.08755e-05
3.08355e-05
3.07958e-05
3.07564e-05
3.07173e-05
3.06785e-05
3.06401e-05
3.06021e-05
3.05646e-05
3.05275e-05
3.04909e-05
3.04549e-05
3.04194e-05
3.03847e-05
3.03505e-05
3.25377e-05
3.24986e-05
3.24583e-05
3.2417e-05
3.2374e-05
3.23301e-05
3.22853e-05
3.22398e-05
3.21945e-05
3.21492e-05
3.21037e-05
3.20585e-05
3.20135e-05
3.19686e-05
3.19238e-05
3.18793e-05
3.18348e-05
3.17904e-05
3.17462e-05
3.17022e-05
3.16582e-05
3.16144e-05
3.15708e-05
3.15272e-05
3.14838e-05
3.14405e-05
3.13974e-05
3.13544e-05
3.13116e-05
3.12689e-05
3.12265e-05
3.11842e-05
3.11421e-05
3.11002e-05
3.10586e-05
3.10171e-05
3.0976e-05
3.0935e-05
3.08944e-05
3.0854e-05
3.0814e-05
3.07743e-05
3.0735e-05
3.0696e-05
3.06575e-05
3.06194e-05
3.05818e-05
3.05447e-05
3.05082e-05
3.04723e-05
3.04371e-05
3.04025e-05
3.26354e-05
3.25915e-05
3.25465e-05
3.25007e-05
3.24544e-05
3.24081e-05
3.2362e-05
3.23157e-05
3.22695e-05
3.22237e-05
3.21778e-05
3.2132e-05
3.20865e-05
3.20411e-05
3.19957e-05
3.19505e-05
3.19055e-05
3.18605e-05
3.18157e-05
3.17709e-05
3.17263e-05
3.16819e-05
3.16375e-05
3.15933e-05
3.15492e-05
3.15053e-05
3.14615e-05
3.14178e-05
3.13744e-05
3.13311e-05
3.12879e-05
3.1245e-05
3.12022e-05
3.11597e-05
3.11174e-05
3.10753e-05
3.10335e-05
3.0992e-05
3.09507e-05
3.09097e-05
3.08691e-05
3.08288e-05
3.07889e-05
3.07494e-05
3.07103e-05
3.06717e-05
3.06335e-05
3.05959e-05
3.05589e-05
3.05225e-05
3.04869e-05
3.04519e-05
3.27179e-05
3.26708e-05
3.26236e-05
3.25767e-05
3.25295e-05
3.24824e-05
3.24357e-05
3.2389e-05
3.23423e-05
3.22959e-05
3.22495e-05
3.22032e-05
3.21571e-05
3.21111e-05
3.20651e-05
3.20193e-05
3.19736e-05
3.1928e-05
3.18825e-05
3.18371e-05
3.17918e-05
3.17467e-05
3.17017e-05
3.16568e-05
3.16121e-05
3.15675e-05
3.1523e-05
3.14787e-05
3.14346e-05
3.13906e-05
3.13468e-05
3.13032e-05
3.12598e-05
3.12167e-05
3.11737e-05
3.1131e-05
3.10885e-05
3.10464e-05
3.10045e-05
3.09629e-05
3.09216e-05
3.08808e-05
3.08403e-05
3.08002e-05
3.07605e-05
3.07213e-05
3.06827e-05
3.06446e-05
3.06071e-05
3.05702e-05
3.05341e-05
3.04987e-05
3.2793e-05
3.27451e-05
3.26971e-05
3.26495e-05
3.2602e-05
3.25544e-05
3.25071e-05
3.24599e-05
3.24127e-05
3.23657e-05
3.23187e-05
3.22719e-05
3.22251e-05
3.21785e-05
3.21319e-05
3.20854e-05
3.20391e-05
3.19928e-05
3.19467e-05
3.19007e-05
3.18547e-05
3.1809e-05
3.17633e-05
3.17177e-05
3.16723e-05
3.16271e-05
3.1582e-05
3.1537e-05
3.14922e-05
3.14476e-05
3.14031e-05
3.13589e-05
3.13149e-05
3.1271e-05
3.12274e-05
3.11841e-05
3.1141e-05
3.10982e-05
3.10556e-05
3.10134e-05
3.09716e-05
3.09301e-05
3.0889e-05
3.08483e-05
3.08081e-05
3.07684e-05
3.07292e-05
3.06906e-05
3.06526e-05
3.06152e-05
3.05787e-05
3.05428e-05
3.2865e-05
3.28167e-05
3.27683e-05
3.27201e-05
3.26721e-05
3.2624e-05
3.25761e-05
3.25283e-05
3.24806e-05
3.2433e-05
3.23854e-05
3.23379e-05
3.22906e-05
3.22433e-05
3.21961e-05
3.2149e-05
3.2102e-05
3.20551e-05
3.20083e-05
3.19616e-05
3.19151e-05
3.18686e-05
3.18223e-05
3.17761e-05
3.173e-05
3.16841e-05
3.16383e-05
3.15927e-05
3.15473e-05
3.1502e-05
3.14569e-05
3.1412e-05
3.13673e-05
3.13228e-05
3.12785e-05
3.12345e-05
3.11908e-05
3.11473e-05
3.11042e-05
3.10613e-05
3.10188e-05
3.09767e-05
3.0935e-05
3.08938e-05
3.0853e-05
3.08127e-05
3.0773e-05
3.07338e-05
3.06953e-05
3.06575e-05
3.06205e-05
3.05841e-05
3.29346e-05
3.28858e-05
3.2837e-05
3.27882e-05
3.27396e-05
3.26911e-05
3.26426e-05
3.25942e-05
3.25459e-05
3.24976e-05
3.24495e-05
3.24014e-05
3.23534e-05
3.23055e-05
3.22577e-05
3.22099e-05
3.21623e-05
3.21148e-05
3.20673e-05
3.202e-05
3.19728e-05
3.19257e-05
3.18787e-05
3.18319e-05
3.17852e-05
3.17386e-05
3.16921e-05
3.16458e-05
3.15997e-05
3.15538e-05
3.1508e-05
3.14624e-05
3.1417e-05
3.13719e-05
3.1327e-05
3.12823e-05
3.12379e-05
3.11938e-05
3.115e-05
3.11065e-05
3.10634e-05
3.10207e-05
3.09784e-05
3.09365e-05
3.08952e-05
3.08543e-05
3.0814e-05
3.07743e-05
3.07353e-05
3.0697e-05
3.06595e-05
3.06227e-05
3.29525e-05
3.29031e-05
3.28538e-05
3.28047e-05
3.27555e-05
3.27065e-05
3.26575e-05
3.26086e-05
3.25597e-05
3.2511e-05
3.24623e-05
3.24136e-05
3.23651e-05
3.23167e-05
3.22683e-05
3.222e-05
3.21719e-05
3.21238e-05
3.20758e-05
3.2028e-05
3.19802e-05
3.19326e-05
3.18851e-05
3.18377e-05
3.17904e-05
3.17433e-05
3.16963e-05
3.16495e-05
3.16029e-05
3.15565e-05
3.15102e-05
3.14642e-05
3.14183e-05
3.13727e-05
3.13274e-05
3.12823e-05
3.12376e-05
3.11931e-05
3.1149e-05
3.11052e-05
3.10619e-05
3.1019e-05
3.09765e-05
3.09345e-05
3.08931e-05
3.08522e-05
3.0812e-05
3.07724e-05
3.07336e-05
3.06956e-05
3.06583e-05
3.30166e-05
3.29667e-05
3.29168e-05
3.28671e-05
3.28174e-05
3.27677e-05
3.27182e-05
3.26687e-05
3.26192e-05
3.25698e-05
3.25205e-05
3.24713e-05
3.24222e-05
3.23731e-05
3.23241e-05
3.22752e-05
3.22264e-05
3.21777e-05
3.2129e-05
3.20805e-05
3.20321e-05
3.19838e-05
3.19356e-05
3.18875e-05
3.18396e-05
3.17918e-05
3.17442e-05
3.16967e-05
3.16494e-05
3.16022e-05
3.15553e-05
3.15086e-05
3.14621e-05
3.14158e-05
3.13698e-05
3.1324e-05
3.12786e-05