/*--------------------------------*- C++ -*----------------------------------*\
| =========                 |                                                 |
| \\      /  F ield         | OpenFOAM: The Open Source CFD Toolbox           |
|  \\    /   O peration     | Version:  v1706                                 |
|   \\  /    A nd           | Web:      www.OpenFOAM.com                      |
|    \\/     M anipulation  |                                                 |
\*---------------------------------------------------------------------------*/
FoamFile
{
    version     2.0;
    format      ascii;
    class       volScalarField;
    location    "3.7e-05";
    object      Mach;
}
// * * * * * * * * * * * * * * * * * * * * * * * * * * * * * * * * * * * * * //

dimensions      [0 0 0 0 0 0 0];


internalField   nonuniform List<scalar> 
30038
(
3.99498
3.99498
3.99498
3.99498
3.99498
3.99498
3.99498
3.99498
3.99498
3.99498
3.99498
3.99498
3.99498
3.99498
3.99498
3.99498
3.99498
3.99498
3.99498
3.99498
3.99498
3.99498
3.99498
3.99498
3.99498
3.99498
3.99498
3.99498
3.99498
3.99498
3.99498
3.99498
3.99498
3.99498
3.99498
3.99498
3.99498
3.99498
3.99498
3.99498
3.99498
3.99498
3.99498
3.99498
3.99498
3.99498
3.99498
3.99498
3.99498
3.99498
3.99498
3.99498
3.99498
3.99498
3.99498
3.99498
3.99498
3.99498
3.99498
3.99498
3.99498
3.99498
3.99498
3.99498
3.99498
3.99498
3.99498
3.99498
3.99498
3.99498
3.99498
3.99498
3.99498
3.99498
3.99498
3.99498
3.99498
3.99498
3.99498
3.99498
3.99498
3.99498
3.99498
3.99498
3.99498
3.99498
3.99498
3.99498
3.99498
3.99498
3.99498
3.99498
3.99498
3.99498
3.99498
3.99498
3.99498
3.99498
3.99498
3.99498
3.99498
3.99498
3.99498
3.99498
3.99498
3.99498
3.99498
3.99498
3.99498
3.99498
3.99498
3.99498
3.99498
3.99498
3.99498
3.99498
3.99498
3.99498
3.99498
3.99498
3.99498
3.99498
3.99498
3.99498
3.99498
3.99498
3.99498
3.99498
3.99498
3.99498
3.99498
3.99498
3.99498
3.99498
3.99498
3.99498
3.99498
3.99498
3.99498
3.99498
3.99498
3.99498
3.99498
3.99498
3.99498
3.99498
3.99498
3.99498
3.99498
3.99498
3.99498
3.99498
3.99498
3.99498
3.99498
3.99498
3.99498
3.99498
3.99498
3.99498
3.99498
3.99498
3.99498
3.99498
3.99498
3.99498
3.99498
3.99498
3.99498
3.99498
3.99498
3.99498
3.99498
3.99498
3.99498
3.99498
3.99498
3.99498
3.99498
3.99498
3.99498
3.99498
3.99498
3.99498
3.99498
3.99498
3.99498
3.99498
3.99498
3.99498
3.99498
3.99498
3.99498
3.99498
3.99498
3.99498
3.99498
3.99498
3.99498
3.99498
3.99498
3.99498
3.99498
3.99498
3.99498
3.99498
3.99498
3.99498
3.99498
3.99498
3.99498
3.99498
3.99498
3.99498
3.99498
3.99498
3.99498
3.99498
3.99498
3.99498
3.99498
3.99498
3.99498
3.99498
3.99498
3.99498
3.99498
3.99498
3.99498
3.99498
3.99498
3.99498
3.99498
3.99498
3.99498
3.99498
3.99498
3.99498
3.99498
3.99498
3.99498
3.99498
3.99498
3.99498
3.99498
3.99498
3.99498
3.99498
3.99498
3.99498
3.99498
3.99498
3.99498
3.99498
3.99498
3.99498
3.99498
3.99498
3.99498
3.99498
3.99498
3.99498
3.99498
3.99498
3.99498
3.99498
3.99498
3.99498
3.99498
3.99498
3.99498
3.99498
3.99498
3.99498
3.99498
3.99498
3.99498
3.99498
3.99498
3.99498
3.99498
3.99498
3.99498
3.99498
3.99498
3.99498
3.99498
3.99498
3.99498
3.99498
3.99498
3.99498
3.99498
3.99498
3.99498
3.99498
3.99498
3.99498
3.99498
3.99498
3.99498
3.99498
3.99498
3.99498
3.99498
3.99498
3.99498
3.99498
3.99498
3.99498
3.99498
3.99498
3.99498
3.99498
3.99498
3.99498
3.99498
3.99498
3.99498
3.99498
3.99498
3.99498
3.99498
3.99498
3.99498
3.99498
3.99498
3.99498
3.99498
3.99498
3.99498
3.99498
3.99498
3.99498
3.99498
3.99498
3.99498
3.99498
3.99498
3.99498
3.99498
3.99497
3.99497
3.99498
3.99498
3.99498
3.99498
3.99498
3.99498
3.99498
3.99498
3.99498
3.99498
3.99498
3.99498
3.99498
3.99498
3.99498
3.99498
3.99498
3.99498
3.99498
3.99498
3.99498
3.99498
3.99498
3.99498
3.99498
3.99498
3.99498
3.99498
3.99498
3.99498
3.99498
3.99498
3.99498
3.99498
3.99497
3.99497
3.99497
3.99497
3.99496
3.99498
3.99498
3.99498
3.99498
3.99498
3.99498
3.99498
3.99498
3.99498
3.99498
3.99498
3.99498
3.99498
3.99498
3.99498
3.99498
3.99498
3.99498
3.99498
3.99498
3.99498
3.99498
3.99498
3.99498
3.99498
3.99498
3.99498
3.99498
3.99498
3.99498
3.99498
3.99497
3.99497
3.99497
3.99497
3.99496
3.99496
3.99495
3.99493
3.99498
3.99498
3.99498
3.99498
3.99498
3.99498
3.99498
3.99498
3.99498
3.99498
3.99498
3.99498
3.99498
3.99498
3.99498
3.99498
3.99498
3.99498
3.99498
3.99498
3.99498
3.99498
3.99498
3.99498
3.99498
3.99498
3.99498
3.99498
3.99498
3.99497
3.99497
3.99497
3.99497
3.99496
3.99496
3.99495
3.99494
3.99492
3.99489
3.99484
3.99498
3.99498
3.99498
3.99498
3.99498
3.99498
3.99498
3.99498
3.99498
3.99498
3.99498
3.99498
3.99498
3.99498
3.99498
3.99498
3.99498
3.99498
3.99498
3.99498
3.99498
3.99498
3.99498
3.99498
3.99498
3.99498
3.99497
3.99497
3.99497
3.99497
3.99496
3.99496
3.99495
3.99494
3.99492
3.99489
3.99485
3.9948
3.99471
3.99459
3.99498
3.99498
3.99498
3.99498
3.99498
3.99498
3.99498
3.99498
3.99498
3.99498
3.99498
3.99498
3.99498
3.99498
3.99498
3.99498
3.99498
3.99498
3.99498
3.99498
3.99498
3.99498
3.99498
3.99497
3.99497
3.99497
3.99497
3.99496
3.99496
3.99495
3.99494
3.99492
3.99489
3.99486
3.99481
3.99473
3.99462
3.99446
3.99423
3.99388
3.99498
3.99498
3.99498
3.99498
3.99498
3.99498
3.99498
3.99498
3.99498
3.99498
3.99498
3.99498
3.99498
3.99498
3.99498
3.99498
3.99498
3.99498
3.99498
3.99497
3.99497
3.99497
3.99497
3.99497
3.99496
3.99496
3.99495
3.99494
3.99492
3.9949
3.99486
3.99481
3.99474
3.99464
3.99449
3.99428
3.99397
3.99353
3.99288
3.99193
3.99498
3.99498
3.99498
3.99498
3.99498
3.99498
3.99498
3.99498
3.99498
3.99498
3.99498
3.99498
3.99498
3.99498
3.99498
3.99498
3.99497
3.99497
3.99497
3.99497
3.99497
3.99496
3.99496
3.99495
3.99494
3.99492
3.99489
3.99486
3.99481
3.99474
3.99465
3.99451
3.99431
3.99403
3.99362
3.99304
3.9922
3.99098
3.98921
3.98665
3.99498
3.99498
3.99498
3.99498
3.99498
3.99498
3.99498
3.99498
3.99498
3.99498
3.99498
3.99498
3.99498
3.99497
3.99497
3.99497
3.99497
3.99497
3.99496
3.99496
3.99495
3.99493
3.99492
3.99489
3.99486
3.99481
3.99474
3.99465
3.99452
3.99433
3.99406
3.99367
3.99313
3.99235
3.99125
3.98967
3.9874
3.98415
3.97944
3.97268
3.99498
3.99498
3.99498
3.99498
3.99498
3.99498
3.99498
3.99498
3.99498
3.99497
3.99497
3.99497
3.99497
3.99497
3.99496
3.99496
3.99495
3.99494
3.99493
3.99491
3.99489
3.99485
3.99481
3.99474
3.99465
3.99451
3.99433
3.99407
3.9937
3.99319
3.99245
3.99142
3.98995
3.98788
3.98492
3.98073
3.97476
3.96628
3.95413
3.93696
3.99498
3.99498
3.99498
3.99498
3.99498
3.99498
3.99498
3.99497
3.99497
3.99497
3.99497
3.99497
3.99496
3.99496
3.99495
3.99494
3.99493
3.99491
3.99488
3.99485
3.9948
3.99473
3.99464
3.99451
3.99432
3.99407
3.99371
3.99321
3.99251
3.99153
3.99014
3.98819
3.98545
3.98159
3.97614
3.96846
3.95766
3.94247
3.92123
3.89145
3.8506
3.99498
3.99498
3.99498
3.99497
3.99497
3.99497
3.99497
3.99497
3.99497
3.99496
3.99496
3.99495
3.99494
3.99492
3.9949
3.99488
3.99484
3.99479
3.99472
3.99462
3.99449
3.99431
3.99405
3.9937
3.99321
3.99252
3.99157
3.99024
3.98839
3.9858
3.98217
3.9771
3.97001
3.9601
3.94629
3.9271
3.90059
3.86421
3.81493
3.74869
3.66285
3.99498
3.99497
3.99497
3.99497
3.99497
3.99497
3.99496
3.99496
3.99495
3.99494
3.99493
3.99492
3.9949
3.99487
3.99483
3.99478
3.9947
3.9946
3.99447
3.99428
3.99402
3.99366
3.99317
3.9925
3.99156
3.99026
3.98847
3.98598
3.98252
3.97772
3.97106
3.96182
3.94903
3.93138
3.90713
3.87407
3.82942
3.77
3.69231
3.5933
3.4698
3.32385
3.99497
3.99497
3.99497
3.99497
3.99496
3.99496
3.99495
3.99494
3.99493
3.99491
3.99489
3.99486
3.99481
3.99476
3.99468
3.99457
3.99443
3.99424
3.99397
3.99361
3.99311
3.99243
3.99149
3.99021
3.98844
3.98601
3.98266
3.97805
3.97169
3.96293
3.9509
3.93439
3.91186
3.88131
3.84024
3.78573
3.7146
3.62379
3.51094
3.37501
3.21758
3.04073
2.85409
3.99496
3.99496
3.99495
3.99494
3.99493
3.99492
3.9949
3.99487
3.99484
3.99479
3.99473
3.99465
3.99454
3.99438
3.99418
3.9939
3.99353
3.99301
3.99232
3.99137
3.99008
3.98831
3.9859
3.98261
3.9781
3.97193
3.96351
3.952
3.93634
3.91509
3.88643
3.84811
3.79744
3.73145
3.64723
3.54236
3.41557
3.26744
3.10095
2.92071
2.7336
2.54464
2.36569
3.99495
3.99494
3.99493
3.99491
3.99489
3.99486
3.99482
3.99477
3.9947
3.99461
3.99449
3.99433
3.99411
3.99381
3.99342
3.99288
3.99216
3.99118
3.98986
3.98807
3.98565
3.98235
3.97788
3.97181
3.96358
3.95242
3.93732
3.91698
3.88972
3.85347
3.80575
3.74381
3.66487
3.56654
3.44735
3.30736
3.14875
2.97571
2.79372
2.60943
2.42995
2.26301
2.11406
1.99084
3.99492
3.9949
3.99487
3.99484
3.9948
3.99474
3.99466
3.99456
3.99443
3.99425
3.99401
3.9937
3.99327
3.9927
3.99195
3.99093
3.98956
3.98772
3.98524
3.9819
3.9774
3.97133
3.96316
3.95217
3.93741
3.91766
3.89136
3.85659
3.81107
3.75223
3.67746
3.58442
3.47156
3.33861
3.18713
3.02064
2.84407
2.66326
2.48474
2.31533
2.16177
2.03033
1.92561
1.84673
1.79088
3.99485
3.99481
3.99476
3.9947
3.99461
3.9945
3.99435
3.99415
3.99389
3.99355
3.99309
3.99248
3.99167
3.99059
3.98915
3.98722
3.98465
3.98122
3.97662
3.97047
3.96225
3.95127
3.93663
3.91718
3.89145
3.85766
3.81367
3.75711
3.6855
3.59663
3.48893
3.36192
3.21675
3.05633
2.88514
2.70834
2.53183
2.36185
2.20459
2.06624
1.95189
1.86364
1.79961
1.75586
1.72692
1.70819
3.99478
3.99472
3.99465
3.99455
3.99442
3.99425
3.99403
3.99374
3.99336
3.99285
3.99219
3.99131
3.99015
3.98861
3.98658
3.98388
3.98029
3.97553
3.9692
3.96081
3.94968
3.93496
3.91553
3.89002
3.85674
3.8137
3.75867
3.68935
3.60363
3.49999
3.37789
3.23814
3.08322
2.9171
2.74458
2.57089
2.40166
2.24269
2.09963
1.97788
1.88074
1.80814
1.75692
1.72255
1.70029
1.6864
1.67813
1.67322
3.99447
3.99432
3.99413
3.99387
3.99355
3.99312
3.99256
3.99182
3.99086
3.98959
3.98793
3.98575
3.98287
3.97907
3.97407
3.96748
3.95879
3.94735
3.93234
3.91268
3.88705
3.85385
3.81122
3.75705
3.68921
3.60572
3.50515
3.38694
3.25173
3.10166
2.94025
2.772
2.6016
2.43416
2.27495
2.12918
2.00205
1.89764
1.81722
1.75889
1.71873
1.69224
1.67539
1.66505
1.6591
1.65601
1.65496
1.65477
3.99419
3.99396
3.99368
3.9933
3.99281
3.99218
3.99136
3.99029
3.98889
3.98707
3.98469
3.98158
3.97751
3.97218
3.96521
3.9561
3.9442
3.92868
3.90852
3.88244
3.84891
3.80616
3.75224
3.68514
3.60305
3.50464
3.3894
3.25787
3.11195
2.95484
2.79066
2.62381
2.45883
2.30052
2.15368
2.02309
1.91311
1.82602
1.76114
1.71536
1.68452
1.66454
1.65206
1.64467
1.6406
1.63879
1.63845
1.63927
1.64016
1.64171
3.99298
3.99242
3.9917
3.99077
3.98956
3.988
3.98598
3.98335
3.97995
3.97552
3.96978
3.96231
3.95263
3.94007
3.92384
3.90291
3.87604
3.84176
3.79841
3.74415
3.67711
3.59563
3.49854
3.3854
3.25676
3.11434
2.96106
2.80074
2.63751
2.47545
2.31891
2.17225
2.03984
1.92597
1.83359
1.76302
1.71203
1.67693
1.65375
1.63903
1.63003
1.62497
1.62254
1.62187
1.62215
1.62343
1.6247
1.62673
1.629
1.63132
3.99002
3.98864
3.98687
3.9846
3.98167
3.97789
3.97302
3.96674
3.95865
3.94822
3.93482
3.91762
3.89562
3.86761
3.83218
3.78773
3.73255
3.66492
3.58335
3.48682
3.37501
3.24851
3.10895
2.95906
2.80236
2.64275
2.48391
2.32977
2.18428
2.05143
1.93523
1.83896
1.76373
1.70815
1.66911
1.64285
1.62586
1.61531
1.60918
1.60597
1.60477
1.60485
1.60596
1.60728
1.60916
1.61159
1.61401
1.61654
1.61923
1.6219
3.98285
3.97953
3.97529
3.96987
3.96292
3.95404
3.94268
3.9282
3.90976
3.88637
3.85685
3.81983
3.77379
3.71714
3.64831
3.56597
3.4693
3.35813
3.23313
3.09587
2.94895
2.79564
2.63956
2.48416
2.33291
2.18939
2.05722
1.94008
1.8413
1.76255
1.70319
1.66067
1.63155
1.61238
1.6003
1.59304
1.58915
1.58749
1.58739
1.58805
1.58969
1.59128
1.59362
1.59618
1.5988
1.60148
1.6044
1.60725
1.61009
1.6128
3.96589
3.95812
3.94825
3.93574
3.91991
3.89993
3.8748
3.84335
3.80428
3.75615
3.69747
3.62684
3.54313
3.44571
3.33458
3.2105
3.07508
2.93078
2.78066
2.62809
2.47627
2.32829
2.18738
2.0568
1.93988
1.83988
1.7588
1.69656
1.65117
1.61956
1.59843
1.58488
1.57661
1.57197
1.56987
1.56938
1.57003
1.57133
1.57316
1.57533
1.57805
1.58071
1.58349
1.5864
1.58941
1.59236
1.59533
1.59823
1.60109
1.60383
3.92706
3.90957
3.88769
3.86041
3.8266
3.78499
3.73424
3.67299
3.60001
3.51436
3.41564
3.30405
3.18046
3.0465
2.90455
2.75749
2.60842
2.46033
2.31593
2.17816
2.04991
1.93423
1.83417
1.7519
1.68774
1.64021
1.60658
1.58377
1.56891
1.55972
1.55442
1.55185
1.55111
1.5516
1.5528
1.55479
1.55673
1.55938
1.56221
1.56508
1.568
1.57115
1.57426
1.57735
1.58042
1.58344
1.58643
1.58935
1.59223
1.595
3.84262
3.80595
3.76129
3.70738
3.64302
3.56716
3.47909
3.37863
3.26618
3.14276
3.01001
2.87024
2.72618
2.58067
2.43644
2.29592
2.16173
2.03647
1.92288
1.82379
1.74139
1.6763
1.62739
1.59231
1.5682
1.55228
1.54227
1.53637
1.5334
1.53245
1.53278
1.5339
1.53576
1.53791
1.54045
1.54346
1.54634
1.54935
1.55252
1.55577
1.55897
1.56218
1.56537
1.5685
1.5716
1.57465
1.57767
1.58062
1.58354
1.58634
3.67476
3.60677
3.52756
3.43666
3.33413
3.22058
3.09713
2.96547
2.82784
2.68681
2.54497
2.40478
2.26842
2.13821
2.01649
1.90573
1.80852
1.72697
1.66189
1.61241
1.57648
1.5515
1.53481
1.52417
1.51786
1.51454
1.51336
1.51353
1.51461
1.51645
1.51876
1.52114
1.52416
1.52723
1.53034
1.53352
1.53689
1.54023
1.54357
1.54689
1.55017
1.55342
1.55663
1.55981
1.56294
1.56603
1.56908
1.57207
1.57503
1.57786
3.38635
3.28156
3.1668
3.0433
2.91276
2.77736
2.63949
2.50149
2.36557
2.23365
2.10781
1.99012
1.88282
1.78827
1.70848
1.64428
1.59502
1.55889
1.5335
1.51636
1.50533
1.49871
1.49515
1.49381
1.49395
1.49504
1.49677
1.49923
1.50158
1.50457
1.50781
1.51097
1.51423
1.51766
1.52114
1.52457
1.52803
1.53146
1.53485
1.53821
1.54154
1.54483
1.54808
1.55129
1.55447
1.5576
1.56069
1.56372
1.5667
1.56957
2.98103
2.8518
2.71884
2.58436
2.45046
2.31907
2.1919
2.07078
1.95758
1.8543
1.76312
1.68588
1.62338
1.57508
1.53937
1.51406
1.49684
1.48566
1.47889
1.47521
1.47378
1.47392
1.47499
1.47673
1.47909
1.48176
1.48466
1.48806
1.49129
1.49463
1.49809
1.50168
1.50524
1.50882
1.51238
1.5159
1.5194
1.52287
1.52631
1.52972
1.53309
1.53642
1.53972
1.54298
1.5462
1.54937
1.55249
1.55555
1.55857
1.56147
2.52168
2.39218
2.26563
2.14351
2.02747
1.91917
1.82043
1.73324
1.65926
1.5992
1.55256
1.51787
1.49312
1.47617
1.4651
1.45836
1.45469
1.45326
1.45342
1.45451
1.45629
1.45873
1.46155
1.46437
1.46779
1.47125
1.47468
1.47817
1.48188
1.48557
1.48926
1.49295
1.4966
1.50023
1.50384
1.50742
1.51096
1.51448
1.51797
1.52142
1.52484
1.52823
1.53157
1.53487
1.53813
1.54134
1.5445
1.54759
1.55064
1.55356
2.08892
1.9783
1.87529
1.78157
1.69893
1.62884
1.57187
1.52751
1.49439
1.47065
1.45432
1.44362
1.43709
1.43359
1.43223
1.43247
1.43365
1.43551
1.43799
1.44087
1.44387
1.44728
1.4509
1.4544
1.45799
1.46176
1.46557
1.46934
1.47315
1.47695
1.48071
1.48445
1.48816
1.49184
1.4955
1.49913
1.50273
1.5063
1.50984
1.51334
1.51681
1.52024
1.52363
1.52697
1.53026
1.53351
1.5367
1.53982
1.54289
1.54584
1.73816
1.66058
1.59493
1.54162
1.50008
1.46901
1.44669
1.4313
1.4212
1.41508
1.41186
1.41068
1.41106
1.41241
1.41436
1.41688
1.41982
1.42305
1.42644
1.43021
1.43383
1.43751
1.44133
1.44524
1.44913
1.45305
1.45696
1.46084
1.46471
1.46855
1.47237
1.47616
1.47993
1.48367
1.48738
1.49106
1.49471
1.49834
1.50192
1.50547
1.50899
1.51246
1.51589
1.51927
1.5226
1.52588
1.5291
1.53225
1.53534
1.53831
1.50878
1.47052
1.4419
1.42133
1.40716
1.39789
1.39234
1.38951
1.3886
1.38919
1.39073
1.39279
1.39542
1.39846
1.40186
1.40527
1.40914
1.41293
1.4167
1.42056
1.4246
1.42861
1.43263
1.43666
1.44066
1.44465
1.44861
1.45255
1.45647
1.46037
1.46424
1.46809
1.47191
1.47571
1.47948
1.48321
1.48692
1.49059
1.49423
1.49782
1.50138
1.50489
1.50836
1.51178
1.51514
1.51845
1.5217
1.52487
1.52798
1.53097
1.39473
1.382
1.37374
1.36889
1.36656
1.36602
1.36686
1.36862
1.37083
1.37358
1.37677
1.38024
1.38384
1.38774
1.3917
1.39558
1.39952
1.40365
1.40778
1.41189
1.41603
1.42016
1.42427
1.42835
1.43242
1.43646
1.44048
1.44448
1.44846
1.45241
1.45634
1.46025
1.46413
1.46798
1.4718
1.47559
1.47934
1.48306
1.48674
1.49039
1.49398
1.49754
1.50104
1.50449
1.50789
1.51122
1.51449
1.51769
1.52082
1.52382
1.34883
1.34481
1.34307
1.34295
1.3441
1.34612
1.34851
1.3514
1.35475
1.3583
1.36211
1.36606
1.37014
1.37415
1.37819
1.38241
1.38665
1.39086
1.39511
1.39935
1.40357
1.40777
1.41196
1.41613
1.42027
1.42439
1.4285
1.43258
1.43663
1.44067
1.44468
1.44867
1.45263
1.45657
1.46047
1.46434
1.46818
1.47198
1.47575
1.47948
1.48316
1.4868
1.49039
1.49392
1.49741
1.50083
1.50419
1.50748
1.51069
1.51384
1.51686
1.31943
1.32095
1.32322
1.32581
1.32887
1.3324
1.33609
1.34007
1.3441
1.34829
1.35244
1.35658
1.36088
1.36522
1.36954
1.3739
1.37826
1.38258
1.3869
1.3912
1.39548
1.39974
1.40399
1.40821
1.41242
1.4166
1.42076
1.4249
1.42902
1.43312
1.43718
1.44123
1.44524
1.44923
1.45318
1.45711
1.46099
1.46484
1.46865
1.47242
1.47614
1.47982
1.48344
1.48701
1.49052
1.49397
1.49735
1.50067
1.50389
1.50705
1.51008
1.29995
1.30277
1.30603
1.30973
1.31359
1.31765
1.32188
1.32617
1.33045
1.33469
1.33907
1.34352
1.34795
1.35241
1.35687
1.36131
1.36574
1.37016
1.37455
1.37893
1.38328
1.38762
1.39195
1.39625
1.40054
1.4048
1.40905
1.41327
1.41746
1.42164
1.42579
1.42991
1.43401
1.43808
1.44211
1.44612
1.45009
1.45402
1.45791
1.46176
1.46557
1.46933
1.47304
1.4767
1.4803
1.48383
1.48731
1.49071
1.49404
1.49728
1.50045
1.50348
1.28675
1.2908
1.29498
1.29936
1.30379
1.30814
1.31253
1.31699
1.32155
1.32609
1.33065
1.33521
1.33976
1.3443
1.34882
1.35333
1.35782
1.36229
1.36675
1.37118
1.3756
1.38
1.38439
1.38875
1.3931
1.39742
1.40172
1.406
1.41026
1.41449
1.41869
1.42287
1.42701
1.43113
1.43522
1.43927
1.44328
1.44726
1.45119
1.45508
1.45893
1.46272
1.46647
1.47015
1.47378
1.47734
1.48084
1.48426
1.4876
1.49085
1.49403
1.49707
1.27656
1.28114
1.28559
1.29009
1.29466
1.29932
1.30397
1.30862
1.31329
1.31795
1.32259
1.32722
1.33183
1.33643
1.34101
1.34558
1.35013
1.35466
1.35918
1.36368
1.36816
1.37262
1.37706
1.38149
1.38589
1.39027
1.39463
1.39896
1.40327
1.40756
1.41181
1.41604
1.42024
1.4244
1.42853
1.43263
1.43669
1.44071
1.44468
1.44861
1.45249
1.45632
1.46009
1.46381
1.46746
1.47104
1.47455
1.47799
1.48134
1.48461
1.48778
1.49082
1.26739
1.27208
1.27684
1.28159
1.28634
1.29112
1.29587
1.30062
1.30536
1.31008
1.31478
1.31947
1.32415
1.3288
1.33345
1.33807
1.34268
1.34728
1.35185
1.35641
1.36095
1.36547
1.36997
1.37445
1.37891
1.38335
1.38776
1.39215
1.39651
1.40085
1.40515
1.40943
1.41368
1.41789
1.42206
1.4262
1.4303
1.43436
1.43837
1.44234
1.44625
1.45011
1.45391
1.45765
1.46132
1.46493
1.46846
1.47191
1.47527
1.47853
1.48171
1.48475
1.25896
1.26382
1.2687
1.27355
1.27841
1.28324
1.28806
1.29287
1.29767
1.30245
1.30721
1.31196
1.3167
1.32141
1.32612
1.3308
1.33547
1.34013
1.34476
1.34938
1.35397
1.35855
1.36311
1.36765
1.37216
1.37665
1.38112
1.38556
1.38997
1.39435
1.39871
1.40303
1.40732
1.41158
1.4158
1.41998
1.42412
1.42822
1.43226
1.43626
1.44021
1.44409
1.44792
1.45168
1.45538
1.459
1.46254
1.466
1.46937
1.47263
1.47581
1.47884
1.251
1.25595
1.26089
1.26581
1.27072
1.27562
1.2805
1.28537
1.29022
1.29506
1.29988
1.30469
1.30949
1.31426
1.31902
1.32377
1.3285
1.33321
1.3379
1.34257
1.34723
1.35186
1.35647
1.36106
1.36563
1.37017
1.37469
1.37918
1.38364
1.38807
1.39248
1.39685
1.40118
1.40548
1.40974
1.41396
1.41814
1.42227
1.42635
1.43038
1.43435
1.43827
1.44212
1.4459
1.44961
1.45325
1.4568
1.46026
1.46363
1.4669
1.47006
1.47308
1.24332
1.24833
1.25333
1.25831
1.26328
1.26824
1.27318
1.2781
1.28301
1.28791
1.29279
1.29766
1.30251
1.30735
1.31217
1.31697
1.32175
1.32652
1.33127
1.33599
1.3407
1.34539
1.35005
1.3547
1.35931
1.36391
1.36847
1.37301
1.37752
1.382
1.38645
1.39086
1.39524
1.39958
1.40388
1.40814
1.41235
1.41651
1.42063
1.42468
1.42868
1.43262
1.43649
1.4403
1.44402
1.44767
1.45123
1.45469
1.45806
1.46132
1.46448
1.46748
1.24096
1.24601
1.25105
1.25608
1.26109
1.26609
1.27107
1.27604
1.281
1.28594
1.29086
1.29577
1.30066
1.30554
1.31039
1.31523
1.32005
1.32485
1.32964
1.3344
1.33913
1.34385
1.34854
1.35321
1.35785
1.36247
1.36705
1.37161
1.37613
1.38062
1.38508
1.3895
1.39388
1.39821
1.40251
1.40675
1.41095
1.41509
1.41917
1.4232
1.42716
1.43105
1.43486
1.4386
1.44225
1.44582
1.44928
1.45265
1.4559
1.45904
1.46202
1.23383
1.23894
1.24403
1.24912
1.25418
1.25924
1.26428
1.26931
1.27432
1.27931
1.28429
1.28925
1.2942
1.29913
1.30404
1.30893
1.3138
1.31866
1.32349
1.3283
1.33309
1.33786
1.3426
1.34731
1.352
1.35666
1.36129
1.36589
1.37046
1.37499
1.37949
1.38395
1.38836
1.39273
1.39706
1.40134
1.40556
1.40973
1.41384
1.41788
1.42186
1.42577
1.42959
1.43334
1.437
1.44056
1.44402
1.44738
1.45061
1.45374
1.4567
1.22693
1.2321
1.23725
1.24239
1.24751
1.25262
1.25771
1.26279
1.26786
1.27291
1.27794
1.28296
1.28796
1.29294
1.2979
1.30284
1.30777
1.31267
1.31756
1.32242
1.32726
1.33207
1.33686
1.34162
1.34635
1.35106
1.35573
1.36038
1.36498
1.36956
1.37409
1.37858
1.38303
1.38744
1.3918
1.3961
1.40035
1.40454
1.40868
1.41274
1.41673
1.42065
1.42449
1.42824
1.43189
1.43545
1.43891
1.44225
1.44547
1.44857
1.4515
1.22548
1.23069
1.23588
1.24106
1.24622
1.25137
1.2565
1.26162
1.26672
1.27181
1.27688
1.28193
1.28696
1.29197
1.29697
1.30194
1.3069
1.31183
1.31674
1.32162
1.32648
1.33131
1.33612
1.3409
1.34565
1.35036
1.35505
1.35969
1.3643
1.36887
1.3734
1.37789
1.38232
1.38671
1.39104
1.39531
1.39953
1.40368
1.40775
1.41176
1.41569
1.41953
1.42328
1.42693
1.43049
1.43393
1.43725
1.44045
1.44352
1.44642
1.2191
1.22436
1.2296
1.23483
1.24005
1.24525
1.25043
1.2556
1.26075
1.26589
1.27101
1.27611
1.28119
1.28625
1.29129
1.29632
1.30132
1.3063
1.31125
1.31618
1.32109
1.32596
1.33081
1.33564
1.34042
1.34518
1.3499
1.35459
1.35923
1.36383
1.36839
1.37291
1.37737
1.38178
1.38614
1.39044
1.39467
1.39883
1.40292
1.40694
1.41087
1.41471
1.41846
1.42211
1.42565
1.42907
1.43237
1.43554
1.43858
1.44144
1.21293
1.21824
1.22353
1.22882
1.23408
1.23933
1.24457
1.24978
1.25499
1.26017
1.26534
1.27049
1.27562
1.28073
1.28582
1.29089
1.29593
1.30096
1.30596
1.31093
1.31588
1.3208
1.32569
1.33055
1.33538
1.34018
1.34493
1.34965
1.35433
1.35897
1.36356
1.3681
1.37259
1.37702
1.3814
1.38571
1.38996
1.39414
1.39824
1.40226
1.40619
1.41003
1.41377
1.41741
1.42093
1.42433
1.42761
1.43074
1.43374
1.43655
1.20697
1.21233
1.21768
1.22301
1.22832
1.23362
1.23891
1.24417
1.24942
1.25466
1.25987
1.26507
1.27024
1.2754
1.28054
1.28565
1.29074
1.29581
1.30085
1.30587
1.31086
1.31582
1.32075
1.32565
1.33051
1.33534
1.34013
1.34489
1.3496
1.35426
1.35888
1.36345
1.36796
1.37241
1.37681
1.38114
1.3854
1.38958
1.39368
1.39771
1.40164
1.40547
1.4092
1.41282
1.41632
1.41969
1.42293
1.42603
1.42898
1.43174
1.20122
1.20663
1.21203
1.2174
1.22277
1.22811
1.23344
1.23876
1.24405
1.24933
1.25459
1.25984
1.26506
1.27026
1.27544
1.2806
1.28573
1.29084
1.29592
1.30098
1.30601
1.31101
1.31598
1.32091
1.32581
1.33068
1.3355
1.34028
1.34502
1.34971
1.35435
1.35894
1.36348
1.36795
1.37236
1.3767
1.38096
1.38515
1.38926
1.39328
1.3972
1.40102
1.40473
1.40833
1.4118
1.41515
1.41835
1.4214
1.4243
1.427
1.19568
1.20113
1.20657
1.21199
1.2174
1.2228
1.22817
1.23353
1.23888
1.2442
1.2495
1.25479
1.26006
1.2653
1.27052
1.27572
1.2809
1.28605
1.29117
1.29627
1.30133
1.30637
1.31137
1.31634
1.32127
1.32617
1.33102
1.33583
1.34059
1.34531
1.34997
1.35458
1.35913
1.36362
1.36804
1.37238
1.37665
1.38084
1.38495
1.38896
1.39287
1.39667
1.40036
1.40393
1.40737
1.41068
1.41383
1.41683
1.41967
1.42231
1.19032
1.19582
1.20131
1.20678
1.21223
1.21767
1.22309
1.22849
1.23388
1.23925
1.24459
1.24992
1.25523
1.26052
1.26578
1.27102
1.27623
1.28142
1.28658
1.29172
1.29682
1.30189
1.30692
1.31192
1.31689
1.32181
1.32669
1.33152
1.33631
1.34105
1.34573
1.35035
1.35491
1.35941
1.36384
1.36819
1.37246
1.37664
1.38074
1.38474
1.38863
1.39241
1.39607
1.39961
1.40301
1.40627
1.40938
1.41232
1.41509
1.41766
1.1907
1.19623
1.20174
1.20724
1.21272
1.21819
1.22363
1.22906
1.23447
1.23986
1.24523
1.25058
1.2559
1.2612
1.26648
1.27173
1.27696
1.28215
1.28732
1.29246
1.29756
1.30262
1.30765
1.31264
1.31759
1.3225
1.32735
1.33216
1.33691
1.34161
1.34624
1.35081
1.35532
1.35975
1.3641
1.36836
1.37254
1.37662
1.3806
1.38447
1.38823
1.39186
1.39536
1.39871
1.40192
1.40497
1.40784
1.41054
1.41303
1.18576
1.19133
1.19689
1.20243
1.20795
1.21345
1.21894
1.22441
1.22986
1.23529
1.2407
1.24608
1.25145
1.25679
1.2621
1.26739
1.27264
1.27787
1.28307
1.28824
1.29337
1.29846
1.30352
1.30854
1.31351
1.31843
1.32331
1.32813
1.3329
1.3376
1.34225
1.34682
1.35133
1.35575
1.3601
1.36436
1.36852
1.37258
1.37654
1.38038
1.38411
1.3877
1.39115
1.39446
1.3976
1.40058
1.40338
1.406
1.4084
1.18099
1.1866
1.1922
1.19778
1.20334
1.20889
1.21442
1.21992
1.22541
1.23088
1.23632
1.24175
1.24715
1.25252
1.25787
1.26319
1.26848
1.27374
1.27897
1.28416
1.28932
1.29444
1.29952
1.30455
1.30954
1.31448
1.31937
1.32421
1.32899
1.3337
1.33835
1.34293
1.34743
1.35185
1.35619
1.36043
1.36457
1.36861
1.37254
1.37635
1.38003
1.38358
1.38698
1.39022
1.3933
1.39621
1.39893
1.40145
1.40375
1.18204
1.18768
1.1933
1.1989
1.20448
1.21005
1.21559
1.22112
1.22662
1.2321
1.23756
1.24299
1.2484
1.25378
1.25913
1.26445
1.26974
1.27499
1.28021
1.28539
1.29053
1.29563
1.30069
1.30569
1.31065
1.31555
1.32039
1.32518
1.32989
1.33454
1.33912
1.34361
1.34802
1.35234
1.35656
1.36068
1.36469
1.36859
1.37235
1.37599
1.37948
1.38282
1.38599
1.389
1.39182
1.39445
1.39689
1.39908
1.17764
1.18332
1.18897
1.19461
1.20023
1.20583
1.21141
1.21697
1.22251
1.22802
1.23351
1.23897
1.24441
1.24982
1.2552
1.26054
1.26586
1.27113
1.27638
1.28158
1.28674
1.29185
1.29692
1.30194
1.30691
1.31182
1.31667
1.32145
1.32617
1.33081
1.33538
1.33986
1.34425
1.34855
1.35275
1.35683
1.36081
1.36466
1.36838
1.37196
1.37539
1.37866
1.38176
1.38469
1.38742
1.38996
1.39228
1.39436
1.1791
1.18479
1.19047
1.19612
1.20176
1.20737
1.21296
1.21853
1.22407
1.22959
1.23508
1.24055
1.24598
1.25138
1.25676
1.26209
1.26739
1.27265
1.27787
1.28305
1.28818
1.29326
1.29828
1.30326
1.30817
1.31302
1.3178
1.32251
1.32714
1.33169
1.33615
1.34052
1.34479
1.34896
1.35301
1.35694
1.36074
1.36441
1.36793
1.37129
1.37449
1.37751
1.38035
1.38299
1.38542
1.38763
1.38958
1.17503
1.18075
1.18646
1.19215
1.19781
1.20346
1.20908
1.21468
1.22025
1.22579
1.23131
1.2368
1.24226
1.24768
1.25308
1.25843
1.26375
1.26902
1.27426
1.27944
1.28458
1.28967
1.2947
1.29967
1.30459
1.30943
1.3142
1.3189
1.32351
1.32804
1.33248
1.33683
1.34106
1.34519
1.3492
1.35308
1.35683
1.36044
1.36389
1.36718
1.3703
1.37323
1.37597
1.3785
1.38081
1.3829
1.38472
1.17685
1.18258
1.1883
1.194
1.19967
1.20532
1.21094
1.21654
1.22211
1.22765
1.23316
1.23864
1.24408
1.24949
1.25486
1.2602
1.26548
1.27073
1.27592
1.28106
1.28615
1.29118
1.29615
1.30105
1.30589
1.31065
1.31533
1.31992
1.32443
1.32884
1.33315
1.33735
1.34143
1.34539
1.34922
1.35291
1.35644
1.35982
1.36303
1.36606
1.36889
1.37152
1.37394
1.37613
1.37809
1.37977
1.17306
1.17883
1.18457
1.19029
1.19599
1.20166
1.20731
1.21293
1.21852
1.22409
1.22962
1.23511
1.24057
1.246
1.25138
1.25672
1.26201
1.26726
1.27246
1.2776
1.28268
1.28771
1.29267
1.29756
1.30238
1.30712
1.31178
1.31635
1.32083
1.32521
1.32948
1.33363
1.33766
1.34157
1.34533
1.34895
1.35241
1.35571
1.35882
1.36175
1.36449
1.367
1.3693
1.37136
1.37318
1.37471
1.16939
1.17518
1.18095
1.1867
1.19242
1.19811
1.20378
1.20942
1.21503
1.22061
1.22616
1.23166
1.23714
1.24257
1.24796
1.2533
1.2586
1.26385
1.26904
1.27418
1.27926
1.28428
1.28923
1.2941
1.2989
1.30362
1.30825
1.31279
1.31723
1.32157
1.32579
1.32989
1.33387
1.33771
1.34141
1.34495
1.34833
1.35153
1.35455
1.35738
1.35999
1.36239
1.36456
1.36648
1.36814
1.36952
1.16582
1.17164
1.17743
1.1832
1.18894
1.19465
1.20034
1.20599
1.21162
1.21721
1.22276
1.22828
1.23376
1.2392
1.24459
1.24994
1.25524
1.26048
1.26567
1.2708
1.27587
1.28087
1.2858
1.29066
1.29543
1.30012
1.30472
1.30922
1.31362
1.31791
1.32208
1.32613
1.33004
1.33381
1.33743
1.34089
1.34418
1.34728
1.3502
1.35291
1.3554
1.35767
1.3597
1.36147
1.36298
1.36418
1.16235
1.16819
1.174
1.17978
1.18554
1.19127
1.19697
1.20263
1.20827
1.21387
1.21943
1.22496
1.23044
1.23588
1.24127
1.24662
1.25191
1.25715
1.26233
1.26745
1.2725
1.27748
1.28239
1.28722
1.29196
1.29662
1.30117
1.30563
1.30998
1.31422
1.31833
1.32231
1.32615
1.32984
1.33338
1.33675
1.33994
1.34294
1.34574
1.34833
1.3507
1.35282
1.3547
1.35632
1.35766
1.35869
1.15896
1.16481
1.17064
1.17643
1.1822
1.18795
1.19366
1.19933
1.20497
1.21058
1.21615
1.22167
1.22716
1.2326
1.23798
1.24332
1.24861
1.25383
1.259
1.2641
1.26913
1.27408
1.27896
1.28376
1.28847
1.29308
1.2976
1.302
1.3063
1.31047
1.31452
1.31843
1.32219
1.3258
1.32925
1.33252
1.3356
1.33849
1.34117
1.34363
1.34586
1.34784
1.34956
1.35101
1.35218
1.35302
1.15564
1.1615
1.16734
1.17315
1.17893
1.18468
1.1904
1.19608
1.20173
1.20733
1.2129
1.21843
1.22391
1.22934
1.23472
1.24004
1.24531
1.25052
1.25567
1.26074
1.26575
1.27067
1.27552
1.28028
1.28494
1.28951
1.29397
1.29832
1.30256
1.30666
1.31064
1.31447
1.31815
1.32167
1.32501
1.32818
1.33115
1.33392
1.33647
1.33879
1.34087
1.3427
1.34426
1.34553
1.34651
1.34716
1.15825
1.1641
1.16992
1.1757
1.18146
1.18718
1.19286
1.19851
1.20412
1.20968
1.2152
1.22067
1.22609
1.23145
1.23676
1.24201
1.2472
1.25232
1.25737
1.26234
1.26723
1.27204
1.27675
1.28137
1.28588
1.29029
1.29458
1.29874
1.30278
1.30667
1.31042
1.31401
1.31743
1.32067
1.32372
1.32657
1.32921
1.33163
1.3338
1.33573
1.33739
1.33878
1.33987
1.34066
1.34111
1.15505
1.1609
1.16672
1.17251
1.17827
1.18399
1.18967
1.19531
1.20091
1.20647
1.21197
1.21743
1.22283
1.22818
1.23347
1.2387
1.24386
1.24895
1.25396
1.25889
1.26374
1.2685
1.27317
1.27773
1.28219
1.28653
1.29075
1.29484
1.2988
1.30261
1.30626
1.30975
1.31306
1.31619
1.31913
1.32185
1.32435
1.32663
1.32865
1.33042
1.33191
1.33311
1.33402
1.33461
1.33485
1.15188
1.15773
1.16356
1.16935
1.1751
1.18081
1.18649
1.19212
1.19771
1.20325
1.20874
1.21418
1.21957
1.22489
1.23015
1.23535
1.24048
1.24553
1.2505
1.2554
1.2602
1.26491
1.26952
1.27402
1.27841
1.28268
1.28683
1.29084
1.29471
1.29843
1.30198
1.30536
1.30857
1.31158
1.31438
1.31697
1.31933
1.32145
1.32332
1.32491
1.32623
1.32725
1.32795
1.32834
1.32836
1.15459
1.16041
1.16619
1.17194
1.17764
1.18331
1.18893
1.1945
1.20002
1.20549
1.21091
1.21627
1.22156
1.2268
1.23196
1.23705
1.24206
1.24699
1.25183
1.25658
1.26123
1.26578
1.27022
1.27454
1.27874
1.2828
1.28672