/*--------------------------------*- C++ -*----------------------------------*\
| =========                 |                                                 |
| \\      /  F ield         | OpenFOAM: The Open Source CFD Toolbox           |
|  \\    /   O peration     | Version:  v1706                                 |
|   \\  /    A nd           | Web:      www.OpenFOAM.com                      |
|    \\/     M anipulation  |                                                 |
\*---------------------------------------------------------------------------*/
FoamFile
{
    version     2.0;
    format      ascii;
    class       volScalarField;
    location    "3.7e-05";
    object      mu;
}
// * * * * * * * * * * * * * * * * * * * * * * * * * * * * * * * * * * * * * //

dimensions      [1 -1 -1 0 0 0 0];


internalField   nonuniform List<scalar> 
30038
(
1.0351e-05
1.0351e-05
1.0351e-05
1.0351e-05
1.0351e-05
1.0351e-05
1.0351e-05
1.0351e-05
1.0351e-05
1.0351e-05
1.0351e-05
1.0351e-05
1.0351e-05
1.0351e-05
1.0351e-05
1.0351e-05
1.0351e-05
1.0351e-05
1.0351e-05
1.0351e-05
1.0351e-05
1.0351e-05
1.0351e-05
1.0351e-05
1.0351e-05
1.0351e-05
1.0351e-05
1.0351e-05
1.0351e-05
1.0351e-05
1.0351e-05
1.0351e-05
1.0351e-05
1.0351e-05
1.0351e-05
1.0351e-05
1.0351e-05
1.0351e-05
1.0351e-05
1.0351e-05
1.0351e-05
1.0351e-05
1.0351e-05
1.0351e-05
1.0351e-05
1.0351e-05
1.0351e-05
1.0351e-05
1.0351e-05
1.0351e-05
1.0351e-05
1.0351e-05
1.0351e-05
1.0351e-05
1.0351e-05
1.0351e-05
1.0351e-05
1.0351e-05
1.0351e-05
1.0351e-05
1.0351e-05
1.0351e-05
1.0351e-05
1.0351e-05
1.0351e-05
1.0351e-05
1.0351e-05
1.0351e-05
1.0351e-05
1.0351e-05
1.0351e-05
1.0351e-05
1.0351e-05
1.0351e-05
1.0351e-05
1.0351e-05
1.0351e-05
1.0351e-05
1.0351e-05
1.0351e-05
1.0351e-05
1.0351e-05
1.0351e-05
1.0351e-05
1.0351e-05
1.0351e-05
1.0351e-05
1.0351e-05
1.0351e-05
1.0351e-05
1.0351e-05
1.0351e-05
1.0351e-05
1.0351e-05
1.0351e-05
1.0351e-05
1.0351e-05
1.0351e-05
1.0351e-05
1.0351e-05
1.0351e-05
1.0351e-05
1.0351e-05
1.0351e-05
1.0351e-05
1.0351e-05
1.0351e-05
1.0351e-05
1.0351e-05
1.0351e-05
1.0351e-05
1.0351e-05
1.0351e-05
1.0351e-05
1.0351e-05
1.0351e-05
1.0351e-05
1.0351e-05
1.0351e-05
1.0351e-05
1.0351e-05
1.0351e-05
1.0351e-05
1.0351e-05
1.0351e-05
1.0351e-05
1.0351e-05
1.0351e-05
1.0351e-05
1.0351e-05
1.0351e-05
1.0351e-05
1.0351e-05
1.0351e-05
1.0351e-05
1.0351e-05
1.0351e-05
1.0351e-05
1.0351e-05
1.0351e-05
1.0351e-05
1.0351e-05
1.0351e-05
1.0351e-05
1.0351e-05
1.0351e-05
1.0351e-05
1.0351e-05
1.0351e-05
1.0351e-05
1.0351e-05
1.0351e-05
1.0351e-05
1.0351e-05
1.0351e-05
1.0351e-05
1.0351e-05
1.0351e-05
1.0351e-05
1.0351e-05
1.0351e-05
1.0351e-05
1.0351e-05
1.0351e-05
1.0351e-05
1.0351e-05
1.0351e-05
1.0351e-05
1.0351e-05
1.0351e-05
1.0351e-05
1.0351e-05
1.0351e-05
1.0351e-05
1.0351e-05
1.0351e-05
1.0351e-05
1.0351e-05
1.0351e-05
1.0351e-05
1.0351e-05
1.0351e-05
1.0351e-05
1.0351e-05
1.0351e-05
1.0351e-05
1.0351e-05
1.0351e-05
1.0351e-05
1.0351e-05
1.0351e-05
1.0351e-05
1.0351e-05
1.0351e-05
1.0351e-05
1.0351e-05
1.0351e-05
1.0351e-05
1.0351e-05
1.0351e-05
1.0351e-05
1.0351e-05
1.0351e-05
1.0351e-05
1.0351e-05
1.0351e-05
1.0351e-05
1.0351e-05
1.0351e-05
1.0351e-05
1.0351e-05
1.0351e-05
1.0351e-05
1.0351e-05
1.0351e-05
1.0351e-05
1.0351e-05
1.0351e-05
1.0351e-05
1.0351e-05
1.0351e-05
1.0351e-05
1.0351e-05
1.0351e-05
1.0351e-05
1.0351e-05
1.0351e-05
1.0351e-05
1.0351e-05
1.0351e-05
1.0351e-05
1.0351e-05
1.0351e-05
1.0351e-05
1.0351e-05
1.0351e-05
1.0351e-05
1.0351e-05
1.0351e-05
1.0351e-05
1.0351e-05
1.0351e-05
1.0351e-05
1.0351e-05
1.0351e-05
1.0351e-05
1.0351e-05
1.0351e-05
1.0351e-05
1.0351e-05
1.0351e-05
1.0351e-05
1.0351e-05
1.0351e-05
1.0351e-05
1.0351e-05
1.0351e-05
1.0351e-05
1.0351e-05
1.0351e-05
1.0351e-05
1.0351e-05
1.0351e-05
1.0351e-05
1.0351e-05
1.0351e-05
1.0351e-05
1.0351e-05
1.0351e-05
1.0351e-05
1.0351e-05
1.0351e-05
1.0351e-05
1.0351e-05
1.0351e-05
1.0351e-05
1.0351e-05
1.0351e-05
1.0351e-05
1.0351e-05
1.0351e-05
1.0351e-05
1.0351e-05
1.0351e-05
1.0351e-05
1.0351e-05
1.0351e-05
1.0351e-05
1.0351e-05
1.0351e-05
1.0351e-05
1.0351e-05
1.0351e-05
1.0351e-05
1.0351e-05
1.0351e-05
1.0351e-05
1.0351e-05
1.0351e-05
1.0351e-05
1.0351e-05
1.0351e-05
1.0351e-05
1.0351e-05
1.0351e-05
1.0351e-05
1.0351e-05
1.0351e-05
1.0351e-05
1.0351e-05
1.0351e-05
1.0351e-05
1.0351e-05
1.0351e-05
1.0351e-05
1.0351e-05
1.0351e-05
1.0351e-05
1.0351e-05
1.0351e-05
1.0351e-05
1.0351e-05
1.0351e-05
1.0351e-05
1.0351e-05
1.0351e-05
1.0351e-05
1.0351e-05
1.0351e-05
1.0351e-05
1.0351e-05
1.0351e-05
1.0351e-05
1.0351e-05
1.0351e-05
1.0351e-05
1.0351e-05
1.0351e-05
1.0351e-05
1.0351e-05
1.0351e-05
1.0351e-05
1.0351e-05
1.0351e-05
1.0351e-05
1.0351e-05
1.0351e-05
1.0351e-05
1.0351e-05
1.0351e-05
1.0351e-05
1.0351e-05
1.0351e-05
1.0351e-05
1.0351e-05
1.0351e-05
1.0351e-05
1.0351e-05
1.0351e-05
1.0351e-05
1.0351e-05
1.0351e-05
1.0351e-05
1.0351e-05
1.0351e-05
1.0351e-05
1.0351e-05
1.0351e-05
1.0351e-05
1.0351e-05
1.0351e-05
1.0351e-05
1.0351e-05
1.0351e-05
1.0351e-05
1.0351e-05
1.0351e-05
1.0351e-05
1.0351e-05
1.0351e-05
1.0351e-05
1.0351e-05
1.0351e-05
1.0351e-05
1.0351e-05
1.0351e-05
1.0351e-05
1.0351e-05
1.0351e-05
1.0351e-05
1.0351e-05
1.0351e-05
1.0351e-05
1.0351e-05
1.0351e-05
1.0351e-05
1.0351e-05
1.0351e-05
1.0351e-05
1.0351e-05
1.0351e-05
1.0351e-05
1.0351e-05
1.0351e-05
1.0351e-05
1.0351e-05
1.0351e-05
1.0351e-05
1.0351e-05
1.0351e-05
1.0351e-05
1.0351e-05
1.0351e-05
1.0351e-05
1.0351e-05
1.0351e-05
1.0351e-05
1.0351e-05
1.03511e-05
1.03511e-05
1.03511e-05
1.0351e-05
1.0351e-05
1.0351e-05
1.0351e-05
1.0351e-05
1.0351e-05
1.0351e-05
1.0351e-05
1.0351e-05
1.0351e-05
1.0351e-05
1.0351e-05
1.0351e-05
1.0351e-05
1.0351e-05
1.0351e-05
1.0351e-05
1.0351e-05
1.0351e-05
1.0351e-05
1.0351e-05
1.0351e-05
1.0351e-05
1.0351e-05
1.0351e-05
1.0351e-05
1.0351e-05
1.0351e-05
1.0351e-05
1.0351e-05
1.0351e-05
1.0351e-05
1.0351e-05
1.0351e-05
1.03511e-05
1.03511e-05
1.03511e-05
1.03512e-05
1.03513e-05
1.03514e-05
1.0351e-05
1.0351e-05
1.0351e-05
1.0351e-05
1.0351e-05
1.0351e-05
1.0351e-05
1.0351e-05
1.0351e-05
1.0351e-05
1.0351e-05
1.0351e-05
1.0351e-05
1.0351e-05
1.0351e-05
1.0351e-05
1.0351e-05
1.0351e-05
1.0351e-05
1.0351e-05
1.0351e-05
1.0351e-05
1.0351e-05
1.0351e-05
1.0351e-05
1.0351e-05
1.0351e-05
1.0351e-05
1.0351e-05
1.0351e-05
1.0351e-05
1.03511e-05
1.03511e-05
1.03511e-05
1.03512e-05
1.03512e-05
1.03514e-05
1.03515e-05
1.03518e-05
1.03521e-05
1.0351e-05
1.0351e-05
1.0351e-05
1.0351e-05
1.0351e-05
1.0351e-05
1.0351e-05
1.0351e-05
1.0351e-05
1.0351e-05
1.0351e-05
1.0351e-05
1.0351e-05
1.0351e-05
1.0351e-05
1.0351e-05
1.0351e-05
1.0351e-05
1.0351e-05
1.0351e-05
1.0351e-05
1.0351e-05
1.0351e-05
1.0351e-05
1.0351e-05
1.0351e-05
1.0351e-05
1.0351e-05
1.03511e-05
1.03511e-05
1.03511e-05
1.03512e-05
1.03512e-05
1.03513e-05
1.03515e-05
1.03517e-05
1.0352e-05
1.03525e-05
1.03531e-05
1.03541e-05
1.0351e-05
1.0351e-05
1.0351e-05
1.0351e-05
1.0351e-05
1.0351e-05
1.0351e-05
1.0351e-05
1.0351e-05
1.0351e-05
1.0351e-05
1.0351e-05
1.0351e-05
1.0351e-05
1.0351e-05
1.0351e-05
1.0351e-05
1.0351e-05
1.0351e-05
1.0351e-05
1.0351e-05
1.0351e-05
1.0351e-05
1.0351e-05
1.0351e-05
1.03511e-05
1.03511e-05
1.03511e-05
1.03512e-05
1.03512e-05
1.03513e-05
1.03515e-05
1.03517e-05
1.0352e-05
1.03524e-05
1.0353e-05
1.03539e-05
1.03551e-05
1.0357e-05
1.03598e-05
1.0351e-05
1.0351e-05
1.0351e-05
1.0351e-05
1.0351e-05
1.0351e-05
1.0351e-05
1.0351e-05
1.0351e-05
1.0351e-05
1.0351e-05
1.0351e-05
1.0351e-05
1.0351e-05
1.0351e-05
1.0351e-05
1.0351e-05
1.0351e-05
1.0351e-05
1.0351e-05
1.0351e-05
1.0351e-05
1.03511e-05
1.03511e-05
1.03511e-05
1.03512e-05
1.03512e-05
1.03513e-05
1.03515e-05
1.03517e-05
1.03519e-05
1.03523e-05
1.03529e-05
1.03537e-05
1.03549e-05
1.03566e-05
1.0359e-05
1.03625e-05
1.03675e-05
1.0375e-05
1.0351e-05
1.0351e-05
1.0351e-05
1.0351e-05
1.0351e-05
1.0351e-05
1.0351e-05
1.0351e-05
1.0351e-05
1.0351e-05
1.0351e-05
1.0351e-05
1.0351e-05
1.0351e-05
1.0351e-05
1.0351e-05
1.0351e-05
1.0351e-05
1.0351e-05
1.03511e-05
1.03511e-05
1.03511e-05
1.03512e-05
1.03512e-05
1.03513e-05
1.03515e-05
1.03517e-05
1.03519e-05
1.03523e-05
1.03529e-05
1.03536e-05
1.03547e-05
1.03563e-05
1.03585e-05
1.03617e-05
1.03663e-05
1.03728e-05
1.03822e-05
1.03957e-05
1.04154e-05
1.0351e-05
1.0351e-05
1.0351e-05
1.0351e-05
1.0351e-05
1.0351e-05
1.0351e-05
1.0351e-05
1.0351e-05
1.0351e-05
1.0351e-05
1.0351e-05
1.0351e-05
1.0351e-05
1.0351e-05
1.03511e-05
1.03511e-05
1.03511e-05
1.03511e-05
1.03512e-05
1.03513e-05
1.03514e-05
1.03515e-05
1.03517e-05
1.0352e-05
1.03523e-05
1.03529e-05
1.03536e-05
1.03547e-05
1.03561e-05
1.03582e-05
1.03612e-05
1.03654e-05
1.03714e-05
1.03799e-05
1.0392e-05
1.04093e-05
1.0434e-05
1.04692e-05
1.05199e-05
1.0351e-05
1.0351e-05
1.0351e-05
1.0351e-05
1.0351e-05
1.0351e-05
1.0351e-05
1.0351e-05
1.0351e-05
1.0351e-05
1.0351e-05
1.0351e-05
1.0351e-05
1.03511e-05
1.03511e-05
1.03511e-05
1.03511e-05
1.03512e-05
1.03513e-05
1.03514e-05
1.03515e-05
1.03517e-05
1.0352e-05
1.03524e-05
1.03529e-05
1.03536e-05
1.03546e-05
1.03561e-05
1.03581e-05
1.03609e-05
1.03649e-05
1.03705e-05
1.03784e-05
1.03896e-05
1.04053e-05
1.04276e-05
1.04591e-05
1.05035e-05
1.05663e-05
1.06547e-05
1.07791e-05
1.0351e-05
1.0351e-05
1.0351e-05
1.0351e-05
1.0351e-05
1.0351e-05
1.0351e-05
1.0351e-05
1.0351e-05
1.0351e-05
1.03511e-05
1.03511e-05
1.03511e-05
1.03512e-05
1.03512e-05
1.03513e-05
1.03514e-05
1.03515e-05
1.03517e-05
1.0352e-05
1.03524e-05
1.03529e-05
1.03537e-05
1.03547e-05
1.03561e-05
1.0358e-05
1.03608e-05
1.03646e-05
1.03699e-05
1.03774e-05
1.03879e-05
1.04026e-05
1.04231e-05
1.0452e-05
1.04924e-05
1.05489e-05
1.06277e-05
1.07372e-05
1.08885e-05
1.10954e-05
1.13749e-05
1.0351e-05
1.0351e-05
1.0351e-05
1.0351e-05
1.0351e-05
1.0351e-05
1.0351e-05
1.03511e-05
1.03511e-05
1.03511e-05
1.03511e-05
1.03512e-05
1.03512e-05
1.03513e-05
1.03514e-05
1.03516e-05
1.03518e-05
1.03521e-05
1.03525e-05
1.0353e-05
1.03538e-05
1.03548e-05
1.03562e-05
1.03581e-05
1.03608e-05
1.03645e-05
1.03697e-05
1.03769e-05
1.03869e-05
1.04008e-05
1.04201e-05
1.0447e-05
1.04844e-05
1.05363e-05
1.06083e-05
1.07075e-05
1.08437e-05
1.10288e-05
1.12777e-05
1.16071e-05
1.20344e-05
1.2574e-05
1.0351e-05
1.0351e-05
1.0351e-05
1.0351e-05
1.0351e-05
1.03511e-05
1.03511e-05
1.03511e-05
1.03511e-05
1.03512e-05
1.03513e-05
1.03514e-05
1.03515e-05
1.03516e-05
1.03519e-05
1.03522e-05
1.03526e-05
1.03531e-05
1.03539e-05
1.03549e-05
1.03564e-05
1.03583e-05
1.0361e-05
1.03647e-05
1.03698e-05
1.03768e-05
1.03865e-05
1.03998e-05
1.04183e-05
1.04438e-05
1.04789e-05
1.05275e-05
1.05942e-05
1.06858e-05
1.08106e-05
1.09796e-05
1.12058e-05
1.15043e-05
1.18912e-05
1.23812e-05
1.29854e-05
1.37073e-05
1.4537e-05
1.0351e-05
1.03511e-05
1.03511e-05
1.03511e-05
1.03511e-05
1.03512e-05
1.03512e-05
1.03513e-05
1.03514e-05
1.03515e-05
1.03517e-05
1.03519e-05
1.03523e-05
1.03527e-05
1.03533e-05
1.03541e-05
1.03552e-05
1.03566e-05
1.03586e-05
1.03614e-05
1.03651e-05
1.03702e-05
1.03771e-05
1.03866e-05
1.03997e-05
1.04176e-05
1.04421e-05
1.04757e-05
1.05218e-05
1.05847e-05
1.06704e-05
1.07867e-05
1.09432e-05
1.11519e-05
1.14266e-05
1.17822e-05
1.2233e-05
1.27901e-05
1.34587e-05
1.42348e-05
1.51026e-05
1.60345e-05
1.69941e-05
1.03511e-05
1.03511e-05
1.03511e-05
1.03512e-05
1.03513e-05
1.03513e-05
1.03515e-05
1.03516e-05
1.03518e-05
1.03521e-05
1.03524e-05
1.03529e-05
1.03535e-05
1.03543e-05
1.03555e-05
1.0357e-05
1.03591e-05
1.03619e-05
1.03657e-05
1.03709e-05
1.03779e-05
1.03874e-05
1.04003e-05
1.04179e-05
1.04419e-05
1.04746e-05
1.05189e-05
1.05791e-05
1.06606e-05
1.07705e-05
1.09175e-05
1.11127e-05
1.13687e-05
1.16994e-05
1.21186e-05
1.26376e-05
1.32631e-05
1.39939e-05
1.48182e-05
1.57129e-05
1.6645e-05
1.75702e-05
1.84312e-05
1.91818e-05
1.03512e-05
1.03512e-05
1.03513e-05
1.03514e-05
1.03515e-05
1.03517e-05
1.03519e-05
1.03522e-05
1.03526e-05
1.03531e-05
1.03538e-05
1.03547e-05
1.03559e-05
1.03575e-05
1.03597e-05
1.03627e-05
1.03666e-05
1.03719e-05
1.03791e-05
1.03887e-05
1.04018e-05
1.04194e-05
1.04432e-05
1.04753e-05
1.05187e-05
1.05772e-05
1.06558e-05
1.07611e-05
1.09011e-05
1.10861e-05
1.13277e-05
1.16388e-05
1.20325e-05
1.25201e-05
1.31092e-05
1.38007e-05
1.45866e-05
1.54481e-05
1.63575e-05
1.72771e-05
1.81574e-05
1.89434e-05
1.95932e-05
2.00897e-05
2.04519e-05
1.03514e-05
1.03515e-05
1.03516e-05
1.03518e-05
1.0352e-05
1.03524e-05
1.03528e-05
1.03534e-05
1.03541e-05
1.03551e-05
1.03564e-05
1.03582e-05
1.03605e-05
1.03636e-05
1.03678e-05
1.03733e-05
1.03808e-05
1.03907e-05
1.0404e-05
1.04219e-05
1.04458e-05
1.0478e-05
1.05211e-05
1.05787e-05
1.06556e-05
1.07579e-05
1.08933e-05
1.10709e-05
1.13017e-05
1.15977e-05
1.19714e-05
1.24337e-05
1.29923e-05
1.36498e-05
1.44008e-05
1.52306e-05
1.61152e-05
1.70229e-05
1.7912e-05
1.87311e-05
1.94326e-05
1.99892e-05
2.04003e-05
2.06868e-05
2.08748e-05
2.09966e-05
1.03516e-05
1.03517e-05
1.03519e-05
1.03522e-05
1.03526e-05
1.03531e-05
1.03537e-05
1.03546e-05
1.03557e-05
1.03571e-05
1.0359e-05
1.03615e-05
1.03649e-05
1.03693e-05
1.03752e-05
1.0383e-05
1.03934e-05
1.04072e-05
1.04256e-05
1.04501e-05
1.04827e-05
1.0526e-05
1.05837e-05
1.066e-05
1.07609e-05
1.08933e-05
1.10661e-05
1.12894e-05
1.15745e-05
1.19329e-05
1.23751e-05
1.2909e-05
1.35379e-05
1.42584e-05
1.50586e-05
1.5918e-05
1.68092e-05
1.76966e-05
1.85352e-05
1.92769e-05
1.9886e-05
2.03514e-05
2.06848e-05
2.09106e-05
2.1056e-05
2.11459e-05
2.11986e-05
2.12289e-05
1.03525e-05
1.03529e-05
1.03534e-05
1.03542e-05
1.03551e-05
1.03563e-05
1.0358e-05
1.03601e-05
1.03629e-05
1.03665e-05
1.03713e-05
1.03776e-05
1.03859e-05
1.03969e-05
1.04115e-05
1.04306e-05
1.0456e-05
1.04895e-05
1.05338e-05
1.05922e-05
1.06691e-05
1.07698e-05
1.09013e-05
1.10716e-05
1.12902e-05
1.15679e-05
1.19153e-05
1.23424e-05
1.28569e-05
1.34624e-05
1.41567e-05
1.49301e-05
1.57653e-05
1.66376e-05
1.75168e-05
1.83638e-05
1.91331e-05
1.97848e-05
2.02987e-05
2.0678e-05
2.09421e-05
2.11167e-05
2.12267e-05
2.12927e-05
2.13297e-05
2.13492e-05
2.13564e-05
2.13564e-05
1.03533e-05
1.03539e-05
1.03547e-05
1.03558e-05
1.03572e-05
1.0359e-05
1.03614e-05
1.03645e-05
1.03685e-05
1.03738e-05
1.03807e-05
1.03897e-05
1.04015e-05
1.0417e-05
1.04373e-05
1.04639e-05
1.04989e-05
1.05447e-05
1.06047e-05
1.06831e-05
1.07851e-05
1.09172e-05
1.10871e-05
1.13039e-05
1.15774e-05
1.19176e-05
1.23342e-05
1.28341e-05
1.3421e-05
1.40936e-05
1.48439e-05
1.56565e-05
1.65096e-05
1.73765e-05
1.82234e-05
1.90092e-05
1.96929e-05
2.02479e-05
2.06692e-05
2.09705e-05
2.11746e-05
2.13064e-05
2.13873e-05
2.14342e-05
2.14594e-05
2.14707e-05
2.14702e-05
2.1468e-05
2.14624e-05
2.1452e-05
1.03567e-05
1.03583e-05
1.03604e-05
1.03631e-05
1.03666e-05
1.03711e-05
1.0377e-05
1.03845e-05
1.03944e-05
1.04073e-05
1.0424e-05
1.04458e-05
1.04741e-05
1.05111e-05
1.05591e-05
1.06216e-05
1.07026e-05
1.08071e-05
1.09416e-05
1.11132e-05
1.13306e-05
1.1603e-05
1.19398e-05
1.23498e-05
1.28396e-05
1.34125e-05
1.40678e-05
1.47984e-05
1.55908e-05
1.64251e-05
1.72775e-05
1.81187e-05
1.89119e-05
1.96177e-05
2.02052e-05
2.06629e-05
2.09985e-05
2.12315e-05
2.13853e-05
2.14821e-05
2.15394e-05
2.15712e-05
2.15867e-05
2.15897e-05
2.15868e-05
2.15817e-05
2.1572e-05
2.1558e-05
2.15415e-05
2.1523e-05
1.03653e-05
1.03693e-05
1.03744e-05
1.0381e-05
1.03894e-05
1.04004e-05
1.04146e-05
1.04329e-05
1.04565e-05
1.04871e-05
1.05266e-05
1.05777e-05
1.06436e-05
1.07282e-05
1.08368e-05
1.09752e-05
1.11507e-05
1.13711e-05
1.16453e-05
1.1982e-05
1.23892e-05
1.2873e-05
1.34363e-05
1.40782e-05
1.47927e-05
1.55673e-05
1.63841e-05
1.72211e-05
1.80527e-05
1.88464e-05
1.95652e-05
2.01767e-05
2.06643e-05
2.10301e-05
2.12898e-05
2.1465e-05
2.15776e-05
2.16461e-05
2.16849e-05
2.17049e-05
2.17115e-05
2.17087e-05
2.17038e-05
2.16954e-05
2.16821e-05
2.16655e-05
2.16471e-05
2.16265e-05
2.16052e-05
2.15846e-05
1.0386e-05
1.03956e-05
1.0408e-05
1.04238e-05
1.0444e-05
1.04701e-05
1.05035e-05
1.05463e-05
1.06012e-05
1.06715e-05
1.07612e-05
1.08752e-05
1.10194e-05
1.12007e-05
1.14267e-05
1.17055e-05
1.20452e-05
1.24531e-05
1.29347e-05
1.34923e-05
1.41247e-05
1.48263e-05
1.55858e-05
1.63864e-05
1.72079e-05
1.80274e-05
1.88162e-05
1.95404e-05
2.01678e-05
2.06782e-05
2.10691e-05
2.13523e-05
2.15472e-05
2.16751e-05
2.17548e-05
2.18007e-05
2.18254e-05
2.18354e-05
2.18341e-05
2.18288e-05
2.1821e-05
2.18088e-05
2.17927e-05
2.17742e-05
2.17537e-05
2.17315e-05
2.17093e-05
2.16878e-05
2.16668e-05
2.16462e-05
1.04354e-05
1.04581e-05
1.04871e-05
1.0524e-05
1.0571e-05
1.06308e-05
1.07066e-05
1.08027e-05
1.09237e-05
1.10756e-05
1.12649e-05
1.14989e-05
1.1785e-05
1.21308e-05
1.25428e-05
1.30256e-05
1.3581e-05
1.42073e-05
1.48991e-05
1.56459e-05
1.64318e-05
1.72381e-05
1.80438e-05
1.88238e-05
1.95472e-05
2.01829e-05
2.0709e-05
2.11191e-05
2.14218e-05
2.16341e-05
2.17758e-05
2.1866e-05
2.19192e-05
2.19484e-05
2.1962e-05
2.19622e-05
2.19571e-05
2.19489e-05
2.19378e-05
2.1922e-05
2.19034e-05
2.18834e-05
2.18611e-05
2.18379e-05
2.18152e-05
2.17928e-05
2.17707e-05
2.17492e-05
2.17282e-05
2.17075e-05
1.05498e-05
1.06019e-05
1.06677e-05
1.07505e-05
1.08545e-05
1.09844e-05
1.1146e-05
1.13456e-05
1.159e-05
1.18863e-05
1.22411e-05
1.26602e-05
1.31474e-05
1.37037e-05
1.43269e-05
1.50116e-05
1.57477e-05
1.65203e-05
1.73116e-05
1.81026e-05
1.88708e-05
1.95883e-05
2.02257e-05
2.07605e-05
2.11839e-05
2.15013e-05
2.17276e-05
2.18813e-05
2.19807e-05
2.20409e-05
2.20744e-05
2.20908e-05
2.20934e-05
2.20887e-05
2.20802e-05
2.20691e-05
2.20541e-05
2.20356e-05
2.20153e-05
2.1993e-05
2.19692e-05
2.19453e-05
2.1922e-05
2.18989e-05
2.18761e-05
2.18538e-05
2.18317e-05
2.181e-05
2.17887e-05
2.17677e-05
1.08052e-05
1.09189e-05
1.10597e-05
1.12332e-05
1.14455e-05
1.17029e-05
1.2012e-05
1.23787e-05
1.28078e-05
1.33022e-05
1.38621e-05
1.44849e-05
1.51647e-05
1.58919e-05
1.66521e-05
1.74288e-05
1.82042e-05
1.89582e-05
1.96654e-05
2.02987e-05
2.08358e-05
2.12663e-05
2.15935e-05
2.18301e-05
2.19931e-05
2.21002e-05
2.21663e-05
2.22038e-05
2.22225e-05
2.22275e-05
2.22235e-05
2.22144e-05
2.22028e-05
2.21886e-05
2.217e-05
2.21495e-05
2.21275e-05
2.21033e-05
2.20786e-05
2.20542e-05
2.20301e-05
2.20061e-05
2.19826e-05
2.19595e-05
2.19365e-05
2.19139e-05
2.18916e-05
2.18695e-05
2.18478e-05
2.18264e-05
1.13404e-05
1.15679e-05
1.18411e-05
1.21657e-05
1.25469e-05
1.29886e-05
1.34927e-05
1.40586e-05
1.46828e-05
1.53595e-05
1.6079e-05
1.68276e-05
1.75896e-05
1.83485e-05
1.90862e-05
1.97797e-05
2.04037e-05
2.0937e-05
2.13687e-05
2.17004e-05
2.19432e-05
2.21127e-05
2.22255e-05
2.22962e-05
2.2337e-05
2.23578e-05
2.23645e-05
2.2361e-05
2.23516e-05
2.23397e-05
2.23257e-05
2.23071e-05
2.22862e-05
2.2264e-05
2.22398e-05
2.22143e-05
2.2189e-05
2.2164e-05
2.2139e-05
2.21144e-05
2.20902e-05
2.20662e-05
2.20424e-05
2.20189e-05
2.19957e-05
2.19727e-05
2.19499e-05
2.19274e-05
2.19053e-05
2.18836e-05
1.23514e-05
1.27496e-05
1.32061e-05
1.37219e-05
1.42955e-05
1.49227e-05
1.55973e-05
1.63099e-05
1.70471e-05
1.7794e-05
1.85354e-05
1.92548e-05
1.99312e-05
2.05415e-05
2.10656e-05
2.14928e-05
2.18239e-05
2.20686e-05
2.22413e-05
2.23575e-05
2.24312e-05
2.24744e-05
2.24968e-05
2.25046e-05
2.25015e-05
2.24924e-05
2.24795e-05
2.2465e-05
2.24468e-05
2.24256e-05
2.2403e-05
2.23787e-05
2.23527e-05
2.23264e-05
2.23005e-05
2.22747e-05
2.2249e-05
2.22238e-05
2.21987e-05
2.21739e-05
2.21494e-05
2.2125e-05
2.21009e-05
2.20769e-05
2.20533e-05
2.20298e-05
2.20066e-05
2.19837e-05
2.19613e-05
2.19392e-05
1.39934e-05
1.45757e-05
1.52066e-05
1.58797e-05
1.65854e-05
1.73108e-05
1.80417e-05
1.87643e-05
1.94634e-05
2.01198e-05
2.07121e-05
2.1222e-05
2.16394e-05
2.19649e-05
2.22073e-05
2.23798e-05
2.2497e-05
2.2572e-05
2.26163e-05
2.26396e-05
2.26479e-05
2.26452e-05
2.26361e-05
2.26223e-05
2.26069e-05
2.2589e-05
2.25672e-05
2.25443e-05
2.252e-05
2.24936e-05
2.24665e-05
2.24396e-05
2.24129e-05
2.23863e-05
2.236e-05
2.2334e-05
2.23082e-05
2.22826e-05
2.22572e-05
2.2232e-05
2.2207e-05
2.21822e-05
2.21576e-05
2.21333e-05
2.21092e-05
2.20853e-05
2.20617e-05
2.20384e-05
2.20156e-05
2.19931e-05
1.62081e-05
1.69062e-05
1.76187e-05
1.83324e-05
1.90345e-05
1.97111e-05
2.03444e-05
2.09148e-05
2.14058e-05
2.18085e-05
2.21238e-05
2.23599e-05
2.2529e-05
2.26445e-05
2.2719e-05
2.27633e-05
2.27866e-05
2.27947e-05
2.27919e-05
2.27825e-05
2.27679e-05
2.27518e-05
2.27337e-05
2.27115e-05
2.26878e-05
2.26632e-05
2.26366e-05
2.26089e-05
2.25811e-05
2.25536e-05
2.25261e-05
2.24989e-05
2.24719e-05
2.24451e-05
2.24185e-05
2.23922e-05
2.2366e-05
2.234e-05
2.23141e-05
2.22885e-05
2.2263e-05
2.22378e-05
2.22127e-05
2.21879e-05
2.21634e-05
2.21391e-05
2.21151e-05
2.20915e-05
2.20683e-05
2.20454e-05
1.86651e-05
1.93447e-05
1.99964e-05
2.06035e-05
2.11483e-05
2.1616e-05
2.19996e-05
2.23004e-05
2.25263e-05
2.26888e-05
2.28002e-05
2.28724e-05
2.29154e-05
2.29378e-05
2.29452e-05
2.2942e-05
2.29319e-05
2.29166e-05
2.28994e-05
2.28805e-05
2.28584e-05
2.2834e-05
2.28088e-05
2.27819e-05
2.27535e-05
2.2725e-05
2.26967e-05
2.26684e-05
2.26402e-05
2.26123e-05
2.25846e-05
2.25571e-05
2.25298e-05
2.25026e-05
2.24756e-05
2.24488e-05
2.24221e-05
2.23956e-05
2.23693e-05
2.23432e-05
2.23173e-05
2.22915e-05
2.22661e-05
2.22408e-05
2.22159e-05
2.21912e-05
2.21669e-05
2.21428e-05
2.21192e-05
2.2096e-05
2.08949e-05
2.14102e-05
2.18507e-05
2.22111e-05
2.24936e-05
2.2706e-05
2.2859e-05
2.29642e-05
2.30322e-05
2.30726e-05
2.30933e-05
2.30993e-05
2.30953e-05
2.30843e-05
2.30682e-05
2.30498e-05
2.30299e-05
2.30076e-05
2.29824e-05
2.29565e-05
2.29294e-05
2.29005e-05
2.28712e-05
2.2842e-05
2.28129e-05
2.27838e-05
2.2755e-05
2.27265e-05
2.26981e-05
2.26698e-05
2.26417e-05
2.26138e-05
2.2586e-05
2.25584e-05
2.25309e-05
2.25036e-05
2.24764e-05
2.24495e-05
2.24227e-05
2.23961e-05
2.23697e-05
2.23436e-05
2.23177e-05
2.2292e-05
2.22667e-05
2.22416e-05
2.22168e-05
2.21924e-05
2.21685e-05
2.2145e-05
2.2441e-05
2.27019e-05
2.28979e-05
2.3039e-05
2.31359e-05
2.31981e-05
2.32348e-05
2.32529e-05
2.32568e-05
2.32516e-05
2.32395e-05
2.32223e-05
2.32027e-05
2.3182e-05
2.3159e-05
2.3133e-05
2.31064e-05
2.30789e-05
2.30495e-05
2.30195e-05
2.29896e-05
2.29597e-05
2.29298e-05
2.29001e-05
2.28707e-05
2.28414e-05
2.28122e-05
2.27833e-05
2.27544e-05
2.27258e-05
2.26972e-05
2.26688e-05
2.26405e-05
2.26124e-05
2.25844e-05
2.25566e-05
2.2529e-05
2.25015e-05
2.24743e-05
2.24473e-05
2.24204e-05
2.23938e-05
2.23675e-05
2.23414e-05
2.23157e-05
2.22902e-05
2.22651e-05
2.22403e-05
2.22161e-05
2.21922e-05
2.32277e-05
2.33145e-05
2.33698e-05
2.34018e-05
2.34167e-05
2.34176e-05
2.3411e-05
2.33975e-05
2.33788e-05
2.33582e-05
2.33364e-05
2.33124e-05
2.32859e-05
2.32585e-05
2.32303e-05
2.32004e-05
2.31697e-05
2.31391e-05
2.31085e-05
2.30779e-05
2.30473e-05
2.30171e-05
2.29869e-05
2.29569e-05
2.29271e-05
2.28974e-05
2.28678e-05
2.28384e-05
2.28091e-05
2.27799e-05
2.27508e-05
2.27219e-05
2.26932e-05
2.26645e-05
2.26361e-05
2.26078e-05
2.25797e-05
2.25518e-05
2.25241e-05
2.24966e-05
2.24693e-05
2.24423e-05
2.24156e-05
2.23891e-05
2.23629e-05
2.23371e-05
2.23116e-05
2.22865e-05
2.22619e-05
2.22377e-05
2.35466e-05
2.35729e-05
2.35836e-05
2.35819e-05
2.35733e-05
2.35579e-05
2.35378e-05
2.3516e-05
2.34932e-05
2.34679e-05
2.34409e-05
2.34126e-05
2.33836e-05
2.33533e-05
2.33219e-05
2.32906e-05
2.32593e-05
2.32279e-05
2.31965e-05
2.31655e-05
2.31346e-05
2.31038e-05
2.30731e-05
2.30426e-05
2.30121e-05
2.29819e-05
2.29517e-05
2.29216e-05
2.28917e-05
2.28619e-05
2.28322e-05
2.28026e-05
2.27732e-05
2.2744e-05
2.27149e-05
2.26859e-05
2.26572e-05
2.26286e-05
2.26002e-05
2.25721e-05
2.25441e-05
2.25164e-05
2.2489e-05
2.24618e-05
2.2435e-05
2.24084e-05
2.23822e-05
2.23564e-05
2.23309e-05
2.2306e-05
2.22815e-05
2.37493e-05
2.37379e-05
2.37205e-05
2.3699e-05
2.3676e-05
2.3652e-05
2.36255e-05
2.35978e-05
2.35687e-05
2.35388e-05
2.3508e-05
2.3476e-05
2.34439e-05
2.34119e-05
2.33798e-05
2.33477e-05
2.33159e-05
2.32842e-05
2.32526e-05
2.32211e-05
2.31898e-05
2.31586e-05
2.31275e-05
2.30965e-05
2.30656e-05
2.30348e-05
2.30041e-05
2.29735e-05
2.29431e-05
2.29128e-05
2.28826e-05
2.28526e-05
2.28227e-05
2.27929e-05
2.27633e-05
2.27339e-05
2.27047e-05
2.26757e-05
2.26469e-05
2.26182e-05
2.25899e-05
2.25617e-05
2.25339e-05
2.25063e-05
2.2479e-05
2.24521e-05
2.24255e-05
2.23993e-05
2.23735e-05
2.23483e-05
2.23234e-05
2.38852e-05
2.38623e-05
2.3838e-05
2.38127e-05
2.37851e-05
2.37563e-05
2.37267e-05
2.36959e-05
2.36643e-05
2.36318e-05
2.35989e-05
2.35663e-05
2.35335e-05
2.35007e-05
2.34681e-05
2.34357e-05
2.34033e-05
2.3371e-05
2.3339e-05
2.3307e-05
2.3275e-05
2.32433e-05
2.32116e-05
2.318e-05
2.31485e-05
2.31171e-05
2.30858e-05
2.30546e-05
2.30236e-05
2.29926e-05
2.29618e-05
2.29311e-05
2.29006e-05
2.28702e-05
2.284e-05
2.281e-05
2.27801e-05
2.27504e-05
2.27209e-05
2.26916e-05
2.26626e-05
2.26338e-05
2.26052e-05
2.25769e-05
2.25489e-05
2.25213e-05
2.2494e-05
2.2467e-05
2.24405e-05
2.24143e-05
2.23887e-05
2.23636e-05
2.39751e-05
2.39464e-05
2.39166e-05
2.38862e-05
2.38546e-05
2.38222e-05
2.37891e-05
2.37556e-05
2.37222e-05
2.36889e-05
2.36553e-05
2.3622e-05
2.35889e-05
2.35558e-05
2.35228e-05
2.349e-05
2.34572e-05
2.34245e-05
2.3392e-05
2.33595e-05
2.33271e-05
2.32949e-05
2.32627e-05
2.32306e-05
2.31986e-05
2.31667e-05
2.31349e-05
2.31032e-05
2.30717e-05
2.30403e-05
2.3009e-05
2.29778e-05
2.29468e-05
2.2916e-05
2.28853e-05
2.28547e-05
2.28244e-05
2.27942e-05
2.27643e-05
2.27346e-05
2.27051e-05
2.26758e-05
2.26468e-05
2.26181e-05
2.25897e-05
2.25617e-05
2.2534e-05
2.25066e-05
2.24797e-05
2.24532e-05
2.24273e-05
2.24018e-05
2.40471e-05
2.40148e-05
2.39816e-05
2.39479e-05
2.39137e-05
2.38796e-05
2.38457e-05
2.38115e-05
2.37775e-05
2.37437e-05
2.37099e-05
2.36762e-05
2.36427e-05
2.36092e-05
2.35758e-05
2.35425e-05
2.35093e-05
2.34762e-05
2.34431e-05
2.34102e-05
2.33773e-05
2.33445e-05
2.33119e-05
2.32793e-05
2.32468e-05
2.32144e-05
2.31821e-05
2.315e-05
2.31179e-05
2.3086e-05
2.30543e-05
2.30226e-05
2.29911e-05
2.29598e-05
2.29286e-05
2.28976e-05
2.28668e-05
2.28362e-05
2.28058e-05
2.27756e-05
2.27457e-05
2.2716e-05
2.26866e-05
2.26574e-05
2.26286e-05
2.26002e-05
2.25721e-05
2.25444e-05
2.25171e-05
2.24903e-05
2.2464e-05
2.24382e-05
2.41079e-05
2.40732e-05
2.40385e-05
2.40039e-05
2.39691e-05
2.39344e-05
2.39e-05
2.38656e-05
2.38312e-05
2.3797e-05
2.37628e-05
2.37287e-05
2.36947e-05
2.36608e-05
2.36269e-05
2.35932e-05
2.35595e-05
2.35259e-05
2.34923e-05
2.34589e-05
2.34256e-05
2.33923e-05
2.33591e-05
2.33261e-05
2.32931e-05
2.32602e-05
2.32275e-05
2.31948e-05
2.31623e-05
2.31299e-05
2.30977e-05
2.30655e-05
2.30336e-05
2.30018e-05
2.29701e-05
2.29386e-05
2.29073e-05
2.28763e-05
2.28454e-05
2.28148e-05
2.27844e-05
2.27542e-05
2.27244e-05
2.26949e-05
2.26656e-05
2.26368e-05
2.26083e-05
2.25802e-05
2.25526e-05
2.25254e-05
2.24988e-05
2.24727e-05
2.41633e-05
2.4128e-05
2.40926e-05
2.40576e-05
2.40225e-05
2.39875e-05
2.39526e-05
2.39178e-05
2.38831e-05
2.38484e-05
2.38138e-05
2.37793e-05
2.37448e-05
2.37104e-05
2.36761e-05
2.36419e-05
2.36077e-05
2.35737e-05
2.35397e-05
2.35057e-05
2.34719e-05
2.34382e-05
2.34045e-05
2.3371e-05
2.33375e-05
2.33042e-05
2.32709e-05
2.32378e-05
2.32048e-05
2.31719e-05
2.31392e-05
2.31066e-05
2.30741e-05
2.30418e-05
2.30097e-05
2.29777e-05
2.2946e-05
2.29144e-05
2.28831e-05
2.2852e-05
2.28212e-05
2.27906e-05
2.27603e-05
2.27303e-05
2.27007e-05
2.26714e-05
2.26426e-05
2.26141e-05
2.25861e-05
2.25586e-05
2.25317e-05
2.25052e-05
2.42163e-05
2.41807e-05
2.4145e-05
2.41095e-05
2.40742e-05
2.40388e-05
2.40035e-05
2.39682e-05
2.39331e-05
2.3898e-05
2.38629e-05
2.3828e-05
2.3793e-05
2.37582e-05
2.37234e-05
2.36887e-05
2.36541e-05
2.36195e-05
2.35851e-05
2.35507e-05
2.35164e-05
2.34821e-05
2.3448e-05
2.3414e-05
2.338e-05
2.33462e-05
2.33125e-05
2.32789e-05
2.32454e-05
2.3212e-05
2.31788e-05
2.31457e-05
2.31127e-05
2.30799e-05
2.30473e-05
2.30149e-05
2.29827e-05
2.29507e-05
2.29189e-05
2.28873e-05
2.2856e-05
2.2825e-05
2.27942e-05
2.27638e-05
2.27338e-05
2.27041e-05
2.26748e-05
2.2646e-05
2.26176e-05
2.25897e-05
2.25625e-05
2.25357e-05
2.42676e-05
2.42317e-05
2.41957e-05
2.41598e-05
2.41239e-05
2.40882e-05
2.40524e-05
2.40168e-05
2.39812e-05
2.39456e-05
2.39101e-05
2.38747e-05
2.38393e-05
2.3804e-05
2.37688e-05
2.37336e-05
2.36985e-05
2.36635e-05
2.36286e-05
2.35937e-05
2.35589e-05
2.35242e-05
2.34896e-05
2.34551e-05
2.34206e-05
2.33863e-05
2.33521e-05
2.3318e-05
2.3284e-05
2.32501e-05
2.32164e-05
2.31828e-05
2.31494e-05
2.31161e-05
2.3083e-05
2.30501e-05
2.30174e-05
2.29849e-05
2.29526e-05
2.29206e-05
2.28888e-05
2.28574e-05
2.28262e-05
2.27953e-05
2.27649e-05
2.27348e-05
2.27051e-05
2.26758e-05
2.26471e-05
2.26188e-05
2.25912e-05
2.25641e-05
2.42808e-05
2.42444e-05
2.42081e-05
2.41719e-05
2.41357e-05
2.40995e-05
2.40634e-05
2.40274e-05
2.39914e-05
2.39554e-05
2.39196e-05
2.38837e-05
2.3848e-05
2.38123e-05
2.37767e-05
2.37411e-05
2.37056e-05
2.36702e-05
2.36348e-05
2.35996e-05
2.35644e-05
2.35293e-05
2.34943e-05
2.34593e-05
2.34245e-05
2.33898e-05
2.33552e-05
2.33207e-05
2.32864e-05
2.32521e-05
2.32181e-05
2.31841e-05
2.31504e-05
2.31168e-05
2.30834e-05
2.30502e-05
2.30172e-05
2.29844e-05
2.29519e-05
2.29197e-05
2.28877e-05
2.28561e-05
2.28248e-05
2.27939e-05
2.27633e-05
2.27332e-05
2.27036e-05
2.26744e-05
2.26458e-05
2.26178e-05
2.25903e-05
2.4328e-05
2.42912e-05
2.42545e-05
2.42178e-05
2.41812e-05
2.41446e-05
2.41081e-05
2.40716e-05
2.40352e-05
2.39988e-05
2.39625e-05
2.39262e-05
2.389e-05
2.38539e-05
2.38178e-05
2.37817e-05
2.37457e-05
2.37098e-05
2.3674e-05
2.36383e-05
2.36026e-05
2.3567e-05
2.35315e-05
2.34961e-05
2.34608e-05
2.34256e-05
2.33905e-05
2.33555e-05
2.33206e-05
2.32859e-05
2.32513e-05
2.32168e-05
2.31826e-05
2.31485e-05
2.31146e-05
2.30809e-05
2.30474e-05
2.30141e-05
2.29811e-05
2.29484e-05
2.2916e-05
2.28839e-05
2.28521e-05
2.28208e-05
2.27898e-05
2.27593e-05
2.27292e-05
2.26997e-05
2.26706e-05
2.26423e-05
2.26145e-05
2.43733e-05
2.43362e-05
2.4299e-05
2.42619e-05
2.42249e-05
2.41879e-05
2.41509e-05
2.4114e-05
2.40771e-05
2.40403e-05
2.40035e-05
2.39668e-05
2.39301e-05
2.38935e-05
2.38569e-05
2.38204e-05
2.3784e-05
2.37476e-05
2.37113e-05
2.36751e-05
2.36389e-05
2.36028e-05
2.35668e-05
2.35309e-05
2.34951e-05
2.34593e-05
2.34237e-05
2.33882e-05
2.33528e-05
2.33176e-05
2.32825e-05
2.32475e-05
2.32128e-05
2.31781e-05
2.31437e-05
2.31095e-05