/*--------------------------------*- C++ -*----------------------------------*\
| =========                 |                                                 |
| \\      /  F ield         | OpenFOAM: The Open Source CFD Toolbox           |
|  \\    /   O peration     | Version:  v1706                                 |
|   \\  /    A nd           | Web:      www.OpenFOAM.com                      |
|    \\/     M anipulation  |                                                 |
\*---------------------------------------------------------------------------*/
FoamFile
{
    version     2.0;
    format      ascii;
    class       volScalarField;
    location    "3.7e-05";
    object      Tt;
}
// * * * * * * * * * * * * * * * * * * * * * * * * * * * * * * * * * * * * * //

dimensions      [0 0 0 1 0 0 0];


internalField   nonuniform List<scalar> 
30038
(
144.4
144.4
144.4
144.4
144.4
144.4
144.4
144.4
144.4
144.4
144.4
144.4
144.4
144.4
144.4
144.4
144.4
144.4
144.4
144.4
144.4
144.4
144.4
144.4
144.4
144.4
144.4
144.4
144.4
144.4
144.4
144.4
144.4
144.4
144.4
144.4
144.4
144.4
144.4
144.4
144.4
144.4
144.4
144.4
144.4
144.4
144.4
144.4
144.4
144.4
144.4
144.4
144.4
144.4
144.4
144.4
144.4
144.4
144.4
144.4
144.4
144.4
144.4
144.4
144.4
144.4
144.4
144.4
144.4
144.4
144.4
144.4
144.4
144.4
144.4
144.4
144.4
144.4
144.4
144.4
144.4
144.4
144.4
144.4
144.4
144.4
144.4
144.4
144.4
144.4
144.4
144.4
144.4
144.4
144.4
144.4
144.4
144.4
144.4
144.4
144.4
144.4
144.4
144.4
144.4
144.4
144.4
144.4
144.4
144.4
144.4
144.4
144.4
144.4
144.4
144.4
144.4
144.4
144.4
144.4
144.4
144.4
144.4
144.4
144.4
144.4
144.4
144.4
144.4
144.4
144.4
144.4
144.4
144.4
144.4
144.4
144.4
144.4
144.4
144.4
144.4
144.4
144.4
144.4
144.4
144.4
144.4
144.4
144.4
144.4
144.4
144.4
144.4
144.4
144.4
144.4
144.4
144.4
144.4
144.4
144.4
144.4
144.4
144.4
144.4
144.4
144.4
144.4
144.4
144.4
144.4
144.4
144.4
144.4
144.4
144.4
144.4
144.4
144.4
144.4
144.4
144.4
144.4
144.4
144.4
144.4
144.4
144.4
144.4
144.4
144.4
144.4
144.4
144.4
144.4
144.4
144.4
144.4
144.4
144.4
144.4
144.4
144.4
144.4
144.4
144.4
144.4
144.4
144.4
144.4
144.4
144.4
144.4
144.4
144.4
144.4
144.4
144.4
144.4
144.4
144.4
144.4
144.4
144.4
144.4
144.4
144.4
144.4
144.4
144.4
144.4
144.4
144.4
144.4
144.4
144.4
144.4
144.4
144.4
144.4
144.4
144.4
144.4
144.4
144.4
144.4
144.4
144.4
144.4
144.4
144.4
144.4
144.4
144.4
144.4
144.4
144.4
144.4
144.4
144.4
144.4
144.4
144.4
144.4
144.4
144.4
144.4
144.4
144.4
144.4
144.4
144.4
144.4
144.4
144.4
144.4
144.4
144.4
144.4
144.4
144.4
144.4
144.4
144.4
144.4
144.4
144.4
144.4
144.4
144.4
144.4
144.4
144.4
144.4
144.4
144.4
144.4
144.4
144.4
144.4
144.4
144.4
144.4
144.4
144.4
144.4
144.4
144.4
144.4
144.4
144.4
144.4
144.4
144.4
144.4
144.4
144.4
144.4
144.4
144.4
144.4
144.4
144.4
144.4
144.4
144.4
144.4
144.4
144.4
144.4
144.4
144.4
144.4
144.4
144.4
144.4
144.4
144.4
144.4
144.4
144.4
144.4
144.4
144.4
144.4
144.4
144.4
144.4
144.4
144.4
144.4
144.4
144.4
144.4
144.4
144.4
144.4
144.4
144.4
144.4
144.4
144.4
144.4
144.4
144.4
144.4
144.4
144.4
144.4
144.4
144.4
144.4
144.4
144.4
144.4
144.4
144.4
144.4
144.4
144.4
144.401
144.401
144.4
144.4
144.4
144.4
144.4
144.4
144.4
144.4
144.4
144.4
144.4
144.4
144.4
144.4
144.4
144.4
144.4
144.4
144.4
144.4
144.4
144.4
144.4
144.4
144.4
144.4
144.4
144.4
144.4
144.4
144.4
144.4
144.4
144.4
144.401
144.401
144.401
144.402
144.402
144.4
144.4
144.4
144.4
144.4
144.4
144.4
144.4
144.4
144.4
144.4
144.4
144.4
144.4
144.4
144.4
144.4
144.4
144.4
144.4
144.4
144.4
144.4
144.4
144.4
144.4
144.4
144.4
144.4
144.4
144.4
144.4
144.401
144.401
144.401
144.402
144.402
144.403
144.405
144.407
144.4
144.4
144.4
144.4
144.4
144.4
144.4
144.4
144.4
144.4
144.4
144.4
144.4
144.4
144.4
144.4
144.4
144.4
144.4
144.4
144.4
144.4
144.4
144.4
144.4
144.4
144.4
144.4
144.4
144.401
144.401
144.401
144.402
144.402
144.403
144.405
144.407
144.41
144.414
144.421
144.4
144.4
144.4
144.4
144.4
144.4
144.4
144.4
144.4
144.4
144.4
144.4
144.4
144.4
144.4
144.4
144.4
144.4
144.4
144.4
144.4
144.4
144.4
144.4
144.4
144.4
144.401
144.401
144.401
144.402
144.402
144.403
144.404
144.406
144.409
144.413
144.419
144.428
144.44
144.459
144.4
144.4
144.4
144.4
144.4
144.4
144.4
144.4
144.4
144.4
144.4
144.4
144.4
144.4
144.4
144.4
144.4
144.4
144.4
144.4
144.4
144.4
144.4
144.401
144.401
144.401
144.402
144.402
144.403
144.404
144.406
144.409
144.413
144.418
144.426
144.438
144.454
144.478
144.513
144.565
144.4
144.4
144.4
144.4
144.4
144.4
144.4
144.4
144.4
144.4
144.4
144.4
144.4
144.4
144.4
144.4
144.4
144.4
144.4
144.4
144.401
144.401
144.401
144.402
144.402
144.403
144.404
144.406
144.409
144.413
144.418
144.425
144.436
144.451
144.473
144.505
144.55
144.616
144.712
144.852
144.4
144.4
144.4
144.4
144.4
144.4
144.4
144.4
144.4
144.4
144.4
144.4
144.4
144.4
144.4
144.4
144.4
144.401
144.401
144.401
144.402
144.402
144.403
144.405
144.406
144.409
144.413
144.418
144.425
144.435
144.45
144.47
144.5
144.542
144.602
144.687
144.81
144.987
145.243
145.615
144.4
144.4
144.4
144.4
144.4
144.4
144.4
144.4
144.4
144.4
144.4
144.4
144.4
144.401
144.401
144.401
144.401
144.402
144.402
144.403
144.405
144.407
144.409
144.413
144.418
144.425
144.435
144.449
144.469
144.497
144.536
144.592
144.672
144.785
144.945
145.174
145.499
145.965
146.632
147.592
144.4
144.4
144.4
144.4
144.4
144.4
144.4
144.4
144.4
144.4
144.4
144.401
144.401
144.401
144.401
144.402
144.403
144.404
144.405
144.407
144.41
144.413
144.418
144.425
144.435
144.449
144.468
144.495
144.533
144.587
144.662
144.767
144.916
145.127
145.424
145.845
146.44
147.281
148.471
150.151
152.522
144.4
144.4
144.4
144.4
144.4
144.4
144.4
144.4
144.401
144.401
144.401
144.402
144.402
144.403
144.404
144.405
144.407
144.41
144.414
144.419
144.426
144.436
144.45
144.469
144.496
144.533
144.584
144.656
144.757
144.898
145.095
145.372
145.76
146.305
147.069
148.14
149.637
151.724
154.616
158.598
164.018
144.4
144.4
144.4
144.4
144.4
144.401
144.401
144.401
144.401
144.402
144.402
144.403
144.404
144.406
144.408
144.411
144.415
144.42
144.428
144.438
144.452
144.471
144.498
144.534
144.585
144.655
144.753
144.888
145.076
145.338
145.703
146.211
146.918
147.902
149.267
151.157
153.758
157.314
162.128
168.556
176.992
187.795
144.4
144.4
144.4
144.401
144.401
144.401
144.402
144.402
144.403
144.404
144.405
144.407
144.409
144.412
144.416
144.422
144.43
144.44
144.454
144.474
144.501
144.538
144.589
144.658
144.754
144.886
145.069
145.321
145.669
146.15
146.815
147.734
149.001
150.742
153.126
156.367
160.733
166.544
174.153
183.916
196.145
211.018
228.458
144.401
144.401
144.401
144.402
144.402
144.403
144.404
144.406
144.407
144.41
144.413
144.418
144.424
144.432
144.443
144.458
144.479
144.506
144.544
144.595
144.666
144.761
144.892
145.072
145.318
145.656
146.119
146.755
147.627
148.82
150.45
152.668
155.667
159.69
165.027
172.002
180.949
192.17
205.865
222.065
240.551
260.825
282.14
144.402
144.402
144.403
144.404
144.405
144.406
144.408
144.411
144.415
144.42
144.426
144.435
144.447
144.463
144.485
144.513
144.553
144.606
144.677
144.774
144.906
145.086
145.33
145.663
146.116
146.733
147.572
148.715
150.264
152.358
155.174
158.932
163.897
170.371
178.668
189.082
201.834
217.002
234.45
253.781
274.336
295.145
314.862
332.321
144.403
144.404
144.406
144.407
144.41
144.413
144.417
144.422
144.43
144.439
144.452
144.469
144.492
144.523
144.564
144.62
144.694
144.794
144.929
145.111
145.357
145.689
146.139
146.747
147.568
148.678
150.172
152.179
154.86
158.419
163.099
169.179
176.956
186.712
198.676
212.965
229.513
248.018
267.952
288.509
308.556
326.748
341.995
353.765
362.417
144.407
144.409
144.412
144.415
144.42
144.426
144.434
144.445
144.459
144.477
144.502
144.535
144.579
144.638
144.716
144.821
144.961
145.148
145.4
145.737
146.19
146.797
147.613
148.706
150.169
152.119
154.709
158.126
162.594
168.374
175.743
184.972
196.287
209.826
225.572
243.312
262.602
282.788
302.931
321.807
338.208
351.371
361.18
368.058
372.59
375.533
144.411
144.414
144.418
144.423
144.43
144.439
144.451
144.467
144.488
144.515
144.551
144.599
144.662
144.745
144.856
145.003
145.199
145.46
145.807
146.27
146.886
147.708
148.801
150.252
152.175
154.711
158.035
162.357
167.918
174.979
183.797
194.59
207.506
222.565
239.607
258.268
277.999
298.018
317.266
334.547
348.92
360.008
368.008
373.452
376.967
379.147
380.426
381.162
144.428
144.436
144.446
144.46
144.477
144.501
144.531
144.571
144.623
144.692
144.782
144.902
145.059
145.266
145.54
145.903
146.382
147.016
147.855
148.963
150.425
152.346
154.863
158.139
162.373
167.789
174.631
183.141
193.53
205.943
220.422
236.849
254.926
274.171
293.933
313.306
331.177
346.519
358.746
367.842
374.21
378.435
381.105
382.709
383.609
384.085
384.26
384.259
144.443
144.455
144.471
144.491
144.517
144.552
144.596
144.654
144.73
144.83
144.959
145.129
145.352
145.644
146.028
146.532
147.193
148.062
149.201
150.692
152.638
155.168
158.44
162.638
167.975
174.679
182.976
193.066
205.089
219.097
235.004
252.553
271.324
290.755
310.072
328.281
344.344
357.53
367.627
374.893
379.837
383.039
385.008
386.15
386.765
387.04
387.029
386.976
386.841
386.586
144.508
144.538
144.578
144.628
144.694
144.779
144.889
145.032
145.219
145.461
145.777
146.188
146.725
147.424
148.335
149.522
151.063
153.06
155.637
158.944
163.158
168.478
175.118
183.289
193.177
204.914
218.554
234.031
251.121
269.451
288.519
307.666
326.012
342.566
356.511
367.475
375.57
381.217
384.957
387.315
388.715
389.49
389.87
389.944
389.873
389.749
389.512
389.171
388.767
388.317
144.669
144.744
144.84
144.965
145.125
145.332
145.599
145.944
146.391
146.97
147.719
148.688
149.939
151.553
153.628
156.284
159.668
163.947
169.309
175.955
184.08
193.857
205.406
218.775
233.909
250.61
268.543
287.248
306.152
324.485
341.326
355.83
367.507
376.332
382.631
386.895
389.644
391.319
392.268
392.757
392.918
392.852
392.73
392.525
392.201
391.794
391.345
390.843
390.324
389.819
145.06
145.242
145.474
145.772
146.156
146.648
147.28
148.092
149.135
150.471
152.181
154.363
157.134
160.636
165.029
170.491
177.209
185.364
195.113
206.563
219.751
234.627
251.014
268.594
286.951
305.573
323.782
340.742
355.615
367.839
377.272
384.147
388.899
392.023
393.974
395.1
395.705
395.952
395.921
395.791
395.6
395.301
394.907
394.454
393.951
393.41
392.866
392.34
391.827
391.325
145.992
146.422
146.97
147.669
148.561
149.696
151.141
152.975
155.295
158.219
161.882
166.44
172.059
178.914
187.171
196.969
208.4
221.49
236.186
252.323
269.6
287.631
305.949
323.959
340.901
355.976
368.578
378.483
385.838
391.017
394.487
396.697
398.006
398.722
399.057
399.064
398.937
398.736
398.465
398.076
397.621
397.129
396.583
396.016
395.457
394.91
394.369
393.842
393.328
392.823
148.158
149.148
150.399
151.979
153.967
156.462
159.579
163.45
168.224
174.059
181.115
189.542
199.462
210.949
224.014
238.601
254.545
271.564
289.292
307.298
325.054
341.87
356.995
369.816
380.051
387.773
393.303
397.072
399.512
400.993
401.82
402.224
402.289
402.172
401.963
401.691
401.322
400.866
400.367
399.82
399.235
398.65
398.078
397.511
396.952
396.404
395.863
395.33
394.809
394.296
153.024
155.202
157.911
161.267
165.397
170.442
176.551
183.87
192.533
202.642
214.252
227.359
241.895
257.699
274.497
291.942
309.631
327.09
343.691
358.738
371.63
382.05
390.02
395.811
399.815
402.449
404.079
405.005
405.467
405.59
405.492
405.269
404.983
404.634
404.175
403.669
403.128
402.533
401.924
401.323
400.731
400.142
399.565
398.997
398.434
397.878
397.33
396.788
396.257
395.734
163.35
167.792
173.166
179.609
187.254
196.214
206.573
218.364
231.567
246.103
261.809
278.415
295.588
312.954
330.079
346.392
361.248
374.072
384.538
392.633
398.586
402.755
405.536
407.283
408.291
408.807
408.972
408.886
408.654
408.362
408.014
407.556
407.039
406.493
405.895
405.268
404.642
404.026
403.412
402.806
402.21
401.62
401.035
400.458
399.886
399.321
398.762
398.21
397.668
397.135
183.324
191.353
200.668
211.33
223.351
236.694
251.268
266.903
283.335
300.239
317.27
334.026
349.985
364.549
377.18
387.559
395.655
401.667
405.923
408.794
410.62
411.689
412.245
412.438
412.362
412.136
411.818
411.459
411.01
410.484
409.926
409.326
408.682
408.034
407.393
406.756
406.123
405.5
404.883
404.272
403.666
403.067
402.472
401.884
401.301
400.725
400.156
399.593
399.041
398.498
216.999
229.288
242.801
257.435
273.015
289.274
305.903
322.578
338.927
354.468
368.647
380.969
391.136
399.114
405.082
409.344
412.244
414.105
415.207
415.786
415.991
415.924
415.699
415.357
414.974
414.532
413.992
413.422
412.821
412.167
411.496
410.831
410.171
409.512
408.863
408.221
407.583
406.952
406.326
405.704
405.088
404.476
403.871
403.271
402.677
402.09
401.51
400.937
400.376
399.822
264.655
280.177
296.251
312.583
328.872
344.77
359.827
373.533
385.437
395.274
403.022
408.848
413.034
415.901
417.754
418.857
419.436
419.64
419.571
419.336
418.974
418.574
418.124
417.571
416.984
416.372
415.712
415.024
414.336
413.654
412.973
412.298
411.631
410.968
410.31
409.658
409.011
408.368
407.73
407.097
406.468
405.845
405.228
404.617
404.012
403.414
402.824
402.241
401.67
401.108
320.275
336.137
351.533
366.036
379.179
390.562
399.962
407.375
412.966
416.998
419.772
421.57
422.643
423.202
423.389
423.309
423.057
422.677
422.248
421.777
421.225
420.618
419.991
419.322
418.617
417.908
417.205
416.502
415.801
415.109
414.423
413.74
413.063
412.391
411.722
411.058
410.398
409.743
409.093
408.447
407.807
407.172
406.544
405.921
405.306
404.697
404.097
403.505
402.925
402.353
373.05
385.541
396.305
405.169
412.153
417.424
421.232
423.857
425.555
426.565
427.083
427.235
427.134
426.861
426.46
425.999
425.503
424.945
424.316
423.671
422.995
422.274
421.545
420.819
420.095
419.371
418.655
417.946
417.239
416.537
415.84
415.147
414.458
413.773
413.092
412.415
411.743
411.076
410.413
409.755
409.103
408.457
407.817
407.184
406.558
405.939
405.33
404.728
404.138
403.558
410.846
417.319
422.198
425.722
428.147
429.704
430.623
431.079
431.177
431.047
430.745
430.313
429.823
429.304
428.729
428.078
427.414
426.726
425.992
425.242
424.496
423.751
423.005
422.266
421.533
420.803
420.077
419.357
418.64
417.927
417.217
416.512
415.81
415.112
414.418
413.729
413.044
412.364
411.69
411.02
410.357
409.699
409.048
408.405
407.768
407.14
406.52
405.909
405.311
404.722
430.44
432.619
434.008
434.811
435.187
435.211
435.045
434.705
434.238
433.719
433.174
432.57
431.907
431.22
430.515
429.767
428.998
428.231
427.467
426.701
425.938
425.183
424.431
423.682
422.939
422.199
421.462
420.728
419.999
419.273
418.55
417.832
417.117
416.406
415.7
414.998
414.301
413.61
412.923
412.242
411.567
410.899
410.237
409.582
408.936
408.297
407.668
407.048
406.441
405.844
438.451
439.115
439.384
439.342
439.125
438.739
438.232
437.684
437.11
436.475
435.797
435.086
434.358
433.598
432.811
432.025
431.241
430.454
429.669
428.892
428.119
427.348
426.582
425.82
425.06
424.304
423.551
422.802
422.056
421.313
420.574
419.839
419.107
418.38
417.656
416.938
416.224
415.514
414.811
414.112
413.42
412.734
412.054
411.382
410.717
410.06
409.412
408.773
408.144
407.529
406.923
443.562
443.275
442.837
442.293
441.714
441.11
440.442
439.743
439.01
438.259
437.483
436.679
435.872
435.07
434.263
433.457
432.659
431.865
431.072
430.284
429.5
428.719
427.941
427.166
426.394
425.625
424.859
424.096
423.337
422.582
421.829
421.081
420.337
419.597
418.861
418.13
417.404
416.683
415.967
415.257
414.553
413.856
413.166
412.483
411.807
411.141
410.483
409.835
409.197
408.573
407.959
446.997
446.417
445.803
445.165
444.466
443.741
442.992
442.215
441.42
440.6
439.772
438.95
438.126
437.3
436.481
435.667
434.852
434.043
433.238
432.435
431.635
430.839
430.045
429.254
428.466
427.681
426.899
426.12
425.345
424.573
423.804
423.039
422.278
421.522
420.769
420.021
419.278
418.54
417.807
417.079
416.358
415.642
414.934
414.233
413.539
412.853
412.177
411.509
410.852
410.206
409.573
408.951
449.272
448.544
447.792
447.022
446.222
445.404
444.569
443.722
442.881
442.039
441.193
440.354
439.52
438.686
437.856
437.031
436.207
435.386
434.568
433.754
432.941
432.132
431.325
430.521
429.72
428.922
428.127
427.335
426.547
425.762
424.981
424.203
423.43
422.661
421.896
421.135
420.38
419.63
418.885
418.146
417.413
416.686
415.967
415.254
414.55
413.854
413.168
412.491
411.824
411.169
410.528
409.897
451.097
450.276
449.436
448.583
447.719
446.856
445.998
445.135
444.276
443.423
442.57
441.72
440.874
440.031
439.19
438.352
437.516
436.683
435.853
435.025
434.2
433.378
432.558
431.741
430.927
430.117
429.309
428.504
427.703
426.906
426.112
425.322
424.536
423.754
422.976
422.204
421.436
420.674
419.917
419.166
418.422
417.684
416.953
416.23
415.515
414.809
414.113
413.426
412.75
412.086
411.436
410.798
452.638
451.758
450.877
450.001
449.121
448.242
447.371
446.5
445.631
444.766
443.904
443.043
442.185
441.33
440.477
439.627
438.779
437.933
437.09
436.25
435.412
434.577
433.744
432.915
432.088
431.264
430.444
429.627
428.813
428.003
427.196
426.393
425.595
424.801
424.011
423.226
422.446
421.672
420.903
420.141
419.384
418.635
417.893
417.159
416.434
415.717
415.011
414.314
413.629
412.956
412.297
411.651
454.043
453.147
452.25
451.361
450.473
449.585
448.702
447.822
446.942
446.066
445.192
444.32
443.45
442.583
441.718
440.855
439.994
439.136
438.28
437.427
436.577
435.729
434.884
434.041
433.202
432.366
431.532
430.702
429.876
429.053
428.234
427.418
426.607
425.801
424.998
424.201
423.409
422.623
421.842
421.068
420.3
419.539
418.786
418.041
417.305
416.578
415.861
415.154
414.46
413.778
413.11
412.455
455.391
454.486
453.581
452.68
451.782
450.884
449.99
449.098
448.208
447.32
446.434
445.55
444.668
443.788
442.911
442.035
441.162
440.292
439.423
438.558
437.694
436.834
435.976
435.121
434.269
433.42
432.574
431.731
430.892
430.056
429.224
428.396
427.573
426.753
425.939
425.129
424.325
423.526
422.733
421.947
421.167
420.395
419.63
418.874
418.127
417.389
416.662
415.946
415.242
414.55
413.874
413.21
456.695
455.781
454.866
453.954
453.045
452.137
451.231
450.328
449.426
448.526
447.628
446.732
445.838
444.946
444.056
443.168
442.283
441.4
440.519
439.641
438.765
437.892
437.021
436.153
435.288
434.427
433.568
432.712
431.86
431.012
430.167
429.326
428.49
427.658
426.831
426.008
425.192
424.38
423.575
422.777
421.985
421.201
420.425
419.657
418.899
418.151
417.413
416.687
415.973
415.272
414.586
413.914
457.03
456.105
455.182
454.262
453.342
452.425
451.51
450.596
449.684
448.774
447.866
446.96
446.056
445.154
444.254
443.356
442.461
441.567
440.676
439.788
438.902
438.019
437.138
436.261
435.386
434.514
433.646
432.781
431.919
431.062
430.208
429.359
428.514
427.674
426.839
426.009
425.185
424.368
423.557
422.753
421.957
421.169
420.39
419.621
418.861
418.113
417.376
416.652
415.941
415.247
414.565
458.232
457.296
456.362
455.43
454.5
453.571
452.644
451.718
450.795
449.873
448.953
448.035
447.119
446.204
445.292
444.382
443.474
442.568
441.664
440.763
439.865
438.969
438.075
437.184
436.297
435.412
434.53
433.652
432.778
431.907
431.04
430.178
429.32
428.467
427.619
426.776
425.94
425.11
424.286
423.47
422.662
421.862
421.071
420.29
419.519
418.76
418.013
417.279
416.558
415.854
415.163
459.386
458.44
457.495
456.551
455.609
454.669
453.73
452.793
451.858
450.924
449.992
449.062
448.134
447.207
446.282
445.36
444.439
443.521
442.604
441.69
440.779
439.87
438.963
438.059
437.158
436.261
435.366
434.474
433.587
432.702
431.822
430.947
430.075
429.209
428.348
427.492
426.643
425.8
424.963
424.135
423.314
422.502
421.699
420.906
420.124
419.354
418.596
417.851
417.12
416.406
415.706
459.535
458.579
457.625
456.671
455.72
454.769
453.821
452.873
451.928
450.984
450.041
449.101
448.162
447.225
446.289
445.356
444.425
443.496
442.569
441.644
440.722
439.802
438.885
437.971
437.059
436.151
435.246
434.345
433.447
432.553
431.664
430.779
429.899
429.025
428.156
427.293
426.437
425.587
424.746
423.912
423.088
422.273
421.468
420.674
419.892
419.123
418.368
417.627
416.903
416.193
460.584
459.616
458.651
457.686
456.723
455.761
454.8
453.841
452.883
451.927
450.973
450.02
449.068
448.118
447.17
446.224
445.28
444.338
443.398
442.46
441.524
440.591
439.66
438.732
437.807
436.885
435.966
435.051
434.139
433.232
432.329
431.43
430.536
429.648
428.766
427.889
427.019
426.157
425.302
424.456
423.618
422.791
421.974
421.168
420.375
419.594
418.828
418.077
417.343
416.623
461.584
460.606
459.629
458.653
457.678
456.704
455.732
454.761
453.791
452.822
451.855
450.89
449.925
448.963
448.002
447.043
446.085
445.129
444.176
443.224
442.275
441.328
440.384
439.442
438.503
437.567
436.634
435.704
434.779
433.857
432.94
432.027
431.119
430.217
429.32
428.43
427.547
426.671
425.803
424.943
424.093
423.252
422.423
421.605
420.8
420.008
419.231
418.469
417.724
416.995
462.537
461.547
460.559
459.571
458.584
457.599
456.614
455.631
454.649
453.668
452.688
451.71
450.733
449.757
448.783
447.81
446.839
445.87
444.903
443.938
442.974
442.013
441.055
440.099
439.145
438.195
437.248
436.304
435.364
434.428
433.496
432.569
431.647
430.73
429.819
428.915
428.018
427.128
426.246
425.373
424.509
423.656
422.814
421.984
421.166
420.363
419.575
418.801
418.047
417.307
463.442
462.441
461.44
460.441
459.442
458.445
457.448
456.452
455.457
454.464
453.471
452.48
451.489
450.5
449.513
448.527
447.542
446.559
445.577
444.598
443.62
442.645
441.672
440.702
439.734
438.769
437.807
436.848
435.893
434.943
433.996
433.054
432.117
431.186
430.261
429.342
428.431
427.527
426.631
425.744
424.867
424.001
423.146
422.303
421.474
420.658
419.859
419.075
418.309
417.559
464.298
463.285
462.273
461.261
460.251
459.241
458.231
457.223
456.215
455.209
454.203
453.198
452.194
451.192
450.19
449.19
448.191
447.194
446.198
445.205
444.213
443.222
442.235
441.249
440.266
439.286
438.31
437.336
436.366
435.4
434.439
433.482
432.53
431.584
430.644
429.711
428.785
427.866
426.957
426.056
425.166
424.286
423.418
422.562
421.721
420.894
420.082
419.287
418.511
417.751
465.104
464.079
463.055
462.032
461.008
459.986
458.964
457.942
456.922
455.902
454.882
453.864
452.846
451.83
450.814
449.8
448.787
447.775
446.765
445.756
444.749
443.744
442.741
441.741
440.743
439.747
438.755
437.766
436.781
435.8
434.823
433.851
432.884
431.923
430.968
430.02
429.079
428.146
427.222
426.307
425.403
424.51
423.629
422.761
421.907
421.068
420.245
419.438
418.651
417.881
464.823
463.787
462.751
461.715
460.679
459.644
458.609
457.575
456.542
455.509
454.476
453.444
452.414
451.384
450.355
449.327
448.3
447.275
446.251
445.229
444.209
443.19
442.174
441.161
440.15
439.142
438.138
437.137
436.14
435.147
434.16
433.178
432.201
431.231
430.268
429.312
428.365
427.426
426.497
425.579
424.672
423.778
422.897
422.031
421.179
420.345
419.528
418.73
417.949
465.515
464.466
463.417
462.368
461.32
460.271
459.223
458.175
457.127
456.08
455.033
453.987
452.942
451.897
450.853
449.81
448.768
447.728
446.689
445.651
444.615
443.581
442.549
441.52
440.493
439.469
438.449
437.432
436.419
435.411
434.408
433.41
432.418
431.432
430.454
429.483
428.521
427.568
426.625
425.693
424.772
423.865
422.971
422.092
421.229
420.384
419.557
418.749
417.959
466.155
465.093
464.03
462.968
461.906
460.844
459.781
458.719
457.657
456.596
455.534
454.474
453.413
452.353
451.294
450.236
449.178
448.122
447.067
446.014
444.962
443.912
442.864
441.818
440.775
439.736
438.699
437.666
436.637
435.613
434.594
433.58
432.572
431.571
430.578
429.592
428.614
427.646
426.689
425.743
424.81
423.891
422.985
422.095
421.221
420.365
419.528
418.711
417.911
465.665
464.589
463.513
462.437
461.36
460.284
459.207
458.131
457.054
455.978
454.902
453.826
452.751
451.676
450.602
449.529
448.456
447.385
446.316
445.248
444.181
443.117
442.055
440.996
439.94
438.887
437.838
436.793
435.752
434.717
433.687
432.663
431.646
430.637
429.637
428.646
427.665
426.694
425.735
424.79
423.858
422.94
422.039
421.154
420.287
419.438
418.611
417.802
466.181
465.091
464.001
462.911
461.82
460.729
459.637
458.546
457.454
456.362
455.271
454.179
453.088
451.998
450.908
449.818
448.73
447.642
446.556
445.472
444.389
443.308
442.23
441.154
440.081
439.012
437.946
436.884
435.827
434.775
433.73
432.692
431.661
430.637
429.622
428.618
427.623
426.639
425.667
424.708
423.763
422.834
421.92
421.024
420.147
419.288
418.452
417.633
465.536
464.431
463.326
462.221
461.115
460.008
458.901
457.794
456.687
455.579
454.472
453.365
452.258
451.152
450.046
448.941
447.837
446.734
445.633
444.533
443.436
442.34
441.247
440.157
439.071
437.99
436.913
435.84
434.774
433.714
432.66
431.615
430.577
429.547
428.528
427.519
426.521
425.536
424.564
423.607
422.665
421.741
420.834
419.946
419.079
418.233
417.406
465.922
464.802
463.682
462.561
461.44
460.318
459.195
458.072
456.949
455.826
454.702
453.579
452.455
451.332
450.21
449.088
447.967
446.847
445.729
444.612
443.497
442.386
441.278
440.172
439.07
437.973
436.881
435.793
434.711
433.635
432.566
431.505
430.452
429.408
428.375
427.352
426.341
425.343
424.359
423.39
422.437
421.501
420.584
419.687
418.81
417.956
417.121
465.112
463.977
462.841
461.704
460.566
459.427
458.288
457.149
456.009
454.869
453.729
452.589
451.449
450.309
449.17
448.032
446.896
445.762
444.629
443.498
442.371
441.247
440.125
439.008
437.894
436.785
435.682
434.584
433.493
432.409
431.332
430.265
429.207
428.159
427.123
426.099
425.089
424.093
423.112
422.149
421.203
420.276
419.37
418.485
417.623
416.78
465.36
464.209
463.057
461.904
460.751
459.596
458.44
457.284
456.128
454.971
453.813
452.656
451.5
450.344
449.189
448.035
446.883
445.732
444.584
443.438
442.293
441.152
440.014
438.88
437.751
436.626
435.506
434.393
433.287
432.188
431.097
430.015
428.943
427.882
426.833
425.797
424.775
423.767
422.776
421.802
420.847
419.912
418.997
418.104
417.234
416.385
465.545
464.378
463.21
462.04
460.87
459.699
458.526
457.353
456.18
455.007
453.834
452.661
451.488
450.317
449.146
447.976
446.807
445.64
444.474
443.311
442.15
440.992
439.838
438.688
437.542
436.402
435.267
434.139
433.018
431.904
430.799
429.704
428.619
427.545
426.484
425.436
424.402
423.384
422.383
421.399
420.435
419.491
418.569
417.669
416.793
415.938
465.664
464.48
463.296
462.11
460.923
459.736
458.548
457.359
456.17
454.981
453.793
452.604
451.414
450.225
449.038
447.851
446.665
445.481
444.298
443.119
441.942
440.768
439.598
438.432
437.271
436.115
434.965
433.822
432.687
431.559
430.441
429.332
428.235
427.149
426.075
425.016
423.972
422.944
421.933
420.941
419.969
419.018
418.088
417.182
416.3
415.44
465.716
464.517
463.317
462.116
460.913
459.711
458.507
457.303
456.097
454.891
453.685
452.479
451.273
450.067
448.863
447.659
446.457
445.256
444.058
442.862
441.669
440.479
439.293
438.112
436.936
435.765
434.601
433.444
432.295
431.154
430.022
428.901
427.792
426.694
425.61
424.54
423.486
422.449
421.43
420.43
419.45
418.492
417.557
416.645
415.759
414.894
465.705
464.491
463.275
462.059
460.84
459.62
458.4
457.178
455.956
454.733
453.511
452.288
451.065
449.843
448.622
447.402
446.183
444.967
443.752
442.54
441.332
440.127
438.926
437.73
436.539
435.354
434.176
433.005
431.843
430.689
429.545
428.412
427.291
426.183
425.089
424.009
422.946
421.901
420.874
419.866
418.88
417.917
416.976
416.06
415.17
414.302
465.629
464.399
463.167
461.933
460.698
459.462
458.225
456.987
455.748
454.509
453.27
452.03
450.791
449.553
448.316
447.08
445.845
444.613
443.383
442.155
440.932
439.712
438.496
437.286
436.081
434.882
433.691
432.507
431.332
430.167
429.011
427.867
426.736
425.617
424.514
423.426
422.354
421.301
420.267
419.254
418.262
417.294
416.349
415.43
414.536
413.666
464.238
462.99
461.74
460.488
459.236
457.982
456.728
455.473
454.218
452.962
451.707
450.452
449.198
447.944
446.693
445.443
444.195
442.95
441.708
440.469
439.235
438.006
436.781
435.563
434.352
433.148
431.952
430.765
429.588
428.422
427.268
426.126
424.999
423.887
422.791
421.712
420.652
419.612
418.594
417.598
416.625
415.678
414.756
413.86
412.989
464.009
462.744
461.478
460.211
458.942
457.673
456.402
455.131
453.86
452.589
451.317
450.047
448.777
447.509
446.242
444.977
443.714
442.455
441.198
439.946
438.698
437.455
436.218
434.987
433.763
432.547
431.34
430.142
428.955
427.779
426.615
425.465
424.33
423.21
422.107
421.022
419.957
418.912
417.889
416.89
415.914
414.965
414.041
413.145
412.273
463.712
462.431
461.149
459.866
458.581
457.296
456.01
454.723
453.436
452.15
450.863
449.578
448.293
447.01
445.728
444.449
443.172
441.899
440.629
439.363
438.102
436.846
435.597
434.354
433.119
431.892
430.674
429.466
428.269
427.084
425.912
424.754
423.612
422.485
421.376
420.286
419.216
418.168
417.142
416.14
415.163
414.212
413.288
412.392
411.52
462.05
460.753
459.454
458.154
456.853
455.552
454.25
452.948
451.646
450.345
449.045
447.746
446.448
445.153
443.86
442.569
441.283
440
438.722
437.448
436.181
434.92
433.666
432.421
431.183
429.956
428.739
427.533
426.34
425.161
423.996
422.847
421.715
420.602
419.507
418.434
417.383
416.355
415.351
414.373
413.423
412.499
411.604
410.734
461.602
460.289
458.975
457.66
456.344
455.028
453.712
452.395
451.079
449.764
448.45
447.137
445.826
444.517
443.211
441.908
440.609
439.314
438.024
436.739
435.461
434.189
432.926
431.67
430.424
429.188
427.963
426.749
425.549
424.364
423.193
422.039
420.903
419.785
418.688
417.612
416.559
415.53
414.526
413.549
412.599
411.677
410.784
409.916
461.086
459.759
458.431
457.101
455.771
454.441
453.11
451.78
450.45
449.121
447.793
446.468
445.144
443.822
442.504
441.189
439.879
438.572
437.272
435.977
434.688
433.407
432.134
430.87
429.615
428.371
427.139
425.92
424.714
423.523
422.347
421.189
420.049
418.929
417.83
416.753
415.699
414.67
413.667
412.691
411.743
410.824
409.934
409.07
460.505
459.164
457.821
456.478
455.134
453.79
452.446
451.102
449.76
448.418
447.078
445.74
444.404
443.071
441.741
440.415
439.094
437.777
436.467
435.162
433.865
432.575
431.294
430.022
428.76
427.51
426.271
425.046
423.836
422.64
421.461
420.3
419.158
418.036
416.936
415.859
414.806
413.778
412.777
411.803
410.858
409.943
409.057
408.198
458.504
457.148
455.792
454.435
453.078
451.721