/*--------------------------------*- C++ -*----------------------------------*\
| =========                 |                                                 |
| \\      /  F ield         | OpenFOAM: The Open Source CFD Toolbox           |
|  \\    /   O peration     | Version:  v1706                                 |
|   \\  /    A nd           | Web:      www.OpenFOAM.com                      |
|    \\/     M anipulation  |                                                 |
\*---------------------------------------------------------------------------*/
FoamFile
{
    version     2.0;
    format      ascii;
    class       volVectorField;
    location    "3.7e-05";
    object      U;
}
// * * * * * * * * * * * * * * * * * * * * * * * * * * * * * * * * * * * * * //

dimensions      [0 1 -1 0 0 0 0];


internalField   nonuniform List<vector> 
30038
(
(978.58 -1.14686e-10 5.02502e-15)
(978.58 -1.16152e-10 4.04957e-15)
(978.58 -1.17519e-10 7.51837e-15)
(978.58 -1.19999e-10 3.49168e-15)
(978.58 -1.21566e-10 5.07215e-15)
(978.58 -1.23488e-10 6.16764e-15)
(978.58 -1.24884e-10 9.40207e-15)
(978.58 -1.28057e-10 8.72688e-15)
(978.58 -1.30294e-10 4.56016e-15)
(978.58 -1.32812e-10 6.64631e-15)
(978.58 -1.35044e-10 1.04487e-14)
(978.58 -1.37629e-10 6.55794e-15)
(978.58 -1.4002e-10 4.49768e-15)
(978.58 -1.4156e-10 3.37779e-15)
(978.58 -1.44525e-10 7.12323e-15)
(978.58 -1.47418e-10 8.47308e-15)
(978.58 -1.50125e-10 6.44426e-15)
(978.58 -1.52289e-10 3.18659e-15)
(978.58 -1.54263e-10 5.07702e-15)
(978.58 -1.56144e-10 7.54044e-15)
(978.58 -1.56407e-10 8.59977e-15)
(978.58 -1.5463e-10 4.41226e-15)
(978.58 -1.48097e-10 3.17173e-15)
(978.58 -1.38774e-10 7.51778e-15)
(978.58 -1.27579e-10 5.05967e-15)
(978.58 -1.09826e-10 3.38173e-15)
(978.58 -7.85002e-11 4.57179e-15)
(978.58 -2.98346e-11 7.80168e-15)
(978.58 5.34865e-11 9.06573e-15)
(978.58 2.00327e-10 7.69716e-15)
(978.58 4.46048e-10 7.79818e-15)
(978.58 8.28043e-10 9.78989e-15)
(978.58 1.36991e-09 8.32897e-15)
(978.58 2.1453e-09 8.50596e-15)
(978.58 3.29863e-09 1.03765e-14)
(978.58 5.05478e-09 6.4591e-15)
(978.58 7.96603e-09 3.84984e-15)
(978.58 1.25002e-08 8.29769e-15)
(978.58 -3.27375e-10 1.75491e-14)
(978.58 -3.32727e-10 2.02016e-14)
(978.58 -3.38053e-10 1.88061e-14)
(978.58 -3.43156e-10 1.83196e-14)
(978.58 -3.48659e-10 2.18922e-14)
(978.58 -3.54712e-10 2.09537e-14)
(978.58 -3.60241e-10 2.26398e-14)
(978.58 -3.66419e-10 2.07702e-14)
(978.58 -3.72108e-10 1.6474e-14)
(978.58 -3.79806e-10 2.0984e-14)
(978.58 -3.86173e-10 1.95449e-14)
(978.58 -3.93004e-10 1.58711e-14)
(978.58 -4.00213e-10 1.80429e-14)
(978.58 -4.06293e-10 1.93312e-14)
(978.58 -4.10823e-10 2.0931e-14)
(978.58 -4.14708e-10 2.0373e-14)
(978.58 -4.19434e-10 2.01465e-14)
(978.58 -4.22683e-10 1.90487e-14)
(978.58 -4.23054e-10 1.80915e-14)
(978.58 -4.1628e-10 1.96788e-14)
(978.58 -4.09466e-10 1.94844e-14)
(978.58 -3.98504e-10 2.03587e-14)
(978.58 -3.72318e-10 1.98667e-14)
(978.58 -3.37729e-10 1.83616e-14)
(978.58 -2.79376e-10 1.7047e-14)
(978.58 -1.73334e-10 1.83206e-14)
(978.58 7.61024e-12 1.89016e-14)
(978.58 3.36358e-10 1.94476e-14)
(978.58 8.78914e-10 2.28063e-14)
(978.58 1.73179e-09 2.11492e-14)
(978.58 2.97895e-09 2.00081e-14)
(978.58 4.75668e-09 2.70034e-14)
(978.58 7.37004e-09 2.60704e-14)
(978.58 1.13003e-08 2.4469e-14)
(978.58 1.72876e-08 2.43684e-14)
(978.58 2.63914e-08 2.06875e-14)
(978.58 4.11417e-08 2.11909e-14)
(978.58 6.46484e-08 2.38863e-14)
(978.58 -5.34832e-10 3.20138e-14)
(978.58 -5.41334e-10 3.39153e-14)
(978.58 -5.49204e-10 3.11558e-14)
(978.58 -5.57003e-10 2.89795e-14)
(978.58 -5.65505e-10 3.14352e-14)
(978.58 -5.73413e-10 3.25699e-14)
(978.58 -5.81606e-10 3.21636e-14)
(978.58 -5.90693e-10 2.67717e-14)
(978.58 -5.98457e-10 2.80245e-14)
(978.58 -6.07508e-10 2.77665e-14)
(978.58 -6.15337e-10 2.69584e-14)
(978.58 -6.2549e-10 2.98788e-14)
(978.58 -6.35356e-10 3.19358e-14)
(978.58 -6.43797e-10 3.16548e-14)
(978.58 -6.49727e-10 3.07806e-14)
(978.58 -6.48298e-10 3.38423e-14)
(978.58 -6.4276e-10 3.24866e-14)
(978.58 -6.37614e-10 3.21549e-14)
(978.58 -6.26434e-10 3.08037e-14)
(978.58 -5.98477e-10 2.9963e-14)
(978.58 -5.5908e-10 3.01383e-14)
(978.58 -4.93053e-10 3.08972e-14)
(978.58 -3.73355e-10 2.89521e-14)
(978.58 -1.60031e-10 3.15192e-14)
(978.58 2.13467e-10 3.52229e-14)
(978.58 8.19218e-10 3.46986e-14)
(978.58 1.75302e-09 3.24739e-14)
(978.58 3.07416e-09 3.14635e-14)
(978.58 4.9064e-09 3.52602e-14)
(978.58 7.53611e-09 3.52868e-14)
(978.58 1.14671e-08 3.54211e-14)
(978.58 1.73819e-08 3.68041e-14)
(978.58 2.63076e-08 3.56547e-14)
(978.58 3.98051e-08 3.62928e-14)
(978.58 6.03786e-08 3.73069e-14)
(978.58 9.13706e-08 3.64568e-14)
(978.58 1.41711e-07 3.3952e-14)
(978.58 2.19542e-07 3.6659e-14)
(978.58 -7.30256e-10 4.55918e-14)
(978.58 -7.3963e-10 4.48325e-14)
(978.58 -7.48725e-10 4.28443e-14)
(978.58 -7.57815e-10 4.22158e-14)
(978.58 -7.69015e-10 4.55525e-14)
(978.58 -7.79103e-10 4.19896e-14)
(978.58 -7.8937e-10 4.10206e-14)
(978.58 -8.00266e-10 4.19927e-14)
(978.58 -8.10042e-10 4.29404e-14)
(978.58 -8.18833e-10 4.09394e-14)
(978.58 -8.2627e-10 4.3658e-14)
(978.58 -8.3001e-10 4.3809e-14)
(978.58 -8.30821e-10 4.45118e-14)
(978.58 -8.3256e-10 3.89036e-14)
(978.58 -8.28573e-10 4.13559e-14)
(978.58 -8.19293e-10 4.17757e-14)
(978.58 -7.84533e-10 4.13047e-14)
(978.58 -7.38214e-10 4.45937e-14)
(978.58 -6.57775e-10 4.44917e-14)
(978.58 -5.11948e-10 4.30647e-14)
(978.58 -2.54192e-10 4.31037e-14)
(978.58 1.73014e-10 4.33061e-14)
(978.58 8.49552e-10 4.79561e-14)
(978.58 1.84632e-09 4.94868e-14)
(978.58 3.21451e-09 4.77908e-14)
(978.58 5.10713e-09 4.78718e-14)
(978.58 7.84806e-09 4.64832e-14)
(978.58 1.19573e-08 4.52701e-14)
(978.58 1.81082e-08 4.76255e-14)
(978.58 2.72747e-08 4.82449e-14)
(978.58 4.09584e-08 4.70676e-14)
(978.58 6.1448e-08 4.84918e-14)
(978.58 9.22272e-08 4.79602e-14)
(978.58 1.3848e-07 4.78458e-14)
(978.58 2.08533e-07 5.03723e-14)
(978.58 3.13512e-07 5.14157e-14)
(978.58 4.83225e-07 5.0455e-14)
(978.58 7.4421e-07 5.08515e-14)
(978.58 -9.14317e-10 5.44571e-14)
(978.58 -9.25999e-10 5.66489e-14)
(978.58 -9.3789e-10 5.65055e-14)
(978.58 -9.48873e-10 5.5553e-14)
(978.58 -9.5961e-10 5.35213e-14)
(978.58 -9.69727e-10 5.47184e-14)
(978.58 -9.78711e-10 5.64596e-14)
(978.58 -9.87168e-10 5.7428e-14)
(978.58 -9.88472e-10 5.79869e-14)
(978.58 -9.91173e-10 5.71594e-14)
(978.58 -9.9074e-10 5.63142e-14)
(978.58 -9.85455e-10 5.51398e-14)
(978.58 -9.66514e-10 5.35582e-14)
(978.58 -9.3209e-10 5.41393e-14)
(978.58 -8.8045e-10 5.6157e-14)
(978.58 -7.81237e-10 5.78304e-14)
(978.58 -5.96677e-10 6.06847e-14)
(978.58 -2.85591e-10 5.8283e-14)
(978.58 2.1201e-10 5.72168e-14)
(978.58 9.80058e-10 6.01913e-14)
(978.58 2.04423e-09 5.65971e-14)
(978.58 3.48629e-09 5.71517e-14)
(978.58 5.50282e-09 6.22426e-14)
(978.58 8.45382e-09 6.09252e-14)
(978.58 1.28413e-08 6.12718e-14)
(978.58 1.93361e-08 6.2194e-14)
(978.58 2.89249e-08 6.10763e-14)
(978.58 4.31203e-08 5.50752e-14)
(978.58 6.41733e-08 5.48679e-14)
(978.58 9.5455e-08 5.67531e-14)
(978.58 1.42038e-07 6.18011e-14)
(978.58 2.11533e-07 6.46748e-14)
(978.58 3.15441e-07 6.10722e-14)
(978.58 4.70883e-07 6.0678e-14)
(978.58 7.05407e-07 6.15851e-14)
(978.58 1.05573e-06 6.30341e-14)
(978.58 1.61894e-06 6.4205e-14)
(978.58 2.47992e-06 6.44542e-14)
(978.58 -1.08801e-09 7.06495e-14)
(978.58 -1.09982e-09 6.97776e-14)
(978.58 -1.11061e-09 6.54466e-14)
(978.58 -1.11948e-09 6.17584e-14)
(978.58 -1.12305e-09 6.50562e-14)
(978.58 -1.12681e-09 6.60441e-14)
(978.58 -1.12867e-09 6.45771e-14)
(978.58 -1.12672e-09 7.38721e-14)
(978.58 -1.12173e-09 7.29915e-14)
(978.58 -1.08966e-09 6.90769e-14)
(978.58 -1.04971e-09 6.81521e-14)
(978.58 -9.77121e-10 6.70355e-14)
(978.58 -8.43743e-10 6.71216e-14)
(978.58 -6.12867e-10 6.91068e-14)
(978.58 -2.39174e-10 6.92869e-14)
(978.58 3.44525e-10 7.13223e-14)
(978.58 1.19956e-09 7.38249e-14)
(978.58 2.34605e-09 7.0806e-14)
(978.58 3.90167e-09 6.96678e-14)
(978.58 6.10324e-09 7.25311e-14)
(978.58 9.34835e-09 7.21662e-14)
(978.58 1.41208e-08 7.35614e-14)
(978.58 2.11021e-08 7.20987e-14)
(978.58 3.13134e-08 7.03205e-14)
(978.58 4.63023e-08 7.10185e-14)
(978.58 6.83397e-08 7.60659e-14)
(978.58 1.0079e-07 7.67035e-14)
(978.58 1.48671e-07 7.03085e-14)
(978.58 2.19464e-07 7.27959e-14)
(978.58 3.24301e-07 7.30958e-14)
(978.58 4.79824e-07 7.1651e-14)
(978.58 7.10924e-07 7.27779e-14)
(978.58 1.05521e-06 7.41291e-14)
(978.58 1.56859e-06 7.80693e-14)
(978.58 2.34037e-06 7.6171e-14)
(978.58 3.4892e-06 7.27968e-14)
(978.58 5.32495e-06 7.44779e-14)
(978.58 8.11516e-06 7.55806e-14)
(978.58 -1.23735e-09 7.88551e-14)
(978.58 -1.24287e-09 7.90631e-14)
(978.58 -1.24792e-09 8.18255e-14)
(978.58 -1.24917e-09 8.27989e-14)
(978.58 -1.24547e-09 7.96747e-14)
(978.58 -1.22462e-09 7.76768e-14)
(978.58 -1.18829e-09 8.06051e-14)
(978.58 -1.13207e-09 8.18955e-14)
(978.58 -1.03495e-09 7.87328e-14)
(978.58 -8.56302e-10 8.31874e-14)
(978.58 -5.63041e-10 8.25501e-14)
(978.58 -1.04405e-10 8.12678e-14)
(978.58 5.90452e-10 8.07066e-14)
(978.58 1.53448e-09 8.01414e-14)
(978.58 2.7898e-09 8.05755e-14)
(978.58 4.51045e-09 8.36403e-14)
(978.58 6.98491e-09 8.45426e-14)
(978.58 1.06052e-08 8.53932e-14)
(978.58 1.58679e-08 8.35291e-14)
(978.58 2.34912e-08 8.56536e-14)
(978.58 3.45568e-08 8.40665e-14)
(978.58 5.06555e-08 8.31762e-14)
(978.58 7.41167e-08 8.28222e-14)
(978.58 1.08376e-07 8.44273e-14)
(978.58 1.58497e-07 8.31807e-14)
(978.58 2.31949e-07 8.71839e-14)
(978.58 3.39772e-07 8.63566e-14)
(978.58 4.98329e-07 8.03893e-14)
(978.58 7.31898e-07 8.20464e-14)
(978.58 1.07657e-06 8.51301e-14)
(978.58 1.58614e-06 8.56525e-14)
(978.58 2.34085e-06 8.60665e-14)
(978.58 3.46148e-06 8.90339e-14)
(978.58 5.12673e-06 9.16317e-14)
(978.58 7.62037e-06 9.14626e-14)
(978.58 1.1319e-05 8.84333e-14)
(978.58 1.71947e-05 8.8912e-14)
(978.58 2.60768e-05 8.95001e-14)
(978.58 -1.3521e-09 9.30033e-14)
(978.58 -1.33459e-09 9.40431e-14)
(978.58 -1.30584e-09 9.54985e-14)
(978.58 -1.26288e-09 9.66321e-14)
(978.58 -1.18654e-09 9.40875e-14)
(978.58 -1.0437e-09 9.19661e-14)
(978.58 -8.05034e-10 9.50497e-14)
(978.58 -4.31079e-10 9.65518e-14)
(978.58 1.37148e-10 9.83922e-14)
(978.58 9.35021e-10 9.57892e-14)
(978.58 1.98639e-09 9.41616e-14)
(978.58 3.39526e-09 9.4025e-14)
(978.58 5.35974e-09 9.34768e-14)
(978.58 8.20163e-09 9.45294e-14)
(978.58 1.23058e-08 9.51585e-14)
(978.58 1.81968e-08 9.79885e-14)
(978.58 2.66579e-08 9.87745e-14)
(978.58 3.88468e-08 9.60641e-14)
(978.58 5.64323e-08 9.58412e-14)
(978.58 8.18379e-08 9.60269e-14)
(978.58 1.18621e-07 9.46513e-14)
(978.58 1.71983e-07 9.62957e-14)
(978.58 2.49523e-07 9.37181e-14)
(978.58 3.62373e-07 9.4435e-14)
(978.58 5.26894e-07 9.50106e-14)
(978.58 7.67172e-07 9.93428e-14)
(978.58 1.11871e-06 9.66286e-14)
(978.58 1.63395e-06 9.6824e-14)
(978.58 2.39045e-06 1.00064e-13)
(978.58 3.50317e-06 1.01313e-13)
(978.58 5.14291e-06 1.01756e-13)
(978.58 7.56348e-06 1.00904e-13)
(978.58 1.11452e-05 1.01313e-13)
(978.58 1.64492e-05 1.0036e-13)
(978.58 2.43615e-05 1.02942e-13)
(978.58 3.60564e-05 1.04424e-13)
(978.58 5.45286e-05 9.98072e-14)
(978.58 8.23019e-05 9.69985e-14)
(978.58 -1.37093e-09 1.07629e-13)
(978.58 -1.30609e-09 1.08279e-13)
(978.58 -1.18718e-09 1.10817e-13)
(978.58 -9.87826e-10 1.10521e-13)
(978.58 -6.73869e-10 1.10196e-13)
(978.58 -1.95912e-10 1.10938e-13)
(978.58 4.89828e-10 1.12608e-13)
(978.58 1.39714e-09 1.09738e-13)
(978.58 2.59255e-09 1.09304e-13)
(978.58 4.22408e-09 1.06648e-13)
(978.58 6.53764e-09 1.05215e-13)
(978.58 9.84425e-09 1.07936e-13)
(978.58 1.45538e-08 1.03884e-13)
(978.58 2.12515e-08 1.0928e-13)
(978.58 3.08035e-08 1.09089e-13)
(978.58 4.44504e-08 1.09858e-13)
(978.58 6.39669e-08 1.07914e-13)
(978.58 9.19336e-08 1.05958e-13)
(978.58 1.32093e-07 1.06512e-13)
(978.58 1.89852e-07 1.08096e-13)
(978.58 2.73063e-07 1.07656e-13)
(978.58 3.93154e-07 1.07774e-13)
(978.58 5.66778e-07 1.05787e-13)
(978.58 8.18228e-07 1.06054e-13)
(978.58 1.18301e-06 1.08984e-13)
(978.58 1.71316e-06 1.1081e-13)
(978.58 2.48498e-06 1.11113e-13)
(978.58 3.61063e-06 1.08777e-13)
(978.58 5.25517e-06 1.09532e-13)
(978.58 7.66195e-06 1.10754e-13)
(978.58 1.11904e-05 1.12366e-13)
(978.58 1.63728e-05 1.12629e-13)
(978.58 2.3997e-05 1.13105e-13)
(978.58 3.52397e-05 1.12214e-13)
(978.58 5.18309e-05 1.15962e-13)
(978.58 7.64875e-05 1.14742e-13)
(978.58 0.000112804 1.1176e-13)
(978.58 0.000169842 1.10734e-13)
(978.58 0.000255148 1.10285e-13)
(978.58 -8.53273e-10 1.21466e-13)
(978.58 -4.35635e-10 1.20931e-13)
(978.58 1.71063e-10 1.23046e-13)
(978.58 9.73387e-10 1.2585e-13)
(978.58 2.01721e-09 1.24048e-13)
(978.58 3.41764e-09 1.24541e-13)
(978.58 5.36914e-09 1.22643e-13)
(978.58 8.13049e-09 1.18786e-13)
(978.58 1.2027e-08 1.17994e-13)
(978.58 1.75138e-08 1.18163e-13)
(978.58 2.52521e-08 1.20518e-13)
(978.58 3.61994e-08 1.17095e-13)
(978.58 5.17137e-08 1.17582e-13)
(978.58 7.37262e-08 1.22441e-13)
(978.58 1.05012e-07 1.21811e-13)
(978.58 1.49556e-07 1.20766e-13)
(978.58 2.13084e-07 1.18754e-13)
(978.58 3.03852e-07 1.21949e-13)
(978.58 4.33773e-07 1.20858e-13)
(978.58 6.20055e-07 1.20434e-13)
(978.58 8.87607e-07 1.18884e-13)
(978.58 1.27255e-06 1.18833e-13)
(978.58 1.82734e-06 1.18917e-13)
(978.58 2.6283e-06 1.21588e-13)
(978.58 3.78666e-06 1.23345e-13)
(978.58 5.4648e-06 1.23319e-13)
(978.58 7.90012e-06 1.22402e-13)
(978.58 1.14403e-05 1.19084e-13)
(978.58 1.65957e-05 1.20945e-13)
(978.58 2.4116e-05 1.25363e-13)
(978.58 3.51051e-05 1.25223e-13)
(978.58 5.11917e-05 1.2504e-13)
(978.58 7.47793e-05 1.24751e-13)
(978.58 0.000109443 1.24831e-13)
(978.58 0.000160421 1.25695e-13)
(978.58 0.000235897 1.23557e-13)
(978.58 0.00034668 1.2243e-13)
(978.579 0.000519692 1.25903e-13)
(978.579 0.000777103 1.26344e-13)
(978.58 1.61186e-09 1.39134e-13)
(978.58 2.85151e-09 1.37041e-13)
(978.58 4.54984e-09 1.35753e-13)
(978.58 6.93461e-09 1.35794e-13)
(978.58 1.02727e-08 1.33536e-13)
(978.58 1.49238e-08 1.35232e-13)
(978.58 2.14091e-08 1.36599e-13)
(978.58 3.04899e-08 1.33966e-13)
(978.58 4.32345e-08 1.31071e-13)
(978.58 6.11456e-08 1.32862e-13)
(978.58 8.63534e-08 1.32236e-13)
(978.58 1.21896e-07 1.31984e-13)
(978.58 1.72089e-07 1.30364e-13)
(978.58 2.43088e-07 1.31053e-13)
(978.58 3.43698e-07 1.36847e-13)
(978.58 4.86528e-07 1.3721e-13)
(978.58 6.89651e-07 1.3717e-13)
(978.58 9.79e-07 1.33214e-13)
(978.58 1.39187e-06 1.29664e-13)
(978.58 1.98201e-06 1.30584e-13)
(978.58 2.82698e-06 1.32545e-13)
(978.58 4.03889e-06 1.32155e-13)
(978.58 5.78011e-06 1.30899e-13)
(978.58 8.28612e-06 1.32014e-13)
(978.58 1.1899e-05 1.3431e-13)
(978.58 1.71168e-05 1.35525e-13)
(978.58 2.4665e-05 1.31142e-13)
(978.58 3.56032e-05 1.32612e-13)
(978.58 5.14806e-05 1.37296e-13)
(978.58 7.45665e-05 1.39258e-13)
(978.58 0.00010819 1.37435e-13)
(978.58 0.000157246 1.35061e-13)
(978.58 0.000228934 1.35318e-13)
(978.58 0.000333921 1.36433e-13)
(978.579 0.000487791 1.37169e-13)
(978.579 0.00071475 1.36722e-13)
(978.579 0.00104671 1.38797e-13)
(978.578 0.00156226 1.3903e-13)
(978.577 0.00232537 1.36984e-13)
(978.58 6.12954e-09 1.51937e-13)
(978.58 9.07725e-09 1.49128e-13)
(978.58 1.31486e-08 1.48866e-13)
(978.58 1.87685e-08 1.502e-13)
(978.58 2.65592e-08 1.4963e-13)
(978.58 3.73835e-08 1.49915e-13)
(978.58 5.24424e-08 1.5008e-13)
(978.58 7.34303e-08 1.49683e-13)
(978.58 1.02741e-07 1.47417e-13)
(978.58 1.43741e-07 1.48736e-13)
(978.58 2.01174e-07 1.46359e-13)
(978.58 2.81755e-07 1.45776e-13)
(978.58 3.9502e-07 1.43031e-13)
(978.58 5.5451e-07 1.41685e-13)
(978.58 7.79473e-07 1.46241e-13)
(978.58 1.09733e-06 1.47445e-13)
(978.58 1.54721e-06 1.45373e-13)
(978.58 2.18503e-06 1.44844e-13)
(978.58 3.09086e-06 1.4401e-13)
(978.58 4.37954e-06 1.41831e-13)
(978.58 6.21602e-06 1.40215e-13)
(978.58 8.83767e-06 1.42586e-13)
(978.58 1.25865e-05 1.43156e-13)
(978.58 1.79564e-05 1.41977e-13)
(978.58 2.56611e-05 1.45028e-13)
(978.58 3.67344e-05 1.48388e-13)
(978.58 5.26756e-05 1.44438e-13)
(978.58 7.56629e-05 1.43079e-13)
(978.58 0.000108866 1.46569e-13)
(978.58 0.000156906 1.48e-13)
(978.58 0.000226528 1.49147e-13)
(978.58 0.000327595 1.47175e-13)
(978.579 0.000474564 1.47635e-13)
(978.579 0.000688619 1.4929e-13)
(978.579 0.00100103 1.51703e-13)
(978.578 0.00145732 1.50442e-13)
(978.577 0.00212782 1.49132e-13)
(978.576 0.00310509 1.49658e-13)
(978.574 0.00461443 1.483e-13)
(978.572 0.00683718 1.48956e-13)
(978.58 2.39187e-08 1.65302e-13)
(978.58 3.34142e-08 1.64539e-13)
(978.58 4.64965e-08 1.63298e-13)
(978.58 6.45518e-08 1.61372e-13)
(978.58 8.95229e-08 1.62147e-13)
(978.58 1.24113e-07 1.63173e-13)
(978.58 1.72099e-07 1.63802e-13)
(978.58 2.38783e-07 1.61815e-13)
(978.58 3.31616e-07 1.61644e-13)
(978.58 4.61065e-07 1.6244e-13)
(978.58 6.41875e-07 1.56834e-13)
(978.58 8.94862e-07 1.57669e-13)
(978.58 1.24946e-06 1.57063e-13)
(978.58 1.74735e-06 1.56795e-13)
(978.58 2.44763e-06 1.5829e-13)
(978.58 3.43423e-06 1.57569e-13)
(978.58 4.82657e-06 1.54605e-13)
(978.58 6.79484e-06 1.535e-13)
(978.58 9.58195e-06 1.55059e-13)
(978.58 1.35352e-05 1.54171e-13)
(978.58 1.9152e-05 1.57425e-13)
(978.58 2.71456e-05 1.59018e-13)
(978.58 3.85409e-05 1.59704e-13)
(978.58 5.48126e-05 1.57066e-13)
(978.58 7.80862e-05 1.56246e-13)
(978.58 0.00011143 1.5722e-13)
(978.58 0.000159282 1.56494e-13)
(978.58 0.000228066 1.56097e-13)
(978.58 0.000327103 1.57597e-13)
(978.579 0.000469934 1.60081e-13)
(978.579 0.000676258 1.60175e-13)
(978.579 0.000974785 1.59758e-13)
(978.578 0.00140743 1.59589e-13)
(978.577 0.00203543 1.6148e-13)
(978.576 0.00294881 1.62109e-13)
(978.575 0.00427821 1.58259e-13)
(978.572 0.0062244 1.60089e-13)
(978.569 0.00905094 1.61579e-13)
(978.564 0.0133923 1.61605e-13)
(978.556 0.0197531 1.61219e-13)
(978.58 8.06002e-08 1.77167e-13)
(978.58 1.10731e-07 1.74873e-13)
(978.58 1.5213e-07 1.75751e-13)
(978.58 2.09113e-07 1.76527e-13)
(978.58 2.87687e-07 1.76963e-13)
(978.58 3.96212e-07 1.77523e-13)
(978.58 5.46354e-07 1.73914e-13)
(978.58 7.54424e-07 1.71525e-13)
(978.58 1.04327e-06 1.75426e-13)
(978.58 1.44494e-06 1.74734e-13)
(978.58 2.00447e-06 1.71017e-13)
(978.58 2.7852e-06 1.74577e-13)
(978.58 3.87643e-06 1.72654e-13)
(978.58 5.40418e-06 1.69693e-13)
(978.58 7.54663e-06 1.69732e-13)
(978.58 1.05561e-05 1.65963e-13)
(978.58 1.47907e-05 1.65014e-13)
(978.58 2.07592e-05 1.67572e-13)
(978.58 2.91855e-05 1.68803e-13)
(978.58 4.11019e-05 1.71239e-13)
(978.58 5.7982e-05 1.75163e-13)
(978.58 8.1933e-05 1.71185e-13)
(978.58 0.000115973 1.69837e-13)
(978.58 0.000164431 1.69774e-13)
(978.58 0.000233526 1.69248e-13)
(978.58 0.000332211 1.69709e-13)
(978.579 0.000473382 1.68417e-13)
(978.579 0.000675659 1.68125e-13)
(978.579 0.000965959 1.74977e-13)
(978.578 0.00138325 1.71871e-13)
(978.577 0.00198407 1.68487e-13)
(978.576 0.00285047 1.68246e-13)
(978.575 0.00410193 1.69137e-13)
(978.573 0.0059123 1.72667e-13)
(978.569 0.00853626 1.7453e-13)
(978.565 0.012342 1.73496e-13)
(978.558 0.0178922 1.72098e-13)
(978.548 0.0259239 1.73576e-13)
(978.533 0.0381913 1.77234e-13)
(978.513 0.0560707 1.74767e-13)
(978.58 2.57801e-07 1.90059e-13)
(978.58 3.51716e-07 1.90554e-13)
(978.58 4.80425e-07 1.89545e-13)
(978.58 6.57111e-07 1.87366e-13)
(978.58 9.00066e-07 1.87904e-13)
(978.58 1.23471e-06 1.89417e-13)
(978.58 1.69643e-06 1.86908e-13)
(978.58 2.33456e-06 1.8247e-13)
(978.58 3.21797e-06 1.86643e-13)
(978.58 4.443e-06 1.86971e-13)
(978.58 6.14459e-06 1.84503e-13)
(978.58 8.5121e-06 1.86969e-13)
(978.58 1.18117e-05 1.82423e-13)
(978.58 1.6418e-05 1.79858e-13)
(978.58 2.28595e-05 1.81613e-13)
(978.58 3.18823e-05 1.80292e-13)
(978.58 4.45418e-05 1.78354e-13)
(978.58 6.2333e-05 1.81737e-13)
(978.58 8.73769e-05 1.83553e-13)
(978.58 0.000122687 1.86042e-13)
(978.58 0.000172554 1.8479e-13)
(978.58 0.000243093 1.81428e-13)
(978.58 0.000343035 1.83763e-13)
(978.579 0.000484868 1.82178e-13)
(978.579 0.000686473 1.80332e-13)
(978.579 0.000973501 1.82893e-13)
(978.578 0.0013828 1.78978e-13)
(978.577 0.00196739 1.81702e-13)
(978.576 0.00280365 1.82164e-13)
(978.575 0.00400184 1.80175e-13)
(978.573 0.00572125 1.82499e-13)
(978.57 0.00819247 1.83982e-13)
(978.565 0.0117497 1.8229e-13)
(978.559 0.0168778 1.82017e-13)
(978.55 0.0242841 1.85708e-13)
(978.537 0.034987 1.86013e-13)
(978.518 0.0505355 1.86485e-13)
(978.491 0.0729518 1.87043e-13)
(978.45 0.106995 1.86051e-13)
(978.393 0.156339 1.85412e-13)
(978.58 8.01783e-07 2.03224e-13)
(978.58 1.08949e-06 2.02994e-13)
(978.58 1.48272e-06 2.0144e-13)
(978.58 2.0211e-06 2.00167e-13)
(978.58 2.75941e-06 1.9877e-13)
(978.58 3.77363e-06 1.98474e-13)
(978.58 5.1692e-06 1.9962e-13)
(978.58 7.09271e-06 1.98604e-13)
(978.58 9.74834e-06 1.99667e-13)
(978.58 1.34209e-05 1.98322e-13)
(978.58 1.85083e-05 1.97775e-13)
(978.58 2.55671e-05 1.98532e-13)
(978.58 3.53775e-05 1.94054e-13)
(978.58 4.90343e-05 1.94232e-13)
(978.58 6.80764e-05 1.96268e-13)
(978.58 9.46707e-05 1.94818e-13)
(978.58 0.000131873 1.93984e-13)
(978.58 0.000183998 1.94462e-13)
(978.58 0.000257154 1.93891e-13)
(978.58 0.000359992 1.95642e-13)
(978.579 0.000504789 1.95087e-13)
(978.579 0.000708991 1.93239e-13)
(978.579 0.000997429 1.93534e-13)
(978.578 0.0014055 1.93355e-13)
(978.577 0.00198372 1.93582e-13)
(978.576 0.00280434 1.93082e-13)
(978.575 0.00397078 1.93996e-13)
(978.573 0.00563138 1.94305e-13)
(978.57 0.00799909 1.91952e-13)
(978.565 0.0113802 1.94989e-13)
(978.559 0.0162157 1.95608e-13)
(978.551 0.0231416 1.97667e-13)
(978.539 0.0330765 1.93472e-13)
(978.521 0.0473472 1.9398e-13)
(978.496 0.0678824 1.97112e-13)
(978.46 0.0974471 1.99305e-13)
(978.408 0.140221 1.98499e-13)
(978.334 0.201641 1.96653e-13)
(978.223 0.29435 1.96654e-13)
(978.068 0.427899 1.99514e-13)
(978.58 2.44293e-06 2.16752e-13)
(978.58 3.30942e-06 2.1545e-13)
(978.58 4.49066e-06 2.14732e-13)
(978.58 6.10364e-06 2.11829e-13)
(978.58 8.30984e-06 2.12258e-13)
(978.58 1.13324e-05 2.15455e-13)
(978.58 1.54803e-05 2.1429e-13)
(978.58 2.11818e-05 2.10706e-13)
(978.58 2.90316e-05 2.12574e-13)
(978.58 3.98569e-05 2.12109e-13)
(978.58 5.48099e-05 2.10838e-13)
(978.58 7.54981e-05 2.1064e-13)
(978.58 0.000104168 2.07031e-13)
(978.58 0.000143965 2.08782e-13)
(978.58 0.000199296 2.10636e-13)
(978.58 0.000276352 2.07353e-13)
(978.579 0.000383833 2.08977e-13)
(978.579 0.000533993 2.1072e-13)
(978.579 0.000744111 2.08375e-13)
(978.579 0.00103859 2.07456e-13)
(978.578 0.00145195 2.06275e-13)
(978.577 0.0020331 2.04525e-13)
(978.576 0.00285141 2.08693e-13)
(978.575 0.0040055 2.09274e-13)
(978.573 0.00563565 2.09508e-13)
(978.57 0.00794175 2.0727e-13)
(978.565 0.0112091 2.04927e-13)
(978.56 0.0158452 2.04694e-13)
(978.551 0.0224335 2.04283e-13)
(978.54 0.0318095 2.06632e-13)
(978.523 0.045172 2.05899e-13)
(978.499 0.0642432 2.05572e-13)
(978.466 0.0914994 2.07266e-13)
(978.418 0.130505 2.07315e-13)
(978.349 0.186405 2.05126e-13)
(978.252 0.266554 2.07726e-13)
(978.112 0.381988 2.0826e-13)
(977.912 0.546984 2.06906e-13)
(977.617 0.794331 2.08712e-13)
(977.207 1.14798 2.10744e-13)
(978.58 7.31114e-06 2.33111e-13)
(978.58 9.87712e-06 2.30614e-13)
(978.58 1.33659e-05 2.27658e-13)
(978.58 1.81172e-05 2.26434e-13)
(978.58 2.45985e-05 2.26615e-13)
(978.58 3.34541e-05 2.25889e-13)
(978.58 4.55737e-05 2.26258e-13)
(978.58 6.21874e-05 2.25341e-13)
(978.58 8.4999e-05 2.2646e-13)
(978.58 0.000116372 2.22608e-13)
(978.58 0.000159588 2.20663e-13)
(978.58 0.000219215 2.21443e-13)
(978.58 0.000301617 2.20693e-13)
(978.579 0.000415671 2.22714e-13)
(978.579 0.000573785 2.22643e-13)
(978.579 0.000793327 2.24884e-13)
(978.578 0.00109864 2.24365e-13)
(978.578 0.00152391 2.21492e-13)
(978.577 0.00211719 2.22242e-13)
(978.576 0.00294616 2.22317e-13)
(978.575 0.00410624 2.17845e-13)
(978.572 0.00573222 2.18478e-13)
(978.569 0.00801465 2.19323e-13)
(978.565 0.0112234 2.17876e-13)
(978.559 0.0157411 2.19487e-13)
(978.551 0.0221112 2.17331e-13)
(978.54 0.0311065 2.17939e-13)
(978.524 0.0438268 2.17463e-13)
(978.501 0.0618402 2.1596e-13)
(978.469 0.0873842 2.18909e-13)
(978.424 0.123656 2.2027e-13)
(978.36 0.175223 2.2079e-13)
(978.27 0.248627 2.21369e-13)
(978.142 0.35322 2.17803e-13)
(977.959 0.502459 2.18836e-13)
(977.7 0.715379 2.21923e-13)
(977.33 1.02036 2.22512e-13)
(976.805 1.45376 2.21492e-13)
(976.035 2.09796 2.22275e-13)
(974.973 3.00959 2.24338e-13)
(978.58 1.59897e-05 2.476e-13)
(978.58 2.15089e-05 2.48046e-13)
(978.58 2.89813e-05 2.43174e-13)
(978.58 3.91149e-05 2.42881e-13)
(978.58 5.28795e-05 2.42993e-13)
(978.58 7.16067e-05 2.38943e-13)
(978.58 9.71266e-05 2.41109e-13)
(978.58 0.000131959 2.37665e-13)
(978.58 0.000179577 2.36233e-13)
(978.58 0.000244779 2.37784e-13)
(978.58 0.000334197 2.3517e-13)
(978.579 0.000457023 2.33042e-13)
(978.579 0.000626003 2.33207e-13)
(978.579 0.00085885 2.3494e-13)
(978.578 0.00118021 2.33932e-13)
(978.578 0.00162444 2.34176e-13)
(978.577 0.00223946 2.36559e-13)
(978.576 0.00309226 2.32562e-13)
(978.574 0.0042766 2.30921e-13)
(978.572 0.00592388 2.31925e-13)
(978.569 0.00821851 2.31534e-13)
(978.565 0.0114197 2.30064e-13)
(978.559 0.0158922 2.31095e-13)
(978.551 0.0221501 2.28703e-13)
(978.54 0.0309193 2.2835e-13)
(978.524 0.043225 2.32747e-13)
(978.502 0.0605174 2.30694e-13)
(978.471 0.0848507 2.29351e-13)
(978.428 0.119138 2.29541e-13)
(978.367 0.167512 2.31981e-13)
(978.282 0.235841 2.31854e-13)
(978.162 0.332463 2.28071e-13)
(977.992 0.469238 2.32835e-13)
(977.754 0.66302 2.34648e-13)
(977.416 0.937719 2.31105e-13)
(976.939 1.32737 2.33086e-13)
(976.265 1.87983 2.35628e-13)
(975.309 2.66517 2.35e-13)
(973.965 3.77155 2.34013e-13)
(972.019 5.39598 2.3499e-13)
(969.373 7.65911 2.34164e-13)
(978.58 4.63886e-05 2.6382e-13)
(978.58 6.22394e-05 2.60805e-13)
(978.58 8.36439e-05 2.54802e-13)
(978.58 0.000112594 2.56263e-13)
(978.58 0.000151813 2.55753e-13)
(978.58 0.000205026 2.5253e-13)
(978.58 0.000277343 2.51901e-13)
(978.579 0.000375778 2.50621e-13)
(978.579 0.00050998 2.52531e-13)
(978.579 0.000693233 2.52929e-13)
(978.579 0.000943861 2.48325e-13)
(978.578 0.00128717 2.47231e-13)
(978.578 0.00175818 2.48467e-13)
(978.577 0.00240536 2.47963e-13)
(978.575 0.00329598 2.46144e-13)
(978.574 0.00452348 2.47795e-13)
(978.571 0.00621786 2.47648e-13)
(978.568 0.00856023 2.44974e-13)
(978.564 0.0118033 2.44054e-13)
(978.558 0.0163 2.43871e-13)
(978.55 0.0225443 2.43608e-13)
(978.538 0.031228 2.45e-13)
(978.523 0.0433214 2.40084e-13)
(978.501 0.0601867 2.37214e-13)
(978.471 0.0837387 2.43927e-13)
(978.429 0.116673 2.45482e-13)
(978.37 0.162787 2.41469e-13)
(978.288 0.227429 2.41405e-13)
(978.174 0.318147 2.41692e-13)
(978.014 0.445595 2.42885e-13)
(977.79 0.624808 2.41645e-13)
(977.477 0.876972 2.43795e-13)
(977.037 1.23194 2.469e-13)
(976.419 1.73176 2.45565e-13)
(975.553 2.43539 2.4704e-13)
(974.337 3.42527 2.4555e-13)
(972.636 4.8145 2.44458e-13)
(970.252 6.76652 2.47307e-13)
(966.953 9.47744 2.49534e-13)
(962.282 13.3768 2.45876e-13)
(956.103 18.6603 2.46273e-13)
(978.58 9.9077e-05 2.7653e-13)
(978.58 0.000132371 2.75038e-13)
(978.58 0.000177143 2.67605e-13)
(978.58 0.000237443 2.69044e-13)
(978.58 0.000318789 2.71001e-13)
(978.579 0.0004287 2.6752e-13)
(978.579 0.000577442 2.67317e-13)
(978.579 0.000779048 2.67964e-13)
(978.578 0.00105273 2.65882e-13)
(978.578 0.00142482 2.67837e-13)
(978.577 0.0019315 2.66494e-13)
(978.576 0.0026225 2.60834e-13)
(978.575 0.00356632 2.6084e-13)
(978.573 0.00485741 2.60812e-13)
(978.571 0.00662627 2.60337e-13)
(978.567 0.00905339 2.61482e-13)
(978.563 0.0123887 2.61885e-13)
(978.557 0.0169788 2.56817e-13)
(978.548 0.023305 2.53879e-13)
(978.537 0.0320368 2.54391e-13)
(978.521 0.0441059 2.55807e-13)
(978.499 0.060811 2.56361e-13)
(978.469 0.083964 2.54393e-13)
(978.427 0.116097 2.53852e-13)
(978.369 0.160751 2.56518e-13)
(978.29 0.222879 2.57526e-13)
(978.179 0.309415 2.5605e-13)
(978.026 0.430078 2.54932e-13)
(977.812 0.598489 2.54049e-13)
(977.516 0.833711 2.53667e-13)
(977.103 1.16239 2.56517e-13)
(976.529 1.62181 2.58948e-13)
(975.728 2.264 2.53872e-13)
(974.613 3.16101 2.51004e-13)
(973.062 4.41221 2.53727e-13)
(970.911 6.15371 2.55538e-13)
(967.935 8.5715 2.56015e-13)
(963.845 11.908 2.56659e-13)
(958.256 16.4919 2.602e-13)
(950.755 22.6884 2.59642e-13)
(940.534 31.29 2.5723e-13)
(927.623 42.4196 2.58166e-13)
(978.58 0.000209608 2.88099e-13)
(978.58 0.000278881 2.86166e-13)
(978.579 0.000371647 2.84169e-13)
(978.579 0.000496074 2.8433e-13)
(978.579 0.000663225 2.84897e-13)
(978.579 0.000888115 2.82863e-13)
(978.578 0.00119115 2.81459e-13)
(978.578 0.00160012 2.82358e-13)
(978.577 0.00215291 2.81154e-13)
(978.576 0.00290126 2.80238e-13)
(978.574 0.0039159 2.80406e-13)
(978.572 0.00529368 2.75896e-13)
(978.57 0.00716742 2.73474e-13)
(978.566 0.0097195 2.74383e-13)
(978.562 0.0132006 2.74124e-13)
(978.555 0.0179559 2.73386e-13)
(978.546 0.0244612 2.73205e-13)
(978.534 0.0333734 2.69796e-13)
(978.518 0.0456005 2.67805e-13)
(978.495 0.0623986 2.6697e-13)
(978.465 0.0855075 2.69479e-13)
(978.423 0.117341 2.70681e-13)
(978.365 0.161251 2.68042e-13)
(978.286 0.22189 2.66013e-13)
(978.178 0.305728 2.68715e-13)
(978.028 0.42176 2.68137e-13)
(977.822 0.582512 2.66622e-13)
(977.537 0.80539 2.65409e-13)
(977.143 1.11456 2.65556e-13)
(976.599 1.54355 2.64624e-13)
(975.847 2.1389 2.66301e-13)
(974.807 2.96477 2.68802e-13)
(973.372 4.10891 2.66261e-13)
(971.393 5.691 2.63026e-13)
(968.674 7.87315 2.65777e-13)
(964.956 10.8705 2.66832e-13)
(959.91 14.9592 2.67503e-13)
(953.129 20.4898 2.69705e-13)
(944.126 27.8914 2.69643e-13)
(932.328 37.6775 2.7062e-13)
(917.303 50.2585 2.70958e-13)
(898.041 66.708 2.69115e-13)
(875.208 86.6638 2.70726e-13)
(978.579 0.000581988 3.01136e-13)
(978.579 0.000772361 3.02065e-13)
(978.578 0.00102664 3.01552e-13)
(978.578 0.00136679 2.98722e-13)
(978.577 0.00182253 2.95953e-13)
(978.576 0.00243408 2.94699e-13)
(978.575 0.00325599 2.95376e-13)
(978.574 0.00436229 2.94217e-13)
(978.571 0.00585359 2.91973e-13)
(978.569 0.00786692 2.91885e-13)
(978.565 0.010589 2.90016e-13)
(978.56 0.0142749 2.87533e-13)
(978.553 0.0192729 2.88883e-13)
(978.543 0.0260599 2.87301e-13)
(978.531 0.0352899 2.86547e-13)
(978.514 0.0478601 2.86448e-13)
(978.49 0.0650031 2.83902e-13)
(978.459 0.0884133 2.85505e-13)
(978.416 0.120425 2.84173e-13)
(978.358 0.164256 2.82494e-13)
(978.278 0.224344 2.85566e-13)
(978.17 0.306807 2.84345e-13)
(978.022 0.420097 2.8014e-13)
(977.819 0.575898 2.79284e-13)
(977.541 0.790339 2.81192e-13)