/*--------------------------------*- C++ -*----------------------------------*\
| =========                 |                                                 |
| \\      /  F ield         | OpenFOAM: The Open Source CFD Toolbox           |
|  \\    /   O peration     | Version:  v1706                                 |
|   \\  /    A nd           | Web:      www.OpenFOAM.com                      |
|    \\/     M anipulation  |                                                 |
\*---------------------------------------------------------------------------*/
FoamFile
{
    version     2.0;
    format      ascii;
    class       volScalarField;
    location    "3.7e-05";
    object      wallHeatFlux;
}
// * * * * * * * * * * * * * * * * * * * * * * * * * * * * * * * * * * * * * //

dimensions      [1 0 -3 0 0 0 0];


internalField   uniform 0;

boundaryField
{
    cone
    {
        type            calculated;
        value           nonuniform List<scalar> 
153
(
11447.6
11323.6
11200.3
11077.9
10956.1
10835
10714.6
10594.8
10475.7
10357.2
10239.6
10122.6
10006.4
9891.05
9776.49
9662.78
9549.94
9438.01
9327.01
9216.98
9107.93
8999.9
8892.9
8786.97
8682.13
8578.4
8475.8
8374.36
8274.09
8175.01
8077.11
7980.41
7884.9
7790.57
7697.41
7605.4
7514.5
7424.68
7335.87
7248.01
7161.01
7074.75
6989.08
6903.77
6818.54
6732.93
6646.34
6555.94
6463.31
6372.89
6284.31
6197.55
6112.22
6028.1
5945
5862.74
5781.21
5700.3
5619.92
5540
5460.49
5381.33
5302.49
5223.93
5145.62
5067.54
4989.66
4911.99
4834.5
4757.19
4680.07
4603.12
4526.36
4449.8
4373.45
4297.33
4221.45
4145.83
4070.49
3995.48
3920.8
3846.5
3772.6
3699.14
3626.15
3553.67
3481.73
3410.38
3339.64
3269.56
3200.17
3131.5
3063.59
2996.48
2930.19
2864.75
2800.2
2736.55
2673.82
2612.04
2551.23
2491.4
2432.55
2374.71
2317.87
2262.05
2207.25
2153.47
2100.71
2048.98
1998.27
1948.59
1899.94
1852.33
1805.77
1760.26
1715.83
1672.47
1630.23
1589.11
1549.14
1510.35
1472.77
1436.43
1401.34
1367.55
1335.07
1303.91
1274.09
1245.6
1218.44
1192.57
1167.96
1144.56
1122.3
1101.1
1080.85
1061.41
1042.65
1024.44
1006.67
989.189
971.835
954.471
936.973
919.237
901.187
882.776
863.998
844.89
825.533
806.057
786.617
)
;
    }
    inlet
    {
        type            calculated;
        value           uniform 0;
    }
    rWedge
    {
        type            wedge;
    }
    lWedge
    {
        type            wedge;
    }
    outlet
    {
        type            calculated;
        value           nonuniform 0();
    }
    procBoundary2to0
    {
        type            processor;
        value           uniform 0;
    }
    procBoundary2to1
    {
        type            processor;
        value           uniform 0;
    }
    procBoundary2to3
    {
        type            processor;
        value           uniform 0;
    }
}


// ************************************************************************* //
