/*--------------------------------*- C++ -*----------------------------------*\
| =========                 |                                                 |
| \\      /  F ield         | OpenFOAM: The Open Source CFD Toolbox           |
|  \\    /   O peration     | Version:  v1706                                 |
|   \\  /    A nd           | Web:      www.OpenFOAM.com                      |
|    \\/     M anipulation  |                                                 |
\*---------------------------------------------------------------------------*/
FoamFile
{
    version     2.0;
    format      ascii;
    class       volScalarField;
    location    "3.4e-05";
    object      kappave;
}
// * * * * * * * * * * * * * * * * * * * * * * * * * * * * * * * * * * * * * //

dimensions      [1 1 -3 -1 0 0 0];


internalField   nonuniform List<scalar> 
30104
(
1.46379e-10
1.4643e-10
1.46487e-10
1.46552e-10
1.46626e-10
1.46709e-10
1.46804e-10
1.46911e-10
1.47034e-10
1.47173e-10
1.47331e-10
1.47508e-10
1.47705e-10
1.47922e-10
1.48162e-10
1.48426e-10
1.48719e-10
1.59583e-10
1.58687e-10
1.57774e-10
1.56846e-10
1.55913e-10
1.54983e-10
1.54063e-10
1.53158e-10
1.52301e-10
1.51532e-10
1.50872e-10
1.50311e-10
1.49813e-10
1.49351e-10
1.48912e-10
1.48497e-10
1.48111e-10
1.47764e-10
1.47467e-10
1.47226e-10
1.4703e-10
1.46867e-10
1.46727e-10
1.46606e-10
1.46503e-10
1.46418e-10
1.46349e-10
1.46293e-10
1.46246e-10
1.46207e-10
1.46174e-10
1.46146e-10
1.46123e-10
1.46105e-10
1.46091e-10
1.4608e-10
1.46071e-10
1.46064e-10
1.46058e-10
1.46054e-10
1.4605e-10
1.46048e-10
1.46045e-10
1.46044e-10
1.46042e-10
1.46041e-10
1.4604e-10
1.4604e-10
1.46039e-10
1.46039e-10
1.46038e-10
1.46038e-10
1.46038e-10
1.46038e-10
1.46038e-10
1.46038e-10
1.46038e-10
1.46038e-10
1.46038e-10
1.46038e-10
1.46038e-10
1.46038e-10
1.46038e-10
1.46038e-10
1.46038e-10
1.46038e-10
1.46038e-10
1.46038e-10
1.46038e-10
1.46038e-10
1.46038e-10
1.46038e-10
1.46038e-10
1.46038e-10
1.46038e-10
1.46038e-10
1.46038e-10
1.46038e-10
1.46038e-10
1.46038e-10
1.46038e-10
1.46038e-10
1.46038e-10
1.46038e-10
1.46038e-10
1.46038e-10
1.46038e-10
1.46038e-10
1.46038e-10
1.46038e-10
1.46038e-10
1.46038e-10
1.46038e-10
1.46038e-10
1.46038e-10
1.46038e-10
1.46038e-10
1.46038e-10
1.46038e-10
1.46038e-10
1.46038e-10
1.46038e-10
1.46038e-10
1.46038e-10
1.46038e-10
1.46038e-10
1.46038e-10
1.46038e-10
1.46038e-10
1.46038e-10
1.46038e-10
1.46038e-10
1.46038e-10
1.46038e-10
1.46038e-10
1.46038e-10
1.46038e-10
1.46038e-10
1.46038e-10
1.46038e-10
1.46038e-10
1.46038e-10
1.46038e-10
1.46038e-10
1.46038e-10
1.46038e-10
1.46038e-10
1.46038e-10
1.46038e-10
1.46038e-10
1.46038e-10
1.46038e-10
1.46038e-10
1.46038e-10
1.46038e-10
1.46038e-10
1.46038e-10
1.46038e-10
1.46038e-10
1.46038e-10
1.46038e-10
1.46038e-10
1.46038e-10
1.46038e-10
1.46038e-10
1.46038e-10
1.46038e-10
1.46038e-10
1.46038e-10
1.46038e-10
1.46038e-10
1.46038e-10
1.46038e-10
1.46038e-10
1.46038e-10
1.46038e-10
1.46038e-10
1.46038e-10
1.46038e-10
1.46038e-10
1.46038e-10
1.46038e-10
1.46038e-10
1.46038e-10
1.46038e-10
1.46038e-10
1.46038e-10
1.46038e-10
1.46038e-10
1.46038e-10
1.46038e-10
1.46038e-10
1.46038e-10
1.46038e-10
1.46038e-10
1.46038e-10
1.46038e-10
1.46038e-10
1.46038e-10
1.46038e-10
1.46038e-10
1.46038e-10
1.46038e-10
1.46038e-10
1.46038e-10
1.46038e-10
1.46038e-10
1.46038e-10
1.46038e-10
1.46038e-10
1.46038e-10
1.46038e-10
1.46038e-10
1.48133e-10
1.48441e-10
1.48793e-10
1.4919e-10
1.49637e-10
1.50137e-10
1.50698e-10
1.51327e-10
1.52037e-10
1.52839e-10
1.53741e-10
1.54749e-10
1.55864e-10
1.57087e-10
1.58419e-10
1.59869e-10
1.61464e-10
2.08795e-10
2.06416e-10
2.03778e-10
2.00873e-10
1.97707e-10
1.94298e-10
1.90667e-10
1.86844e-10
1.82881e-10
1.78912e-10
1.75259e-10
1.72245e-10
1.69614e-10
1.67155e-10
1.64773e-10
1.6245e-10
1.6022e-10
1.58158e-10
1.56337e-10
1.54798e-10
1.53502e-10
1.52378e-10
1.5138e-10
1.50488e-10
1.49702e-10
1.49031e-10
1.48481e-10
1.48036e-10
1.47673e-10
1.47369e-10
1.47114e-10
1.46903e-10
1.46732e-10
1.46594e-10
1.46484e-10
1.46394e-10
1.46321e-10
1.46261e-10
1.46213e-10
1.46174e-10
1.46144e-10
1.46121e-10
1.46102e-10
1.46088e-10
1.46076e-10
1.46067e-10
1.4606e-10
1.46055e-10
1.46051e-10
1.46047e-10
1.46045e-10
1.46043e-10
1.46042e-10
1.46041e-10
1.4604e-10
1.46039e-10
1.46039e-10
1.46038e-10
1.46038e-10
1.46038e-10
1.46038e-10
1.46038e-10
1.46038e-10
1.46038e-10
1.46038e-10
1.46038e-10
1.46038e-10
1.46038e-10
1.46038e-10
1.46038e-10
1.46038e-10
1.46038e-10
1.46038e-10
1.46038e-10
1.46038e-10
1.46038e-10
1.46038e-10
1.46038e-10
1.46038e-10
1.46038e-10
1.46038e-10
1.46038e-10
1.46038e-10
1.46038e-10
1.46038e-10
1.46038e-10
1.46038e-10
1.46038e-10
1.46038e-10
1.46038e-10
1.46038e-10
1.46038e-10
1.46038e-10
1.46038e-10
1.46038e-10
1.46038e-10
1.46038e-10
1.46038e-10
1.46038e-10
1.46038e-10
1.46038e-10
1.46038e-10
1.46038e-10
1.46038e-10
1.46038e-10
1.46038e-10
1.46038e-10
1.46038e-10
1.46038e-10
1.46038e-10
1.46038e-10
1.46038e-10
1.46038e-10
1.46038e-10
1.46038e-10
1.46038e-10
1.46038e-10
1.46038e-10
1.46038e-10
1.46038e-10
1.46038e-10
1.46038e-10
1.46038e-10
1.46038e-10
1.46038e-10
1.46038e-10
1.46038e-10
1.46038e-10
1.46038e-10
1.46038e-10
1.46038e-10
1.46038e-10
1.46038e-10
1.46038e-10
1.46038e-10
1.46038e-10
1.46038e-10
1.46038e-10
1.46038e-10
1.46038e-10
1.46038e-10
1.46038e-10
1.46038e-10
1.46038e-10
1.46038e-10
1.46038e-10
1.46038e-10
1.46038e-10
1.46038e-10
1.46038e-10
1.46038e-10
1.46038e-10
1.46038e-10
1.46038e-10
1.46038e-10
1.46038e-10
1.46038e-10
1.46038e-10
1.46038e-10
1.46038e-10
1.46038e-10
1.46038e-10
1.46038e-10
1.46038e-10
1.46038e-10
1.46038e-10
1.46038e-10
1.46038e-10
1.46038e-10
1.46038e-10
1.46038e-10
1.46038e-10
1.46038e-10
1.46038e-10
1.46038e-10
1.46038e-10
1.46038e-10
1.46038e-10
1.46038e-10
1.46038e-10
1.46038e-10
1.46038e-10
1.46038e-10
1.46038e-10
1.46038e-10
1.46038e-10
1.46038e-10
1.46038e-10
1.46038e-10
1.46038e-10
1.46038e-10
1.46038e-10
1.46038e-10
1.53446e-10
1.5449e-10
1.55668e-10
1.56986e-10
1.58448e-10
1.60059e-10
1.61833e-10
1.63795e-10
1.65973e-10
1.68378e-10
1.71001e-10
1.73822e-10
1.76817e-10
1.79956e-10
1.83217e-10
1.86604e-10
2.29012e-10
2.28465e-10
2.27836e-10
2.27123e-10
2.2632e-10
2.25406e-10
2.24339e-10
2.23055e-10
2.21473e-10
2.19499e-10
2.17018e-10
2.13958e-10
2.10374e-10
2.06326e-10
2.01864e-10
1.97038e-10
1.91914e-10
1.86619e-10
1.81408e-10
1.76807e-10
1.72975e-10
1.69594e-10
1.66457e-10
1.63504e-10
1.60774e-10
1.58349e-10
1.56297e-10
1.54602e-10
1.53177e-10
1.51946e-10
1.50874e-10
1.49952e-10
1.49186e-10
1.48569e-10
1.48078e-10
1.4768e-10
1.47352e-10
1.47082e-10
1.46864e-10
1.4669e-10
1.46553e-10
1.46444e-10
1.46356e-10
1.46285e-10
1.46228e-10
1.46184e-10
1.4615e-10
1.46123e-10
1.46103e-10
1.46087e-10
1.46075e-10
1.46066e-10
1.46059e-10
1.46053e-10
1.46049e-10
1.46046e-10
1.46044e-10
1.46042e-10
1.46041e-10
1.4604e-10
1.46039e-10
1.46039e-10
1.46038e-10
1.46038e-10
1.46038e-10
1.46038e-10
1.46038e-10
1.46038e-10
1.46038e-10
1.46038e-10
1.46038e-10
1.46038e-10
1.46038e-10
1.46038e-10
1.46038e-10
1.46038e-10
1.46038e-10
1.46038e-10
1.46038e-10
1.46038e-10
1.46038e-10
1.46038e-10
1.46038e-10
1.46038e-10
1.46038e-10
1.46038e-10
1.46038e-10
1.46038e-10
1.46038e-10
1.46038e-10
1.46038e-10
1.46038e-10
1.46038e-10
1.46038e-10
1.46038e-10
1.46038e-10
1.46038e-10
1.46038e-10
1.46038e-10
1.46038e-10
1.46038e-10
1.46038e-10
1.46038e-10
1.46038e-10
1.46038e-10
1.46038e-10
1.46038e-10
1.46038e-10
1.46038e-10
1.46038e-10
1.46038e-10
1.46038e-10
1.46038e-10
1.46038e-10
1.46038e-10
1.46038e-10
1.46038e-10
1.46038e-10
1.46038e-10
1.46038e-10
1.46038e-10
1.46038e-10
1.46038e-10
1.46038e-10
1.46038e-10
1.46038e-10
1.46038e-10
1.46038e-10
1.46038e-10
1.46038e-10
1.46038e-10
1.46038e-10
1.46038e-10
1.46038e-10
1.46038e-10
1.46038e-10
1.46038e-10
1.46038e-10
1.46038e-10
1.46038e-10
1.46038e-10
1.46038e-10
1.46038e-10
1.46038e-10
1.46038e-10
1.46038e-10
1.46038e-10
1.46038e-10
1.46038e-10
1.46038e-10
1.46038e-10
1.46038e-10
1.46038e-10
1.46038e-10
1.46038e-10
1.46038e-10
1.46038e-10
1.46038e-10
1.46038e-10
1.46038e-10
1.46038e-10
1.46038e-10
1.46038e-10
1.46038e-10
1.46038e-10
1.46038e-10
1.46038e-10
1.46038e-10
1.46038e-10
1.46038e-10
1.46038e-10
1.46038e-10
1.46038e-10
1.46038e-10
1.46038e-10
1.46038e-10
1.46038e-10
1.46038e-10
1.46038e-10
1.46038e-10
1.46038e-10
1.46038e-10
1.46038e-10
1.46038e-10
1.46038e-10
1.46038e-10
1.46038e-10
1.46038e-10
1.46038e-10
1.46038e-10
1.46038e-10
1.46038e-10
1.46038e-10
1.68287e-10
1.71073e-10
1.74105e-10
1.77361e-10
1.80809e-10
1.84424e-10
1.88202e-10
1.92231e-10
1.96636e-10
2.01373e-10
2.06341e-10
2.11413e-10
2.16458e-10
2.21357e-10
2.26014e-10
2.30354e-10
2.33596e-10
2.33459e-10
2.33302e-10
2.33115e-10
2.32903e-10
2.32657e-10
2.32363e-10
2.32011e-10
2.31594e-10
2.31109e-10
2.30559e-10
2.29954e-10
2.29283e-10
2.28505e-10
2.27555e-10
2.26351e-10
2.24789e-10
2.22744e-10
2.20094e-10
2.16709e-10
2.12582e-10
2.07825e-10
2.02548e-10
1.96848e-10
1.90854e-10
1.84814e-10
1.79224e-10
1.74615e-10
1.70678e-10
1.67115e-10
1.63821e-10
1.6083e-10
1.58226e-10
1.56065e-10
1.54302e-10
1.52828e-10
1.51564e-10
1.50479e-10
1.4957e-10
1.48837e-10
1.48262e-10
1.47805e-10
1.47435e-10
1.47133e-10
1.46892e-10
1.46702e-10
1.46554e-10
1.46438e-10
1.46345e-10
1.46272e-10
1.46214e-10
1.4617e-10
1.46137e-10
1.46112e-10
1.46093e-10
1.46078e-10
1.46068e-10
1.4606e-10
1.46054e-10
1.46049e-10
1.46046e-10
1.46044e-10
1.46042e-10
1.46041e-10
1.4604e-10
1.46039e-10
1.46039e-10
1.46039e-10
1.46038e-10
1.46038e-10
1.46038e-10
1.46038e-10
1.46038e-10
1.46038e-10
1.46038e-10
1.46038e-10
1.46038e-10
1.46038e-10
1.46038e-10
1.46038e-10
1.46038e-10
1.46038e-10
1.46038e-10
1.46038e-10
1.46038e-10
1.46038e-10
1.46038e-10
1.46038e-10
1.46038e-10
1.46038e-10
1.46038e-10
1.46038e-10
1.46038e-10
1.46038e-10
1.46038e-10
1.46038e-10
1.46038e-10
1.46038e-10
1.46038e-10
1.46038e-10
1.46038e-10
1.46038e-10
1.46038e-10
1.46038e-10
1.46038e-10
1.46038e-10
1.46038e-10
1.46038e-10
1.46038e-10
1.46038e-10
1.46038e-10
1.46038e-10
1.46038e-10
1.46038e-10
1.46038e-10
1.46038e-10
1.46038e-10
1.46038e-10
1.46038e-10
1.46038e-10
1.46038e-10
1.46038e-10
1.46038e-10
1.46038e-10
1.46038e-10
1.46038e-10
1.46038e-10
1.46038e-10
1.46038e-10
1.46038e-10
1.46038e-10
1.46038e-10
1.46038e-10
1.46038e-10
1.46038e-10
1.46038e-10
1.46038e-10
1.46038e-10
1.46038e-10
1.46038e-10
1.46038e-10
1.46038e-10
1.46038e-10
1.46038e-10
1.46038e-10
1.46038e-10
1.46038e-10
1.46038e-10
1.46038e-10
1.46038e-10
1.46038e-10
1.46038e-10
1.46038e-10
1.46038e-10
1.46038e-10
1.46038e-10
1.46038e-10
1.46038e-10
1.46038e-10
1.46038e-10
1.46038e-10
1.46038e-10
1.46038e-10
1.46038e-10
1.46038e-10
1.46038e-10
1.46038e-10
1.46038e-10
1.46038e-10
1.46038e-10
1.46038e-10
1.46038e-10
1.46038e-10
1.46039e-10
1.46039e-10
1.46039e-10
1.46039e-10
1.46039e-10
1.46039e-10
1.46039e-10
1.46039e-10
1.46039e-10
1.46039e-10
1.46039e-10
1.46039e-10
1.46039e-10
1.46039e-10
1.46039e-10
1.46039e-10
1.46039e-10
1.46039e-10
1.46039e-10
1.46039e-10
1.99777e-10
2.04903e-10
2.10226e-10
2.15605e-10
2.20903e-10
2.25996e-10
2.30783e-10
2.35167e-10
2.3908e-10
2.42518e-10
2.45501e-10
2.4806e-10
2.50238e-10
2.52078e-10
2.53625e-10
2.35749e-10
2.35624e-10
2.35494e-10
2.35359e-10
2.352e-10
2.35014e-10
2.34812e-10
2.34607e-10
2.34412e-10
2.34238e-10
2.34082e-10
2.33933e-10
2.33788e-10
2.33633e-10
2.33445e-10
2.33206e-10
2.32901e-10
2.3252e-10
2.32077e-10
2.31557e-10
2.30918e-10
2.30082e-10
2.28935e-10
2.27348e-10
2.25214e-10
2.22435e-10
2.18897e-10
2.1453e-10
2.09434e-10
2.03722e-10
1.97501e-10
1.90951e-10
1.84422e-10
1.78554e-10
1.7378e-10
1.6968e-10
1.65962e-10
1.62566e-10
1.59562e-10
1.57033e-10
1.54986e-10
1.53313e-10
1.51903e-10
1.50702e-10
1.497e-10
1.48896e-10
1.48272e-10
1.47785e-10
1.47396e-10
1.47084e-10
1.46838e-10
1.46649e-10
1.46503e-10
1.4639e-10
1.46301e-10
1.46233e-10
1.46181e-10
1.46143e-10
1.46115e-10
1.46094e-10
1.46079e-10
1.46068e-10
1.46059e-10
1.46053e-10
1.46049e-10
1.46046e-10
1.46043e-10
1.46042e-10
1.46041e-10
1.4604e-10
1.46039e-10
1.46039e-10
1.46039e-10
1.46038e-10
1.46038e-10
1.46038e-10
1.46038e-10
1.46038e-10
1.46038e-10
1.46038e-10
1.46038e-10
1.46038e-10
1.46038e-10
1.46038e-10
1.46038e-10
1.46038e-10
1.46038e-10
1.46038e-10
1.46038e-10
1.46038e-10
1.46038e-10
1.46038e-10
1.46038e-10
1.46038e-10
1.46038e-10
1.46038e-10
1.46038e-10
1.46038e-10
1.46038e-10
1.46038e-10
1.46038e-10
1.46038e-10
1.46038e-10
1.46038e-10
1.46038e-10
1.46038e-10
1.46038e-10
1.46038e-10
1.46038e-10
1.46038e-10
1.46038e-10
1.46038e-10
1.46038e-10
1.46038e-10
1.46038e-10
1.46038e-10
1.46038e-10
1.46038e-10
1.46038e-10
1.46038e-10
1.46038e-10
1.46038e-10
1.46038e-10
1.46038e-10
1.46038e-10
1.46038e-10
1.46038e-10
1.46038e-10
1.46038e-10
1.46038e-10
1.46038e-10
1.46038e-10
1.46038e-10
1.46038e-10
1.46038e-10
1.46038e-10
1.46038e-10
1.46038e-10
1.46038e-10
1.46039e-10
1.46039e-10
1.46039e-10
1.46039e-10
1.46039e-10
1.46039e-10
1.46039e-10
1.46039e-10
1.46039e-10
1.46039e-10
1.46039e-10
1.46039e-10
1.46039e-10
1.46039e-10
1.46039e-10
1.46039e-10
1.46039e-10
1.46039e-10
1.46039e-10
1.46039e-10
1.46039e-10
1.4604e-10
1.4604e-10
1.4604e-10
1.4604e-10
1.4604e-10
1.4604e-10
1.4604e-10
1.4604e-10
1.4604e-10
1.4604e-10
1.4604e-10
1.46041e-10
1.46041e-10
1.46041e-10
1.46041e-10
1.46041e-10
1.46041e-10
1.46041e-10
1.46042e-10
1.46042e-10
1.46042e-10
1.46042e-10
1.46042e-10
1.46042e-10
1.46043e-10
1.46043e-10
1.46043e-10
1.46043e-10
1.46043e-10
1.46044e-10
1.46044e-10
1.46044e-10
1.46044e-10
2.37141e-10
2.41221e-10
2.44794e-10
2.47878e-10
2.5051e-10
2.52735e-10
2.54602e-10
2.56159e-10
2.57443e-10
2.58492e-10
2.59337e-10
2.60008e-10
2.60529e-10
2.6092e-10
2.61219e-10
2.61458e-10
2.37477e-10
2.37327e-10
2.37174e-10
2.37013e-10
2.36844e-10
2.36664e-10
2.36478e-10
2.36295e-10
2.36125e-10
2.35976e-10
2.35851e-10
2.35745e-10
2.35637e-10
2.35525e-10
2.35415e-10
2.35301e-10
2.3522e-10
2.35189e-10
2.35134e-10
2.3504e-10
2.34945e-10
2.3483e-10
2.34658e-10
2.34409e-10
2.34102e-10
2.33738e-10
2.33289e-10
2.32698e-10
2.3185e-10
2.30593e-10
2.28796e-10
2.26364e-10
2.2321e-10
2.19224e-10
2.14352e-10
2.08688e-10
2.02337e-10
1.95463e-10
1.88373e-10
1.81616e-10
1.75972e-10
1.71327e-10
1.67221e-10
1.63493e-10
1.60188e-10
1.57398e-10
1.5515e-10
1.5334e-10
1.51835e-10
1.50569e-10
1.4953e-10
1.48714e-10
1.48092e-10
1.47611e-10
1.47233e-10
1.46938e-10
1.46712e-10
1.46541e-10
1.46413e-10
1.46314e-10
1.46239e-10
1.46184e-10
1.46144e-10
1.46115e-10
1.46094e-10
1.46079e-10
1.46068e-10
1.4606e-10
1.46054e-10
1.4605e-10
1.46046e-10
1.46044e-10
1.46043e-10
1.46042e-10
1.46041e-10
1.4604e-10
1.4604e-10
1.46039e-10
1.46039e-10
1.46039e-10
1.46039e-10
1.46039e-10
1.46039e-10
1.46038e-10
1.46038e-10
1.46038e-10
1.46038e-10
1.46038e-10
1.46038e-10
1.46038e-10
1.46038e-10
1.46038e-10
1.46038e-10
1.46038e-10
1.46038e-10
1.46038e-10
1.46038e-10
1.46038e-10
1.46038e-10
1.46039e-10
1.46039e-10
1.46039e-10
1.46039e-10
1.46039e-10
1.46039e-10
1.46039e-10
1.46039e-10
1.46039e-10
1.46039e-10
1.46039e-10
1.46039e-10
1.46039e-10
1.46039e-10
1.46039e-10
1.46039e-10
1.46039e-10
1.46039e-10
1.46039e-10
1.46039e-10
1.46039e-10
1.46039e-10
1.46039e-10
1.46039e-10
1.46039e-10
1.46039e-10
1.46039e-10
1.46039e-10
1.4604e-10
1.4604e-10
1.4604e-10
1.4604e-10
1.4604e-10
1.4604e-10
1.4604e-10
1.4604e-10
1.4604e-10
1.4604e-10
1.4604e-10
1.4604e-10
1.46041e-10
1.46041e-10
1.46041e-10
1.46041e-10
1.46041e-10
1.46041e-10
1.46041e-10
1.46041e-10
1.46042e-10
1.46042e-10
1.46042e-10
1.46042e-10
1.46042e-10
1.46042e-10
1.46043e-10
1.46043e-10
1.46043e-10
1.46043e-10
1.46044e-10
1.46044e-10
1.46044e-10
1.46044e-10
1.46045e-10
1.46045e-10
1.46045e-10
1.46046e-10
1.46046e-10
1.46046e-10
1.46047e-10
1.46047e-10
1.46047e-10
1.46048e-10
1.46048e-10
1.46049e-10
1.46049e-10
1.4605e-10
1.4605e-10
1.46051e-10
1.46051e-10
1.46052e-10
1.46052e-10
1.46053e-10
1.46054e-10
1.46054e-10
1.46055e-10
1.46056e-10
1.46057e-10
1.46058e-10
1.46058e-10
1.46059e-10
1.4606e-10
1.46061e-10
1.46062e-10
1.46061e-10
2.59128e-10
2.60262e-10
2.61173e-10
2.61896e-10
2.62456e-10
2.62882e-10
2.63212e-10
2.63478e-10
2.63702e-10
2.6389e-10
2.64048e-10
2.64172e-10
2.6426e-10
2.3918e-10
2.38974e-10
2.38769e-10
2.38563e-10
2.38356e-10
2.38152e-10
2.37951e-10
2.37756e-10
2.37576e-10
2.37418e-10
2.37282e-10
2.37161e-10
2.3705e-10
2.3694e-10
2.3683e-10
2.36723e-10
2.36649e-10
2.36605e-10
2.36545e-10
2.36482e-10
2.36435e-10
2.36408e-10
2.36403e-10
2.36412e-10
2.36449e-10
2.36443e-10
2.3643e-10
2.36413e-10
2.36369e-10
2.36274e-10
2.3613e-10
2.35927e-10
2.35635e-10
2.35195e-10
2.345e-10
2.33408e-10
2.31784e-10
2.29528e-10
2.26556e-10
2.22748e-10
2.17949e-10
2.12171e-10
2.05535e-10
1.98231e-10
1.90586e-10
1.83171e-10
1.76851e-10
1.7175e-10
1.67315e-10
1.63333e-10
1.59845e-10
1.56947e-10
1.54647e-10
1.52805e-10
1.51286e-10
1.50037e-10
1.4905e-10
1.48304e-10
1.47744e-10
1.47315e-10
1.46987e-10
1.46738e-10
1.46555e-10
1.46418e-10
1.46316e-10
1.4624e-10
1.46185e-10
1.46146e-10
1.46118e-10
1.46097e-10
1.46082e-10
1.46071e-10
1.46063e-10
1.46057e-10
1.46053e-10
1.46049e-10
1.46047e-10
1.46045e-10
1.46044e-10
1.46043e-10
1.46042e-10
1.46041e-10
1.46041e-10
1.46041e-10
1.4604e-10
1.4604e-10
1.4604e-10
1.4604e-10
1.4604e-10
1.4604e-10
1.4604e-10
1.4604e-10
1.4604e-10
1.4604e-10
1.4604e-10
1.4604e-10
1.4604e-10
1.4604e-10
1.4604e-10
1.4604e-10
1.4604e-10
1.4604e-10
1.46041e-10
1.46041e-10
1.46041e-10
1.46041e-10
1.46041e-10
1.46041e-10
1.46041e-10
1.46041e-10
1.46041e-10
1.46041e-10
1.46041e-10
1.46041e-10
1.46042e-10
1.46042e-10
1.46042e-10
1.46042e-10
1.46042e-10
1.46042e-10
1.46042e-10
1.46043e-10
1.46043e-10
1.46043e-10
1.46043e-10
1.46043e-10
1.46043e-10
1.46044e-10
1.46044e-10
1.46044e-10
1.46044e-10
1.46045e-10
1.46045e-10
1.46045e-10
1.46045e-10
1.46046e-10
1.46046e-10
1.46046e-10
1.46047e-10
1.46047e-10
1.46048e-10
1.46048e-10
1.46048e-10
1.46049e-10
1.46049e-10
1.4605e-10
1.4605e-10
1.46051e-10
1.46052e-10
1.46052e-10
1.46053e-10
1.46053e-10
1.46054e-10
1.46055e-10
1.46055e-10
1.46056e-10
1.46057e-10
1.46058e-10
1.46059e-10
1.4606e-10
1.46061e-10
1.46062e-10
1.46063e-10
1.46064e-10
1.46065e-10
1.46066e-10
1.46068e-10
1.46069e-10
1.4607e-10
1.46072e-10
1.46073e-10
1.46075e-10
1.46077e-10
1.46078e-10
1.4608e-10
1.46082e-10
1.46084e-10
1.46086e-10
1.46089e-10
1.46091e-10
1.46094e-10
1.46096e-10
1.46099e-10
1.46102e-10
1.46105e-10
1.46108e-10
1.46111e-10
1.46114e-10
1.46117e-10
1.46121e-10
1.46125e-10
1.46129e-10
1.46125e-10
2.65543e-10
2.65757e-10
2.65934e-10
2.66076e-10
2.66179e-10
2.66225e-10
2.66242e-10
2.66239e-10
2.66228e-10
2.66218e-10
2.66211e-10
2.66213e-10
2.66232e-10
2.41153e-10
2.40859e-10
2.40574e-10
2.40295e-10
2.40023e-10
2.39761e-10
2.39509e-10
2.3927e-10
2.39048e-10
2.38852e-10
2.38676e-10
2.38515e-10
2.38368e-10
2.38229e-10
2.38092e-10
2.37962e-10
2.37852e-10
2.37761e-10
2.37687e-10
2.3763e-10
2.37592e-10
2.37568e-10
2.37565e-10
2.37576e-10
2.37597e-10
2.37615e-10
2.37646e-10
2.37703e-10
2.37787e-10
2.37898e-10
2.38042e-10
2.38151e-10
2.38239e-10
2.38316e-10
2.38367e-10
2.38381e-10
2.38362e-10
2.38281e-10
2.38088e-10
2.37712e-10
2.37053e-10
2.35986e-10
2.34381e-10
2.32129e-10
2.29115e-10
2.25181e-10
2.20125e-10
2.13915e-10
2.06705e-10
1.98742e-10
1.90445e-10
1.82523e-10
1.75949e-10
1.70632e-10
1.66001e-10
1.61909e-10
1.58437e-10
1.55659e-10
1.53493e-10
1.51756e-10
1.50346e-10
1.49239e-10
1.48412e-10
1.47805e-10
1.47352e-10
1.47011e-10
1.46757e-10
1.46571e-10
1.46435e-10
1.46333e-10
1.46257e-10
1.46202e-10
1.46162e-10
1.46133e-10
1.46111e-10
1.46095e-10
1.46083e-10
1.46073e-10
1.46067e-10
1.46061e-10
1.46057e-10
1.46054e-10
1.46052e-10
1.4605e-10
1.46049e-10
1.46047e-10
1.46047e-10
1.46046e-10
1.46046e-10
1.46045e-10
1.46045e-10
1.46045e-10
1.46045e-10
1.46045e-10
1.46045e-10
1.46045e-10
1.46045e-10
1.46045e-10
1.46046e-10
1.46046e-10
1.46046e-10
1.46046e-10
1.46047e-10
1.46047e-10
1.46047e-10
1.46047e-10
1.46048e-10
1.46048e-10
1.46048e-10
1.46048e-10
1.46049e-10
1.46049e-10
1.46049e-10
1.4605e-10
1.4605e-10
1.46051e-10
1.46051e-10
1.46051e-10
1.46052e-10
1.46052e-10
1.46053e-10
1.46053e-10
1.46054e-10
1.46054e-10
1.46055e-10
1.46056e-10
1.46056e-10
1.46057e-10
1.46058e-10
1.46058e-10
1.46059e-10
1.4606e-10
1.46061e-10
1.46062e-10
1.46063e-10
1.46064e-10
1.46065e-10
1.46066e-10
1.46068e-10
1.46069e-10
1.4607e-10
1.46072e-10
1.46073e-10
1.46075e-10
1.46077e-10
1.46078e-10
1.4608e-10
1.46082e-10
1.46084e-10
1.46086e-10
1.46088e-10
1.4609e-10
1.46093e-10
1.46095e-10
1.46098e-10
1.461e-10
1.46103e-10
1.46106e-10
1.46109e-10
1.46113e-10
1.46116e-10
1.4612e-10
1.46124e-10
1.46128e-10
1.46132e-10
1.46136e-10
1.46141e-10
1.46146e-10
1.46151e-10
1.46156e-10
1.46161e-10
1.46167e-10
1.46173e-10
1.4618e-10
1.46186e-10
1.46194e-10
1.46201e-10
1.46209e-10
1.46218e-10
1.46227e-10
1.46236e-10
1.46246e-10
1.46256e-10
1.46266e-10
1.46278e-10
1.4629e-10
1.46302e-10
1.46315e-10
1.46329e-10
1.46343e-10
1.46357e-10
1.46373e-10
1.46361e-10
2.68179e-10
2.68183e-10
2.68184e-10
2.68191e-10
2.68207e-10
2.68241e-10
2.6829e-10
2.68337e-10
2.68369e-10
2.68391e-10
2.68398e-10
2.68405e-10
2.68424e-10
2.68469e-10
2.43671e-10
2.43221e-10
2.42797e-10
2.42396e-10
2.42013e-10
2.41655e-10
2.4132e-10
2.41006e-10
2.40716e-10
2.40452e-10
2.4021e-10
2.39987e-10
2.39779e-10
2.39583e-10
2.39396e-10
2.39222e-10
2.39066e-10
2.38931e-10
2.3882e-10
2.38733e-10
2.38667e-10
2.38616e-10
2.38581e-10
2.38566e-10
2.38567e-10
2.38581e-10
2.38613e-10
2.38666e-10
2.38741e-10
2.38844e-10
2.38963e-10
2.39087e-10
2.39224e-10
2.39384e-10
2.3957e-10
2.39786e-10
2.40016e-10
2.40216e-10
2.40395e-10
2.40561e-10
2.40717e-10
2.40839e-10
2.4087e-10
2.40835e-10
2.40673e-10
2.40279e-10
2.39556e-10
2.3839e-10
2.36643e-10
2.34176e-10
2.30832e-10
2.26395e-10
2.20638e-10
2.13567e-10
2.05399e-10
1.96506e-10
1.87536e-10
1.79507e-10
1.73204e-10
1.67956e-10
1.63371e-10
1.59462e-10
1.56322e-10
1.53915e-10
1.52035e-10
1.50535e-10
1.49374e-10
1.48518e-10
1.47901e-10
1.47444e-10
1.47099e-10
1.46841e-10
1.46649e-10
1.46507e-10
1.46399e-10
1.46316e-10
1.46254e-10
1.46208e-10
1.46173e-10
1.46147e-10
1.46128e-10
1.46112e-10
1.461e-10
1.46091e-10
1.46084e-10
1.46078e-10
1.46073e-10
1.4607e-10
1.46067e-10
1.46065e-10
1.46063e-10
1.46062e-10
1.46062e-10
1.46061e-10
1.46061e-10
1.46061e-10
1.46061e-10
1.46062e-10
1.46062e-10
1.46063e-10
1.46064e-10
1.46064e-10
1.46065e-10
1.46066e-10
1.46067e-10
1.46067e-10
1.46068e-10
1.46069e-10
1.4607e-10
1.46071e-10
1.46072e-10
1.46073e-10
1.46074e-10
1.46076e-10
1.46077e-10
1.46078e-10
1.46079e-10
1.46081e-10
1.46082e-10
1.46084e-10
1.46085e-10
1.46087e-10
1.46089e-10
1.46091e-10
1.46093e-10
1.46095e-10
1.46097e-10
1.46099e-10
1.46102e-10
1.46104e-10
1.46107e-10
1.4611e-10
1.46113e-10
1.46116e-10
1.46119e-10
1.46123e-10
1.46126e-10
1.4613e-10
1.46134e-10
1.46139e-10
1.46143e-10
1.46148e-10
1.46153e-10
1.46158e-10
1.46164e-10
1.4617e-10
1.46176e-10
1.46182e-10
1.46189e-10
1.46196e-10
1.46203e-10
1.4621e-10
1.46218e-10
1.46226e-10
1.46235e-10
1.46244e-10
1.46254e-10
1.46265e-10
1.46275e-10
1.46287e-10
1.46299e-10
1.46312e-10
1.46326e-10
1.4634e-10
1.46355e-10
1.4637e-10
1.46387e-10
1.46404e-10
1.46422e-10
1.46441e-10
1.4646e-10
1.46481e-10
1.46503e-10
1.46526e-10
1.46549e-10
1.46574e-10
1.46601e-10
1.46629e-10
1.46658e-10
1.4669e-10
1.46723e-10
1.46759e-10
1.46796e-10
1.46836e-10
1.46877e-10
1.4692e-10
1.46965e-10
1.47012e-10
1.47061e-10
1.47112e-10
1.47165e-10
1.47226e-10
1.47189e-10
2.70413e-10
2.70458e-10
2.70484e-10
2.70512e-10
2.70553e-10
2.70619e-10
2.7072e-10
2.70848e-10
2.70993e-10
2.71149e-10
2.71314e-10
2.71491e-10
2.71689e-10
2.71917e-10
2.47368e-10
2.46605e-10
2.45906e-10
2.45261e-10
2.44666e-10
2.44119e-10
2.43618e-10
2.43159e-10
2.42739e-10
2.42356e-10
2.42006e-10
2.41685e-10
2.41388e-10
2.41113e-10
2.40857e-10
2.40622e-10
2.40409e-10
2.40221e-10
2.40057e-10
2.39919e-10
2.39803e-10
2.39708e-10
2.39632e-10
2.39575e-10
2.39537e-10
2.39524e-10
2.39526e-10
2.39545e-10
2.39587e-10
2.39654e-10
2.39744e-10
2.39857e-10
2.39991e-10
2.40148e-10
2.4033e-10
2.40534e-10
2.40754e-10
2.40986e-10
2.41235e-10
2.41511e-10
2.41815e-10
2.42135e-10
2.42435e-10
2.42707e-10
2.4297e-10
2.43233e-10
2.43493e-10
2.43704e-10
2.438e-10
2.43787e-10
2.43643e-10
2.43221e-10
2.42389e-10
2.41e-10
2.38881e-10
2.35855e-10
2.31704e-10
2.26167e-10
2.19086e-10
2.10631e-10
2.01173e-10
1.9137e-10
1.82291e-10
1.75086e-10
1.69343e-10
1.64426e-10
1.6026e-10
1.56934e-10
1.54418e-10
1.52493e-10
1.50967e-10
1.49775e-10
1.48881e-10
1.48228e-10
1.47742e-10
1.47368e-10
1.47078e-10
1.46856e-10
1.46688e-10
1.46561e-10
1.46462e-10
1.46384e-10
1.46323e-10
1.46275e-10
1.46238e-10
1.46209e-10
1.46187e-10
1.46168e-10
1.46154e-10
1.46142e-10
1.46133e-10
1.46126e-10
1.46121e-10
1.46118e-10
1.46115e-10
1.46114e-10
1.46113e-10
1.46113e-10
1.46114e-10
1.46115e-10
1.46117e-10
1.46119e-10
1.46121e-10
1.46123e-10
1.46126e-10
1.46129e-10
1.46131e-10
1.46134e-10
1.46137e-10
1.46141e-10
1.46144e-10
1.46147e-10
1.46151e-10
1.46155e-10
1.46158e-10
1.46162e-10
1.46167e-10
1.46171e-10
1.46176e-10
1.46181e-10
1.46186e-10
1.46191e-10
1.46197e-10
1.46203e-10
1.46209e-10
1.46216e-10
1.46223e-10
1.4623e-10
1.46238e-10
1.46246e-10
1.46255e-10
1.46264e-10
1.46273e-10
1.46283e-10
1.46294e-10
1.46305e-10
1.46317e-10
1.4633e-10
1.46343e-10
1.46357e-10
1.46372e-10
1.46388e-10
1.46405e-10
1.46422e-10
1.46441e-10
1.46461e-10
1.46481e-10
1.46502e-10
1.46524e-10
1.46548e-10
1.46572e-10
1.46597e-10
1.46623e-10
1.46651e-10
1.4668e-10
1.4671e-10
1.46742e-10
1.46776e-10
1.46812e-10
1.46851e-10
1.46891e-10
1.46934e-10
1.46979e-10
1.47027e-10
1.47078e-10
1.47131e-10
1.47187e-10
1.47246e-10
1.47307e-10
1.47371e-10
1.47438e-10
1.47508e-10
1.47581e-10
1.47658e-10
1.47739e-10
1.47824e-10
1.47915e-10
1.48011e-10
1.48113e-10
1.48222e-10
1.48337e-10
1.48459e-10
1.48588e-10
1.48725e-10
1.48871e-10
1.49026e-10
1.4919e-10
1.49363e-10
1.49543e-10
1.49731e-10
1.49922e-10
1.50151e-10
1.50059e-10
2.7319e-10
2.73373e-10
2.73569e-10
2.73783e-10
2.74021e-10
2.74294e-10
2.74615e-10
2.74995e-10
2.75433e-10
2.75927e-10
2.76471e-10
2.77067e-10
2.77719e-10
2.78431e-10
2.53553e-10
2.52148e-10
2.50879e-10
2.49731e-10
2.48695e-10
2.4776e-10
2.46919e-10
2.46162e-10
2.45481e-10
2.44868e-10
2.44316e-10
2.43818e-10
2.43367e-10
2.42959e-10
2.42589e-10
2.42255e-10
2.41956e-10
2.4169e-10
2.41455e-10
2.41249e-10
2.41071e-10
2.40919e-10
2.40791e-10
2.40684e-10
2.40597e-10
2.4053e-10
2.40481e-10
2.40459e-10
2.4046e-10
2.40482e-10
2.40532e-10
2.40607e-10
2.40707e-10
2.40831e-10
2.40979e-10
2.4115e-10
2.41348e-10
2.41573e-10
2.41825e-10
2.42106e-10
2.42407e-10
2.42725e-10
2.43059e-10
2.43404e-10
2.4377e-10
2.44164e-10
2.44584e-10
2.45007e-10
2.45377e-10
2.45731e-10
2.46091e-10
2.46453e-10
2.46809e-10
2.47103e-10
2.47243e-10
2.47228e-10
2.4703e-10
2.46461e-10
2.45349e-10
2.43482e-10
2.40622e-10
2.36534e-10
2.30947e-10
2.23661e-10
2.14821e-10
2.04855e-10
1.94487e-10
1.8482e-10
1.7707e-10
1.71146e-10
1.66169e-10
1.61928e-10
1.58473e-10
1.55803e-10
1.53773e-10
1.52159e-10
1.50849e-10
1.49812e-10
1.49023e-10
1.48433e-10
1.47985e-10
1.47632e-10
1.47349e-10
1.47124e-10
1.46945e-10
1.46804e-10
1.46691e-10
1.46599e-10
1.46523e-10
1.46461e-10
1.4641e-10
1.46371e-10
1.4634e-10
1.46318e-10
1.46301e-10
1.46289e-10
1.46282e-10
1.46278e-10
1.46276e-10
1.46277e-10
1.46279e-10
1.46283e-10
1.46289e-10
1.46295e-10
1.46302e-10
1.4631e-10
1.46319e-10
1.46328e-10
1.46337e-10
1.46347e-10
1.46358e-10
1.46368e-10
1.46379e-10
1.46391e-10
1.46403e-10
1.46416e-10
1.46429e-10
1.46443e-10
1.46457e-10
1.46473e-10
1.46489e-10
1.46506e-10
1.46524e-10
1.46543e-10
1.46564e-10
1.46585e-10
1.46608e-10
1.46631e-10
1.46656e-10
1.46682e-10
1.4671e-10
1.46738e-10
1.46768e-10
1.468e-10
1.46833e-10
1.46869e-10
1.46906e-10
1.46945e-10
1.46987e-10
1.47031e-10
1.47078e-10
1.47128e-10
1.4718e-10
1.47236e-10
1.47295e-10
1.47357e-10
1.47423e-10
1.47491e-10
1.47562e-10
1.47637e-10
1.47715e-10
1.47796e-10
1.4788e-10
1.47968e-10
1.4806e-10
1.48157e-10
1.48259e-10
1.48367e-10
1.48482e-10
1.48603e-10
1.48732e-10
1.4887e-10
1.49017e-10
1.49172e-10
1.49338e-10
1.49512e-10
1.49697e-10
1.49891e-10
1.50094e-10
1.50307e-10
1.50529e-10
1.50759e-10
1.50998e-10
1.51246e-10
1.51504e-10
1.51771e-10
1.5205e-10
1.5234e-10
1.52644e-10
1.52966e-10
1.53308e-10
1.53674e-10
1.54065e-10
1.54485e-10
1.54933e-10
1.55409e-10
1.55911e-10
1.56439e-10
1.56986e-10
1.5756e-10
1.58132e-10
1.58849e-10
1.58753e-10
2.77858e-10
2.784e-10
2.79003e-10
2.79667e-10
2.80395e-10
2.81194e-10
2.82075e-10
2.83052e-10
2.84138e-10
2.85341e-10
2.86665e-10
2.88116e-10
2.89699e-10
2.64705e-10
2.62015e-10
2.59601e-10
2.57438e-10
2.55506e-10
2.53783e-10
2.5225e-10
2.50889e-10
2.4968e-10
2.48609e-10
2.4766e-10
2.46819e-10
2.46074e-10
2.45415e-10
2.44832e-10
2.44317e-10
2.43862e-10
2.43462e-10
2.43109e-10
2.428e-10
2.42531e-10
2.42298e-10
2.42095e-10
2.41921e-10
2.4177e-10
2.41641e-10
2.41535e-10
2.41456e-10
2.414e-10
2.41377e-10
2.41376e-10
2.41398e-10
2.41447e-10
2.41522e-10
2.41624e-10
2.41754e-10
2.41913e-10
2.42104e-10
2.42326e-10
2.42573e-10
2.42845e-10
2.43143e-10
2.43466e-10
2.43813e-10
2.44185e-10
2.44578e-10
2.44982e-10
2.45394e-10
2.45814e-10
2.46249e-10
2.46714e-10
2.47214e-10
2.47741e-10
2.48267e-10
2.48756e-10
2.49236e-10
2.49755e-10
2.50288e-10
2.50768e-10
2.51122e-10
2.51246e-10
2.51167e-10
2.50749e-10
2.49744e-10
2.47916e-10
2.4501e-10
2.40828e-10
2.35175e-10
2.2793e-10
2.1925e-10
2.09578e-10
1.99509e-10
1.89866e-10
1.81593e-10
1.75299e-10
1.70253e-10
1.65868e-10
1.62097e-10
1.58998e-10
1.56558e-10
1.54676e-10
1.53176e-10
1.51928e-10
1.50894e-10
1.50055e-10
1.49388e-10
1.4886e-10
1.48439e-10
1.48094e-10
1.47807e-10
1.47567e-10
1.4737e-10
1.47213e-10
1.47089e-10
1.46994e-10
1.46921e-10
1.46867e-10
1.46828e-10
1.46801e-10
1.46786e-10
1.46781e-10
1.46783e-10
1.46791e-10
1.46805e-10
1.46823e-10
1.46845e-10
1.46869e-10
1.46896e-10
1.46925e-10
1.46955e-10
1.46987e-10
1.47019e-10
1.47054e-10
1.47089e-10
1.47126e-10
1.47165e-10
1.47205e-10
1.47247e-10
1.47291e-10
1.47337e-10
1.47386e-10
1.47438e-10
1.47493e-10
1.47551e-10
1.47613e-10
1.47678e-10
1.47746e-10
1.47819e-10
1.47895e-10
1.47975e-10
1.48058e-10
1.48145e-10
1.48237e-10
1.48333e-10
1.48434e-10
1.4854e-10
1.48651e-10
1.4877e-10
1.48894e-10
1.49027e-10
1.49167e-10
1.49316e-10
1.49475e-10