/*--------------------------------*- C++ -*----------------------------------*\
| =========                 |                                                 |
| \\      /  F ield         | OpenFOAM: The Open Source CFD Toolbox           |
|  \\    /   O peration     | Version:  v1706                                 |
|   \\  /    A nd           | Web:      www.OpenFOAM.com                      |
|    \\/     M anipulation  |                                                 |
\*---------------------------------------------------------------------------*/
FoamFile
{
    version     2.0;
    format      ascii;
    class       volScalarField;
    location    "3.4e-05";
    object      Mach;
}
// * * * * * * * * * * * * * * * * * * * * * * * * * * * * * * * * * * * * * //

dimensions      [0 0 0 0 0 0 0];


internalField   nonuniform List<scalar> 
30104
(
3.98662
3.98538
3.98395
3.98233
3.9805
3.97845
3.97614
3.97354
3.97062
3.96732
3.9636
3.9594
3.95468
3.9494
3.94355
3.93703
3.92972
3.68582
3.70511
3.72498
3.74531
3.76604
3.78697
3.80766
3.82817
3.84892
3.86851
3.88503
3.89874
3.91085
3.92185
3.93198
3.94124
3.94944
3.9564
3.96219
3.96711
3.9714
3.97516
3.97845
3.98134
3.98386
3.98602
3.98777
3.98919
3.99034
3.99126
3.99198
3.99256
3.99301
3.99339
3.9937
3.99396
3.99417
3.99435
3.99449
3.99461
3.99469
3.99476
3.99481
3.99485
3.99488
3.9949
3.99492
3.99493
3.99494
3.99495
3.99496
3.99496
3.99497
3.99497
3.99497
3.99497
3.99497
3.99498
3.99498
3.99498
3.99498
3.99498
3.99498
3.99498
3.99498
3.99498
3.99498
3.99498
3.99498
3.99498
3.99498
3.99498
3.99498
3.99498
3.99498
3.99498
3.99498
3.99498
3.99498
3.99498
3.99498
3.99498
3.99498
3.99498
3.99498
3.99498
3.99498
3.99498
3.99498
3.99498
3.99498
3.99498
3.99498
3.99498
3.99498
3.99498
3.99498
3.99498
3.99498
3.99498
3.99498
3.99498
3.99498
3.99498
3.99498
3.99498
3.99498
3.99498
3.99498
3.99498
3.99498
3.99498
3.99498
3.99498
3.99498
3.99498
3.99498
3.99498
3.99498
3.99498
3.99498
3.99498
3.99498
3.99498
3.99498
3.99498
3.99498
3.99498
3.99498
3.99498
3.99498
3.99498
3.99498
3.99498
3.99498
3.99498
3.99498
3.99498
3.99498
3.99498
3.99498
3.99498
3.99498
3.99498
3.99498
3.99498
3.99498
3.99498
3.99498
3.99498
3.99498
3.99498
3.99498
3.99498
3.99498
3.99498
3.99498
3.99498
3.99498
3.99498
3.99498
3.99498
3.99498
3.99498
3.99498
3.99498
3.99498
3.99498
3.99498
3.99498
3.99498
3.99498
3.99498
3.99498
3.99498
3.99498
3.99498
3.99498
3.99498
3.99498
3.99498
3.99498
3.99498
3.99498
3.99498
3.99498
3.99498
3.99498
3.99498
3.99498
3.99498
3.99498
3.99498
3.94291
3.93542
3.92692
3.91733
3.90654
3.89445
3.88091
3.8657
3.84857
3.82934
3.80793
3.78439
3.75886
3.73149
3.70233
3.67123
3.6376
2.87811
2.91594
2.9572
3.00209
3.05074
3.10322
3.15959
3.2199
3.28358
3.34805
3.40768
3.45854
3.50593
3.55264
3.59941
3.64604
3.69202
3.73588
3.77483
3.80736
3.83478
3.85876
3.88013
3.89903
3.91531
3.92899
3.94033
3.94981
3.95782
3.96466
3.9705
3.97541
3.97942
3.98262
3.98516
3.98718
3.98879
3.99007
3.99108
3.9919
3.99255
3.99308
3.9935
3.99385
3.99412
3.99433
3.99449
3.99461
3.9947
3.99477
3.99482
3.99486
3.99489
3.99491
3.99493
3.99494
3.99495
3.99496
3.99497
3.99497
3.99497
3.99497
3.99497
3.99498
3.99498
3.99498
3.99498
3.99498
3.99498
3.99498
3.99498
3.99498
3.99498
3.99498
3.99498
3.99498
3.99498
3.99498
3.99498
3.99498
3.99498
3.99498
3.99498
3.99498
3.99498
3.99498
3.99498
3.99498
3.99498
3.99498
3.99498
3.99498
3.99498
3.99498
3.99498
3.99498
3.99498
3.99498
3.99498
3.99498
3.99498
3.99498
3.99498
3.99498
3.99498
3.99498
3.99498
3.99498
3.99498
3.99498
3.99498
3.99498
3.99498
3.99498
3.99498
3.99498
3.99498
3.99498
3.99498
3.99498
3.99498
3.99498
3.99498
3.99498
3.99498
3.99498
3.99498
3.99498
3.99498
3.99498
3.99498
3.99498
3.99498
3.99498
3.99498
3.99498
3.99498
3.99498
3.99498
3.99498
3.99498
3.99498
3.99498
3.99498
3.99498
3.99498
3.99498
3.99498
3.99498
3.99498
3.99498
3.99498
3.99498
3.99498
3.99498
3.99498
3.99498
3.99498
3.99498
3.99498
3.99498
3.99498
3.99498
3.99498
3.99498
3.99498
3.99498
3.99498
3.99498
3.99498
3.99498
3.99498
3.99498
3.99498
3.99498
3.99498
3.99498
3.99498
3.99498
3.99498
3.99498
3.99498
3.99498
3.99498
3.99498
3.99498
3.99498
3.99498
3.99498
3.99498
3.99498
3.99498
3.99498
3.81538
3.79086
3.76357
3.73352
3.70084
3.66553
3.62747
3.58617
3.54089
3.49131
3.43769
3.38077
3.32154
3.26092
3.19989
3.13804
2.64066
2.64826
2.6567
2.66671
2.67894
2.69355
2.71089
2.73155
2.75636
2.78619
2.82224
2.8653
2.91451
2.96963
3.03104
3.09908
3.17339
3.25201
3.33064
3.40155
3.46401
3.52293
3.58037
3.63648
3.69021
3.73903
3.78049
3.81495
3.84443
3.87012
3.89235
3.91112
3.92662
3.9393
3.94973
3.9584
3.96566
3.97173
3.9767
3.98066
3.98377
3.9862
3.98812
3.98962
3.99081
3.99174
3.99248
3.99306
3.99352
3.99388
3.99417
3.99438
3.99453
3.99465
3.99474
3.9948
3.99485
3.99488
3.99491
3.99493
3.99494
3.99495
3.99496
3.99497
3.99497
3.99497
3.99497
3.99497
3.99498
3.99498
3.99498
3.99498
3.99498
3.99498
3.99498
3.99498
3.99498
3.99498
3.99498
3.99498
3.99498
3.99498
3.99498
3.99498
3.99498
3.99498
3.99498
3.99498
3.99498
3.99498
3.99498
3.99498
3.99498
3.99498
3.99498
3.99498
3.99498
3.99498
3.99498
3.99498
3.99498
3.99498
3.99498
3.99498
3.99498
3.99498
3.99498
3.99498
3.99498
3.99498
3.99498
3.99498
3.99498
3.99498
3.99498
3.99498
3.99498
3.99498
3.99498
3.99498
3.99498
3.99498
3.99498
3.99498
3.99498
3.99498
3.99498
3.99498
3.99498
3.99498
3.99498
3.99498
3.99498
3.99498
3.99498
3.99498
3.99498
3.99498
3.99498
3.99498
3.99498
3.99498
3.99498
3.99498
3.99498
3.99498
3.99498
3.99498
3.99498
3.99498
3.99498
3.99498
3.99497
3.99497
3.99497
3.99497
3.99497
3.99497
3.99497
3.99497
3.99497
3.99497
3.99497
3.99497
3.99497
3.99497
3.99497
3.99497
3.99497
3.99497
3.99497
3.99497
3.99497
3.99497
3.99497
3.99497
3.99497
3.99497
3.99497
3.99497
3.99497
3.99497
3.99497
3.99497
3.99497
3.99497
3.99497
3.99497
3.99497
3.99497
3.99497
3.99497
3.99497
3.49286
3.43647
3.37595
3.3122
3.24619
3.17908
3.11072
3.04005
2.96557
2.88822
2.80992
2.73273
2.65844
2.58842
2.52368
2.46484
2.61838
2.62258
2.62698
2.63207
2.63821
2.64504
2.65212
2.65924
2.6665
2.67408
2.68209
2.69085
2.70075
2.71229
2.72627
2.74361
2.76529
2.79232
2.8258
2.86751
2.91804
2.97704
3.04475
3.1211
3.20452
3.29104
3.37348
3.44503
3.51088
3.57417
3.63542
3.69325
3.74473
3.78769
3.8232
3.8534
3.87932
3.90127
3.91943
3.93421
3.94619
3.956
3.96411
3.97083
3.97628
3.98058
3.9839
3.98645
3.98842
3.98995
3.99114
3.99206
3.99278
3.99333
3.99377
3.9941
3.99434
3.99452
3.99464
3.99473
3.9948
3.99485
3.99489
3.99491
3.99493
3.99494
3.99495
3.99496
3.99496
3.99497
3.99497
3.99497
3.99497
3.99497
3.99497
3.99497
3.99498
3.99498
3.99498
3.99498
3.99498
3.99498
3.99498
3.99498
3.99498
3.99498
3.99498
3.99498
3.99498
3.99498
3.99498
3.99498
3.99498
3.99498
3.99498
3.99498
3.99498
3.99498
3.99498
3.99498
3.99498
3.99498
3.99498
3.99498
3.99498
3.99498
3.99498
3.99498
3.99498
3.99498
3.99498
3.99497
3.99497
3.99497
3.99497
3.99497
3.99497
3.99497
3.99497
3.99497
3.99497
3.99497
3.99497
3.99497
3.99497
3.99497
3.99497
3.99497
3.99497
3.99497
3.99497
3.99497
3.99497
3.99497
3.99497
3.99497
3.99497
3.99497
3.99497
3.99497
3.99497
3.99497
3.99497
3.99497
3.99497
3.99497
3.99497
3.99497
3.99497
3.99497
3.99497
3.99497
3.99497
3.99497
3.99497
3.99497
3.99497
3.99497
3.99497
3.99496
3.99496
3.99496
3.99496
3.99496
3.99496
3.99496
3.99496
3.99496
3.99496
3.99496
3.99496
3.99496
3.99496
3.99496
3.99495
3.99495
3.99495
3.99495
3.99495
3.99495
3.99495
3.99495
3.99495
3.99495
3.99494
3.99494
3.99494
3.99494
3.99494
3.99494
3.99494
3.99493
3.99494
2.91453
2.8325
2.75039
2.67028
2.59391
2.52267
2.45752
2.39942
2.34896
2.30569
2.26897
2.23809
2.21232
2.19094
2.17324
2.61213
2.61841
2.62535
2.63212
2.63769
2.64255
2.64712
2.65182
2.65654
2.66095
2.66487
2.66889
2.67353
2.67859
2.68366
2.68857
2.69346
2.69863
2.70452
2.71185
2.72093
2.73228
2.74691
2.76591
2.79022
2.82107
2.86046
2.91033
2.97064
3.04152
3.12252
3.21133
3.30289
3.38859
3.46304
3.53208
3.59848
3.66209
3.72041
3.77025
3.81095
3.84474
3.87336
3.89746
3.91733
3.93342
3.94632
3.95671
3.9652
3.97214
3.97767
3.98192
3.98513
3.98754
3.98937
3.99077
3.99184
3.99266
3.99327
3.99374
3.99409
3.99435
3.99452
3.99465
3.99474
3.9948
3.99485
3.99488
3.99491
3.99493
3.99494
3.99495
3.99496
3.99496
3.99496
3.99497
3.99497
3.99497
3.99497
3.99497
3.99497
3.99497
3.99497
3.99497
3.99497
3.99497
3.99497
3.99497
3.99497
3.99497
3.99497
3.99497
3.99497
3.99497
3.99497
3.99497
3.99497
3.99497
3.99497
3.99497
3.99497
3.99497
3.99497
3.99497
3.99497
3.99497
3.99497
3.99497
3.99497
3.99497
3.99497
3.99497
3.99497
3.99497
3.99497
3.99497
3.99497
3.99497
3.99497
3.99497
3.99497
3.99497
3.99497
3.99497
3.99496
3.99496
3.99496
3.99496
3.99496
3.99496
3.99496
3.99496
3.99496
3.99496
3.99496
3.99496
3.99496
3.99496
3.99496
3.99496
3.99495
3.99495
3.99495
3.99495
3.99495
3.99495
3.99495
3.99495
3.99495
3.99495
3.99494
3.99494
3.99494
3.99494
3.99494
3.99494
3.99494
3.99493
3.99493
3.99493
3.99493
3.99493
3.99492
3.99492
3.99492
3.99492
3.99492
3.99491
3.99491
3.99491
3.9949
3.9949
3.9949
3.9949
3.99489
3.99489
3.99488
3.99488
3.99488
3.99487
3.99487
3.99486
3.99486
3.99485
3.99485
3.99484
3.99484
3.99483
3.99483
3.99482
3.99481
3.99481
3.99481
2.3729
2.32055
2.27577
2.23789
2.20618
2.17985
2.15808
2.14018
2.1256
2.11389
2.10464
2.09745
2.09199
2.08799
2.08512
2.083
2.60346
2.6094
2.61525
2.62084
2.62648
2.63199
2.63747
2.64266
2.64779
2.65304
2.65854
2.6635
2.66754
2.67118
2.67442
2.67741
2.68084
2.68395
2.6859
2.68932
2.69354
2.6975
2.70095
2.70407
2.70742
2.71177
2.71772
2.72558
2.73592
2.74968
2.76802
2.79224
2.82414
2.8664
2.92103
2.98788
3.06663
3.15584
3.2516
3.34694
3.43147
3.5069
3.57836
3.64693
3.71039
3.76503
3.80939
3.84556
3.87571
3.90075
3.9212
3.93755
3.95046
3.96076
3.96905
3.97563
3.98066
3.98439
3.98711
3.98913
3.99065
3.9918
3.99265
3.99329
3.99376
3.9941
3.99434
3.99451
3.99463
3.99472
3.99478
3.99483
3.99486
3.99489
3.99491
3.99492
3.99493
3.99494
3.99495
3.99495
3.99495
3.99496
3.99496
3.99496
3.99496
3.99496
3.99496
3.99496
3.99496
3.99496
3.99496
3.99496
3.99496
3.99496
3.99496
3.99496
3.99496
3.99496
3.99496
3.99496
3.99496
3.99496
3.99495
3.99495
3.99495
3.99495
3.99495
3.99495
3.99495
3.99495
3.99495
3.99495
3.99495
3.99495
3.99495
3.99495
3.99494
3.99494
3.99494
3.99494
3.99494
3.99494
3.99494
3.99494
3.99493
3.99493
3.99493
3.99493
3.99493
3.99493
3.99492
3.99492
3.99492
3.99492
3.99492
3.99491
3.99491
3.99491
3.99491
3.9949
3.9949
3.9949
3.99489
3.99489
3.99489
3.99488
3.99488
3.99488
3.99487
3.99487
3.99486
3.99486
3.99485
3.99485
3.99484
3.99484
3.99483
3.99482
3.99482
3.99481
3.9948
3.9948
3.99479
3.99478
3.99477
3.99476
3.99475
3.99474
3.99473
3.99472
3.99471
3.9947
3.99469
3.99468
3.99466
3.99465
3.99464
3.99462
3.99461
3.99459
3.99457
3.99456
3.99454
3.99452
3.9945
3.99448
3.99446
3.99444
3.99441
3.99439
3.99436
3.99433
3.99436
2.10364
2.09088
2.08078
2.0729
2.06686
2.06236
2.05903
2.05647
2.05442
2.05286
2.05172
2.05102
2.0508
2.59518
2.60073
2.60612
2.61142
2.61669
2.62186
2.62689
2.63177
2.63662
2.64151
2.64632
2.65098
2.65553
2.65979
2.66401
2.66817
2.67228
2.67616
2.67992
2.68325
2.68614
2.68858
2.69058
2.69257
2.69428
2.69559
2.69802
2.70032
2.70183
2.7028
2.70398
2.70614
2.70981
2.71542
2.72335
2.73422
2.74918
2.76982
2.79815
2.83684
2.88891
2.9549
3.03421
3.12572
3.22605
3.32845
3.42155
3.50323
3.57979
3.65278
3.71951
3.77595
3.82108
3.85748
3.88734
3.91168
3.93113
3.94632
3.95813
3.96743
3.97471
3.98018
3.98415
3.98699
3.98905
3.99059
3.99174
3.99259
3.99321
3.99368
3.99401
3.99426
3.99443
3.99455
3.99464
3.99471
3.99477
3.99481
3.99484
3.99486
3.99488
3.99489
3.9949
3.99491
3.99491
3.99491
3.99492
3.99492
3.99492
3.99492
3.99492
3.99492
3.99492
3.99492
3.99492
3.99492
3.99492
3.99491
3.99491
3.99491
3.99491
3.99491
3.9949
3.9949
3.9949
3.9949
3.9949
3.99489
3.99489
3.99489
3.99489
3.99488
3.99488
3.99488
3.99488
3.99487
3.99487
3.99487
3.99486
3.99486
3.99486
3.99485
3.99485
3.99484
3.99484
3.99483
3.99483
3.99482
3.99482
3.99481
3.9948
3.9948
3.99479
3.99478
3.99477
3.99477
3.99476
3.99475
3.99474
3.99473
3.99472
3.99471
3.99469
3.99468
3.99467
3.99466
3.99464
3.99463
3.99461
3.9946
3.99458
3.99457
3.99455
3.99453
3.99451
3.99449
3.99447
3.99445
3.99442
3.9944
3.99437
3.99435
3.99432
3.99429
3.99426
3.99423
3.9942
3.99416
3.99413
3.99409
3.99405
3.994
3.99396
3.99391
3.99386
3.99381
3.99375
3.9937
3.99364
3.99358
3.99351
3.99344
3.99337
3.99329
3.99322
3.99313
3.99305
3.99296
3.99287
3.99277
3.99267
3.99257
3.99265
2.03112
2.0292
2.02778
2.02681
2.02633
2.02656
2.02724
2.02809
2.02893
2.0299
2.03074
2.03153
2.03233
2.58441
2.58992
2.59529
2.60056
2.6057
2.6107
2.61555
2.62031
2.62506
2.62979
2.63434
2.63879
2.6431
2.64727
2.65139
2.65546
2.65948
2.66372
2.6682
2.67258
2.67658
2.68011
2.6831
2.68592
2.6886
2.69084
2.69254
2.69364
2.69421
2.69467
2.69498
2.69486
2.69556
2.69609
2.69593
2.69559
2.69576
2.69695
2.69965
2.70428
2.71117
2.72087
2.7347
2.75457
2.78279
2.8221
2.87572
2.94479
3.02866
3.12611
3.23331
3.34221
3.43972
3.52597
3.60705
3.68293
3.74942
3.8031
3.84512
3.87877
3.90592
3.92752
3.94422
3.95692
3.9667
3.97421
3.97977
3.98374
3.98655
3.98861
3.99016
3.99132
3.99219
3.99285
3.99334
3.99372
3.99399
3.99419
3.99433
3.99444
3.99453
3.9946
3.99465
3.99469
3.99472
3.99474
3.99476
3.99477
3.99478
3.99479
3.99479
3.99479
3.99479
3.99479
3.99479
3.99479
3.99478
3.99478
3.99477
3.99477
3.99476
3.99476
3.99475
3.99474
3.99474
3.99473
3.99472
3.99472
3.99471
3.9947
3.99469
3.99468
3.99468
3.99467
3.99466
3.99465
3.99464
3.99462
3.99461
3.9946
3.99459
3.99457
3.99456
3.99454
3.99453
3.99451
3.99449
3.99448
3.99446
3.99444
3.99441
3.99439
3.99437
3.99434
3.99432
3.99429
3.99426
3.99423
3.99419
3.99416
3.99413
3.99409
3.99405
3.99401
3.99397
3.99392
3.99388
3.99383
3.99378
3.99372
3.99367
3.99361
3.99355
3.99348
3.99342
3.99334
3.99327
3.99319
3.99311
3.99302
3.99293
3.99283
3.99273
3.99262
3.99251
3.99239
3.99227
3.99215
3.99201
3.99187
3.99173
3.99157
3.99141
3.99124
3.99107
3.99088
3.99069
3.99048
3.99027
3.99004
3.9898
3.98954
3.98928
3.98901
3.98872
3.98843
3.98812
3.98779
3.98745
3.98708
3.9867
3.98627
3.98654
2.00434
2.00499
2.0057
2.00655
2.0071
2.00778
2.00848
2.00924
2.01039
2.01203
2.01345
2.01514
2.01692
2.01866
2.57074
2.57632
2.58175
2.58703
2.59215
2.59723
2.60219
2.60705
2.61187
2.61663
2.62128
2.62578
2.63015
2.63441
2.63863
2.64285
2.64718
2.65165
2.65613
2.66043
2.66442
2.6681
2.67165
2.67522
2.67877
2.68207
2.68491
2.68725
2.68913
2.69071
2.69194
2.69267
2.69292
2.69265
2.69205
2.69137
2.69032
2.68936
2.68886
2.68813
2.68716
2.68655
2.68682
2.68793
2.69041
2.69482
2.70152
2.71133
2.72586
2.74729
2.77822
2.82183
2.8817
2.95883
3.05257
3.16078
3.27722
3.38996
3.48701
3.57548
3.65825
3.73177
3.79156
3.83747
3.87331
3.90188
3.92446
3.94173
3.95466
3.96453
3.97212
3.97781
3.98193
3.98491
3.98711
3.98881
3.99012
3.99112
3.99189
3.99247
3.99293
3.99329
3.99356
3.99377
3.99392
3.99404
3.99413
3.99421
3.99426
3.99431
3.99434
3.99436
3.99437
3.99438
3.99438
3.99438
3.99437
3.99436
3.99435
3.99433
3.99432
3.9943
3.99428
3.99426
3.99423
3.99421
3.99419
3.99416
3.99414
3.99411
3.99409
3.99406
3.99403
3.994
3.99397
3.99394
3.9939
3.99387
3.99383
3.99379
3.99375
3.9937
3.99366
3.99361
3.99356
3.99351
3.99345
3.99339
3.99333
3.99326
3.99319
3.99312
3.99304
3.99296
3.99287
3.99278
3.99268
3.99258
3.99247
3.99235
3.99223
3.99211
3.99197
3.99183
3.99169
3.99153
3.99137
3.99121
3.99104
3.99085
3.99067
3.99047
3.99026
3.99004
3.98981
3.98957
3.98932
3.98905
3.98877
3.98847
3.98816
3.98783
3.98748
3.98712
3.98674
3.98634
3.98592
3.98548
3.98502
3.98453
3.98403
3.98349
3.98293
3.98233
3.98169
3.98102
3.98031
3.97955
3.97876
3.97793
3.97705
3.97613
3.97515
3.97412
3.97303
3.97188
3.97068
3.96944
3.96815
3.9668
3.96545
3.96387
3.96468
1.9865
1.98799
1.98924
1.99084
1.99253
1.99418
1.99544
1.99642
1.99751
1.99883
2.00025
2.00184
2.00351
2.00515
2.55464
2.56035
2.5659
2.57127
2.57652
2.58168
2.58676
2.59179
2.59676
2.60167
2.60648
2.61118
2.61578
2.62033
2.62488
2.62949
2.63416
2.63884
2.64341
2.6478
2.652
2.6561
2.66021
2.66429
2.66816
2.67163
2.67472
2.67749
2.68009
2.68258
2.68488
2.68683
2.68835
2.68947
2.69026
2.69071
2.69054
2.68991
2.68899
2.68786
2.68661
2.68512
2.68324
2.68173
2.68054
2.67954
2.67887
2.67864
2.67914
2.6804
2.68272
2.68698
2.69396
2.70492
2.72195
2.74754
2.78475
2.83752
2.9092
2.99993
3.10841
3.22943
3.35169
3.45874
3.55292
3.63972
3.71673
3.77932
3.8268
3.86323
3.89227
3.91547
3.9335
3.94716
3.95763
3.96587
3.97232
3.97721
3.98083
3.98351
3.98556
3.98718
3.98847
3.9895
3.99031
3.99096
3.99148
3.99189
3.99223
3.9925
3.9927
3.99285
3.99295
3.99302
3.99306
3.99308
3.99308
3.99307
3.99304
3.993
3.99296
3.99291
3.99285
3.99279
3.99272
3.99265
3.99258
3.99251
3.99243
3.99235
3.99226
3.99217
3.99208
3.99199
3.99189
3.99178
3.99167
3.99155
3.99143
3.9913
3.99117
3.99103
3.99088
3.99072
3.99055
3.99038
3.99019
3.99
3.98979
3.98958
3.98936
3.98912
3.98887
3.98861
3.98833
3.98803
3.98772
3.9874
3.98705
3.98668
3.98629
3.98589
3.98546
3.98501
3.98453
3.98404
3.98352
3.98298
3.98242
3.98182
3.9812
3.98055
3.97987
3.97915
3.9784
3.97759
3.97675
3.97585
3.9749
3.97389
3.97282
3.97169
3.97049
3.96923
3.96791
3.96652
3.96506
3.96353
3.96193
3.96026
3.95852
3.9567
3.95479
3.9528
3.95071
3.94852
3.94622
3.94379
3.94122
3.93848
3.93557
3.93247
3.92918
3.9257
3.92204
3.91821
3.91421
3.91003
3.90571
3.90116
3.89657
3.89095
3.8927
1.97376
1.97498
1.97633
1.97781
1.97938
1.98092
1.98243
1.98378
1.98497
1.98612
1.98733
1.98862
1.99001
1.99148
2.53693
2.54269
2.54832
2.55381
2.5592
2.5645
2.56974
2.57492
2.58006
2.58514
2.59014
2.59507
2.59996
2.60484
2.60976
2.61472
2.6197
2.62463
2.62945
2.63415
2.63879
2.64343
2.64805
2.65253
2.65673
2.6606
2.6642
2.66761
2.67093
2.6741
2.67696
2.67942
2.68152
2.68331
2.68481
2.68597
2.68684
2.68744
2.68778
2.68782
2.68761
2.68707
2.68595
2.68458
2.68316
2.68182
2.68061
2.6791
2.67702
2.6756
2.67424
2.6729
2.67171
2.67084
2.67057
2.67091
2.6723
2.67618
2.68388
2.69731
2.71904
2.75208
2.80041
2.86827
2.95676
3.06466
3.18703
3.31274
3.42474
3.51934
3.60527
3.6826
3.74748
3.79805
3.8366
3.86743
3.89275
3.91326
3.92941
3.94187
3.95157
3.95937
3.96571
3.97079
3.97479
3.9779
3.98034
3.98228
3.98385
3.98513
3.98618
3.98701
3.98765
3.98814
3.98848
3.98872
3.98888
3.98896
3.98897
3.98893
3.98885
3.98873
3.98858
3.9884
3.98821
3.988
3.98777
3.98754
3.98729
3.98704
3.98677
3.98649
3.98621
3.98591
3.98559
3.98527
3.98493
3.98457
3.98419
3.9838
3.98338
3.98294
3.98248
3.98199
3.98148
3.98093
3.98036
3.97976
3.97914
3.97847
3.97778
3.97704
3.97627
3.97545
3.97458
3.97367
3.9727
3.97167
3.97058
3.96942
3.96819
3.96689
3.96551
3.96405
3.96251
3.96089
3.95919
3.95742
3.95556
3.95364
3.95164
3.94956
3.94739
3.94513
3.94276
3.94028
3.93766
3.93491
3.932
3.92892
3.92566
3.92221
3.91855
3.91467
3.91055
3.90621
3.90163
3.89683
3.8918
3.88657
3.88114
3.87551
3.86966
3.86356
3.85716
3.85042
3.84332
3.83585
3.828
3.81975
3.81108
3.80193
3.79227
3.782
3.7711
3.75952
3.74734
3.73457
3.7214
3.70771
3.6945
3.67815
3.67898
1.96142
1.96255
1.9637
1.96491
1.96619
1.96754
1.96895
1.97032
1.97158
1.97273
1.97383
1.97494
1.97609
2.51797
2.52379
2.5295
2.5351
2.54061
2.54605
2.55144
2.55678
2.56207
2.56732
2.57252
2.57769
2.58286
2.58806
2.5933
2.59857
2.60383
2.60905
2.61419
2.61929
2.62439
2.6295
2.63454
2.63943
2.6441
2.64856
2.65285
2.65702
2.66104
2.66477
2.66819
2.67131
2.67413
2.67669
2.67895
2.68086
2.68244
2.68371
2.6847
2.68542
2.68584
2.68592
2.68584
2.68567
2.68538
2.68476
2.68381
2.68263
2.68127
2.67987
2.67844
2.67708
2.67559
2.67349
2.67044
2.66739
2.66453
2.66178
2.65904
2.65633
2.65402
2.65224
2.65257
2.65693
2.66708
2.68536
2.71442
2.75791
2.81963
2.90088
3.00026
3.11407
3.23425
3.34861
3.44455
3.528
3.60518
3.67461
3.73321
3.77978
3.81579
3.84468
3.8689
3.88926
3.90615
3.91999
3.93124
3.94042
3.94803
3.95446
3.95986
3.96428
3.96779
3.97048
3.97249
3.97397
3.97502
3.97574
3.97618
3.9764
3.9764
3.97624
3.97596
3.97557
3.97507
3.97451
3.97388
3.9732
3.97247
3.9717
3.9709
3.97007
3.9692
3.9683
3.96735
3.96637
3.96534
3.96425
3.96311
3.96191
3.96064
3.9593
3.95788
3.95637
3.95478
3.95309
3.95131
3.94944
3.94747
3.94542
3.94328
3.94104
3.9387
3.93625
3.93367
3.93097
3.92812
3.92512
3.92195
3.91861
3.91506
3.91131
3.90734
3.90314
3.8987
3.89401
3.88908
3.8839
3.87848
3.87283
3.86696
3.86089
3.85459
3.84807
3.84129
3.83422
3.82685
3.81913
3.81102
3.80249
3.79348
3.78397
3.77393
3.76331
3.75211
3.74032
3.72792
3.71494
3.70138
3.68731
3.67281
3.65802
3.64301
3.6278
3.61236
3.59663
3.58056
3.56407
3.5471
3.52957
3.51141
3.49256
3.47288
3.45231
3.43067
3.40792
3.384
3.35866
3.33295
3.30495
3.2794
3.24978
3.23464
1.94823
1.94937
1.95043
1.95147
1.95252
1.95363
1.9548
1.956
1.95719
1.95833
1.95941
1.96044
1.96146
2.50972
2.51541
2.52103
2.52659
2.5321
2.53758
2.54301
2.54843
2.55382
2.55923
2.56466
2.57013
2.57565
2.58119
2.58672
2.59224
2.59773
2.60323
2.60874
2.61425
2.6197
2.62502
2.63021
2.63526
2.64021
2.64505
2.6497
2.65409
2.65822
2.66208
2.66571
2.66911
2.67216
2.67487
2.67723
2.6793
2.68108
2.68253
2.68361
2.68438
2.68496
2.68532
2.6854
2.68524
2.68488
2.68422
2.68335
2.68234
2.68122
2.67994
2.67839
2.6764
2.67396
2.67131
2.66844
2.66499
2.66105
2.65682
2.65201
2.64665
2.64147
2.6364
2.63134
2.62639
2.62173
2.61908
2.6201
2.62606
2.63896
2.66134
2.69574
2.74449
2.80941
2.88992
2.98438
3.08927
3.19822
3.30247
3.39256
3.46719
3.53563
3.5993
3.65667
3.70653
3.74846
3.78287
3.81112
3.8352
3.85623
3.87436
3.88965
3.90223
3.91231
3.92018
3.92623
3.93084
3.93429
3.93669
3.93823
3.93889
3.93882
3.93831
3.93736
3.93604
3.93443
3.9326
3.93057
3.9284
3.92611
3.9237
3.92119
3.91859
3.91588
3.91307
3.91015
3.90711
3.90392
3.90059
3.89709
3.89339
3.88949
3.88536
3.88098
3.87634
3.87145
3.86629
3.86087
3.85521
3.84932
3.84319
3.83681
3.83016
3.82324
3.81601
3.80847
3.80057
3.79231
3.78363
3.77452
3.76493
3.75482
3.74417
3.73294
3.7211
3.70865
3.69559
3.68197
3.66786
3.65335
3.63858
3.62361
3.60843
3.59303
3.57737
3.56144
3.54518
3.52855
3.51147
3.49387
3.47567
3.45678
3.43712
3.41664
3.39529
3.37306
3.34991
3.32588
3.301
3.27533
3.24932
3.22377
3.19898
3.17511
3.15229
3.13053
3.10974
3.08981
3.07068
3.05245
3.03508
3.0187
3.00318
2.98903
2.97591
2.96505
2.95384
2.94657
2.93546
2.93042
2.91926
2.91925
1.93524
1.93626
1.93722
1.93815
1.93908
1.94005
1.94105
1.94208
1.94311
1.94413
1.94511
1.94607
2.4891
2.49486
2.50057
2.50623
2.51185
2.51745
2.52303
2.5286
2.53418
2.5398
2.54546
2.55117
2.55692
2.56271
2.56851
2.57431
2.58014
2.58599
2.59187
2.59774
2.60358
2.60934
2.61502
2.62063
2.62616
2.63158
2.63682
2.64188
2.64673
2.65137
2.6558
2.65996
2.66378
2.66734
2.67058
2.67351
2.6761
2.67831
2.68018
2.68174
2.68298
2.68386
2.6844
2.68455
2.68438
2.68391
2.68319
2.68223
2.68101
2.67953
2.67777
2.67578
2.67363
2.67109
2.66791
2.66434
2.66058
2.65664
2.65241
2.64762
2.64208
2.63609
2.62961
2.62237
2.61543
2.60867
2.60153
2.59448
2.58775
2.58151
2.57722
2.57591
2.5784
2.58581
2.59946
2.62071
2.65126
2.693
2.74654
2.81142
2.88616
2.96921
3.05797
3.14888
3.23789
3.3207
3.39301
3.45591
3.51577
3.57271
3.62509
3.67141
3.71065
3.74248
3.76747
3.78705
3.80274
3.81512
3.82431
3.83051
3.8342
3.83571
3.83524
3.8336
3.83075
3.82693
3.82233
3.81712
3.81145
3.8054
3.79905
3.79245
3.7856
3.77853
3.77122
3.76365
3.7558
3.74763
3.73912
3.73023
3.72092
3.71113
3.70082
3.68991
3.67835
3.66615
3.65336
3.64007
3.6264
3.61244
3.59818
3.58363
3.56878
3.55362
3.53815
3.52236
3.50621
3.48968
3.47272
3.4553
3.43735
3.4188
3.39961
3.37968
3.35896
3.33742
3.31504
3.29187
3.26799
3.24392
3.22028
3.19719
3.17466
3.15277
3.13157
3.11113
3.09152
3.07278
3.05496
3.03808
3.02215
3.00716
2.99312
2.98001
2.96785
2.95665
2.94643
2.93725
2.92911
2.92188
2.91527
2.90914
2.90335
2.89786
2.89282
2.88819
2.88374
2.87947
2.8757
2.87276
2.87068
2.86921
2.86784
2.86595
2.86432
2.86153
2.86005
2.85756
2.85673
2.85482
2.85392
1.92041
1.92133
1.92221
1.92306
1.92388
1.92471
1.92555
1.92641
1.9273
1.9282
2.46766
2.47348
2.47926
2.48501
2.49073
2.49645
2.50216
2.50789
2.51365
2.51945
2.52531
2.53123
2.5372
2.54321
2.54925
2.55533
2.56145
2.56762
2.57381
2.58002
2.58622
2.59238
2.59852
2.60462
2.61065
2.61658
2.62239
2.62806
2.63358
2.63893
2.64407
2.64896
2.65358
2.65793
2.66195
2.66568
2.6691
2.67213
2.67476
2.67695
2.67868
2.67998
2.68095
2.68167
2.68201
2.68198
2.6816
2.68087
2.67982
2.67848
2.67682
2.67473
2.67208
2.66914
2.66614
2.66286
2.65908
2.6547
2.64973
2.64452
2.63917
2.63341
2.62719
2.62076
2.61399
2.60651
2.59889
2.59166
2.5844
2.57618
2.56811
2.56048
2.55348
2.5473
2.54173
2.53726
2.5344
2.53357
2.53552
2.54112
2.55104
2.56588
2.58625
2.61291
2.64678
2.6889
2.74029
2.80071
2.86931
2.94534
3.02704
3.11152
3.19499
3.27315
3.34168
3.39733
3.44436
3.48572
3.52067
3.54845
3.56892
3.58257
3.59079
3.59329
3.59157
3.58735
3.58044
3.5715
3.56105
3.5495
3.53719
3.52432
3.51104
3.49746
3.48363
3.46958
3.45529
3.44076
3.42594
3.41079
3.39527
3.37931
3.36281
3.34564
3.32768
3.30882
3.28903
3.26827
3.24699
3.22576
3.20469
3.18383
3.16326
3.14305
3.12327
3.104
3.0853
3.06722
3.04984
3.0332
3.01736
3.00237
2.98828
2.97515
2.963
2.95184
2.94164
2.93236
2.92392
2.91616
2.90894
2.90226
2.89612
2.89052
2.88542
2.88079
2.87659
2.87276
2.86924
2.866
2.86304
2.86035
2.85793
2.8558
2.85399
2.85245
2.85108
2.84972
2.84825
2.84686
2.84556
2.84443
2.84344
2.84226
2.84113
2.84054
2.84044
2.84082
2.84142
2.84169
2.84147
2.84092
2.83981
2.83894
2.83857
2.8383
2.83834
2.83806
2.83771
2.83798
2.83947
1.90582
1.9066
1.90735
1.90808
1.9088
1.90952
1.91025
1.91099
1.91176
2.45124
2.45709
2.46292
2.46874
2.47456
2.48041
2.48628
2.49221
2.49819
2.50423
2.51033
2.51649
2.5227
2.52897
2.53529
2.54167
2.5481
2.55458
2.56109
2.56761
2.57413
2.58066
2.58717
2.59363
2.60003
2.60634
2.61254
2.61864
2.62459
2.63037
2.63592
2.64123
2.64632
2.65112
2.65561
2.65972
2.66329
2.66645
2.6692
2.67161
2.67376
2.67553
2.67681
2.67766
2.67809
2.67811
2.67773
2.67697
2.67576
2.67409
2.67205
2.66985
2.66737
2.66445
2.66111
2.65737
2.65326
2.6488
2.64393
2.63864
2.63295
2.62687
2.62038
2.61344
2.60615
2.59853
2.59027
2.58154
2.57306
2.56486
2.55689
2.54948
2.54275
2.53606
2.53004
2.52443
2.51867
2.5132
2.50851
2.50495
2.50263
2.50177
2.50266
2.5056
2.51087
2.51866
2.52938
2.54349
2.56144
2.58378
2.61121
2.64455
2.68463
2.73202
2.78585
2.84437
2.90552
2.96663
3.02434
3.07546
3.11769
3.1496
3.17104
3.18417
3.18918
3.18732
3.18154
3.17224
3.16001
3.14606
3.13105
3.11544
3.0996
3.08379
3.06824
3.05306
3.03833
3.0241
3.01036
2.99711
2.98443
2.97241
2.96114
2.95062
2.94084
2.93174
2.92328
2.91533
2.90778
2.90067
2.89399
2.88773
2.88188
2.87643
2.87136
2.86668
2.86236
2.85841
2.85481
2.85156
2.84866
2.84607
2.84373
2.84158
2.8396
2.83774
2.83601
2.83441
2.83297
2.83171
2.83063
2.82969
2.82887
2.82815
2.8275
2.82691
2.82641
2.826
2.82569
2.82551
2.82543
2.82544
2.8255
2.82553
2.82552
2.8254
2.82517
2.82494
2.82481
2.82489
2.82487
2.82486
2.82522
2.82589
2.82661
2.82713
2.82717
2.8273
2.82708
2.82682
2.82678
2.82678
2.82681
2.82695
2.82729
2.82738
2.82776
2.82821
2.82857
2.82897
1.88987
1.89051
2.42806
2.43397
2.43989
2.4458
2.45174
2.45771
2.46373
2.4698
2.47593
2.48214
2.4884
2.49474
2.50113
2.5076
2.51413
2.52073
2.52739
2.53412
2.54089
2.5477
2.55453
2.56138
2.56822
2.57505
2.58185
2.58858
2.59524
2.60181
2.60829
2.61462
2.62076
2.62669
2.63239
2.63776
2.64272
2.64725
2.65141
2.65532
2.65899
2.66225
2.66504
2.66729
2.66906
2.67039
2.67129
2.67176
2.67179
2.67135
2.67047
2.66925
2.66776
2.66592
2.66366
2.66105
2.65811
2.65484
2.65121
2.64716
2.6427
2.63785
2.63267
2.62711
2.62106
2.61451
2.60752
2.60001
2.59184
2.58321
2.5747
2.56646
2.55829
2.55057
2.54322
2.53563
2.52835
2.5217
2.51575
2.51047
2.50537
2.50096
2.49769
2.49544
2.49428
2.49412
2.49468
2.49549
2.49682
2.49898
2.50199
2.50596
2.51108
2.51762
2.52594
2.5364
2.54946
2.56562
2.58538
2.60898
2.63594
2.66577
2.6976
2.7301
2.76166
2.79039
2.81461
2.834
2.84866
2.85882
2.86565
2.86846
2.86892
2.86808
2.86636
2.86379
2.86067
2.8573
2.85383
2.85038
2.84703
2.84392
2.84106
2.83839
2.83584
2.83339
2.83103
2.82879
2.82671
2.82479
2.82304
2.82143
2.81994
2.81856
2.81733
2.81626
2.8153
2.81446
2.81374
2.81315
2.81267
2.81227
2.8119
2.81155
2.8112
2.81087
2.81057
2.81031
2.8101
2.80995
2.80986
2.80981
2.80979
2.80981
2.80985
2.80993
2.81003
2.81018
2.8104
2.81068
2.81101
2.81133
2.81159
2.81183
2.81206
2.81216
2.81223
2.81235
2.81253
2.81278
2.81315
2.81352
2.8139
2.81445
2.81504
2.8155
2.81568
2.81592
2.81616
2.81619
2.81618
2.81622
2.8163
2.81645
2.81671
2.817
2.81726
2.8176
2.81801
2.81827
2.81843
2.81873
2.40386
2.40984
2.41583
2.42185
2.42789
2.43398
2.44013
2.44634
2.45261
2.45896
2.46537
2.47186
2.47843
2.48507
2.49178
2.49857
2.50543
2.51237
2.51937
2.52643
2.53352
2.54063
2.54776
2.55488
2.56202
2.56912
2.57618
2.58315
2.59003
2.5968
2.60338
2.60968
2.61567
2.62141
2.6269
2.63216
2.63726
2.64202
2.64627
2.65
2.65325
2.65602
2.65828
2.66016
2.66159
2.66255
2.66307
2.66316
2.66287
2.66222
2.66117
2.65976
2.65805
2.65604
2.65372
2.65105
2.648
2.64456
2.64075
2.63661
2.63212
2.62717
2.62169
2.6157
2.60925
2.60228
2.5947
2.58649
2.57825
2.57031
2.56232
2.55459
2.54731
2.54038
2.53319
2.52679
2.52117
2.51583
2.51105
2.50677
2.50304
2.50002
2.49771
2.49618
2.49509
2.49498
2.49575
2.49724
2.49935
2.50189
2.50509
2.50866
2.51237
2.51584
2.51971
2.52453
2.53048
2.53775
2.54672
2.55767
2.57079
2.58634
2.6044
2.62484
2.64731
2.67107
2.69502
2.71787
2.73839
2.75578
2.76995
2.781
2.78925
2.79514
2.79922
2.80199
2.80389
2.80483
2.80541
2.80566
2.80555
2.80519
2.80469
2.80416
2.80364
2.80312
2.80258
2.80202
2.8015
2.80103
2.80063
2.80028
2.79999
2.79975
2.79958
2.79949
2.79944
2.7994
2.79935
2.79931
2.79927
2.79924
2.79921
2.79921
2.79924
2.79929
2.79937
2.79946
2.79956
2.79967
2.79979
2.79991
2.80005
2.8002
2.80038
2.80058
2.80081
2.80102
2.80119
2.8014
2.80157
2.8017
2.80182
2.80196
2.80213
2.80237
2.8027
2.80309
2.80349
2.80394
2.80441
2.80483
2.80509
2.80522
2.80552
2.80567
2.80568
2.80567
2.8057
2.80581
2.806
2.80628
2.80651
2.80681
2.80711
2.80741
2.80773
2.80791