/*--------------------------------*- C++ -*----------------------------------*\
| =========                 |                                                 |
| \\      /  F ield         | OpenFOAM: The Open Source CFD Toolbox           |
|  \\    /   O peration     | Version:  v1706                                 |
|   \\  /    A nd           | Web:      www.OpenFOAM.com                      |
|    \\/     M anipulation  |                                                 |
\*---------------------------------------------------------------------------*/
FoamFile
{
    version     2.0;
    format      ascii;
    class       volScalarField;
    location    "3.4e-05";
    object      mu;
}
// * * * * * * * * * * * * * * * * * * * * * * * * * * * * * * * * * * * * * //

dimensions      [1 -1 -1 0 0 0 0];


internalField   nonuniform List<scalar> 
30104
(
1.03752e-05
1.03788e-05
1.03828e-05
1.03875e-05
1.03927e-05
1.03986e-05
1.04053e-05
1.04129e-05
1.04216e-05
1.04315e-05
1.04426e-05
1.04552e-05
1.04692e-05
1.04846e-05
1.05016e-05
1.05202e-05
1.0541e-05
1.13111e-05
1.12476e-05
1.11828e-05
1.11171e-05
1.10509e-05
1.0985e-05
1.09198e-05
1.08557e-05
1.07949e-05
1.07405e-05
1.06936e-05
1.06539e-05
1.06186e-05
1.05858e-05
1.05547e-05
1.05253e-05
1.0498e-05
1.04734e-05
1.04523e-05
1.04352e-05
1.04213e-05
1.04098e-05
1.03999e-05
1.03913e-05
1.0384e-05
1.0378e-05
1.03731e-05
1.03691e-05
1.03658e-05
1.0363e-05
1.03607e-05
1.03587e-05
1.03571e-05
1.03558e-05
1.03548e-05
1.0354e-05
1.03534e-05
1.03529e-05
1.03525e-05
1.03522e-05
1.03519e-05
1.03517e-05
1.03516e-05
1.03514e-05
1.03513e-05
1.03512e-05
1.03512e-05
1.03511e-05
1.03511e-05
1.03511e-05
1.03511e-05
1.0351e-05
1.0351e-05
1.0351e-05
1.0351e-05
1.0351e-05
1.0351e-05
1.0351e-05
1.0351e-05
1.0351e-05
1.0351e-05
1.0351e-05
1.0351e-05
1.0351e-05
1.0351e-05
1.0351e-05
1.0351e-05
1.0351e-05
1.0351e-05
1.0351e-05
1.0351e-05
1.0351e-05
1.0351e-05
1.0351e-05
1.0351e-05
1.0351e-05
1.0351e-05
1.0351e-05
1.0351e-05
1.0351e-05
1.0351e-05
1.0351e-05
1.0351e-05
1.0351e-05
1.0351e-05
1.0351e-05
1.0351e-05
1.0351e-05
1.0351e-05
1.0351e-05
1.0351e-05
1.0351e-05
1.0351e-05
1.0351e-05
1.0351e-05
1.0351e-05
1.0351e-05
1.0351e-05
1.0351e-05
1.0351e-05
1.0351e-05
1.0351e-05
1.0351e-05
1.0351e-05
1.0351e-05
1.0351e-05
1.0351e-05
1.0351e-05
1.0351e-05
1.0351e-05
1.0351e-05
1.0351e-05
1.0351e-05
1.0351e-05
1.0351e-05
1.0351e-05
1.0351e-05
1.0351e-05
1.0351e-05
1.0351e-05
1.0351e-05
1.0351e-05
1.0351e-05
1.0351e-05
1.0351e-05
1.0351e-05
1.0351e-05
1.0351e-05
1.0351e-05
1.0351e-05
1.0351e-05
1.0351e-05
1.0351e-05
1.0351e-05
1.0351e-05
1.0351e-05
1.0351e-05
1.0351e-05
1.0351e-05
1.0351e-05
1.0351e-05
1.0351e-05
1.0351e-05
1.0351e-05
1.0351e-05
1.0351e-05
1.0351e-05
1.0351e-05
1.0351e-05
1.0351e-05
1.0351e-05
1.0351e-05
1.0351e-05
1.0351e-05
1.0351e-05
1.0351e-05
1.0351e-05
1.0351e-05
1.0351e-05
1.0351e-05
1.0351e-05
1.0351e-05
1.0351e-05
1.0351e-05
1.0351e-05
1.0351e-05
1.0351e-05
1.0351e-05
1.0351e-05
1.0351e-05
1.0351e-05
1.0351e-05
1.0351e-05
1.0351e-05
1.0351e-05
1.0351e-05
1.0351e-05
1.0351e-05
1.0351e-05
1.0351e-05
1.0351e-05
1.0351e-05
1.0351e-05
1.0351e-05
1.0351e-05
1.0351e-05
1.0351e-05
1.0351e-05
1.0351e-05
1.0351e-05
1.0351e-05
1.0351e-05
1.0351e-05
1.04995e-05
1.05214e-05
1.05463e-05
1.05744e-05
1.06061e-05
1.06416e-05
1.06813e-05
1.07259e-05
1.07762e-05
1.08331e-05
1.0897e-05
1.09685e-05
1.10475e-05
1.11342e-05
1.12285e-05
1.13314e-05
1.14444e-05
1.47992e-05
1.46305e-05
1.44436e-05
1.42377e-05
1.40133e-05
1.37716e-05
1.35143e-05
1.32433e-05
1.29624e-05
1.26811e-05
1.24222e-05
1.22085e-05
1.2022e-05
1.18478e-05
1.1679e-05
1.15143e-05
1.13562e-05
1.121e-05
1.1081e-05
1.09719e-05
1.088e-05
1.08004e-05
1.07297e-05
1.06664e-05
1.06107e-05
1.05632e-05
1.05242e-05
1.04926e-05
1.04669e-05
1.04454e-05
1.04273e-05
1.04123e-05
1.04002e-05
1.03904e-05
1.03826e-05
1.03763e-05
1.03711e-05
1.03668e-05
1.03634e-05
1.03607e-05
1.03586e-05
1.03569e-05
1.03556e-05
1.03545e-05
1.03537e-05
1.03531e-05
1.03526e-05
1.03522e-05
1.03519e-05
1.03517e-05
1.03515e-05
1.03514e-05
1.03513e-05
1.03512e-05
1.03512e-05
1.03511e-05
1.03511e-05
1.03511e-05
1.0351e-05
1.0351e-05
1.0351e-05
1.0351e-05
1.0351e-05
1.0351e-05
1.0351e-05
1.0351e-05
1.0351e-05
1.0351e-05
1.0351e-05
1.0351e-05
1.0351e-05
1.0351e-05
1.0351e-05
1.0351e-05
1.0351e-05
1.0351e-05
1.0351e-05
1.0351e-05
1.0351e-05
1.0351e-05
1.0351e-05
1.0351e-05
1.0351e-05
1.0351e-05
1.0351e-05
1.0351e-05
1.0351e-05
1.0351e-05
1.0351e-05
1.0351e-05
1.0351e-05
1.0351e-05
1.0351e-05
1.0351e-05
1.0351e-05
1.0351e-05
1.0351e-05
1.0351e-05
1.0351e-05
1.0351e-05
1.0351e-05
1.0351e-05
1.0351e-05
1.0351e-05
1.0351e-05
1.0351e-05
1.0351e-05
1.0351e-05
1.0351e-05
1.0351e-05
1.0351e-05
1.0351e-05
1.0351e-05
1.0351e-05
1.0351e-05
1.0351e-05
1.0351e-05
1.0351e-05
1.0351e-05
1.0351e-05
1.0351e-05
1.0351e-05
1.0351e-05
1.0351e-05
1.0351e-05
1.0351e-05
1.0351e-05
1.0351e-05
1.0351e-05
1.0351e-05
1.0351e-05
1.0351e-05
1.0351e-05
1.0351e-05
1.0351e-05
1.0351e-05
1.0351e-05
1.0351e-05
1.0351e-05
1.0351e-05
1.0351e-05
1.0351e-05
1.0351e-05
1.0351e-05
1.0351e-05
1.0351e-05
1.0351e-05
1.0351e-05
1.0351e-05
1.0351e-05
1.0351e-05
1.0351e-05
1.0351e-05
1.0351e-05
1.0351e-05
1.0351e-05
1.0351e-05
1.0351e-05
1.0351e-05
1.0351e-05
1.0351e-05
1.0351e-05
1.0351e-05
1.0351e-05
1.0351e-05
1.0351e-05
1.0351e-05
1.0351e-05
1.0351e-05
1.0351e-05
1.0351e-05
1.0351e-05
1.0351e-05
1.0351e-05
1.0351e-05
1.0351e-05
1.0351e-05
1.0351e-05
1.0351e-05
1.0351e-05
1.0351e-05
1.0351e-05
1.0351e-05
1.0351e-05
1.0351e-05
1.0351e-05
1.0351e-05
1.0351e-05
1.0351e-05
1.0351e-05
1.0351e-05
1.0351e-05
1.0351e-05
1.08761e-05
1.09501e-05
1.10336e-05
1.1127e-05
1.12306e-05
1.13448e-05
1.14705e-05
1.16096e-05
1.1764e-05
1.19344e-05
1.21203e-05
1.23203e-05
1.25325e-05
1.2755e-05
1.29861e-05
1.32262e-05
1.6232e-05
1.61933e-05
1.61487e-05
1.60982e-05
1.60413e-05
1.59765e-05
1.59009e-05
1.58099e-05
1.56978e-05
1.55579e-05
1.5382e-05
1.51651e-05
1.49111e-05
1.46241e-05
1.43079e-05
1.39658e-05
1.36027e-05
1.32273e-05
1.2858e-05
1.25319e-05
1.22603e-05
1.20206e-05
1.17983e-05
1.1589e-05
1.13955e-05
1.12236e-05
1.10781e-05
1.0958e-05
1.0857e-05
1.07698e-05
1.06938e-05
1.06285e-05
1.05741e-05
1.05304e-05
1.04956e-05
1.04674e-05
1.04442e-05
1.0425e-05
1.04096e-05
1.03973e-05
1.03875e-05
1.03798e-05
1.03736e-05
1.03685e-05
1.03645e-05
1.03614e-05
1.03589e-05
1.03571e-05
1.03556e-05
1.03545e-05
1.03536e-05
1.0353e-05
1.03525e-05
1.03521e-05
1.03518e-05
1.03516e-05
1.03514e-05
1.03513e-05
1.03512e-05
1.03512e-05
1.03511e-05
1.03511e-05
1.03511e-05
1.0351e-05
1.0351e-05
1.0351e-05
1.0351e-05
1.0351e-05
1.0351e-05
1.0351e-05
1.0351e-05
1.0351e-05
1.0351e-05
1.0351e-05
1.0351e-05
1.0351e-05
1.0351e-05
1.0351e-05
1.0351e-05
1.0351e-05
1.0351e-05
1.0351e-05
1.0351e-05
1.0351e-05
1.0351e-05
1.0351e-05
1.0351e-05
1.0351e-05
1.0351e-05
1.0351e-05
1.0351e-05
1.0351e-05
1.0351e-05
1.0351e-05
1.0351e-05
1.0351e-05
1.0351e-05
1.0351e-05
1.0351e-05
1.0351e-05
1.0351e-05
1.0351e-05
1.0351e-05
1.0351e-05
1.0351e-05
1.0351e-05
1.0351e-05
1.0351e-05
1.0351e-05
1.0351e-05
1.0351e-05
1.0351e-05
1.0351e-05
1.0351e-05
1.0351e-05
1.0351e-05
1.0351e-05
1.0351e-05
1.0351e-05
1.0351e-05
1.0351e-05
1.0351e-05
1.0351e-05
1.0351e-05
1.0351e-05
1.0351e-05
1.0351e-05
1.0351e-05
1.0351e-05
1.0351e-05
1.0351e-05
1.0351e-05
1.0351e-05
1.0351e-05
1.0351e-05
1.0351e-05
1.0351e-05
1.0351e-05
1.0351e-05
1.0351e-05
1.0351e-05
1.0351e-05
1.0351e-05
1.0351e-05
1.0351e-05
1.0351e-05
1.0351e-05
1.0351e-05
1.0351e-05
1.0351e-05
1.0351e-05
1.0351e-05
1.0351e-05
1.0351e-05
1.0351e-05
1.0351e-05
1.0351e-05
1.0351e-05
1.0351e-05
1.0351e-05
1.0351e-05
1.0351e-05
1.0351e-05
1.0351e-05
1.0351e-05
1.0351e-05
1.0351e-05
1.0351e-05
1.0351e-05
1.0351e-05
1.0351e-05
1.0351e-05
1.0351e-05
1.0351e-05
1.0351e-05
1.0351e-05
1.0351e-05
1.0351e-05
1.0351e-05
1.0351e-05
1.0351e-05
1.0351e-05
1.0351e-05
1.0351e-05
1.0351e-05
1.0351e-05
1.0351e-05
1.0351e-05
1.0351e-05
1.0351e-05
1.0351e-05
1.0351e-05
1.0351e-05
1.19279e-05
1.21254e-05
1.23403e-05
1.2571e-05
1.28154e-05
1.30716e-05
1.33394e-05
1.36249e-05
1.39371e-05
1.42728e-05
1.46249e-05
1.49844e-05
1.53419e-05
1.5689e-05
1.6019e-05
1.63266e-05
1.65566e-05
1.6547e-05
1.65359e-05
1.65228e-05
1.65078e-05
1.64904e-05
1.64696e-05
1.64446e-05
1.64151e-05
1.63807e-05
1.63418e-05
1.62989e-05
1.62513e-05
1.61962e-05
1.61288e-05
1.60435e-05
1.59328e-05
1.57879e-05
1.56e-05
1.53601e-05
1.50676e-05
1.47304e-05
1.43564e-05
1.39524e-05
1.35276e-05
1.30994e-05
1.27032e-05
1.23765e-05
1.20975e-05
1.1845e-05
1.16115e-05
1.13995e-05
1.12149e-05
1.10617e-05
1.09368e-05
1.08323e-05
1.07427e-05
1.06658e-05
1.06014e-05
1.05494e-05
1.05086e-05
1.04762e-05
1.045e-05
1.04287e-05
1.04115e-05
1.03981e-05
1.03876e-05
1.03794e-05
1.03728e-05
1.03676e-05
1.03635e-05
1.03604e-05
1.0358e-05
1.03563e-05
1.03549e-05
1.03539e-05
1.03531e-05
1.03526e-05
1.03521e-05
1.03518e-05
1.03516e-05
1.03514e-05
1.03513e-05
1.03512e-05
1.03512e-05
1.03511e-05
1.03511e-05
1.03511e-05
1.0351e-05
1.0351e-05
1.0351e-05
1.0351e-05
1.0351e-05
1.0351e-05
1.0351e-05
1.0351e-05
1.0351e-05
1.0351e-05
1.0351e-05
1.0351e-05
1.0351e-05
1.0351e-05
1.0351e-05
1.0351e-05
1.0351e-05
1.0351e-05
1.0351e-05
1.0351e-05
1.0351e-05
1.0351e-05
1.0351e-05
1.0351e-05
1.0351e-05
1.0351e-05
1.0351e-05
1.0351e-05
1.0351e-05
1.0351e-05
1.0351e-05
1.0351e-05
1.0351e-05
1.0351e-05
1.0351e-05
1.0351e-05
1.0351e-05
1.0351e-05
1.0351e-05
1.0351e-05
1.0351e-05
1.0351e-05
1.0351e-05
1.0351e-05
1.0351e-05
1.0351e-05
1.0351e-05
1.0351e-05
1.0351e-05
1.0351e-05
1.0351e-05
1.0351e-05
1.0351e-05
1.0351e-05
1.0351e-05
1.0351e-05
1.0351e-05
1.0351e-05
1.0351e-05
1.0351e-05
1.0351e-05
1.0351e-05
1.0351e-05
1.0351e-05
1.0351e-05
1.0351e-05
1.0351e-05
1.0351e-05
1.0351e-05
1.0351e-05
1.0351e-05
1.0351e-05
1.0351e-05
1.0351e-05
1.0351e-05
1.0351e-05
1.0351e-05
1.0351e-05
1.0351e-05
1.0351e-05
1.0351e-05
1.0351e-05
1.0351e-05
1.0351e-05
1.0351e-05
1.0351e-05
1.0351e-05
1.0351e-05
1.0351e-05
1.0351e-05
1.0351e-05
1.0351e-05
1.0351e-05
1.0351e-05
1.0351e-05
1.0351e-05
1.0351e-05
1.0351e-05
1.0351e-05
1.0351e-05
1.03511e-05
1.03511e-05
1.03511e-05
1.03511e-05
1.03511e-05
1.03511e-05
1.03511e-05
1.03511e-05
1.03511e-05
1.03511e-05
1.03511e-05
1.03511e-05
1.03511e-05
1.03511e-05
1.03511e-05
1.03511e-05
1.03511e-05
1.03511e-05
1.03511e-05
1.03511e-05
1.03511e-05
1.03511e-05
1.03511e-05
1.03511e-05
1.03511e-05
1.41597e-05
1.4523e-05
1.49001e-05
1.52814e-05
1.56568e-05
1.60177e-05
1.63568e-05
1.66675e-05
1.69447e-05
1.71882e-05
1.73994e-05
1.75806e-05
1.77347e-05
1.7865e-05
1.79743e-05
1.67084e-05
1.66997e-05
1.66907e-05
1.66812e-05
1.66701e-05
1.6657e-05
1.66428e-05
1.66284e-05
1.66146e-05
1.66023e-05
1.65913e-05
1.65808e-05
1.65706e-05
1.65596e-05
1.65463e-05
1.65294e-05
1.65078e-05
1.64807e-05
1.64494e-05
1.64125e-05
1.63672e-05
1.6308e-05
1.62266e-05
1.61142e-05
1.59629e-05
1.5766e-05
1.55152e-05
1.52057e-05
1.48445e-05
1.44396e-05
1.39987e-05
1.35344e-05
1.30716e-05
1.26557e-05
1.23174e-05
1.20268e-05
1.17632e-05
1.15225e-05
1.13096e-05
1.11304e-05
1.09853e-05
1.08667e-05
1.07668e-05
1.06816e-05
1.06106e-05
1.05536e-05
1.05094e-05
1.04748e-05
1.04472e-05
1.04251e-05
1.04077e-05
1.03943e-05
1.0384e-05
1.0376e-05
1.03697e-05
1.03648e-05
1.03612e-05
1.03585e-05
1.03565e-05
1.0355e-05
1.03539e-05
1.03531e-05
1.03525e-05
1.03521e-05
1.03518e-05
1.03516e-05
1.03514e-05
1.03513e-05
1.03512e-05
1.03512e-05
1.03511e-05
1.03511e-05
1.03511e-05
1.03511e-05
1.0351e-05
1.0351e-05
1.0351e-05
1.0351e-05
1.0351e-05
1.0351e-05
1.0351e-05
1.0351e-05
1.0351e-05
1.0351e-05
1.0351e-05
1.0351e-05
1.0351e-05
1.0351e-05
1.0351e-05
1.0351e-05
1.0351e-05
1.0351e-05
1.0351e-05
1.0351e-05
1.0351e-05
1.0351e-05
1.0351e-05
1.0351e-05
1.0351e-05
1.0351e-05
1.0351e-05
1.0351e-05
1.0351e-05
1.0351e-05
1.0351e-05
1.0351e-05
1.0351e-05
1.0351e-05
1.0351e-05
1.0351e-05
1.0351e-05
1.0351e-05
1.0351e-05
1.0351e-05
1.0351e-05
1.0351e-05
1.0351e-05
1.0351e-05
1.0351e-05
1.0351e-05
1.0351e-05
1.0351e-05
1.0351e-05
1.0351e-05
1.0351e-05
1.0351e-05
1.0351e-05
1.0351e-05
1.0351e-05
1.0351e-05
1.0351e-05
1.0351e-05
1.0351e-05
1.0351e-05
1.03511e-05
1.03511e-05
1.03511e-05
1.03511e-05
1.03511e-05
1.03511e-05
1.03511e-05
1.03511e-05
1.03511e-05
1.03511e-05
1.03511e-05
1.03511e-05
1.03511e-05
1.03511e-05
1.03511e-05
1.03511e-05
1.03511e-05
1.03511e-05
1.03511e-05
1.03511e-05
1.03511e-05
1.03511e-05
1.03511e-05
1.03511e-05
1.03511e-05
1.03511e-05
1.03511e-05
1.03511e-05
1.03511e-05
1.03512e-05
1.03512e-05
1.03512e-05
1.03512e-05
1.03512e-05
1.03512e-05
1.03512e-05
1.03512e-05
1.03512e-05
1.03512e-05
1.03512e-05
1.03512e-05
1.03512e-05
1.03513e-05
1.03513e-05
1.03513e-05
1.03513e-05
1.03513e-05
1.03513e-05
1.03513e-05
1.03513e-05
1.03513e-05
1.03514e-05
1.03514e-05
1.03514e-05
1.03514e-05
1.03514e-05
1.03514e-05
1.03515e-05
1.03514e-05
1.6807e-05
1.70961e-05
1.73491e-05
1.75674e-05
1.77537e-05
1.79111e-05
1.80432e-05
1.81531e-05
1.82438e-05
1.83177e-05
1.83772e-05
1.84242e-05
1.84605e-05
1.84877e-05
1.85082e-05
1.85243e-05
1.68279e-05
1.68179e-05
1.68077e-05
1.67968e-05
1.67852e-05
1.67728e-05
1.676e-05
1.67473e-05
1.67354e-05
1.67251e-05
1.67164e-05
1.67089e-05
1.67014e-05
1.66935e-05
1.66858e-05
1.66777e-05
1.6672e-05
1.66699e-05
1.6666e-05
1.66593e-05
1.66526e-05
1.66445e-05
1.66323e-05
1.66147e-05
1.65929e-05
1.65671e-05
1.65353e-05
1.64934e-05
1.64333e-05
1.63442e-05
1.62168e-05
1.60444e-05
1.58209e-05
1.55384e-05
1.51931e-05
1.47916e-05
1.43415e-05
1.38542e-05
1.33517e-05
1.28728e-05
1.24727e-05
1.21435e-05
1.18525e-05
1.15882e-05
1.13539e-05
1.11562e-05
1.09969e-05
1.08686e-05
1.07619e-05
1.06721e-05
1.05985e-05
1.05407e-05
1.04966e-05
1.04625e-05
1.04357e-05
1.04148e-05
1.03988e-05
1.03867e-05
1.03776e-05
1.03706e-05
1.03653e-05
1.03613e-05
1.03585e-05
1.03565e-05
1.0355e-05
1.03539e-05
1.03531e-05
1.03526e-05
1.03521e-05
1.03518e-05
1.03516e-05
1.03515e-05
1.03514e-05
1.03513e-05
1.03512e-05
1.03512e-05
1.03511e-05
1.03511e-05
1.03511e-05
1.03511e-05
1.03511e-05
1.03511e-05
1.03511e-05
1.03511e-05
1.03511e-05
1.03511e-05
1.03511e-05
1.0351e-05
1.0351e-05
1.0351e-05
1.0351e-05
1.03511e-05
1.03511e-05
1.03511e-05
1.03511e-05
1.03511e-05
1.03511e-05
1.03511e-05
1.03511e-05
1.03511e-05
1.03511e-05
1.03511e-05
1.03511e-05
1.03511e-05
1.03511e-05
1.03511e-05
1.03511e-05
1.03511e-05
1.03511e-05
1.03511e-05
1.03511e-05
1.03511e-05
1.03511e-05
1.03511e-05
1.03511e-05
1.03511e-05
1.03511e-05
1.03511e-05
1.03511e-05
1.03511e-05
1.03511e-05
1.03511e-05
1.03511e-05
1.03511e-05
1.03511e-05
1.03511e-05
1.03511e-05
1.03511e-05
1.03511e-05
1.03511e-05
1.03511e-05
1.03512e-05
1.03512e-05
1.03512e-05
1.03512e-05
1.03512e-05
1.03512e-05
1.03512e-05
1.03512e-05
1.03512e-05
1.03512e-05
1.03512e-05
1.03512e-05
1.03512e-05
1.03512e-05
1.03513e-05
1.03513e-05
1.03513e-05
1.03513e-05
1.03513e-05
1.03513e-05
1.03513e-05
1.03513e-05
1.03514e-05
1.03514e-05
1.03514e-05
1.03514e-05
1.03514e-05
1.03514e-05
1.03515e-05
1.03515e-05
1.03515e-05
1.03515e-05
1.03515e-05
1.03516e-05
1.03516e-05
1.03516e-05
1.03516e-05
1.03517e-05
1.03517e-05
1.03517e-05
1.03517e-05
1.03518e-05
1.03518e-05
1.03518e-05
1.03519e-05
1.03519e-05
1.0352e-05
1.0352e-05
1.0352e-05
1.03521e-05
1.03521e-05
1.03522e-05
1.03522e-05
1.03523e-05
1.03524e-05
1.03524e-05
1.03525e-05
1.03525e-05
1.03526e-05
1.03527e-05
1.03527e-05
1.03527e-05
1.83624e-05
1.84422e-05
1.85062e-05
1.85567e-05
1.85957e-05
1.86251e-05
1.86476e-05
1.86655e-05
1.86803e-05
1.86925e-05
1.87023e-05
1.87097e-05
1.87144e-05
1.69401e-05
1.69275e-05
1.69147e-05
1.69016e-05
1.68882e-05
1.68749e-05
1.68616e-05
1.68486e-05
1.68365e-05
1.68258e-05
1.68166e-05
1.68084e-05
1.68008e-05
1.67932e-05
1.67856e-05
1.67782e-05
1.67731e-05
1.677e-05
1.67659e-05
1.67615e-05
1.67581e-05
1.67562e-05
1.6756e-05
1.67566e-05
1.67593e-05
1.67588e-05
1.67579e-05
1.67567e-05
1.67536e-05
1.67469e-05
1.67367e-05
1.67222e-05
1.67016e-05
1.66704e-05
1.66212e-05
1.65437e-05
1.64286e-05
1.62687e-05
1.60581e-05
1.57881e-05
1.5448e-05
1.50384e-05
1.45681e-05
1.40504e-05
1.35085e-05
1.2983e-05
1.2535e-05
1.21734e-05
1.18591e-05
1.15768e-05
1.13297e-05
1.11243e-05
1.09612e-05
1.08307e-05
1.0723e-05
1.06345e-05
1.05645e-05
1.05116e-05
1.04719e-05
1.04416e-05
1.04183e-05
1.04007e-05
1.03876e-05
1.0378e-05
1.03707e-05
1.03653e-05
1.03614e-05
1.03587e-05
1.03567e-05
1.03552e-05
1.03542e-05
1.03534e-05
1.03528e-05
1.03524e-05
1.03521e-05
1.03518e-05
1.03517e-05
1.03515e-05
1.03514e-05
1.03514e-05
1.03513e-05
1.03513e-05
1.03512e-05
1.03512e-05
1.03512e-05
1.03512e-05
1.03512e-05
1.03512e-05
1.03512e-05
1.03512e-05
1.03512e-05
1.03512e-05
1.03512e-05
1.03512e-05
1.03512e-05
1.03512e-05
1.03512e-05
1.03512e-05
1.03512e-05
1.03512e-05
1.03512e-05
1.03512e-05
1.03512e-05
1.03512e-05
1.03512e-05
1.03512e-05
1.03512e-05
1.03512e-05
1.03512e-05
1.03512e-05
1.03512e-05
1.03513e-05
1.03513e-05
1.03513e-05
1.03513e-05
1.03513e-05
1.03513e-05
1.03513e-05
1.03513e-05
1.03513e-05
1.03513e-05
1.03513e-05
1.03514e-05
1.03514e-05
1.03514e-05
1.03514e-05
1.03514e-05
1.03514e-05
1.03514e-05
1.03515e-05
1.03515e-05
1.03515e-05
1.03515e-05
1.03515e-05
1.03516e-05
1.03516e-05
1.03516e-05
1.03516e-05
1.03517e-05
1.03517e-05
1.03517e-05
1.03517e-05
1.03518e-05
1.03518e-05
1.03518e-05
1.03519e-05
1.03519e-05
1.03519e-05
1.0352e-05
1.0352e-05
1.03521e-05
1.03521e-05
1.03522e-05
1.03522e-05
1.03523e-05
1.03523e-05
1.03524e-05
1.03524e-05
1.03525e-05
1.03526e-05
1.03526e-05
1.03527e-05
1.03528e-05
1.03529e-05
1.03529e-05
1.0353e-05
1.03531e-05
1.03532e-05
1.03533e-05
1.03534e-05
1.03535e-05
1.03536e-05
1.03538e-05
1.03539e-05
1.0354e-05
1.03542e-05
1.03543e-05
1.03545e-05
1.03546e-05
1.03548e-05
1.0355e-05
1.03551e-05
1.03553e-05
1.03555e-05
1.03557e-05
1.0356e-05
1.03562e-05
1.03564e-05
1.03567e-05
1.03569e-05
1.03572e-05
1.03575e-05
1.03572e-05
1.88085e-05
1.88222e-05
1.88332e-05
1.88415e-05
1.88468e-05
1.8848e-05
1.88468e-05
1.8844e-05
1.88404e-05
1.88366e-05
1.88327e-05
1.88291e-05
1.88264e-05
1.70568e-05
1.70415e-05
1.7026e-05
1.70104e-05
1.69948e-05
1.69793e-05
1.69641e-05
1.69493e-05
1.69355e-05
1.69231e-05
1.69119e-05
1.69016e-05
1.6892e-05
1.68829e-05
1.68737e-05
1.6865e-05
1.68575e-05
1.68514e-05
1.68463e-05
1.68425e-05
1.68398e-05
1.68383e-05
1.68381e-05
1.6839e-05
1.68405e-05
1.68418e-05
1.68441e-05
1.68481e-05
1.68541e-05
1.68619e-05
1.68721e-05
1.68799e-05
1.68862e-05
1.68916e-05
1.68952e-05
1.68962e-05
1.68949e-05
1.68891e-05
1.68754e-05
1.68488e-05
1.68021e-05
1.67265e-05
1.66127e-05
1.6453e-05
1.62394e-05
1.59606e-05
1.56023e-05
1.51621e-05
1.4651e-05
1.40867e-05
1.34985e-05
1.29371e-05
1.24711e-05
1.20942e-05
1.17659e-05
1.14759e-05
1.12299e-05
1.10329e-05
1.08794e-05
1.07563e-05
1.06564e-05
1.05779e-05
1.05193e-05
1.04763e-05
1.04442e-05
1.042e-05
1.0402e-05
1.03888e-05
1.03792e-05
1.03719e-05
1.03666e-05
1.03627e-05
1.03598e-05
1.03578e-05
1.03562e-05
1.03551e-05
1.03542e-05
1.03535e-05
1.0353e-05
1.03527e-05
1.03524e-05
1.03522e-05
1.0352e-05
1.03519e-05
1.03518e-05
1.03517e-05
1.03516e-05
1.03516e-05
1.03516e-05
1.03515e-05
1.03515e-05
1.03515e-05
1.03515e-05
1.03515e-05
1.03515e-05
1.03515e-05
1.03515e-05
1.03516e-05
1.03516e-05
1.03516e-05
1.03516e-05
1.03516e-05
1.03516e-05
1.03516e-05
1.03517e-05
1.03517e-05
1.03517e-05
1.03517e-05
1.03517e-05
1.03518e-05
1.03518e-05
1.03518e-05
1.03518e-05
1.03519e-05
1.03519e-05
1.03519e-05
1.03519e-05
1.0352e-05
1.0352e-05
1.0352e-05
1.03521e-05
1.03521e-05
1.03521e-05
1.03522e-05
1.03522e-05
1.03523e-05
1.03523e-05
1.03524e-05
1.03524e-05
1.03525e-05
1.03525e-05
1.03526e-05
1.03527e-05
1.03527e-05
1.03528e-05
1.03529e-05
1.0353e-05
1.0353e-05
1.03531e-05
1.03532e-05
1.03533e-05
1.03534e-05
1.03535e-05
1.03536e-05
1.03538e-05
1.03539e-05
1.0354e-05
1.03541e-05
1.03543e-05
1.03544e-05
1.03546e-05
1.03547e-05
1.03549e-05
1.03551e-05
1.03553e-05
1.03554e-05
1.03556e-05
1.03559e-05
1.03561e-05
1.03563e-05
1.03566e-05
1.03568e-05
1.03571e-05
1.03574e-05
1.03577e-05
1.0358e-05
1.03583e-05
1.03586e-05
1.0359e-05
1.03594e-05
1.03598e-05
1.03602e-05
1.03606e-05
1.03611e-05
1.03615e-05
1.03621e-05
1.03626e-05
1.03632e-05
1.03638e-05
1.03644e-05
1.0365e-05
1.03657e-05
1.03665e-05
1.03672e-05
1.0368e-05
1.03689e-05
1.03697e-05
1.03707e-05
1.03716e-05
1.03726e-05
1.03736e-05
1.03748e-05
1.03739e-05
1.89768e-05
1.89737e-05
1.897e-05
1.89664e-05
1.8963e-05
1.89604e-05
1.89585e-05
1.89559e-05
1.89516e-05
1.8946e-05
1.89387e-05
1.89306e-05
1.89225e-05
1.89154e-05
1.71763e-05
1.71586e-05
1.7141e-05
1.71234e-05
1.71057e-05
1.70884e-05
1.70716e-05
1.70552e-05
1.70396e-05
1.7025e-05
1.70113e-05
1.69984e-05
1.6986e-05
1.69741e-05
1.69624e-05
1.69513e-05
1.69413e-05
1.69325e-05
1.69252e-05
1.69196e-05
1.69153e-05
1.6912e-05
1.69097e-05
1.69088e-05
1.6909e-05
1.69101e-05
1.69124e-05
1.69162e-05
1.69216e-05
1.6929e-05
1.69374e-05
1.69462e-05
1.69559e-05
1.69673e-05
1.69805e-05
1.69958e-05
1.70121e-05
1.70263e-05
1.70389e-05
1.70507e-05
1.70618e-05
1.70704e-05
1.70726e-05
1.70702e-05
1.70587e-05
1.70307e-05
1.69795e-05
1.68968e-05
1.6773e-05
1.65982e-05
1.63611e-05
1.60466e-05
1.56386e-05
1.51374e-05
1.45585e-05
1.39282e-05
1.32924e-05
1.27233e-05
1.22765e-05
1.19045e-05
1.15796e-05
1.13025e-05
1.108e-05
1.09094e-05
1.07761e-05
1.06698e-05
1.05875e-05
1.05268e-05
1.0483e-05
1.04507e-05
1.04262e-05
1.04079e-05
1.03943e-05
1.03843e-05
1.03766e-05
1.03708e-05
1.03663e-05
1.03631e-05
1.03606e-05
1.03588e-05
1.03574e-05
1.03563e-05
1.03554e-05
1.03548e-05
1.03543e-05
1.03539e-05
1.03535e-05
1.03533e-05
1.03531e-05
1.03529e-05
1.03528e-05
1.03528e-05
1.03527e-05
1.03527e-05
1.03527e-05
1.03527e-05
1.03527e-05
1.03527e-05
1.03527e-05
1.03528e-05
1.03528e-05
1.03529e-05
1.03529e-05
1.0353e-05
1.0353e-05
1.03531e-05
1.03532e-05
1.03532e-05
1.03533e-05
1.03534e-05
1.03534e-05
1.03535e-05
1.03536e-05
1.03537e-05
1.03538e-05
1.03539e-05
1.0354e-05
1.03541e-05
1.03542e-05
1.03543e-05
1.03544e-05
1.03545e-05
1.03546e-05
1.03548e-05
1.03549e-05
1.0355e-05
1.03552e-05
1.03554e-05
1.03555e-05
1.03557e-05
1.03559e-05
1.03561e-05
1.03563e-05
1.03565e-05
1.03568e-05
1.0357e-05
1.03573e-05
1.03576e-05
1.03579e-05
1.03582e-05
1.03585e-05
1.03588e-05
1.03592e-05
1.03596e-05
1.036e-05
1.03604e-05
1.03608e-05
1.03612e-05
1.03617e-05
1.03622e-05
1.03627e-05
1.03632e-05
1.03638e-05
1.03644e-05
1.0365e-05
1.03657e-05
1.03664e-05
1.03671e-05
1.03679e-05
1.03687e-05
1.03695e-05
1.03705e-05
1.03714e-05
1.03724e-05
1.03735e-05
1.03746e-05
1.03757e-05
1.0377e-05
1.03782e-05
1.03796e-05
1.0381e-05
1.03824e-05
1.0384e-05
1.03856e-05
1.03873e-05
1.0389e-05
1.03909e-05
1.03929e-05
1.0395e-05
1.03972e-05
1.03996e-05
1.04021e-05
1.04048e-05
1.04076e-05
1.04105e-05
1.04136e-05
1.04168e-05
1.04201e-05
1.04235e-05
1.04272e-05
1.04309e-05
1.04352e-05
1.04326e-05
1.90862e-05
1.9081e-05
1.90738e-05
1.90658e-05
1.90576e-05
1.90502e-05
1.90441e-05
1.90386e-05
1.9033e-05
1.90267e-05
1.90194e-05
1.90112e-05
1.90026e-05
1.89939e-05
1.72974e-05
1.72777e-05
1.72585e-05
1.72393e-05
1.72201e-05
1.72013e-05
1.71829e-05
1.71649e-05
1.71476e-05
1.71309e-05
1.71149e-05
1.70995e-05
1.70845e-05
1.707e-05
1.70559e-05
1.70426e-05
1.70302e-05
1.7019e-05
1.70091e-05
1.70006e-05
1.69935e-05
1.69876e-05
1.69829e-05
1.69794e-05
1.6977e-05
1.69764e-05
1.69767e-05
1.69782e-05
1.69813e-05
1.69862e-05
1.69926e-05
1.70007e-05
1.70102e-05
1.70214e-05
1.70343e-05
1.70488e-05
1.70643e-05
1.70808e-05
1.70985e-05
1.7118e-05
1.71396e-05
1.71623e-05
1.71835e-05
1.72028e-05
1.72215e-05
1.72401e-05
1.72585e-05
1.72735e-05
1.72803e-05
1.72794e-05
1.72692e-05
1.72392e-05
1.71803e-05
1.70819e-05
1.69317e-05
1.67171e-05
1.6423e-05
1.60305e-05
1.55286e-05
1.49293e-05
1.42589e-05
1.35641e-05
1.29206e-05
1.24099e-05
1.20028e-05
1.16543e-05
1.13591e-05
1.11233e-05
1.0945e-05
1.08085e-05
1.07004e-05
1.06159e-05
1.05525e-05
1.05062e-05
1.04718e-05
1.04453e-05
1.04247e-05
1.0409e-05
1.03971e-05
1.03881e-05
1.03811e-05
1.03755e-05
1.03712e-05
1.03678e-05
1.03652e-05
1.03632e-05
1.03615e-05
1.03603e-05
1.03592e-05
1.03584e-05
1.03578e-05
1.03573e-05
1.03569e-05
1.03567e-05
1.03565e-05
1.03564e-05
1.03564e-05
1.03564e-05
1.03564e-05
1.03565e-05
1.03566e-05
1.03567e-05
1.03569e-05
1.03571e-05
1.03572e-05
1.03574e-05
1.03576e-05
1.03579e-05
1.03581e-05
1.03583e-05
1.03585e-05
1.03588e-05
1.0359e-05
1.03593e-05
1.03596e-05
1.03598e-05
1.03601e-05
1.03605e-05
1.03608e-05
1.03611e-05
1.03615e-05
1.03619e-05
1.03623e-05
1.03627e-05
1.03632e-05
1.03636e-05
1.03641e-05
1.03646e-05
1.03652e-05
1.03658e-05
1.03664e-05
1.0367e-05
1.03677e-05
1.03684e-05
1.03692e-05
1.037e-05
1.03708e-05
1.03717e-05
1.03726e-05
1.03736e-05
1.03747e-05
1.03758e-05
1.0377e-05
1.03783e-05
1.03796e-05
1.0381e-05
1.03824e-05
1.03839e-05
1.03855e-05
1.03871e-05
1.03889e-05
1.03906e-05
1.03925e-05
1.03944e-05
1.03965e-05
1.03987e-05
1.04009e-05
1.04034e-05
1.04059e-05
1.04086e-05
1.04115e-05
1.04145e-05
1.04177e-05
1.04211e-05
1.04247e-05
1.04285e-05
1.04325e-05
1.04366e-05
1.0441e-05
1.04455e-05
1.04503e-05
1.04552e-05
1.04604e-05
1.04658e-05
1.04716e-05
1.04776e-05
1.0484e-05
1.04909e-05
1.04981e-05
1.05058e-05
1.0514e-05
1.05226e-05
1.05318e-05
1.05415e-05
1.05518e-05
1.05628e-05
1.05744e-05
1.05867e-05
1.05995e-05
1.06128e-05
1.06263e-05
1.06426e-05
1.0636e-05
1.91684e-05
1.91616e-05
1.9154e-05
1.91455e-05
1.91366e-05
1.91277e-05
1.91194e-05
1.91124e-05
1.91064e-05
1.91008e-05
1.90953e-05
1.90893e-05
1.90828e-05
1.9076e-05
1.74194e-05
1.73983e-05
1.73776e-05
1.73571e-05
1.73368e-05
1.73167e-05
1.72969e-05
1.72775e-05
1.72586e-05
1.724e-05
1.72219e-05
1.72042e-05
1.7187e-05
1.71702e-05
1.71541e-05
1.71387e-05
1.71242e-05
1.71107e-05
1.70984e-05
1.70873e-05
1.70774e-05
1.70689e-05
1.70615e-05
1.70552e-05
1.705e-05
1.70461e-05
1.70432e-05
1.70421e-05
1.70425e-05
1.70444e-05
1.70481e-05
1.70536e-05
1.70608e-05
1.70696e-05
1.70801e-05
1.70924e-05
1.71064e-05
1.71224e-05
1.71403e-05
1.71602e-05
1.71815e-05
1.72041e-05
1.72277e-05
1.72522e-05
1.72781e-05
1.73061e-05
1.73359e-05
1.73658e-05
1.73921e-05
1.74172e-05
1.74427e-05
1.74684e-05
1.74936e-05
1.75144e-05
1.75243e-05
1.75233e-05
1.75092e-05
1.74689e-05
1.73901e-05
1.72578e-05
1.70551e-05
1.67653e-05
1.63693e-05
1.58529e-05
1.52263e-05
1.45199e-05
1.37851e-05
1.30999e-05
1.25506e-05
1.21307e-05
1.17779e-05
1.14773e-05
1.12324e-05
1.10432e-05
1.08993e-05
1.07849e-05
1.0692e-05
1.06185e-05
1.05626e-05
1.05208e-05
1.0489e-05
1.0464e-05
1.0444e-05
1.0428e-05
1.04153e-05
1.04053e-05
1.03973e-05
1.03908e-05
1.03854e-05
1.0381e-05
1.03774e-05
1.03746e-05
1.03725e-05
1.03708e-05
1.03697e-05
1.03688e-05
1.03683e-05
1.0368e-05
1.03679e-05
1.03679e-05
1.03681e-05
1.03684e-05
1.03688e-05
1.03692e-05
1.03698e-05
1.03703e-05
1.03709e-05
1.03716e-05
1.03722e-05
1.03729e-05
1.03737e-05
1.03744e-05
1.03752e-05
1.0376e-05
1.03769e-05
1.03778e-05
1.03787e-05
1.03797e-05
1.03807e-05
1.03818e-05
1.0383e-05
1.03842e-05
1.03855e-05
1.03869e-05
1.03883e-05
1.03898e-05
1.03914e-05
1.03931e-05
1.03948e-05
1.03967e-05
1.03986e-05
1.04007e-05
1.04028e-05
1.0405e-05
1.04074e-05
1.04099e-05
1.04125e-05
1.04153e-05
1.04183e-05
1.04214e-05
1.04247e-05
1.04283e-05
1.0432e-05
1.04359e-05
1.04401e-05
1.04445e-05
1.04492e-05
1.0454e-05
1.04591e-05
1.04644e-05
1.04699e-05
1.04756e-05
1.04816e-05
1.04878e-05
1.04944e-05
1.05012e-05
1.05085e-05
1.05161e-05
1.05242e-05
1.05328e-05
1.0542e-05
1.05518e-05
1.05621e-05
1.05732e-05
1.05849e-05
1.05973e-05
1.06104e-05
1.06241e-05
1.06385e-05
1.06536e-05
1.06693e-05
1.06856e-05
1.07025e-05
1.07201e-05
1.07384e-05
1.07574e-05
1.07771e-05
1.07977e-05
1.08193e-05
1.08421e-05
1.08663e-05
1.08922e-05
1.092e-05
1.09497e-05
1.09815e-05
1.10152e-05
1.10508e-05
1.10882e-05
1.1127e-05
1.11677e-05
1.12082e-05
1.12591e-05
1.12523e-05
1.92412e-05
1.92349e-05
1.92288e-05
1.92225e-05
1.92158e-05
1.92087e-05
1.92016e-05
1.91948e-05
1.91888e-05
1.91836e-05
1.91788e-05
1.91741e-05
1.91693e-05
1.75416e-05
1.75195e-05
1.74977e-05
1.74762e-05
1.74548e-05
1.74336e-05
1.74127e-05
1.73919e-05
1.73713e-05
1.73511e-05
1.73311e-05
1.73115e-05
1.72924e-05
1.72737e-05
1.72557e-05
1.72385e-05
1.72221e-05
1.72065e-05
1.7192e-05
1.71785e-05
1.71662e-05
1.7155e-05
1.71449e-05
1.71358e-05
1.71278e-05
1.71207e-05
1.71148e-05
1.71103e-05
1.71073e-05
1.71064e-05
1.71068e-05
1.71088e-05
1.71125e-05
1.71181e-05
1.71255e-05
1.71348e-05
1.71463e-05
1.71598e-05
1.71756e-05
1.71932e-05
1.72125e-05
1.72336e-05
1.72566e-05
1.72811e-05
1.73076e-05
1.73354e-05
1.7364e-05
1.73933e-05
1.7423e-05
1.74539e-05
1.74868e-05
1.75223e-05
1.75596e-05
1.75969e-05
1.76315e-05
1.76656e-05
1.77024e-05
1.77401e-05
1.77742e-05
1.77993e-05
1.7808e-05
1.78024e-05
1.77728e-05
1.77016e-05
1.7572e-05
1.7366e-05
1.70696e-05
1.6669e-05
1.61554e-05
1.55402e-05
1.48547e-05
1.4141e-05
1.34575e-05
1.28711e-05
1.2425e-05
1.20673e-05
1.17565e-05
1.14893e-05
1.12696e-05
1.10967e-05
1.09633e-05
1.08569e-05
1.07685e-05
1.06952e-05
1.06358e-05
1.05885e-05
1.05511e-05
1.05212e-05
1.04968e-05
1.04764e-05
1.04594e-05
1.04454e-05
1.04343e-05
1.04255e-05
1.04188e-05
1.04136e-05
1.04098e-05
1.0407e-05
1.04051e-05
1.0404e-05
1.04037e-05
1.04038e-05
1.04044e-05
1.04054e-05
1.04067e-05
1.04082e-05
1.041e-05
1.04119e-05
1.04139e-05
1.0416e-05
1.04183e-05
1.04206e-05
1.0423e-05
1.04255e-05
1.04281e-05
1.04309e-05
1.04337e-05
1.04367e-05
1.04398e-05
1.04431e-05
1.04466e-05
1.04503e-05
1.04541e-05
1.04583e-05
1.04626e-05
1.04672e-05
1.04721e-05
1.04773e-05
1.04826e-05
1.04883e-05
1.04942e-05
1.05004e-05
1.05069e-05
1.05137e-05
1.05208e-05
1.05283e-05
1.05363e-05
1.05446e-05
1.05535e-05
1.05629e-05
1.05728e-05
1.05834e-05
1.05946e-05
1.06066e-05
1.06193e-05
1.06328e-05
1.06471e-05
1.06622e-05
1.0678e-05
1.06945e-05
1.07116e-05
1.07293e-05
1.07475e-05
1.07663e-05
1.07857e-05
1.0806e-05
1.0827e-05
1.08491e-05
1.08722e-05
1.08965e-05
1.09221e-05
1.09491e-05
1.09778e-05
1.10083e-05
1.10406e-05
1.1075e-05
1.11114e-05
1.115e-05
1.11906e-05
1.12332e-05
1.12774e-05
1.13227e-05
1.1369e-05
1.1416e-05
1.1464e-05
1.15131e-05
1.15637e-05
1.16161e-05
1.16706e-05
1.17275e-05
1.17869e-05
1.18486e-05
1.19127e-05
1.19793e-05
1.20487e-05
1.21223e-05
1.21998e-05
1.22838e-05
1.23711e-05
1.24678e-05