/*--------------------------------*- C++ -*----------------------------------*\
| =========                 |                                                 |
| \\      /  F ield         | OpenFOAM: The Open Source CFD Toolbox           |
|  \\    /   O peration     | Version:  v1706                                 |
|   \\  /    A nd           | Web:      www.OpenFOAM.com                      |
|    \\/     M anipulation  |                                                 |
\*---------------------------------------------------------------------------*/
FoamFile
{
    version     2.0;
    format      ascii;
    class       volScalarField;
    location    "3.4e-05";
    object      rho;
}
// * * * * * * * * * * * * * * * * * * * * * * * * * * * * * * * * * * * * * //

dimensions      [1 -3 0 0 0 0 0];


internalField   nonuniform List<scalar> 
30104
(
0.000512093
0.000512204
0.000512327
0.000512466
0.000512627
0.000512815
0.000513036
0.000513298
0.000513608
0.000513968
0.000514377
0.000514831
0.00051532
0.000515833
0.000516364
0.000516915
0.000517493
0.000548014
0.000544891
0.000541896
0.000539051
0.000536394
0.000533977
0.00053171
0.000529504
0.000527768
0.000526687
0.000525743
0.000524629
0.000523367
0.000522021
0.000520646
0.000519277
0.000517902
0.000516533
0.000515315
0.000514398
0.000513774
0.000513336
0.000512992
0.000512709
0.000512491
0.000512331
0.000512198
0.000512074
0.000511957
0.000511846
0.000511739
0.000511639
0.000511551
0.000511486
0.000511442
0.000511412
0.000511391
0.000511376
0.000511365
0.000511356
0.000511348
0.000511341
0.000511335
0.000511328
0.000511322
0.000511318
0.000511315
0.000511314
0.000511313
0.000511312
0.000511312
0.000511311
0.000511311
0.00051131
0.00051131
0.00051131
0.00051131
0.00051131
0.000511309
0.000511309
0.000511309
0.000511309
0.000511309
0.000511309
0.000511309
0.000511309
0.000511309
0.000511309
0.000511309
0.000511309
0.000511309
0.000511309
0.000511309
0.000511309
0.000511309
0.000511309
0.000511309
0.000511309
0.000511309
0.000511309
0.000511309
0.000511309
0.000511309
0.000511309
0.000511309
0.000511309
0.000511309
0.000511309
0.000511309
0.000511309
0.000511309
0.000511309
0.000511309
0.000511309
0.000511309
0.000511309
0.000511309
0.000511309
0.000511309
0.000511309
0.000511309
0.000511309
0.000511309
0.000511309
0.000511309
0.000511309
0.000511309
0.000511309
0.000511309
0.000511309
0.000511309
0.000511309
0.000511309
0.000511309
0.000511309
0.000511309
0.000511309
0.000511309
0.000511309
0.000511309
0.000511309
0.000511309
0.000511309
0.000511309
0.000511309
0.000511309
0.000511309
0.000511309
0.000511309
0.000511309
0.000511309
0.000511309
0.000511309
0.000511309
0.000511309
0.000511309
0.000511309
0.000511309
0.000511309
0.000511309
0.000511309
0.000511309
0.000511309
0.000511309
0.000511309
0.000511309
0.000511309
0.000511309
0.000511309
0.000511309
0.000511309
0.000511309
0.000511309
0.000511309
0.000511309
0.000511309
0.000511309
0.000511309
0.000511309
0.000511309
0.000511309
0.000511309
0.000511309
0.000511309
0.000511309
0.000511309
0.000511309
0.000511309
0.000511309
0.000511309
0.000511309
0.000511309
0.000511309
0.000511309
0.000511309
0.000511309
0.000511309
0.000511309
0.000511309
0.000511309
0.000511309
0.000511309
0.000511309
0.000511309
0.000511309
0.000511309
0.000511309
0.000511309
0.000511309
0.000511309
0.000511309
0.000511309
0.000511309
0.000515408
0.000516055
0.000516793
0.000517625
0.00051855
0.000519572
0.000520701
0.000521955
0.000523375
0.000525024
0.000526968
0.000529265
0.000531954
0.000535063
0.000538582
0.000542544
0.000546968
0.000975662
0.000936913
0.000897384
0.000857328
0.000817256
0.000777726
0.000739165
0.000702165
0.000667591
0.00063666
0.000612431
0.000596321
0.000584704
0.000575131
0.000566539
0.000558559
0.000551328
0.000545303
0.000540487
0.000536387
0.000532686
0.000529344
0.000526374
0.000523732
0.000521358
0.000519285
0.00051761
0.000516338
0.000515371
0.000514603
0.00051398
0.000513482
0.000513083
0.000512757
0.000512486
0.000512259
0.000512066
0.0005119
0.000511759
0.000511649
0.000511567
0.000511508
0.000511464
0.00051143
0.000511404
0.000511384
0.000511368
0.000511355
0.000511344
0.000511334
0.000511327
0.000511322
0.000511318
0.000511316
0.000511314
0.000511313
0.000511312
0.000511311
0.000511311
0.00051131
0.00051131
0.00051131
0.00051131
0.00051131
0.00051131
0.000511309
0.000511309
0.000511309
0.000511309
0.000511309
0.000511309
0.000511309
0.000511309
0.000511309
0.000511309
0.000511309
0.000511309
0.000511309
0.000511309
0.000511309
0.000511309
0.000511309
0.000511309
0.000511309
0.000511309
0.000511309
0.000511309
0.000511309
0.000511309
0.000511309
0.000511309
0.000511309
0.000511309
0.000511309
0.000511309
0.000511309
0.000511309
0.000511309
0.000511309
0.000511309
0.000511309
0.000511309
0.000511309
0.000511309
0.000511309
0.000511309
0.000511309
0.000511309
0.000511309
0.000511309
0.000511309
0.000511309
0.000511309
0.000511309
0.000511309
0.000511309
0.000511309
0.000511309
0.000511309
0.000511309
0.000511309
0.000511309
0.000511309
0.000511309
0.000511309
0.000511309
0.000511309
0.000511309
0.000511309
0.000511309
0.000511309
0.000511309
0.000511309
0.000511309
0.000511309
0.000511309
0.000511309
0.000511309
0.000511309
0.000511309
0.000511309
0.000511309
0.000511309
0.000511309
0.000511309
0.000511309
0.000511309
0.000511309
0.000511309
0.000511309
0.000511309
0.000511309
0.000511309
0.000511309
0.000511309
0.000511309
0.000511309
0.000511309
0.000511309
0.000511309
0.000511309
0.000511309
0.000511309
0.000511309
0.000511309
0.000511309
0.000511309
0.000511309
0.000511309
0.000511309
0.00051131
0.00051131
0.00051131
0.00051131
0.00051131
0.00051131
0.00051131
0.00051131
0.00051131
0.00051131
0.00051131
0.00051131
0.00051131
0.00051131
0.00051131
0.00051131
0.00051131
0.00051131
0.00051131
0.00051131
0.00051131
0.00051131
0.00051131
0.000525348
0.000527424
0.000529865
0.000532737
0.000536094
0.000539957
0.000544384
0.000549429
0.000555073
0.000561267
0.000567984
0.000575266
0.000583245
0.000592077
0.000602015
0.000613097
0.00141673
0.00139207
0.00136611
0.00133849
0.00130915
0.00127821
0.0012453
0.00120972
0.00117081
0.00112766
0.0010781
0.00102097
0.000959959
0.000898458
0.000838545
0.000781597
0.000728861
0.000681483
0.000641549
0.000613082
0.000594455
0.000580807
0.000569544
0.000559806
0.000551665
0.000545194
0.000539894
0.00053525
0.000531129
0.000527532
0.000524392
0.000521637
0.000519319
0.000517522
0.000516193
0.000515193
0.000514412
0.000513799
0.000513319
0.000512934
0.000512618
0.000512353
0.000512128
0.000511935
0.000511775
0.000511652
0.000511564
0.000511502
0.000511457
0.000511423
0.000511397
0.000511378
0.000511361
0.000511348
0.000511337
0.000511328
0.000511322
0.000511318
0.000511316
0.000511314
0.000511313
0.000511312
0.000511311
0.000511311
0.00051131
0.00051131
0.00051131
0.00051131
0.00051131
0.00051131
0.00051131
0.000511309
0.000511309
0.000511309
0.000511309
0.000511309
0.000511309
0.000511309
0.000511309
0.000511309
0.000511309
0.000511309
0.000511309
0.000511309
0.000511309
0.000511309
0.000511309
0.000511309
0.000511309
0.000511309
0.000511309
0.000511309
0.000511309
0.000511309
0.000511309
0.000511309
0.000511309
0.000511309
0.000511309
0.000511309
0.000511309
0.000511309
0.000511309
0.000511309
0.000511309
0.000511309
0.000511309
0.000511309
0.000511309
0.000511309
0.000511309
0.000511309
0.000511309
0.000511309
0.000511309
0.000511309
0.000511309
0.000511309
0.000511309
0.000511309
0.000511309
0.000511309
0.000511309
0.000511309
0.000511309
0.000511309
0.00051131
0.00051131
0.00051131
0.00051131
0.00051131
0.00051131
0.00051131
0.00051131
0.00051131
0.00051131
0.00051131
0.00051131
0.00051131
0.00051131
0.00051131
0.00051131
0.00051131
0.00051131
0.00051131
0.00051131
0.00051131
0.00051131
0.00051131
0.00051131
0.00051131
0.00051131
0.00051131
0.00051131
0.00051131
0.00051131
0.00051131
0.00051131
0.00051131
0.00051131
0.00051131
0.00051131
0.00051131
0.00051131
0.00051131
0.00051131
0.00051131
0.00051131
0.00051131
0.00051131
0.00051131
0.00051131
0.00051131
0.00051131
0.00051131
0.00051131
0.00051131
0.00051131
0.00051131
0.00051131
0.00051131
0.00051131
0.00051131
0.000511311
0.000511311
0.000511311
0.000511311
0.000511311
0.000511311
0.000511311
0.000511311
0.000511311
0.000511311
0.000558822
0.000565907
0.000573676
0.000582205
0.000591615
0.000602176
0.000613989
0.000627968
0.000646127
0.000669542
0.000698699
0.000733631
0.000774073
0.000819578
0.00086962
0.000923691
0.00154687
0.00154166
0.00153538
0.00152706
0.00151626
0.00150312
0.00148785
0.00147083
0.0014523
0.00143201
0.00140937
0.00138393
0.00135569
0.00132464
0.00129041
0.00125225
0.00120905
0.00115976
0.0011035
0.00103848
0.000967147
0.000895339
0.000827025
0.000764182
0.000707818
0.000659378
0.000622683
0.000599114
0.000582836
0.000570016
0.000559342
0.000550728
0.000544008
0.000538508
0.000533737
0.000529584
0.000525989
0.000522849
0.000520163
0.000518043
0.000516489
0.000515353
0.00051449
0.000513825
0.000513313
0.000512912
0.000512584
0.000512311
0.000512077
0.000511878
0.000511718
0.000511603
0.000511524
0.000511469
0.00051143
0.000511402
0.00051138
0.000511363
0.000511348
0.000511336
0.000511327
0.000511321
0.000511318
0.000511316
0.000511314
0.000511313
0.000511312
0.000511311
0.000511311
0.00051131
0.00051131
0.00051131
0.00051131
0.00051131
0.00051131
0.00051131
0.00051131
0.00051131
0.00051131
0.00051131
0.00051131
0.00051131
0.00051131
0.00051131
0.00051131
0.00051131
0.00051131
0.00051131
0.00051131
0.00051131
0.00051131
0.00051131
0.00051131
0.00051131
0.00051131
0.00051131
0.00051131
0.00051131
0.00051131
0.00051131
0.00051131
0.00051131
0.00051131
0.00051131
0.00051131
0.00051131
0.00051131
0.00051131
0.00051131
0.00051131
0.00051131
0.00051131
0.00051131
0.00051131
0.00051131
0.00051131
0.00051131
0.00051131
0.00051131
0.00051131
0.00051131
0.00051131
0.00051131
0.00051131
0.00051131
0.00051131
0.00051131
0.00051131
0.00051131
0.00051131
0.00051131
0.00051131
0.00051131
0.00051131
0.00051131
0.00051131
0.00051131
0.00051131
0.00051131
0.00051131
0.00051131
0.00051131
0.00051131
0.00051131
0.00051131
0.000511311
0.000511311
0.000511311
0.000511311
0.000511311
0.000511311
0.000511311
0.000511311
0.000511311
0.000511311
0.000511311
0.000511311
0.000511311
0.000511311
0.000511311
0.000511311
0.000511311
0.000511312
0.000511312
0.000511312
0.000511312
0.000511312
0.000511312
0.000511312
0.000511312
0.000511312
0.000511312
0.000511313
0.000511313
0.000511313
0.000511313
0.000511313
0.000511313
0.000511313
0.000511313
0.000511314
0.000511314
0.000511314
0.000511314
0.000511314
0.000511315
0.000511315
0.000511315
0.000511315
0.000511316
0.000511316
0.000511316
0.000511316
0.000654845
0.000680972
0.000713321
0.000751955
0.000796615
0.000846832
0.00090206
0.000960883
0.00102081
0.00108035
0.0011385
0.00119454
0.00124791
0.00129821
0.00134512
0.00154267
0.00153785
0.0015325
0.00152758
0.00152353
0.00151978
0.0015163
0.00151335
0.00151105
0.00150903
0.00150648
0.00150233
0.00149594
0.00148705
0.00147565
0.0014619
0.00144581
0.00142755
0.00140744
0.00138421
0.00135671
0.00132418
0.00128562
0.00123994
0.00118662
0.00112562
0.00105626
0.000979276
0.000901366
0.000827587
0.000760285
0.000700664
0.000650784
0.000614912
0.000592443
0.000576706
0.000564234
0.000554143
0.000546319
0.000540186
0.000535007
0.000530493
0.000526574
0.000523158
0.000520246
0.000517968
0.000516332
0.000515163
0.000514295
0.00051364
0.000513144
0.000512755
0.000512436
0.000512167
0.000511937
0.000511752
0.000511618
0.000511529
0.00051147
0.000511429
0.000511401
0.000511379
0.000511361
0.000511346
0.000511334
0.000511326
0.000511321
0.000511318
0.000511316
0.000511315
0.000511314
0.000511313
0.000511312
0.000511311
0.000511311
0.000511311
0.00051131
0.00051131
0.00051131
0.00051131
0.00051131
0.00051131
0.00051131
0.00051131
0.00051131
0.00051131
0.00051131
0.00051131
0.00051131
0.00051131
0.00051131
0.00051131
0.00051131
0.00051131
0.00051131
0.00051131
0.00051131
0.00051131
0.00051131
0.00051131
0.00051131
0.00051131
0.00051131
0.00051131
0.00051131
0.00051131
0.00051131
0.00051131
0.000511311
0.000511311
0.000511311
0.000511311
0.000511311
0.000511311
0.000511311
0.000511311
0.000511311
0.000511311
0.000511311
0.000511311
0.000511311
0.000511311
0.000511311
0.000511311
0.000511311
0.000511311
0.000511311
0.000511311
0.000511312
0.000511312
0.000511312
0.000511312
0.000511312
0.000511312
0.000511312
0.000511312
0.000511312
0.000511312
0.000511312
0.000511313
0.000511313
0.000511313
0.000511313
0.000511313
0.000511313
0.000511313
0.000511314
0.000511314
0.000511314
0.000511314
0.000511314
0.000511315
0.000511315
0.000511315
0.000511315
0.000511315
0.000511316
0.000511316
0.000511316
0.000511316
0.000511317
0.000511317
0.000511317
0.000511318
0.000511318
0.000511318
0.000511319
0.000511319
0.00051132
0.00051132
0.000511321
0.000511321
0.000511321
0.000511322
0.000511322
0.000511323
0.000511323
0.000511324
0.000511325
0.000511325
0.000511326
0.000511327
0.000511327
0.000511328
0.000511329
0.000511329
0.00051133
0.000511331
0.000511332
0.000511333
0.000511334
0.000511335
0.000511336
0.000963703
0.00102618
0.0010885
0.00114952
0.00120833
0.00126424
0.00131672
0.00136547
0.00141023
0.0014506
0.00148636
0.00151751
0.00154419
0.00156661
0.00158526
0.00160095
0.00153061
0.00152699
0.00152349
0.0015204
0.0015175
0.00151469
0.00151219
0.00151015
0.00150845
0.0015068
0.00150489
0.00150305
0.00150144
0.0015002
0.00149944
0.00149914
0.00149971
0.00150138
0.00150084
0.00149755
0.00149141
0.00148248
0.00147061
0.00145629
0.00144048
0.00142263
0.00140068
0.00137279
0.00133753
0.00129385
0.00124143
0.00118074
0.00111254
0.00103647
0.000954605
0.000873821
0.000798504
0.000730813
0.000672578
0.00062735
0.000598387
0.000579899
0.000566115
0.000555158
0.000546725
0.000540234
0.000534829
0.000530113
0.000525993
0.000522417
0.000519454
0.000517243
0.000515708
0.000514631
0.00051385
0.000513278
0.000512842
0.000512491
0.000512195
0.000511945
0.000511746
0.000511608
0.000511521
0.000511464
0.000511427
0.000511399
0.000511378
0.00051136
0.000511345
0.000511334
0.000511327
0.000511323
0.00051132
0.000511318
0.000511317
0.000511315
0.000511314
0.000511314
0.000511313
0.000511312
0.000511312
0.000511312
0.000511312
0.000511312
0.000511312
0.000511312
0.000511312
0.000511312
0.000511312
0.000511312
0.000511312
0.000511312
0.000511312
0.000511312
0.000511312
0.000511312
0.000511312
0.000511312
0.000511312
0.000511312
0.000511312
0.000511313
0.000511313
0.000511313
0.000511313
0.000511313
0.000511313
0.000511313
0.000511313
0.000511313
0.000511313
0.000511314
0.000511314
0.000511314
0.000511314
0.000511314
0.000511314
0.000511314
0.000511314
0.000511315
0.000511315
0.000511315
0.000511315
0.000511315
0.000511316
0.000511316
0.000511316
0.000511316
0.000511317
0.000511317
0.000511317
0.000511317
0.000511318
0.000511318
0.000511318
0.000511319
0.000511319
0.00051132
0.00051132
0.00051132
0.000511321
0.000511321
0.000511322
0.000511322
0.000511323
0.000511324
0.000511324
0.000511325
0.000511325
0.000511326
0.000511327
0.000511328
0.000511328
0.000511329
0.00051133
0.000511331
0.000511332
0.000511333
0.000511334
0.000511335
0.000511336
0.000511337
0.000511338
0.000511339
0.00051134
0.000511342
0.000511343
0.000511344
0.000511346
0.000511347
0.000511349
0.000511351
0.000511353
0.000511355
0.000511357
0.000511359
0.000511361
0.000511364
0.000511366
0.000511369
0.000511371
0.000511374
0.000511377
0.00051138
0.000511383
0.000511387
0.000511391
0.000511394
0.000511398
0.000511402
0.000511406
0.00051141
0.000511413
0.0014085
0.00145162
0.00148967
0.00152265
0.00155076
0.00157427
0.00159375
0.00161
0.00162381
0.00163562
0.00164576
0.0016544
0.00166157
0.00151192
0.00150955
0.00150745
0.00150558
0.00150391
0.0015025
0.0015014
0.00150054
0.00149985
0.00149924
0.00149869
0.00149814
0.00149772
0.00149764
0.00149777
0.00149814
0.0014994
0.00150152
0.00150292
0.00150397
0.00150525
0.00150706
0.00150949
0.00151235
0.00151373
0.00151252
0.00150881
0.00150222
0.0014927
0.00148095
0.00146786
0.00145292
0.00143416
0.0014089
0.00137495
0.00133141
0.00127853
0.00121717
0.00114841
0.0010724
0.000988388
0.000901875
0.000819551
0.000745204
0.000681211
0.00063095
0.000598325
0.000578416
0.000564138
0.000553097
0.000544755
0.000538316
0.000532889
0.000528132
0.000523981
0.000520485
0.000517813
0.000515981
0.000514753
0.000513905
0.000513303
0.000512851
0.000512486
0.000512178
0.000511921
0.000511727
0.000511599
0.000511519
0.000511468
0.000511433
0.000511407
0.000511386
0.000511368
0.000511353
0.000511342
0.000511334
0.000511329
0.000511326
0.000511323
0.000511322
0.000511321
0.00051132
0.000511319
0.000511318
0.000511318
0.000511317
0.000511317
0.000511317
0.000511317
0.000511317
0.000511317
0.000511317
0.000511317
0.000511317
0.000511318
0.000511318
0.000511318
0.000511318
0.000511319
0.000511319
0.000511319
0.000511319
0.00051132
0.00051132
0.00051132
0.000511321
0.000511321
0.000511321
0.000511322
0.000511322
0.000511322
0.000511323
0.000511323
0.000511323
0.000511324
0.000511324
0.000511325
0.000511325
0.000511326
0.000511326
0.000511327
0.000511328
0.000511328
0.000511329
0.00051133
0.000511331
0.000511331
0.000511332
0.000511333
0.000511334
0.000511335
0.000511336
0.000511337
0.000511338
0.00051134
0.000511341
0.000511342
0.000511344
0.000511345
0.000511347
0.000511348
0.00051135
0.000511351
0.000511353
0.000511355
0.000511357
0.000511359
0.000511361
0.000511363
0.000511365
0.000511368
0.000511371
0.000511373
0.000511376
0.000511379
0.000511382
0.000511386
0.000511389
0.000511393
0.000511397
0.000511401
0.000511405
0.000511409
0.000511414
0.000511419
0.000511424
0.000511429
0.000511435
0.000511441
0.000511447
0.000511453
0.00051146
0.000511467
0.000511474
0.000511481
0.000511488
0.000511496
0.000511504
0.000511513
0.000511523
0.000511533
0.000511543
0.000511554
0.000511565
0.000511576
0.000511587
0.000511599
0.000511611
0.000511625
0.00051164
0.000511655
0.000511674
0.000511689
0.00162672
0.00163964
0.00165056
0.00165971
0.00166717
0.00167268
0.00167623
0.00167811
0.00167925
0.00167945
0.0016793
0.00167893
0.00167891
0.0014922
0.00149084
0.00148967
0.00148866
0.00148786
0.00148733
0.00148706
0.00148696
0.00148699
0.00148725
0.0014877
0.00148825
0.00148907
0.00149021
0.00149153
0.00149307
0.0014951
0.00149734
0.00149943
0.00150151
0.00150383
0.00150654
0.00150975
0.00151318
0.00151584
0.00151787
0.00152
0.00152257
0.00152561
0.00152878
0.00153042
0.00152971
0.00152675
0.0015209
0.0015126
0.00150275
0.00149144
0.00147784
0.00145993
0.00143473
0.00139982
0.00135467
0.00129991
0.00123648
0.00116513
0.00108577
0.000997302
0.00090468
0.00081643
0.000737621
0.000671247
0.000621172
0.000590304
0.00057149
0.000558037
0.000547999
0.000540531
0.000534528
0.000529299
0.000524711
0.000520855
0.000517933
0.000515979
0.000514722
0.000513885
0.000513299
0.000512856
0.000512494
0.000512189
0.000511937
0.000511751
0.000511627
0.000511548
0.000511496
0.000511461
0.000511434
0.000511412
0.000511394
0.000511378
0.000511365
0.000511355
0.000511348
0.000511343
0.00051134
0.000511338
0.000511336
0.000511336
0.000511335
0.000511335
0.000511335
0.000511335
0.000511335
0.000511335
0.000511335
0.000511336
0.000511336
0.000511337
0.000511337
0.000511338
0.000511339
0.00051134
0.000511341
0.000511342
0.000511343
0.000511344
0.000511345
0.000511346
0.000511347
0.000511348
0.000511349
0.000511351
0.000511352
0.000511353
0.000511355
0.000511356
0.000511358
0.000511359
0.000511361
0.000511362
0.000511364
0.000511366
0.000511368
0.00051137
0.000511372
0.000511375
0.000511377
0.000511379
0.000511382
0.000511385
0.000511388
0.000511391
0.000511395
0.000511398
0.000511402
0.000511406
0.00051141
0.000511415
0.00051142
0.000511425
0.00051143
0.000511436
0.000511441
0.000511448
0.000511454
0.000511461
0.000511468
0.000511475
0.000511483
0.000511491
0.000511499
0.000511508
0.000511517
0.000511526
0.000511536
0.000511546
0.000511557
0.000511568
0.00051158
0.000511592
0.000511605
0.000511619
0.000511633
0.000511647
0.000511663
0.000511679
0.000511697
0.000511715
0.000511734
0.000511753
0.000511774
0.000511796
0.000511818
0.000511843
0.000511869
0.000511898
0.000511929
0.000511962
0.000511996
0.000512031
0.000512067
0.000512104
0.000512143
0.000512183
0.000512227
0.000512274
0.000512325
0.000512379
0.000512437
0.000512496
0.000512557
0.000512616
0.000512683
0.00051273
0.00168305
0.00168451
0.00168476
0.00168469
0.00168437
0.00168425
0.00168459
0.00168526
0.00168558
0.00168549
0.00168482
0.00168352
0.0016818
0.00167992
0.00147245
0.0014719
0.00147154
0.00147136
0.00147133
0.00147146
0.00147187
0.00147246
0.00147319
0.00147411
0.00147522
0.00147653
0.00147812
0.00147998
0.00148205
0.00148437
0.00148687
0.00148946
0.00149223
0.00149533
0.00149877
0.00150249
0.00150631
0.0015099
0.001513
0.00151588
0.00151886
0.00152215
0.00152572
0.00152926
0.00153219
0.00153481
0.00153752
0.00154048
0.00154356
0.00154607
0.00154664
0.00154572
0.00154265
0.00153731
0.0015305
0.00152227
0.00151164
0.0014974
0.00147751
0.00144937
0.00141097
0.00136194
0.00130285
0.00123423
0.00115649
0.00106941
0.000972803
0.000874296
0.000783222
0.000704618
0.000642057
0.000599785
0.000575886
0.000560522
0.000549489
0.000541436
0.00053512
0.000529645
0.000524839
0.000520858
0.000517925
0.000516011
0.0005148
0.000513995
0.000513427
0.000512996
0.00051264
0.000512336
0.000512079
0.000511879
0.000511737
0.000511642
0.000511579
0.000511535
0.000511503
0.00051148
0.000511461
0.000511445
0.000511431
0.000511419
0.000511408
0.0005114
0.000511394
0.00051139
0.000511387
0.000511387
0.000511387
0.000511388
0.000511389
0.000511391
0.000511393
0.000511395
0.000511398
0.0005114
0.000511403
0.000511406
0.000511409
0.000511412
0.000511415
0.000511418
0.000511421
0.000511425
0.000511428
0.000511432
0.000511436
0.00051144
0.000511444
0.000511449
0.000511453
0.000511458
0.000511463
0.000511469
0.000511475
0.000511481
0.000511487
0.000511494
0.000511501
0.000511508
0.000511516
0.000511525
0.000511533
0.000511543
0.000511553
0.000511563
0.000511574
0.000511585
0.000511597
0.000511609
0.000511623
0.000511637
0.000511651
0.000511666
0.000511683
0.000511699
0.000511717
0.000511736
0.000511755
0.000511775
0.000511796
0.000511818
0.000511841
0.000511865
0.000511891
0.000511918
0.000511946
0.000511976
0.000512008
0.000512042
0.000512077
0.000512115
0.000512155
0.000512197
0.000512242
0.000512289
0.00051234
0.000512393
0.000512449
0.000512507
0.000512568
0.000512632
0.000512699
0.000512769
0.000512843
0.000512922
0.000513005
0.000513092
0.000513184
0.000513279
0.000513376
0.000513476
0.000513578
0.000513685
0.000513799
0.000513922
0.000514055
0.000514199
0.000514352
0.000514512
0.000514675
0.000514841
0.00051501
0.000515184
0.000515366
0.000515563
0.000515765
0.000516004
0.000516233
0.0016908
0.00169079
0.00169013
0.00168888
0.00168713
0.00168508
0.00168334
0.00168212
0.0016811
0.00168002
0.00167868
0.00167698
0.00167499
0.00167282
0.00145316
0.00145324
0.00145356
0.00145408
0.00145473
0.00145552
0.0014565
0.00145766
0.00145897
0.00146044
0.0014621
0.00146401
0.00146617
0.00146857
0.0014712
0.00147401
0.00147693
0.00147997
0.00148326
0.00148691
0.00149092
0.00149514
0.00149934
0.00150329
0.00150706
0.00151083
0.00151472
0.00151873
0.00152271
0.00152641
0.00152979
0.00153307
0.00153642
0.00153983
0.00154307
0.00154591
0.00154867
0.00155156
0.00155454
0.00155756
0.0015603
0.0015617
0.00156154
0.00155992
0.00155652
0.00155195
0.00154642
0.00153889
0.00152782
0.0015117
0.00148845
0.00145557
0.00141117
0.00135494
0.0012873
0.00120866
0.00111944
0.00101988
0.000913865
0.000813167
0.000725488
0.000654904
0.000605493
0.000577673
0.000561353
0.000550099
0.000541967
0.000535662
0.000530234
0.000525479
0.000521549
0.000518609
0.000516631
0.00051535
0.000514486
0.000513871
0.000513413
0.000513045
0.000512734
0.000512465
0.000512237
0.000512054
0.000511915
0.000511814
0.000511743
0.000511691
0.000511655
0.000511629
0.000511611
0.000511598
0.000511589
0.000511581
0.000511576
0.000511572
0.00051157
0.000511569
0.000511571
0.000511574
0.000511579
0.000511585
0.000511593
0.000511602
0.000511611
0.000511621
0.000511631
0.000511642
0.000511653
0.000511665
0.000511677
0.000511689
0.000511701
0.000511715
0.000511728
0.000511743
0.000511758
0.000511773
0.000511789
0.000511806
0.000511824
0.000511842
0.000511862
0.000511882
0.000511903
0.000511926
0.000511949
0.000511974
0.000512
0.000512028
0.000512057
0.000512088
0.000512121
0.000512156
0.000512193
0.000512233
0.000512275
0.00051232
0.000512368
0.000512419
0.000512473
0.00051253
0.000512591
0.000512655
0.000512722
0.000512794
0.000512869
0.000512949
0.000513032
0.000513119
0.00051321
0.000513305
0.000513403
0.000513505
0.000513611
0.000513723
0.000513841
0.000513965
0.000514095
0.000514233
0.000514377
0.000514528
0.000514686
0.000514854
0.00051503
0.000515217
0.000515415
0.000515624
0.000515844
0.000516076
0.00051632
0.000516574
0.000516839
0.000517118
0.000517411
0.000517725
0.000518063
0.000518431
0.000518833
0.00051927
0.000519738
0.000520231
0.000520742
0.000521269
0.000521814
0.000522388
0.000523001
0.000523668
0.000524393
0.000525178
0.000526011
0.000526891
0.000527762
0.000528725
0.000529598
0.00168636
0.00168498
0.0016834
0.00168151
0.00167934
0.00167696
0.00167438
0.00167191
0.00166978
0.00166797
0.00166632
0.00166467
0.00166295
0.00166112
0.00143431
0.00143501
0.00143591
0.00143699
0.00143821
0.00143957
0.00144107
0.00144272
0.0014445
0.00144644
0.00144858
0.00145094
0.00145355
0.00145638
0.00145942
0.00146261
0.00146594
0.00146943
0.00147319
0.00147726
0.00148162
0.00148613
0.0014906
0.00149496
0.00149926
0.0015036
0.00150801
0.00151239
0.00151665
0.00152071
0.0015247
0.00152872
0.00153273
0.00153659
0.00154014
0.00154346
0.00154674
0.00155008
0.00155348
0.0015567
0.0015594
0.00156199
0.00156499
0.00156803
0.00157101
0.00157394
0.00157641
0.00157731
0.00157656
0.0015744
0.0015712
0.00156717
0.00156187
0.00155365
0.00154026
0.00151952
0.00148929
0.00144758
0.00139313
0.00132557
0.00124498
0.00115214
0.00104843
0.000937267
0.000830448
0.000737695
0.000663398
0.000610809
0.000580605
0.000563926
0.000552595
0.000544363
0.000538135
0.000532912
0.000528258
0.00052424
0.000520995
0.000518583
0.000516918
0.00051579
0.000514998
0.000514415
0.000513975
0.00051363
0.000513344
0.000513094
0.000512874
0.000512679
0.000512513
0.000512376
0.000512269
0.000512192
0.00051214
0.000512108
0.000512093
0.000512088
0.000512093
0.000512103
0.000512117
0.000512136
0.000512157
0.000512181
0.000512206
0.000512233
0.000512262
0.000512293
0.000512325
0.000512359
0.000512394
0.000512431
0.00051247
0.000512511
0.000512553
0.000512597
0.000512643
0.000512692
0.000512743
0.000512797
0.000512854
0.000512915
0.000512979
0.000513047
0.000513118
0.000513194
0.000513274
0.000513359
0.00051345
0.000513545
0.000513645
0.00051375
0.00051386
0.000513976
0.000514097
0.000514224
0.000514358
0.000514499
0.000514648
0.000514806
0.000514972
0.000515147
0.000515332
0.000515528
0.000515734
0.000515951
0.000516179
0.000516417
0.000516666
0.000516927
0.000517201
0.000517491
0.000517797
0.000518121
0.000518465
0.000518829
0.000519214
0.000519623
0.000520059
0.000520523
0.000521019
0.000521552
0.000522123
0.000522735
0.000523388
0.000524082
0.000524816
0.000525587
0.000526397
0.000527245
0.000528135
0.000529074
0.000530066
0.000531118
0.000532232
0.000533406
0.000534629
0.000535887
0.000537173
0.000538488
0.000539854
0.000541304
0.00054288
0.000544617
0.000546536
0.000548632
0.000550884
0.000553239
0.000555672
0.000558145
0.000560655
0.000563302
0.000565912
0.000568848
0.000572432
0.00167439
0.00167214
0.00167011
0.00166819
0.00166623
0.00166421
0.00166203
0.00165977
0.00165759
0.00165559
0.00165377
0.00165208
0.00165045
0.00141596
0.00141719
0.00141859
0.00142014
0.00142184
0.00142365
0.00142559
0.00142764
0.00142982
0.00143216
0.00143469
0.00143743
0.0014404
0.00144358
0.00144696
0.0014505
0.00145421
0.00145812
0.00146227
0.00146668
0.0014713
0.00147602
0.00148077
0.0014855
0.00149025
0.00149502
0.00149979
0.00150449
0.00150905
0.00151351
0.00151799
0.00152248
0.00152691
0.00153113
0.00153511
0.00153896
0.0015428
0.00154666
0.0015504
0.00155379
0.00155698
0.00156031
0.00156374
0.00156718
0.00157068
0.00157419
0.00157748
0.00158067
0.00158388
0.00158724
0.00159106
0.00159528
0.00159899
0.00160074
0.00160061
0.00159943
0.00159757
0.00159428
0.00158749
0.00157494
0.00155439
0.00152378
0.00148144
0.0014258
0.00135624
0.00127296
0.00117738
0.00107226
0.000961381
0.000854541
0.000761848
0.000686763
0.000630518
0.000593828
0.000573572
0.000560858
0.000551457
0.000544432
0.000539031
0.000534482
0.000530401
0.000526811
0.000523789
0.00052134
0.000519442
0.00051803
0.000516999
0.000516235
0.000515655
0.00051521
0.000514871
0.000514612
0.000514407
0.000514238
0.000514099
0.000513989
0.000513909
0.000513859
0.000513838
0.000513843
0.000513867
0.000513913
0.000513978
0.000514056
0.000514145
0.000514242
0.000514347
0.000514457
0.000514571
0.000514689
0.000514811
0.000514938
0.00051507
0.000515208
0.000515352
0.000515502
0.000515659
0.000515823
0.000515994
0.000516173
0.000516362
0.000516561
0.000516771
0.000516994
0.000517229
0.000517475
0.000517733
0.000518003
0.000518287
0.000518588
0.000518909
0.000519249
0.000519611
0.000519997
0.000520407
0.000520844
0.000521311
0.00052181
0.000522343
0.000522913
0.000523523
0.000524175
0.00052487
0.000525612
0.000526402
0.000527244
0.00052814
0.000529089
0.000530087
0.00053113
0.00053221
0.000533327
0.000534484
0.000535688
0.000536946
0.000538267
0.000539659
0.000541129
0.000542682
0.000544322
0.000546055
0.000547889
0.000549836
0.000551911
0.000554131
0.000556512
0.000559068
0.000561803
0.000564712
0.000567778
0.000570983
0.000574313
0.000577766
0.000581369
0.000585184
0.000589306
0.000593844
0.000598906
0.000604563
0.000610829
0.000617647
0.000624918
0.000632555
0.000640595
0.00064917
0.000658669
0.000669206
0.000681502
0.00069501
0.000710974
0.000727693
0.000744631
0.000770561
0.00166128
0.00165895
0.00165681
0.00165483
0.00165296
0.00165111
0.00164922
0.00164727
0.00164529