/*--------------------------------*- C++ -*----------------------------------*\
| =========                 |                                                 |
| \\      /  F ield         | OpenFOAM: The Open Source CFD Toolbox           |
|  \\    /   O peration     | Version:  v1706                                 |
|   \\  /    A nd           | Web:      www.OpenFOAM.com                      |
|    \\/     M anipulation  |                                                 |
\*---------------------------------------------------------------------------*/
FoamFile
{
    version     2.0;
    format      ascii;
    class       volVectorField;
    location    "3.4e-05";
    object      U;
}
// * * * * * * * * * * * * * * * * * * * * * * * * * * * * * * * * * * * * * //

dimensions      [0 1 -1 0 0 0 0];


internalField   nonuniform List<vector> 
30104
(
(978.076 0.607732 3.93586e-15)
(977.998 0.702641 6.35375e-15)
(977.907 0.8126 5.37407e-15)
(977.803 0.938234 4.0477e-15)
(977.686 1.07894 5.38997e-15)
(977.557 1.23488 4.45173e-15)
(977.415 1.40609 1.58616e-15)
(977.26 1.59341 2.56298e-15)
(977.091 1.80044 5.4926e-15)
(976.903 2.03346 7.0499e-15)
(976.691 2.30033 5.15361e-15)
(976.447 2.60972 4.262e-15)
(976.164 2.96967 2.4312e-15)
(975.831 3.39068 4.89103e-15)
(975.447 3.87491 6.70249e-15)
(975.004 4.43184 6.43552e-15)
(974.491 5.07082 5.50804e-15)
(957.812 38.6228 2.58664e-15)
(959.259 36.4336 4.44672e-15)
(960.735 34.0953 4.05959e-15)
(962.227 31.6109 3.89625e-15)
(963.742 28.9697 3.80683e-15)
(965.269 26.2125 3.82483e-15)
(966.719 23.436 3.27107e-15)
(968.13 20.5375 4.72317e-15)
(969.751 17.4341 3.98209e-15)
(971.413 14.4658 2.91278e-15)
(972.728 11.9725 3.31179e-15)
(973.731 10.1388 2.6526e-15)
(974.586 8.7412 4.9904e-15)
(975.301 7.57596 3.5817e-15)
(975.886 6.53866 1.0368e-15)
(976.349 5.61647 2.43366e-15)
(976.668 4.85583 2.77624e-15)
(976.845 4.26722 3.06874e-15)
(976.95 3.77886 5.0184e-15)
(977.079 3.30985 2.08294e-15)
(977.259 2.84822 5.08496e-15)
(977.455 2.42195 5.04376e-15)
(977.635 2.03669 3.03255e-15)
(977.798 1.67576 3.41329e-15)
(977.955 1.33377 3.04802e-15)
(978.1 1.03242 3.31252e-15)
(978.221 0.793585 3.08252e-15)
(978.316 0.617383 3.12069e-15)
(978.386 0.487778 3.03872e-15)
(978.434 0.391576 3.49699e-15)
(978.462 0.321441 2.04054e-15)
(978.477 0.2704 4.08933e-15)
(978.486 0.229789 4.58772e-15)
(978.497 0.193055 3.34662e-15)
(978.509 0.159065 2.03791e-15)
(978.522 0.128724 2.30756e-15)
(978.534 0.101717 5.13983e-15)
(978.544 0.0776487 2.3926e-15)
(978.554 0.0572855 3.42421e-15)
(978.562 0.041583 4.2742e-15)
(978.568 0.0304826 2.75124e-15)
(978.572 0.0229658 3.83343e-15)
(978.574 0.0179546 3.47327e-15)
(978.575 0.0146055 4.57771e-15)
(978.576 0.0121367 4.80569e-15)
(978.576 0.00993122 3.32112e-15)
(978.577 0.00786872 3.36126e-15)
(978.577 0.00604909 2.72157e-15)
(978.578 0.00446266 3.75686e-15)
(978.579 0.00311926 1.2664e-15)
(978.579 0.00209295 5.14491e-15)
(978.58 0.00141536 2.93747e-15)
(978.58 0.00100994 1.7955e-15)
(978.58 0.00077059 2.61588e-15)
(978.58 0.000619487 3.97708e-15)
(978.58 0.000493288 6.8285e-16)
(978.58 0.000370146 3.85043e-15)
(978.58 0.000263453 3.64162e-15)
(978.58 0.000176866 2.72094e-15)
(978.58 0.000111231 2.62293e-15)
(978.58 7.07896e-05 1.86106e-15)
(978.58 4.98828e-05 3.97801e-15)
(978.58 3.87152e-05 3.93588e-15)
(978.58 3.08658e-05 2.44671e-15)
(978.58 2.30649e-05 5.5021e-15)
(978.58 1.63523e-05 4.03575e-15)
(978.58 1.11778e-05 3.62325e-15)
(978.58 7.45763e-06 4.13777e-15)
(978.58 5.45221e-06 3.66646e-15)
(978.58 4.50716e-06 3.63422e-15)
(978.58 3.9888e-06 3.29765e-15)
(978.58 3.49436e-06 2.58573e-15)
(978.58 2.97868e-06 3.02108e-15)
(978.58 2.54235e-06 1.61791e-15)
(978.58 2.15715e-06 4.11815e-15)
(978.58 1.84829e-06 3.56099e-15)
(978.58 1.69287e-06 3.03871e-15)
(978.58 1.64408e-06 1.91752e-16)
(978.58 1.64181e-06 -5.85291e-16)
(978.58 1.65321e-06 3.84498e-15)
(978.58 1.66579e-06 9.93687e-16)
(978.58 1.67424e-06 2.88726e-15)
(978.58 1.67594e-06 1.52947e-15)
(978.58 1.67321e-06 2.25356e-15)
(978.58 1.66825e-06 4.44255e-15)
(978.58 1.66395e-06 4.15547e-15)
(978.58 1.66486e-06 3.57986e-15)
(978.58 1.6726e-06 2.50333e-15)
(978.58 1.68688e-06 3.05599e-15)
(978.58 1.70722e-06 3.88159e-15)
(978.58 1.7326e-06 3.30233e-15)
(978.58 1.76175e-06 4.26344e-15)
(978.58 1.79367e-06 4.51413e-15)
(978.58 1.82787e-06 2.60665e-15)
(978.58 1.86422e-06 1.27923e-15)
(978.58 1.90267e-06 2.85442e-15)
(978.58 1.94313e-06 4.86459e-16)
(978.58 1.98531e-06 7.73267e-16)
(978.58 2.02883e-06 3.37897e-15)
(978.58 2.07329e-06 3.21878e-15)
(978.58 2.11833e-06 3.21333e-15)
(978.58 2.16367e-06 2.7536e-15)
(978.58 2.20913e-06 2.0336e-15)
(978.58 2.25462e-06 2.4043e-15)
(978.58 2.30015e-06 2.23684e-15)
(978.58 2.34589e-06 2.82553e-15)
(978.58 2.39218e-06 1.69904e-15)
(978.58 2.43953e-06 1.57932e-15)
(978.58 2.48838e-06 3.82241e-15)
(978.58 2.53904e-06 3.69148e-15)
(978.58 2.59146e-06 2.8897e-15)
(978.58 2.64538e-06 3.14219e-15)
(978.58 2.70038e-06 2.99186e-15)
(978.58 2.75614e-06 2.49511e-15)
(978.58 2.81259e-06 1.74359e-15)
(978.58 2.86994e-06 2.35573e-15)
(978.58 2.92872e-06 2.62544e-15)
(978.58 2.98968e-06 2.93504e-15)
(978.58 3.05361e-06 2.84954e-15)
(978.58 3.12133e-06 2.3546e-15)
(978.58 3.19353e-06 2.86958e-15)
(978.58 3.2708e-06 1.68752e-15)
(978.58 3.3536e-06 3.81181e-15)
(978.58 3.44228e-06 3.05666e-15)
(978.58 3.53708e-06 4.0903e-16)
(978.58 3.63818e-06 3.71224e-16)
(978.58 3.7457e-06 1.10453e-15)
(978.58 3.85968e-06 1.39445e-15)
(978.58 3.98006e-06 1.99025e-15)
(978.58 4.10675e-06 1.77646e-15)
(978.58 4.23966e-06 2.51884e-15)
(978.58 4.37878e-06 2.13299e-15)
(978.58 4.52435e-06 1.83761e-15)
(978.58 4.67685e-06 2.37396e-15)
(978.58 4.83697e-06 1.57509e-15)
(978.58 5.00532e-06 2.50679e-15)
(978.58 5.18223e-06 1.33616e-15)
(978.58 5.3675e-06 2.7962e-15)
(978.58 5.56043e-06 2.29996e-15)
(978.58 5.75995e-06 2.43914e-15)
(978.58 5.96481e-06 3.71101e-15)
(978.58 6.1739e-06 3.69818e-15)
(978.58 6.38647e-06 2.85866e-15)
(978.58 6.60226e-06 2.92278e-15)
(978.58 6.82135e-06 1.83083e-15)
(978.58 7.04395e-06 2.94763e-15)
(978.58 7.27004e-06 4.13206e-15)
(978.58 7.4992e-06 3.11656e-15)
(978.58 7.73068e-06 1.67167e-15)
(978.58 7.96371e-06 2.11115e-15)
(978.58 8.19791e-06 3.15906e-15)
(978.58 8.4336e-06 1.40475e-15)
(978.58 8.67181e-06 2.66521e-15)
(978.58 8.91414e-06 2.10722e-15)
(978.58 9.16235e-06 2.76332e-15)
(978.58 9.41801e-06 3.23935e-15)
(978.58 9.6822e-06 2.71584e-15)
(978.58 9.95526e-06 3.06715e-15)
(978.58 1.02369e-05 2.1596e-15)
(978.58 1.05266e-05 1.24521e-15)
(978.58 1.08251e-05 1.68988e-15)
(978.58 1.11351e-05 2.66753e-15)
(978.58 1.14624e-05 1.10188e-15)
(978.58 1.18148e-05 2.46003e-15)
(978.58 1.22009e-05 2.2018e-15)
(978.58 1.26264e-05 2.62501e-15)
(978.58 1.30927e-05 3.52365e-15)
(978.58 1.35957e-05 2.07013e-15)
(978.58 1.41271e-05 1.59382e-15)
(978.58 1.4675e-05 7.96796e-16)
(978.58 1.52256e-05 2.86702e-15)
(978.58 1.57673e-05 1.88811e-15)
(978.58 1.62954e-05 1.9089e-15)
(978.58 1.68172e-05 1.88432e-15)
(978.58 1.73562e-05 1.36971e-15)
(978.58 1.79476e-05 1.36904e-15)
(978.58 1.86225e-05 2.71312e-15)
(978.58 1.93895e-05 2.0064e-15)
(978.58 2.02361e-05 1.14517e-15)
(978.58 2.11321e-05 1.35422e-15)
(978.58 2.20306e-05 1.24115e-15)
(978.58 2.28825e-05 2.10628e-15)
(978.58 2.36566e-05 2.1435e-15)
(978.58 2.43469e-05 1.7619e-15)
(978.58 2.49679e-05 2.67431e-15)
(978.58 2.55552e-05 2.30201e-15)
(978.58 2.6153e-05 2.17181e-15)
(978.58 2.68184e-05 3.00275e-15)
(978.58 2.75735e-05 3.06037e-15)
(978.58 2.84645e-05 2.39048e-15)
(978.58 2.95152e-05 2.12178e-15)
(978.58 3.03202e-05 1.87868e-15)
(978.58 2.83987e-05 1.66798e-15)
(975.164 3.65078 1.45912e-14)
(974.677 4.17801 1.43648e-14)
(974.124 4.78121 1.23732e-14)
(973.493 5.47422 1.25773e-14)
(972.77 6.27428 1.33976e-14)
(971.945 7.19191 1.29172e-14)
(971.001 8.24414 1.22211e-14)
(969.913 9.45205 1.40726e-14)
(968.66 10.8309 1.54837e-14)
(967.234 12.388 1.38685e-14)
(965.636 14.1243 1.42972e-14)
(963.884 16.0372 1.61654e-14)
(961.999 18.1272 1.67821e-14)
(960.007 20.3884 1.52943e-14)
(957.895 22.848 1.52479e-14)
(955.649 25.4956 1.44026e-14)
(953.185 28.3872 1.22375e-14)
(874.212 203.28 3.41437e-15)
(881.563 192.414 5.911e-15)
(888.908 181.092 7.94483e-15)
(896.188 169.349 7.85514e-15)
(903.344 157.28 7.41167e-15)
(910.327 145.037 7.98614e-15)
(917.12 132.689 7.2918e-15)
(923.724 120.278 8.47826e-15)
(930.025 108.105 9.64037e-15)
(935.677 96.4168 7.64986e-15)
(940.25 85.7468 5.28483e-15)
(943.939 77.0137 7.74437e-15)
(947.576 69.4182 8.0095e-15)
(951.287 62.2443 7.14392e-15)
(954.959 55.1735 5.24836e-15)
(958.488 48.1094 7.0196e-15)
(961.892 40.9555 7.70028e-15)
(965.119 33.8884 7.689e-15)
(967.797 27.6072 1.12017e-14)
(969.77 22.6851 9.1532e-15)
(971.306 18.9454 1.01851e-14)
(972.6 15.9365 1.0514e-14)
(973.695 13.3749 9.51278e-15)
(974.568 11.1866 9.40949e-15)
(975.205 9.37668 8.66985e-15)
(975.663 7.89107 8.5142e-15)
(976.045 6.63442 8.42856e-15)
(976.419 5.54894 8.23455e-15)
(976.783 4.61008 8.10913e-15)
(977.116 3.78859 8.80621e-15)
(977.414 3.05364 7.18865e-15)
(977.675 2.40325 1.00962e-14)
(977.891 1.86196 8.84373e-15)
(978.06 1.44266 8.23041e-15)
(978.187 1.12823 5.87778e-15)
(978.279 0.891193 8.31986e-15)
(978.343 0.711006 9.48312e-15)
(978.386 0.573535 7.43059e-15)
(978.416 0.466084 7.50243e-15)
(978.443 0.378167 1.04773e-14)
(978.468 0.304373 9.15581e-15)
(978.49 0.242106 1.1287e-14)
(978.511 0.188872 8.02598e-15)
(978.528 0.143264 8.85257e-15)
(978.543 0.10591 1.09662e-14)
(978.554 0.0776551 8.6073e-15)
(978.562 0.0575383 6.09688e-15)
(978.567 0.0434099 6.42435e-15)
(978.57 0.0333604 9.70158e-15)
(978.572 0.0260022 6.22503e-15)
(978.573 0.0202881 8.8621e-15)
(978.575 0.0156303 8.91682e-15)
(978.576 0.0117958 8.4541e-15)
(978.577 0.00862028 7.82702e-15)
(978.578 0.00604447 6.13539e-15)
(978.579 0.00412762 6.12769e-15)
(978.579 0.00284697 8.59785e-15)
(978.579 0.00203279 8.47473e-15)
(978.58 0.00150225 1.00082e-14)
(978.58 0.00112585 8.10554e-15)
(978.58 0.000831075 6.70212e-15)
(978.58 0.000596283 7.49999e-15)
(978.58 0.00041342 8.06257e-15)
(978.58 0.000277287 7.23044e-15)
(978.58 0.000187066 9.55843e-15)
(978.58 0.000133465 9.01085e-15)
(978.58 0.00010108 7.07756e-15)
(978.58 7.86407e-05 6.50517e-15)
(978.58 6.0709e-05 9.32518e-15)
(978.58 4.62733e-05 7.74413e-15)
(978.58 3.50044e-05 7.58916e-15)
(978.58 2.66242e-05 7.17616e-15)
(978.58 2.12299e-05 7.15431e-15)
(978.58 1.82235e-05 7.02551e-15)
(978.58 1.65512e-05 1.05041e-14)
(978.58 1.54554e-05 8.0451e-15)
(978.58 1.44913e-05 7.03971e-15)
(978.58 1.35792e-05 5.03665e-15)
(978.58 1.2799e-05 5.59262e-15)
(978.58 1.21276e-05 5.19106e-15)
(978.58 1.16286e-05 3.45599e-15)
(978.58 1.13025e-05 5.01727e-15)
(978.58 1.1155e-05 6.85034e-15)
(978.58 1.11486e-05 7.68571e-15)
(978.58 1.11985e-05 7.56987e-15)
(978.58 1.13119e-05 6.92492e-15)
(978.58 1.14946e-05 5.8895e-15)
(978.58 1.17145e-05 5.91418e-15)
(978.58 1.19494e-05 7.24226e-15)
(978.58 1.21922e-05 7.20769e-15)
(978.58 1.24414e-05 7.88152e-15)
(978.58 1.26955e-05 7.3764e-15)
(978.58 1.29535e-05 7.23688e-15)
(978.58 1.3215e-05 5.27863e-15)
(978.58 1.34794e-05 3.82682e-15)
(978.58 1.37455e-05 6.33006e-15)
(978.58 1.40126e-05 3.35673e-15)
(978.58 1.42805e-05 5.71644e-15)
(978.58 1.45503e-05 7.05064e-15)
(978.58 1.48236e-05 5.71867e-15)
(978.58 1.51025e-05 6.61281e-15)
(978.58 1.53888e-05 5.08199e-15)
(978.58 1.56842e-05 6.02922e-15)
(978.58 1.59901e-05 7.14689e-15)
(978.58 1.63078e-05 7.18125e-15)
(978.58 1.66383e-05 5.89436e-15)
(978.58 1.69817e-05 5.57192e-15)
(978.58 1.73377e-05 6.86627e-15)
(978.58 1.77059e-05 6.11414e-15)
(978.58 1.80868e-05 6.36886e-15)
(978.58 1.84822e-05 9.13196e-15)
(978.58 1.88957e-05 8.71841e-15)
(978.58 1.93318e-05 5.37501e-15)
(978.58 1.97946e-05 6.2528e-15)
(978.58 2.02876e-05 6.00296e-15)
(978.58 2.08128e-05 5.29795e-15)
(978.58 2.1371e-05 8.51068e-15)
(978.58 2.19623e-05 8.53474e-15)
(978.58 2.25861e-05 6.61279e-15)
(978.58 2.32415e-05 7.1209e-15)
(978.58 2.39277e-05 5.07243e-15)
(978.58 2.46438e-05 5.31449e-15)
(978.58 2.53896e-05 9.31066e-15)
(978.58 2.61651e-05 7.70937e-15)
(978.58 2.69709e-05 4.77756e-15)
(978.58 2.78075e-05 4.2645e-15)
(978.58 2.86755e-05 4.21679e-15)
(978.58 2.95757e-05 4.00353e-15)
(978.58 3.05087e-05 3.73489e-15)
(978.58 3.14755e-05 4.76634e-15)
(978.58 3.2477e-05 6.20771e-15)
(978.58 3.35141e-05 3.66858e-15)
(978.58 3.45871e-05 4.82188e-15)
(978.58 3.5695e-05 5.22689e-15)
(978.58 3.68354e-05 6.57945e-15)
(978.58 3.80054e-05 6.64118e-15)
(978.58 3.92028e-05 4.95475e-15)
(978.58 4.04277e-05 4.84413e-15)
(978.58 4.16829e-05 5.56573e-15)
(978.58 4.29746e-05 6.90949e-15)
(978.58 4.43109e-05 7.31099e-15)
(978.58 4.57005e-05 7.23302e-15)
(978.58 4.7151e-05 6.68191e-15)
(978.58 4.86678e-05 6.43362e-15)
(978.58 5.02539e-05 6.34584e-15)
(978.58 5.19109e-05 5.89623e-15)
(978.58 5.36408e-05 5.13466e-15)
(978.58 5.54477e-05 6.50238e-15)
(978.58 5.7338e-05 5.00431e-15)
(978.58 5.93197e-05 4.81858e-15)
(978.58 6.14003e-05 5.43944e-15)
(978.58 6.35851e-05 5.25373e-15)
(978.58 6.58759e-05 6.59963e-15)
(978.58 6.82713e-05 6.32384e-15)
(978.58 7.07677e-05 5.85227e-15)
(978.58 7.33606e-05 6.6311e-15)
(978.58 7.60467e-05 5.55649e-15)
(978.58 7.88261e-05 6.99264e-15)
(978.58 8.17036e-05 5.9631e-15)
(978.58 8.46879e-05 4.45137e-15)
(978.58 8.77875e-05 5.75493e-15)
(978.58 9.10041e-05 5.04126e-15)
(978.58 9.43275e-05 4.56724e-15)
(978.58 9.77334e-05 4.32813e-15)
(978.58 0.000101187 3.74968e-15)
(978.58 0.000104652 4.86658e-15)
(978.58 0.000108105 6.42023e-15)
(978.58 0.000111542 6.6339e-15)
(978.58 0.000114988 5.08204e-15)
(978.58 0.000118496 5.66617e-15)
(978.58 0.00012214 4.77085e-15)
(978.58 0.000126008 3.45703e-15)
(978.58 0.000130173 5.35347e-15)
(978.58 0.00013466 5.75613e-15)
(978.58 0.000139417 4.65109e-15)
(978.58 0.00014431 5.04594e-15)
(978.58 0.000149168 5.14601e-15)
(978.58 0.00015386 5.03352e-15)
(978.58 0.000158358 4.53402e-15)
(978.58 0.000162764 4.11406e-15)
(978.58 0.000167282 4.38842e-15)
(978.58 0.00017217 4.23354e-15)
(978.58 0.000177659 4.363e-15)
(978.58 0.000183899 4.20566e-15)
(978.58 0.000190927 3.16808e-15)
(978.58 0.000198661 3.9062e-15)
(978.58 0.000206907 6.32151e-15)
(978.58 0.000215449 6.78451e-15)
(978.58 0.00022403 7.11288e-15)
(978.58 0.000232197 6.78344e-15)
(978.58 0.000240615 5.68e-15)
(978.58 0.00025226 4.31854e-15)
(978.58 0.000242241 4.00346e-15)
(966.288 12.7512 2.08631e-14)
(964.462 14.6573 2.25687e-14)
(962.41 16.7981 2.16391e-14)
(960.135 19.1829 2.19638e-14)
(957.654 21.8137 2.30781e-14)
(954.952 24.7228 2.12411e-14)
(952.012 27.9121 2.08121e-14)
(948.758 31.4378 2.13628e-14)
(945.035 35.4471 2.15386e-14)
(940.712 40.0826 2.10548e-14)
(935.739 45.4338 2.21436e-14)
(930.15 51.5194 2.29242e-14)
(924.047 58.2847 2.021e-14)
(917.51 65.6621 2.0703e-14)
(910.705 73.4609 2.24144e-14)
(903.467 81.8014 2.17427e-14)
(820.957 307.349 6.81666e-15)
(822.726 305.772 6.96594e-15)
(824.832 303.419 7.28572e-15)
(827.567 300.122 8.51394e-15)
(831.152 295.801 8.77422e-15)
(835.561 290.455 8.40614e-15)
(840.749 284.064 8.7624e-15)
(846.722 276.537 1.21855e-14)
(853.507 267.707 1.05022e-14)
(861.081 257.385 1.1845e-14)
(869.432 245.325 1.22745e-14)
(878.519 231.096 1.12471e-14)
(887.852 215.02 1.24e-14)
(897.129 197.702 1.11344e-14)
(906.289 179.548 9.28173e-15)
(915.306 160.775 9.65396e-15)
(924.004 141.746 1.02575e-14)
(931.941 123.151 1.22443e-14)
(938.609 105.685 1.32975e-14)
(943.713 90.7498 1.06559e-14)
(948.015 78.7537 1.36917e-14)
(952.184 68.4793 1.40868e-14)
(956.226 59.0497 1.31073e-14)
(960.062 50.022 1.36458e-14)
(963.651 41.3184 1.35851e-14)
(966.748 33.4269 1.26789e-14)
(969.1 27.0312 1.34542e-14)
(970.888 22.146 1.27177e-14)
(972.372 18.2683 1.25386e-14)
(973.61 15.0442 1.36727e-14)
(974.569 12.3592 1.22528e-14)
(975.253 10.1644 1.31162e-14)
(975.753 8.3629 1.29208e-14)
(976.181 6.86182 1.2918e-14)
(976.586 5.60883 1.20976e-14)
(976.958 4.55748 1.55319e-14)
(977.286 3.65563 1.08121e-14)
(977.573 2.87284 1.28852e-14)
(977.817 2.21607 1.36829e-14)
(978.011 1.70047 1.35073e-14)
(978.157 1.31379 1.35507e-14)
(978.263 1.02445 1.56085e-14)
(978.336 0.805403 1.20499e-14)
(978.384 0.638068 1.35958e-14)
(978.418 0.507278 1.25149e-14)
(978.448 0.401626 1.29202e-14)
(978.474 0.315328 1.45966e-14)
(978.498 0.244646 1.40679e-14)
(978.518 0.185907 1.34197e-14)
(978.535 0.13742 1.13169e-14)
(978.549 0.0996057 1.13119e-14)
(978.559 0.0722263 1.22324e-14)
(978.566 0.0531318 1.18097e-14)
(978.57 0.0397505 1.08794e-14)
(978.572 0.0300969 1.26946e-14)
(978.573 0.02277 1.45827e-14)
(978.575 0.0170097 1.13906e-14)
(978.576 0.0124724 1.20256e-14)
(978.577 0.00888354 1.42412e-14)
(978.578 0.0061171 1.3196e-14)
(978.579 0.00416437 1.31345e-14)
(978.579 0.00290155 1.21908e-14)
(978.579 0.00209492 1.29606e-14)
(978.58 0.00154925 1.31238e-14)
(978.58 0.00114701 1.02912e-14)
(978.58 0.000838494 1.02841e-14)
(978.58 0.000602474 1.41556e-14)
(978.58 0.000424301 1.16208e-14)
(978.58 0.000299267 1.19939e-14)
(978.58 0.000220491 1.35474e-14)
(978.58 0.000172286 1.0877e-14)
(978.58 0.000140536 1.09648e-14)
(978.58 0.000116777 1.26229e-14)
(978.58 9.75203e-05 1.28564e-14)
(978.58 8.18268e-05 1.06627e-14)
(978.58 6.91326e-05 9.86981e-15)
(978.58 5.93969e-05 1.27197e-14)
(978.58 5.29603e-05 1.06774e-14)
(978.58 4.94868e-05 1.03864e-14)
(978.58 4.77515e-05 8.66481e-15)
(978.58 4.69515e-05 1.02317e-14)
(978.58 4.66897e-05 1.17851e-14)
(978.58 4.66933e-05 1.26233e-14)
(978.58 4.67542e-05 1.08899e-14)
(978.58 4.67891e-05 1.09869e-14)
(978.58 4.68394e-05 1.07041e-14)
(978.58 4.6972e-05 9.77508e-15)
(978.58 4.72483e-05 8.89285e-15)
(978.58 4.76844e-05 9.04213e-15)
(978.58 4.82784e-05 1.05661e-14)
(978.58 4.90206e-05 1.24479e-14)
(978.58 4.98908e-05 1.07193e-14)
(978.58 5.08632e-05 9.75115e-15)
(978.58 5.19158e-05 1.01556e-14)
(978.58 5.30345e-05 8.26942e-15)
(978.58 5.42116e-05 9.55652e-15)
(978.58 5.54431e-05 8.61553e-15)
(978.58 5.6725e-05 1.13852e-14)
(978.58 5.80514e-05 9.8094e-15)
(978.58 5.94153e-05 9.05321e-15)
(978.58 6.08096e-05 1.01263e-14)
(978.58 6.22284e-05 9.87094e-15)
(978.58 6.36683e-05 9.95686e-15)
(978.58 6.51273e-05 1.19577e-14)
(978.58 6.66054e-05 1.16024e-14)
(978.58 6.81044e-05 8.06345e-15)
(978.58 6.96296e-05 9.30707e-15)
(978.58 7.11892e-05 1.18285e-14)
(978.58 7.27941e-05 1.04666e-14)
(978.58 7.44539e-05 1.15154e-14)
(978.58 7.61748e-05 1.2318e-14)
(978.58 7.79581e-05 1.09225e-14)
(978.58 7.98018e-05 8.97874e-15)
(978.58 8.17036e-05 9.86698e-15)
(978.58 8.36635e-05 9.84333e-15)
(978.58 8.56858e-05 9.60152e-15)
(978.58 8.77785e-05 1.04718e-14)
(978.58 8.99527e-05 1.08022e-14)
(978.58 9.22215e-05 9.85809e-15)
(978.58 9.46004e-05 1.05703e-14)
(978.58 9.7106e-05 1.03406e-14)
(978.58 9.97558e-05 9.50739e-15)
(978.58 0.000102566 1.06352e-14)
(978.58 0.000105549 1.06303e-14)
(978.58 0.000108717 9.97999e-15)
(978.58 0.000112076 9.02713e-15)
(978.58 0.000115634 8.43461e-15)
(978.58 0.000119395 9.19498e-15)
(978.58 0.000123366 6.51265e-15)
(978.58 0.000127551 7.71754e-15)
(978.58 0.00013195 7.95073e-15)
(978.58 0.000136566 7.69283e-15)
(978.58 0.000141397 1.03729e-14)
(978.58 0.000146446 8.85352e-15)
(978.58 0.000151718 8.92454e-15)
(978.58 0.000157228 8.6962e-15)
(978.58 0.000162991 8.61851e-15)
(978.58 0.000169022 8.89731e-15)
(978.58 0.000175326 1.03269e-14)
(978.58 0.000181899 9.14099e-15)
(978.58 0.000188728 8.97899e-15)
(978.58 0.00019579 9.15521e-15)
(978.58 0.000203063 9.2268e-15)
(978.58 0.000210533 9.22496e-15)
(978.58 0.000218197 8.24829e-15)
(978.58 0.000226061 8.10389e-15)
(978.58 0.000234141 8.77772e-15)
(978.58 0.000242449 1.00372e-14)
(978.58 0.000250993 8.64188e-15)
(978.58 0.000259768 8.00713e-15)
(978.58 0.000268766 8.66876e-15)
(978.58 0.000277979 8.15558e-15)
(978.58 0.00028741 8.59914e-15)
(978.58 0.000297074 7.076e-15)
(978.58 0.000307003 6.59515e-15)
(978.58 0.000317242 8.85915e-15)
(978.58 0.000327844 8.8161e-15)
(978.58 0.000338859 8.91844e-15)
(978.58 0.000350321 7.57216e-15)
(978.58 0.000362241 7.60513e-15)
(978.58 0.000374608 7.50643e-15)
(978.58 0.000387414 5.96954e-15)
(978.58 0.000400674 6.64602e-15)
(978.58 0.000414454 7.48025e-15)
(978.58 0.000428882 7.94196e-15)
(978.58 0.000444134 8.13373e-15)
(978.58 0.000460407 7.23076e-15)
(978.58 0.000477867 7.69164e-15)
(978.58 0.000496603 1.03186e-14)
(978.58 0.000516584 7.52645e-15)
(978.58 0.000537639 7.33277e-15)
(978.58 0.000559469 8.53015e-15)
(978.58 0.00058171 8.7117e-15)
(978.58 0.000604054 7.47095e-15)
(978.58 0.00062642 7.25783e-15)
(978.58 0.000649077 7.12112e-15)
(978.58 0.000672642 8.22424e-15)
(978.58 0.000697884 7.47409e-15)
(978.58 0.000725449 6.55224e-15)
(978.579 0.000755547 6.02683e-15)
(978.579 0.000787908 6.87039e-15)
(978.579 0.000821788 6.94563e-15)
(978.579 0.000856251 7.77598e-15)
(978.579 0.000890319 7.57792e-15)
(978.579 0.0009233 7.1544e-15)
(978.579 0.000954883 8.11663e-15)
(978.579 0.000985395 6.79485e-15)
(978.579 0.00101538 6.81694e-15)
(978.579 0.00104703 8.79305e-15)
(978.579 0.00107982 7.13647e-15)
(978.579 0.00111624 6.92088e-15)
(978.579 0.00118044 7.74684e-15)
(978.579 0.00115108 7.27567e-15)
(940.849 38.651 2.96818e-14)
(935.744 43.9711 2.85517e-14)
(929.925 50.0808 2.87955e-14)
(923.441 56.9812 3.19759e-14)
(916.356 64.6384 2.98294e-14)
(908.841 72.8796 2.74562e-14)
(900.758 81.7962 2.91013e-14)
(891.987 91.4231 2.83148e-14)
(882.326 101.862 2.78037e-14)
(871.726 113.226 2.98661e-14)
(860.315 125.492 3.19268e-14)
(848.282 138.563 2.89901e-14)
(835.824 152.295 2.78889e-14)
(823.135 166.517 2.57654e-14)
(810.431 181 2.67476e-14)
(797.92 195.508 2.49755e-14)
(819.53 323.091 5.49927e-15)
(821.072 322.085 5.03962e-15)
(822.592 321.158 5.25342e-15)
(824.108 320.658 5.30938e-15)
(825.701 320.744 7.80517e-15)
(827.293 321.231 6.56034e-15)
(828.765 321.907 5.7384e-15)
(830.107 322.533 6.18795e-15)
(831.433 322.846 8.09626e-15)
(832.889 322.602 8.37585e-15)
(834.643 321.493 8.01178e-15)
(836.951 319.182 9.66318e-15)
(839.983 315.463 9.10575e-15)
(843.796 310.259 1.05123e-14)
(848.456 303.532 1.1959e-14)
(854.001 295.239 1.24302e-14)
(860.406 285.315 1.21897e-14)
(867.575 273.618 1.19058e-14)
(875.419 259.904 1.20853e-14)
(884.033 243.692 1.45421e-14)
(893.256 224.824 1.64316e-14)
(902.706 204.017 1.83323e-14)
(912.221 182.051 1.74286e-14)
(921.599 159.609 1.62763e-14)
(930.352 137.549 1.52119e-14)
(937.873 116.731 1.63882e-14)
(943.799 98.2788 1.71417e-14)
(948.442 83.6189 1.72565e-14)
(952.8 71.5381 2.04961e-14)
(957.012 60.7611 1.86275e-14)
(961.01 50.6052 1.63459e-14)
(964.687 41.0262 1.9004e-14)
(967.74 32.6424 1.70506e-14)
(970.002 26.0677 1.78787e-14)
(971.738 21.0907 1.82874e-14)
(973.162 17.1491 1.87359e-14)
(974.283 13.9353 1.79637e-14)
(975.088 11.3323 1.91611e-14)
(975.651 9.22696 1.7972e-14)
(976.104 7.49448 1.55706e-14)
(976.526 6.06167 1.84601e-14)
(976.92 4.87239 1.67106e-14)
(977.271 3.86346 1.77073e-14)
(977.579 2.9944 1.85314e-14)
(977.839 2.26995 1.80329e-14)
(978.044 1.70848 1.7063e-14)
(978.193 1.29672 1.73161e-14)
(978.295 0.996384 1.62787e-14)
(978.362 0.773726 1.76434e-14)
(978.404 0.605241 1.44203e-14)
(978.436 0.473213 1.48346e-14)
(978.464 0.366765 1.81514e-14)
(978.491 0.28061 1.76459e-14)
(978.513 0.210262 1.66213e-14)
(978.533 0.152802 1.78889e-14)
(978.548 0.108255 1.77433e-14)
(978.559 0.0765904 1.58221e-14)
(978.566 0.0552539 1.61847e-14)
(978.57 0.0407814 1.78094e-14)
(978.572 0.030495 1.7502e-14)
(978.573 0.0226989 1.8051e-14)
(978.575 0.0166323 1.66835e-14)
(978.576 0.0119366 1.50431e-14)
(978.577 0.00832731 1.66984e-14)
(978.578 0.00570199 1.36352e-14)
(978.579 0.00396872 1.46566e-14)
(978.579 0.00287721 1.83161e-14)
(978.579 0.0021628 1.73512e-14)
(978.579 0.00165195 1.65773e-14)
(978.58 0.00125937 1.72432e-14)
(978.58 0.000953781 1.62439e-14)
(978.58 0.000715244 1.5706e-14)
(978.58 0.000534449 1.55393e-14)
(978.58 0.000410066 1.51926e-14)
(978.58 0.000332672 1.615e-14)
(978.58 0.000285086 1.45169e-14)
(978.58 0.000253792 1.59348e-14)
(978.58 0.00023076 1.48491e-14)
(978.58 0.000211551 1.58556e-14)
(978.58 0.000195503 1.49285e-14)
(978.58 0.000182288 1.61075e-14)
(978.58 0.000171683 1.5044e-14)
(978.58 0.000164009 1.46255e-14)
(978.58 0.000158885 1.45849e-14)
(978.58 0.000156553 1.60903e-14)
(978.58 0.000156272 1.51233e-14)
(978.58 0.000157203 1.41837e-14)
(978.58 0.000159223 1.32048e-14)
(978.58 0.000162167 1.2585e-14)
(978.58 0.000165663 1.57325e-14)
(978.58 0.000169478 1.66403e-14)
(978.58 0.000173483 1.47407e-14)
(978.58 0.000177603 1.53352e-14)
(978.58 0.000181802 1.49687e-14)
(978.58 0.000186068 1.33482e-14)
(978.58 0.000190396 1.31115e-14)
(978.58 0.000194774 1.32854e-14)
(978.58 0.000199192 1.37814e-14)
(978.58 0.000203649 1.41866e-14)
(978.58 0.000208158 1.28353e-14)
(978.58 0.000212742 1.45804e-14)
(978.58 0.00021743 1.38142e-14)
(978.58 0.000222247 1.4285e-14)
(978.58 0.000227214 1.45595e-14)
(978.58 0.000232354 1.40829e-14)
(978.58 0.000237684 1.27007e-14)
(978.58 0.000243216 1.463e-14)
(978.58 0.000248951 1.40091e-14)
(978.58 0.000254887 1.31416e-14)
(978.58 0.000261026 1.20106e-14)
(978.58 0.000267384 1.44022e-14)
(978.58 0.000274 1.52795e-14)
(978.58 0.000280927 1.25559e-14)
(978.58 0.000288222 1.27578e-14)
(978.58 0.000295932 1.29178e-14)
(978.58 0.000304095 1.12969e-14)
(978.58 0.00031274 1.28938e-14)
(978.58 0.000321894 1.28028e-14)
(978.58 0.000331578 1.47584e-14)
(978.58 0.000341809 1.6635e-14)
(978.58 0.000352591 1.34424e-14)
(978.58 0.00036392 1.24836e-14)
(978.58 0.000375788 1.38481e-14)
(978.58 0.000388194 1.43999e-14)
(978.58 0.000401143 1.38645e-14)
(978.58 0.000414653 1.37688e-14)
(978.58 0.000428743 1.16604e-14)
(978.58 0.000443435 1.28674e-14)
(978.58 0.000458746 1.44761e-14)
(978.58 0.000474688 1.25284e-14)
(978.58 0.000491275 1.24207e-14)
(978.58 0.000508523 1.15246e-14)
(978.58 0.000526452 1.16487e-14)
(978.58 0.000545082 1.14618e-14)
(978.58 0.000564421 1.18048e-14)
(978.58 0.000584458 1.20098e-14)
(978.58 0.000605164 1.31345e-14)
(978.58 0.000626501 1.30034e-14)
(978.58 0.000648449 1.13879e-14)
(978.58 0.00067103 1.13443e-14)
(978.58 0.000694317 1.03434e-14)
(978.58 0.000718439 1.18767e-14)
(978.58 0.000743556 1.241e-14)
(978.579 0.000769828 1.26042e-14)
(978.579 0.000797385 1.14278e-14)
(978.579 0.00082631 1.42109e-14)
(978.579 0.000856649 1.24233e-14)
(978.579 0.000888435 1.3168e-14)
(978.579 0.000921717 1.22647e-14)
(978.579 0.000956577 1.22194e-14)
(978.579 0.000993137 1.25321e-14)
(978.579 0.00103154 1.03817e-14)
(978.579 0.00107193 1.07433e-14)
(978.579 0.0011144 1.00175e-14)
(978.579 0.00115903 1.04684e-14)
(978.579 0.00120579 1.02415e-14)
(978.579 0.00125464 1.16593e-14)
(978.579 0.00130549 1.21497e-14)
(978.579 0.00135827 1.17401e-14)
(978.579 0.00141301 1.08897e-14)
(978.579 0.00146984 1.24017e-14)
(978.579 0.00152895 1.12063e-14)
(978.579 0.00159056 1.12038e-14)
(978.579 0.00165478 1.02567e-14)
(978.579 0.00172152 1.11862e-14)
(978.579 0.00179047 1.15995e-14)
(978.579 0.00186109 1.01354e-14)
(978.579 0.00193279 9.76847e-15)
(978.579 0.00200502 1.06564e-14)
(978.579 0.00207754 9.76453e-15)
(978.579 0.00215061 1.27581e-14)
(978.579 0.00222515 1.07798e-14)
(978.578 0.00230272 1.14676e-14)
(978.578 0.00238517 1.20835e-14)
(978.578 0.00247398 1.161e-14)
(978.578 0.00256954 1.02989e-14)
(978.578 0.00267077 1.23554e-14)
(978.578 0.00277546 1.05477e-14)
(978.578 0.00288093 1.00053e-14)
(978.578 0.00298521 9.78124e-15)
(978.578 0.00308764 1.04802e-14)
(978.578 0.00318968 9.142e-15)
(978.578 0.00329437 9.29949e-15)
(978.578 0.0034063 9.94842e-15)
(978.578 0.00353012 9.68589e-15)
(978.578 0.00366958 9.56657e-15)
(978.577 0.0038267 8.61857e-15)
(978.577 0.00399881 8.51258e-15)
(978.577 0.00418599 1.07267e-14)
(978.577 0.00437592 1.04665e-14)
(978.577 0.00456493 1.10603e-14)
(978.577 0.00483994 1.04207e-14)
(978.577 0.00475098 9.36217e-15)
(875.884 106.231 3.53389e-14)
(864.192 118.502 3.70855e-14)
(851.673 131.699 3.99976e-14)
(838.536 145.691 3.87892e-14)
(824.995 160.317 3.57098e-14)
(811.294 175.35 3.50982e-14)
(797.675 190.537 3.63206e-14)
(784.485 205.547 3.53177e-14)
(772.077 219.974 3.42429e-14)
(760.604 233.517 3.65807e-14)
(750.159 245.968 3.39893e-14)
(740.802 257.186 3.21132e-14)
(732.553 267.101 3.16675e-14)
(725.38 275.724 2.84708e-14)
(719.195 283.147 2.99751e-14)
(819.199 332.853 8.37895e-15)
(821.02 333.183 7.96056e-15)
(822.93 333.849 7.18764e-15)
(824.753 334.568 7.06193e-15)
(826.193 334.978 1.05656e-14)
(827.389 335.152 7.34619e-15)
(828.515 335.113 8.92884e-15)
(829.725 334.939 1.11399e-14)
(831.022 334.65 1.08769e-14)
(832.37 334.081 1.12887e-14)
(833.695 333.245 1.12682e-14)
(835.033 332.499 1.07244e-14)
(836.469 332.098 1.21662e-14)
(837.888 332.039 1.23701e-14)
(839.15 332.162 9.28537e-15)
(840.225 332.248 1.34278e-14)
(841.236 331.987 1.30159e-14)
(842.474 330.843 1.36024e-14)
(844.27 328.468 1.40843e-14)
(846.808 324.88 1.2939e-14)
(850.114 319.933 1.19255e-14)
(854.164 313.495 1.47544e-14)
(858.938 305.532 1.44151e-14)
(864.391 295.972 1.64698e-14)
(870.52 284.501 1.58904e-14)
(877.454 270.546 1.74653e-14)
(885.394 253.59 1.83493e-14)
(894.456 233.26 1.87439e-14)
(904.184 210.284 2.08006e-14)
(914.169 185.788 2.07137e-14)
(923.94 160.874 2.10648e-14)
(932.821 136.728 2.18886e-14)
(940.227 114.367 2.16214e-14)
(945.967 95.1957 2.30872e-14)
(950.62 80.2443 2.27314e-14)
(955.04 67.8404 2.40933e-14)
(959.283 56.6134 2.36674e-14)
(963.276 46.0252 2.39082e-14)
(966.792 36.415 2.20283e-14)
(969.501 28.5723 2.01361e-14)
(971.482 22.6995 2.00237e-14)
(973.037 18.2154 2.14918e-14)
(974.247 14.6421 2.15869e-14)
(975.107 11.7757 2.10839e-14)
(975.698 9.47333 1.98051e-14)
(976.168 7.59311 2.04619e-14)
(976.603 6.0532 2.13142e-14)
(977.007 4.78697 2.15461e-14)
(977.367 3.71989 2.2144e-14)
(977.681 2.81404 2.11399e-14)
(977.94 2.08222 2.23927e-14)
(978.133 1.53716 2.18459e-14)
(978.264 1.1499 2.25682e-14)
(978.348 0.873246 2.03031e-14)
(978.397 0.670358 2.10759e-14)
(978.431 0.515556 2.20371e-14)
(978.461 0.39291 2.18158e-14)
(978.489 0.295018 2.29282e-14)
(978.513 0.216524 1.98763e-14)
(978.534 0.153936 1.78686e-14)
(978.55 0.107021 2.194e-14)
(978.56 0.0749811 2.33858e-14)
(978.566 0.0540542 1.87263e-14)
(978.569 0.0400076 2.0335e-14)
(978.571 0.0299129 2.06931e-14)
(978.573 0.0222115 2.06481e-14)