/*--------------------------------*- C++ -*----------------------------------*\
| =========                 |                                                 |
| \\      /  F ield         | OpenFOAM: The Open Source CFD Toolbox           |
|  \\    /   O peration     | Version:  v1706                                 |
|   \\  /    A nd           | Web:      www.OpenFOAM.com                      |
|    \\/     M anipulation  |                                                 |
\*---------------------------------------------------------------------------*/
FoamFile
{
    version     2.0;
    format      ascii;
    class       volScalarField;
    location    "3.4e-05";
    object      wallHeatFlux;
}
// * * * * * * * * * * * * * * * * * * * * * * * * * * * * * * * * * * * * * //

dimensions      [1 0 -3 0 0 0 0];


internalField   uniform 0;

boundaryField
{
    cone
    {
        type            calculated;
        value           nonuniform List<scalar> 
119
(
-964.678
-995.876
-1025.81
-1054.06
-1080.36
-1104.63
-1126.84
-1147.01
-1165.29
-1181.87
-1196.96
-1210.79
-1223.56
-1235.51
-1246.82
-1257.65
-1268.17
-1278.47
-1288.66
-1298.8
-1308.95
-1319.14
-1329.38
-1339.7
-1350.07
-1360.5
-1370.96
-1381.41
-1391.83
-1402.16
-1412.35
-1422.35
-1432.08
-1441.47
-1450.46
-1458.94
-1466.86
-1474.12
-1480.64
-1486.35
-1491.19
-1495.1
-1498.03
-1499.89
-1500.7
-1500.41
-1499.04
-1496.57
-1493.02
-1488.4
-1482.76
-1476.12
-1468.52
-1460
-1450.61
-1440.37
-1429.32
-1417.49
-1404.91
-1391.6
-1377.58
-1362.84
-1347.4
-1331.26
-1314.41
-1296.85
-1278.58
-1259.58
-1239.86
-1219.39
-1198.16
-1176.17
-1153.39
-1129.81
-1105.4
-1080.14
-1054
-1026.95
-998.959
-969.991
-940.021
-909.03
-877.01
-843.969
-809.934
-774.951
-739.083
-702.414
-665.054
-627.164
-588.977
-550.837
-513.198
-476.567
-441.368
-407.761
-375.491
-343.884
-311.984
-278.811
-243.613
-206.049
-166.237
-124.692
-82.1857
-39.5347
2.59551
43.7519
83.6687
122.204
159.238
194.61
228.092
259.698
290.502
323.652
364.436
414.908
488.949
)
;
    }
    inlet
    {
        type            calculated;
        value           uniform 0;
    }
    rWedge
    {
        type            wedge;
    }
    lWedge
    {
        type            wedge;
    }
    outlet
    {
        type            calculated;
        value           uniform 0;
    }
    procBoundary0to1
    {
        type            processor;
        value           uniform 0;
    }
    procBoundary0to2
    {
        type            processor;
        value           uniform 0;
    }
}


// ************************************************************************* //
