/*--------------------------------*- C++ -*----------------------------------*\
| =========                 |                                                 |
| \\      /  F ield         | OpenFOAM: The Open Source CFD Toolbox           |
|  \\    /   O peration     | Version:  v1706                                 |
|   \\  /    A nd           | Web:      www.OpenFOAM.com                      |
|    \\/     M anipulation  |                                                 |
\*---------------------------------------------------------------------------*/
FoamFile
{
    version     2.0;
    format      ascii;
    class       volVectorField;
    location    "1.1e-05";
    object      U;
}
// * * * * * * * * * * * * * * * * * * * * * * * * * * * * * * * * * * * * * //

dimensions      [0 1 -1 0 0 0 0];


internalField   nonuniform List<vector> 
29987
(
(2764.5 -2.08826e-08 4.0792e-11)
(2764.5 -6.5602e-09 1.20156e-11)
(2764.5 -3.15989e-09 5.81344e-12)
(2764.5 -1.95767e-09 3.48545e-12)
(2764.5 -1.33647e-09 2.32683e-12)
(2764.5 -9.67375e-10 1.69092e-12)
(2764.5 -7.30785e-10 1.2865e-12)
(2764.5 -5.70019e-10 9.93532e-13)
(2764.5 -4.62475e-10 8.0139e-13)
(2764.5 -3.81913e-10 6.8734e-13)
(2764.5 -3.20275e-10 5.12672e-13)
(2764.5 -2.73361e-10 4.55267e-13)
(2764.5 -2.34587e-10 4.23822e-13)
(2764.5 -2.04137e-10 3.49952e-13)
(2764.5 -1.8549e-10 3.10748e-13)
(2764.5 -1.65601e-10 2.6107e-13)
(2764.5 -1.4473e-10 2.20484e-13)
(2764.5 -1.35221e-10 1.93286e-13)
(2764.5 -1.2048e-10 1.85024e-13)
(2764.5 -1.11275e-10 1.72852e-13)
(2764.5 -1.00747e-10 1.64897e-13)
(2764.5 -9.66969e-11 1.39713e-13)
(2764.5 -8.76637e-11 1.33039e-13)
(2764.5 -8.19503e-11 1.14622e-13)
(2764.5 -7.55355e-11 1.19421e-13)
(2764.5 -7.28615e-11 1.12371e-13)
(2764.5 -6.51585e-11 9.04534e-14)
(2764.5 -6.63388e-11 7.8963e-14)
(2764.5 -5.98771e-11 8.60586e-14)
(2764.5 -5.76621e-11 7.88348e-14)
(2764.5 -5.39494e-11 8.539e-14)
(2764.5 -5.3802e-11 7.23019e-14)
(2764.5 -4.79877e-11 6.82228e-14)
(2764.5 -5.10312e-11 6.43702e-14)
(2764.5 -4.57773e-11 6.35149e-14)
(2764.5 -4.46315e-11 5.47396e-14)
(2764.5 -4.51e-11 5.28563e-14)
(2764.5 -3.99493e-11 4.21766e-14)
(2764.5 -4.04496e-11 4.29358e-14)
(2764.5 -3.93663e-11 4.56567e-14)
(2764.5 -3.82719e-11 3.56334e-14)
(2764.5 -3.83011e-11 3.75198e-14)
(2764.5 -3.8458e-11 4.57961e-14)
(2764.5 -3.40585e-11 3.93668e-14)
(2764.5 -3.29936e-11 3.86597e-14)
(2764.5 -3.22386e-11 3.12133e-14)
(2764.5 -3.45977e-11 4.50817e-14)
(2764.5 -3.12473e-11 3.03453e-14)
(2764.5 -3.01017e-11 2.84455e-14)
(2764.5 -3.20429e-11 3.24243e-14)
(2764.5 -3.1792e-11 3.10361e-14)
(2764.5 -3.14219e-11 2.93513e-14)
(2764.5 -2.76501e-11 2.92724e-14)
(2764.5 -2.87399e-11 2.63476e-14)
(2764.5 -3.03627e-11 2.78743e-14)
(2764.5 -2.58334e-11 2.12344e-14)
(2764.5 -2.82911e-11 2.04576e-14)
(2764.5 -2.97828e-11 2.07186e-14)
(2764.5 -3.03407e-11 2.03177e-14)
(2764.5 -2.87028e-11 2.52143e-14)
(2764.5 -2.81975e-11 2.57048e-14)
(2764.5 -2.6996e-11 1.24103e-14)
(2764.5 -2.68927e-11 1.85139e-14)
(2764.5 -2.52145e-11 2.1944e-14)
(2764.5 -2.56043e-11 1.65121e-14)
(2764.5 -2.56083e-11 1.5099e-14)
(2764.5 -2.57633e-11 1.55578e-14)
(2764.5 -2.51484e-11 1.97601e-14)
(2764.5 -2.64673e-11 1.90169e-14)
(2764.5 -2.483e-11 1.60798e-14)
(2764.5 -2.5869e-11 1.45085e-14)
(2764.5 -2.37262e-11 1.5082e-14)
(2764.5 -2.57323e-11 1.48628e-14)
(2764.5 -2.37794e-11 1.60042e-14)
(2764.5 -2.10096e-11 1.8734e-14)
(2764.5 -2.35714e-11 1.62108e-14)
(2764.5 -2.54306e-11 1.42868e-14)
(2764.5 -2.67914e-11 1.56569e-14)
(2764.5 -2.55981e-11 1.15657e-14)
(2764.5 -2.3419e-11 8.00357e-15)
(2764.5 -2.23512e-11 1.18489e-14)
(2764.5 -2.37104e-11 1.21028e-14)
(2764.5 -2.40268e-11 7.80124e-15)
(2764.5 -2.3706e-11 1.00648e-14)
(2764.5 -2.25019e-11 1.11284e-14)
(2764.5 -2.41175e-11 9.85871e-15)
(2764.5 -2.50549e-11 9.49659e-15)
(2764.5 -2.50497e-11 9.63142e-15)
(2764.5 -2.43581e-11 1.21136e-14)
(2764.5 -2.56857e-11 8.78435e-15)
(2764.5 -2.60092e-11 6.85324e-15)
(2764.5 -2.52266e-11 6.44693e-15)
(2764.5 -2.38146e-11 1.15425e-14)
(2764.5 -2.42951e-11 1.36155e-14)
(2764.5 -2.49571e-11 1.30549e-14)
(2764.5 -2.33009e-11 1.31457e-14)
(2764.5 -2.24192e-11 8.95545e-15)
(2764.5 -2.22059e-11 1.0345e-14)
(2764.5 -2.27342e-11 1.10003e-14)
(2764.5 -2.26681e-11 7.37607e-15)
(2764.5 -2.425e-11 5.89458e-15)
(2764.5 -2.59325e-11 1.28706e-14)
(2764.5 -2.54578e-11 1.39612e-14)
(2764.5 -2.47383e-11 1.02426e-14)
(2764.5 -2.35725e-11 1.06881e-14)
(2764.5 -2.53177e-11 9.19157e-15)
(2764.5 -2.65506e-11 7.28571e-15)
(2764.5 -2.67764e-11 6.99855e-15)
(2764.5 -2.56181e-11 8.71107e-15)
(2764.5 -2.41982e-11 7.21925e-15)
(2764.5 -2.43292e-11 7.44603e-15)
(2764.5 -2.52009e-11 6.72455e-15)
(2764.5 -2.54777e-11 9.07774e-15)
(2764.5 -2.482e-11 8.20833e-15)
(2764.5 -2.67652e-11 9.3265e-15)
(2764.5 -2.77951e-11 7.43516e-15)
(2764.5 -2.69674e-11 9.0411e-15)
(2764.5 -2.57805e-11 1.11411e-14)
(2764.5 -2.50439e-11 1.17884e-14)
(2764.5 -2.75947e-11 6.60622e-15)
(2764.5 -2.94109e-11 6.86593e-15)
(2764.5 -2.95989e-11 8.81106e-15)
(2764.5 -2.83837e-11 7.58675e-15)
(2764.5 -3.18503e-11 8.46997e-15)
(2764.5 -3.15696e-11 8.86134e-15)
(2764.5 -3.13025e-11 8.02175e-15)
(2764.5 -3.08017e-11 8.85568e-15)
(2764.5 -3.03583e-11 7.90567e-15)
(2764.5 -3.20268e-11 9.20642e-15)
(2764.5 -3.31897e-11 5.31766e-15)
(2764.5 -3.40288e-11 1.27933e-14)
(2764.5 -3.23945e-11 1.21148e-14)
(2764.5 -3.20929e-11 7.91144e-15)
(2764.5 -3.25783e-11 5.59787e-15)
(2764.5 -3.21025e-11 5.43638e-15)
(2764.5 -3.33392e-11 4.36454e-15)
(2764.5 -2.70063e-11 7.61726e-15)
(2764.5 -2.38705e-11 5.84738e-15)
(2764.5 -2.47682e-11 1.08511e-14)
(2764.5 -2.63778e-11 5.24492e-15)
(2764.5 -2.74346e-11 1.52479e-15)
(2764.5 -3.15369e-11 3.37772e-15)
(2764.5 -3.62807e-11 1.21793e-14)
(2764.5 -3.53386e-11 2.27399e-15)
(2764.5 -3.81678e-11 6.6509e-15)
(2764.5 -3.3497e-11 8.97324e-15)
(2764.5 -3.06572e-11 1.01638e-14)
(2764.5 -3.20969e-11 7.75953e-15)
(2764.5 -3.43137e-11 5.45361e-15)
(2764.5 -3.79469e-11 7.46177e-15)
(2764.5 -4.11527e-11 3.86715e-15)
(2764.5 -3.70666e-11 6.15052e-15)
(2764.5 -4.22671e-11 1.26685e-15)
(2764.5 -4.08182e-11 1.05902e-14)
(2764.5 -3.78771e-11 7.50541e-15)
(2764.5 -3.92633e-11 5.64111e-15)
(2764.5 -6.69582e-08 1.17827e-10)
(2764.5 -2.47842e-08 4.14938e-11)
(2764.5 -1.13544e-08 1.87694e-11)
(2764.5 -6.61051e-09 1.10976e-11)
(2764.5 -4.38532e-09 7.38871e-12)
(2764.5 -3.1409e-09 5.30827e-12)
(2764.5 -2.37532e-09 3.99041e-12)
(2764.5 -1.85805e-09 3.0827e-12)
(2764.5 -1.49889e-09 2.47475e-12)
(2764.5 -1.23039e-09 2.0086e-12)
(2764.5 -1.0301e-09 1.59321e-12)
(2764.5 -8.77627e-10 1.41626e-12)
(2764.5 -7.55961e-10 1.18714e-12)
(2764.5 -6.58233e-10 1.04568e-12)
(2764.5 -5.85224e-10 8.9234e-13)
(2764.5 -5.26975e-10 8.28305e-13)
(2764.5 -4.69581e-10 7.05458e-13)
(2764.5 -4.29479e-10 6.34412e-13)
(2764.5 -3.88381e-10 5.86007e-13)
(2764.5 -3.55454e-10 5.25108e-13)
(2764.5 -3.22184e-10 4.85098e-13)
(2764.5 -3.0853e-10 4.20572e-13)
(2764.5 -2.82531e-10 3.95911e-13)
(2764.5 -2.58833e-10 3.53948e-13)
(2764.5 -2.42624e-10 3.46672e-13)
(2764.5 -2.30589e-10 3.27748e-13)
(2764.5 -2.10657e-10 2.90679e-13)
(2764.5 -2.08788e-10 2.67566e-13)
(2764.5 -1.91646e-10 2.66657e-13)
(2764.5 -1.81979e-10 2.5044e-13)
(2764.5 -1.70937e-10 2.18551e-13)
(2764.5 -1.6924e-10 2.17552e-13)
(2764.5 -1.5653e-10 1.87988e-13)
(2764.5 -1.53363e-10 1.69767e-13)
(2764.5 -1.45104e-10 1.73742e-13)
(2764.5 -1.40804e-10 1.74018e-13)
(2764.5 -1.40004e-10 1.60327e-13)
(2764.5 -1.27588e-10 1.50636e-13)
(2764.5 -1.30397e-10 1.39521e-13)
(2764.5 -1.26229e-10 1.25053e-13)
(2764.5 -1.1815e-10 1.08593e-13)
(2764.5 -1.14566e-10 1.16231e-13)
(2764.5 -1.15038e-10 1.2963e-13)
(2764.5 -1.13776e-10 1.10294e-13)
(2764.5 -1.07491e-10 8.81994e-14)
(2764.5 -1.00585e-10 1.03662e-13)
(2764.5 -1.03883e-10 1.08549e-13)
(2764.5 -1.03799e-10 8.64561e-14)
(2764.5 -9.38284e-11 8.91298e-14)
(2764.5 -9.67112e-11 9.59978e-14)
(2764.5 -8.78332e-11 9.61518e-14)
(2764.5 -9.73533e-11 8.33422e-14)
(2764.5 -8.99729e-11 8.21098e-14)
(2764.5 -9.08614e-11 6.30528e-14)
(2764.5 -9.13077e-11 6.98564e-14)
(2764.5 -8.32649e-11 6.19329e-14)
(2764.5 -8.13654e-11 6.33065e-14)
(2764.5 -8.01266e-11 6.29598e-14)
(2764.5 -8.3874e-11 7.19277e-14)
(2764.5 -8.88018e-11 7.378e-14)
(2764.5 -8.76455e-11 6.11506e-14)
(2764.5 -8.18434e-11 4.52311e-14)
(2764.5 -7.92866e-11 6.44466e-14)
(2764.5 -7.85636e-11 5.80299e-14)
(2764.5 -7.58625e-11 5.01436e-14)
(2764.5 -7.89566e-11 5.34196e-14)
(2764.5 -7.5904e-11 4.55549e-14)
(2764.5 -7.55011e-11 5.00392e-14)
(2764.5 -7.87697e-11 5.25783e-14)
(2764.5 -7.65559e-11 4.8432e-14)
(2764.5 -7.58985e-11 5.01005e-14)
(2764.5 -7.49337e-11 5.17701e-14)
(2764.5 -7.70155e-11 4.64782e-14)
(2764.5 -7.88991e-11 4.61429e-14)
(2764.5 -7.13601e-11 4.89723e-14)
(2764.5 -7.08831e-11 5.07766e-14)
(2764.5 -6.86725e-11 4.64016e-14)
(2764.5 -6.82228e-11 4.61166e-14)
(2764.5 -7.67375e-11 3.14636e-14)
(2764.5 -7.60751e-11 2.88971e-14)
(2764.5 -7.38148e-11 3.47725e-14)
(2764.5 -7.44394e-11 3.34033e-14)
(2764.5 -7.32217e-11 3.01073e-14)
(2764.5 -7.28371e-11 3.71873e-14)
(2764.5 -6.96828e-11 4.4004e-14)
(2764.5 -6.8445e-11 4.08776e-14)
(2764.5 -6.97348e-11 3.38712e-14)
(2764.5 -7.39167e-11 3.73608e-14)
(2764.5 -6.76529e-11 3.53534e-14)
(2764.5 -6.77867e-11 2.95202e-14)
(2764.5 -7.1522e-11 3.24153e-14)
(2764.5 -7.5211e-11 2.7503e-14)
(2764.5 -7.08021e-11 3.46753e-14)
(2764.5 -7.12352e-11 3.42667e-14)
(2764.5 -7.35384e-11 3.99275e-14)
(2764.5 -7.69879e-11 3.2649e-14)
(2764.5 -7.4096e-11 2.45671e-14)
(2764.5 -7.13185e-11 2.64468e-14)
(2764.5 -7.27011e-11 2.57984e-14)
(2764.5 -6.92348e-11 2.50645e-14)
(2764.5 -6.96211e-11 2.57073e-14)
(2764.5 -6.95004e-11 2.72467e-14)
(2764.5 -7.03152e-11 3.11382e-14)
(2764.5 -7.2765e-11 2.11663e-14)
(2764.5 -7.09807e-11 2.17887e-14)
(2764.5 -6.99716e-11 2.02939e-14)
(2764.5 -7.20141e-11 2.12818e-14)
(2764.5 -7.69018e-11 2.11228e-14)
(2764.5 -7.88144e-11 1.91914e-14)
(2764.5 -7.63621e-11 1.9448e-14)
(2764.5 -7.56304e-11 2.40981e-14)
(2764.5 -7.45498e-11 2.39119e-14)
(2764.5 -7.64778e-11 2.36197e-14)
(2764.5 -7.4393e-11 2.40055e-14)
(2764.5 -7.32998e-11 2.70836e-14)
(2764.5 -7.44681e-11 2.66902e-14)
(2764.5 -7.69759e-11 2.71725e-14)
(2764.5 -7.78506e-11 2.68179e-14)
(2764.5 -7.51955e-11 2.37057e-14)
(2764.5 -7.39544e-11 1.75565e-14)
(2764.5 -7.69272e-11 1.9879e-14)
(2764.5 -8.05143e-11 2.07243e-14)
(2764.5 -8.07281e-11 2.13867e-14)
(2764.5 -8.18998e-11 2.2195e-14)
(2764.5 -8.29437e-11 2.3921e-14)
(2764.5 -8.50717e-11 2.27384e-14)
(2764.5 -8.65724e-11 2.19432e-14)
(2764.5 -8.70598e-11 2.06113e-14)
(2764.5 -8.79486e-11 2.08821e-14)
(2764.5 -8.79277e-11 2.29196e-14)
(2764.5 -8.91226e-11 2.58158e-14)
(2764.5 -9.01964e-11 1.81688e-14)
(2764.5 -9.09911e-11 1.83836e-14)
(2764.5 -9.04453e-11 1.94634e-14)
(2764.5 -9.23549e-11 1.89638e-14)
(2764.5 -9.66317e-11 1.97796e-14)
(2764.5 -1.01814e-10 2.18739e-14)
(2764.5 -1.01081e-10 2.1407e-14)
(2764.5 -9.43431e-11 1.58978e-14)
(2764.5 -9.11735e-11 2.60974e-14)
(2764.5 -8.33905e-11 1.5871e-14)
(2764.5 -8.00869e-11 1.72376e-14)
(2764.5 -8.13112e-11 2.04873e-14)
(2764.5 -9.08126e-11 1.98137e-14)
(2764.5 -9.37428e-11 1.888e-14)
(2764.5 -9.6814e-11 2.26408e-14)
(2764.5 -1.01721e-10 2.41377e-14)
(2764.5 -1.00208e-10 1.79878e-14)
(2764.5 -9.30452e-11 2.61065e-14)
(2764.5 -9.53915e-11 2.16961e-14)
(2764.5 -1.0513e-10 1.79805e-14)
(2764.5 -1.03306e-10 1.26872e-14)
(2764.5 -1.03834e-10 1.56942e-14)
(2764.5 -1.11668e-10 1.55615e-14)
(2764.5 -1.08722e-10 1.55697e-14)
(2764.5 -1.14061e-10 1.8374e-14)
(2764.5 -1.06281e-07 1.82012e-10)
(2764.5 -4.53328e-08 7.33248e-11)
(2764.5 -2.12533e-08 3.34447e-11)
(2764.5 -1.2038e-08 1.91686e-11)
(2764.5 -7.84031e-09 1.2492e-11)
(2764.5 -5.56625e-09 8.84343e-12)
(2764.5 -4.18421e-09 6.68995e-12)
(2764.5 -3.26439e-09 5.16453e-12)
(2764.5 -2.62306e-09 4.14265e-12)
(2764.5 -2.15801e-09 3.33186e-12)
(2764.5 -1.8031e-09 2.78138e-12)
(2764.5 -1.53917e-09 2.40217e-12)
(2764.5 -1.31911e-09 2.02463e-12)
(2764.5 -1.14935e-09 1.74858e-12)
(2764.5 -1.01764e-09 1.54243e-12)
(2764.5 -9.15938e-10 1.37001e-12)
(2764.5 -8.20687e-10 1.16964e-12)
(2764.5 -7.45421e-10 1.07682e-12)
(2764.5 -6.76804e-10 9.64047e-13)
(2764.5 -6.18837e-10 8.99717e-13)
(2764.5 -5.69167e-10 8.05442e-13)
(2764.5 -5.29369e-10 6.96003e-13)
(2764.5 -4.85927e-10 6.73357e-13)
(2764.5 -4.49104e-10 6.03719e-13)
(2764.5 -4.16191e-10 5.97122e-13)
(2764.5 -4.02826e-10 5.44873e-13)
(2764.5 -3.68856e-10 5.21447e-13)
(2764.5 -3.56346e-10 4.69163e-13)
(2764.5 -3.31582e-10 4.25558e-13)
(2764.5 -3.17946e-10 4.10276e-13)
(2764.5 -2.99715e-10 3.65948e-13)
(2764.5 -2.8912e-10 3.70677e-13)
(2764.5 -2.72279e-10 3.20868e-13)
(2764.5 -2.62229e-10 3.17436e-13)
(2764.5 -2.5569e-10 3.15776e-13)
(2764.5 -2.46252e-10 2.81316e-13)
(2764.5 -2.39251e-10 2.57729e-13)
(2764.5 -2.22425e-10 2.59201e-13)
(2764.5 -2.16496e-10 2.51249e-13)
(2764.5 -2.16265e-10 2.25516e-13)
(2764.5 -2.06127e-10 2.13156e-13)
(2764.5 -1.96692e-10 2.08044e-13)
(2764.5 -1.952e-10 2.11943e-13)
(2764.5 -1.94098e-10 1.93939e-13)
(2764.5 -1.84891e-10 1.6565e-13)
(2764.5 -1.74133e-10 1.75199e-13)
(2764.5 -1.73433e-10 1.74409e-13)
(2764.5 -1.75191e-10 1.72351e-13)
(2764.5 -1.64237e-10 1.63879e-13)
(2764.5 -1.6522e-10 1.73619e-13)
(2764.5 -1.55291e-10 1.54062e-13)
(2764.5 -1.62208e-10 1.43523e-13)
(2764.5 -1.55371e-10 1.34952e-13)
(2764.5 -1.52253e-10 1.28103e-13)
(2764.5 -1.514e-10 1.23109e-13)
(2764.5 -1.43626e-10 1.20399e-13)
(2764.5 -1.4087e-10 1.12815e-13)
(2764.5 -1.39815e-10 1.06658e-13)
(2764.5 -1.40493e-10 1.21334e-13)
(2764.5 -1.47214e-10 1.15417e-13)
(2764.5 -1.4731e-10 1.05542e-13)
(2764.5 -1.44279e-10 1.10053e-13)
(2764.5 -1.38341e-10 1.02336e-13)
(2764.5 -1.33716e-10 8.28445e-14)
(2764.5 -1.27756e-10 9.21826e-14)
(2764.5 -1.28867e-10 8.93082e-14)
(2764.5 -1.27164e-10 7.84038e-14)
(2764.5 -1.2563e-10 8.80282e-14)
(2764.5 -1.28706e-10 8.20637e-14)
(2764.5 -1.31357e-10 8.10905e-14)
(2764.5 -1.27482e-10 7.7284e-14)
(2764.5 -1.25495e-10 7.91775e-14)
(2764.5 -1.25073e-10 7.13818e-14)
(2764.5 -1.27312e-10 7.36735e-14)
(2764.5 -1.20983e-10 7.99533e-14)
(2764.5 -1.21299e-10 8.13288e-14)
(2764.5 -1.17587e-10 6.59639e-14)
(2764.5 -1.12473e-10 6.66016e-14)
(2764.5 -1.18465e-10 6.82881e-14)
(2764.5 -1.19062e-10 6.4749e-14)
(2764.5 -1.20229e-10 6.25772e-14)
(2764.5 -1.27004e-10 5.81109e-14)
(2764.5 -1.25632e-10 5.54038e-14)
(2764.5 -1.24524e-10 5.59792e-14)
(2764.5 -1.20769e-10 5.64642e-14)
(2764.5 -1.15443e-10 5.55232e-14)
(2764.5 -1.15798e-10 5.89646e-14)
(2764.5 -1.21347e-10 6.56225e-14)
(2764.5 -1.17605e-10 6.04459e-14)
(2764.5 -1.15377e-10 5.70833e-14)
(2764.5 -1.14836e-10 5.10962e-14)
(2764.5 -1.19182e-10 5.03652e-14)
(2764.5 -1.17279e-10 5.60187e-14)
(2764.5 -1.17162e-10 6.25479e-14)
(2764.5 -1.20423e-10 6.46101e-14)
(2764.5 -1.21962e-10 4.6086e-14)
(2764.5 -1.23629e-10 3.99242e-14)
(2764.5 -1.20136e-10 4.49831e-14)
(2764.5 -1.19576e-10 4.81846e-14)
(2764.5 -1.17251e-10 4.84313e-14)
(2764.5 -1.1955e-10 4.12539e-14)
(2764.5 -1.22654e-10 4.66517e-14)
(2764.5 -1.1927e-10 4.92933e-14)
(2764.5 -1.17167e-10 4.16753e-14)
(2764.5 -1.16535e-10 4.75063e-14)
(2764.5 -1.15204e-10 4.29067e-14)
(2764.5 -1.13992e-10 3.88503e-14)
(2764.5 -1.18532e-10 3.56911e-14)
(2764.5 -1.25142e-10 3.70031e-14)
(2764.5 -1.23383e-10 4.1248e-14)
(2764.5 -1.25648e-10 3.59803e-14)
(2764.5 -1.26196e-10 3.5939e-14)
(2764.5 -1.28308e-10 3.64427e-14)
(2764.5 -1.29785e-10 3.85935e-14)
(2764.5 -1.29642e-10 3.73194e-14)
(2764.5 -1.26091e-10 4.47925e-14)
(2764.5 -1.25299e-10 4.64357e-14)
(2764.5 -1.29103e-10 4.78184e-14)
(2764.5 -1.27867e-10 3.85509e-14)
(2764.5 -1.2549e-10 3.64443e-14)
(2764.5 -1.26058e-10 3.75682e-14)
(2764.5 -1.27874e-10 3.72684e-14)
(2764.5 -1.30839e-10 3.57138e-14)
(2764.5 -1.31714e-10 3.22793e-14)
(2764.5 -1.30873e-10 3.39705e-14)
(2764.5 -1.32132e-10 3.48172e-14)
(2764.5 -1.33127e-10 3.30201e-14)
(2764.5 -1.36122e-10 3.42296e-14)
(2764.5 -1.40479e-10 4.04281e-14)
(2764.5 -1.43927e-10 3.85254e-14)
(2764.5 -1.44273e-10 3.44876e-14)
(2764.5 -1.43918e-10 3.74574e-14)
(2764.5 -1.45329e-10 3.8971e-14)
(2764.5 -1.46556e-10 3.52272e-14)
(2764.5 -1.49738e-10 3.67366e-14)
(2764.5 -1.54253e-10 2.81968e-14)
(2764.5 -1.59083e-10 2.51992e-14)
(2764.5 -1.6301e-10 3.85221e-14)
(2764.5 -1.70769e-10 3.81512e-14)
(2764.5 -1.64777e-10 3.52577e-14)
(2764.5 -1.62468e-10 3.23296e-14)
(2764.5 -1.53003e-10 2.31426e-14)
(2764.5 -1.47195e-10 2.73045e-14)
(2764.5 -1.42383e-10 2.70591e-14)
(2764.5 -1.4833e-10 3.58615e-14)
(2764.5 -1.49172e-10 2.91225e-14)
(2764.5 -1.54581e-10 3.10761e-14)
(2764.5 -1.55129e-10 3.15077e-14)
(2764.5 -1.53467e-10 3.79477e-14)
(2764.5 -1.55616e-10 3.40691e-14)
(2764.5 -1.64383e-10 3.22683e-14)
(2764.5 -1.67062e-10 2.74466e-14)
(2764.5 -1.64972e-10 3.20809e-14)
(2764.5 -1.75926e-10 2.18997e-14)
(2764.5 -1.76819e-10 3.21758e-14)
(2764.5 -1.81451e-10 3.40016e-14)
(2764.5 -1.37731e-07 2.33302e-10)
(2764.5 -6.63961e-08 1.05116e-10)
(2764.5 -3.25578e-08 4.94626e-11)
(2764.5 -1.83152e-08 2.76569e-11)
(2764.5 -1.17496e-08 1.7785e-11)
(2764.5 -8.25577e-09 1.25261e-11)
(2764.5 -6.1663e-09 9.41055e-12)
(2764.5 -4.80367e-09 7.29847e-12)
(2764.5 -3.85614e-09 5.82812e-12)
(2764.5 -3.16437e-09 4.77689e-12)
(2764.5 -2.63853e-09 3.91201e-12)
(2764.5 -2.24899e-09 3.37918e-12)
(2764.5 -1.93366e-09 2.8999e-12)
(2764.5 -1.67956e-09 2.50364e-12)
(2764.5 -1.48528e-09 2.24227e-12)
(2764.5 -1.33113e-09 1.9229e-12)
(2764.5 -1.19722e-09 1.68481e-12)
(2764.5 -1.08348e-09 1.49998e-12)
(2764.5 -9.86701e-10 1.32589e-12)
(2764.5 -9.02703e-10 1.25955e-12)
(2764.5 -8.3014e-10 1.11413e-12)
(2764.5 -7.67266e-10 1.0282e-12)
(2764.5 -7.06404e-10 9.53742e-13)
(2764.5 -6.52835e-10 8.74898e-13)
(2764.5 -6.078e-10 8.1263e-13)
(2764.5 -5.80745e-10 7.46807e-13)
(2764.5 -5.38197e-10 7.04348e-13)
(2764.5 -5.08836e-10 6.40353e-13)
(2764.5 -4.79448e-10 6.17862e-13)
(2764.5 -4.54961e-10 5.69675e-13)
(2764.5 -4.30977e-10 5.42071e-13)
(2764.5 -4.19517e-10 5.15403e-13)
(2764.5 -3.96729e-10 4.93576e-13)
(2764.5 -3.77786e-10 4.62406e-13)
(2764.5 -3.6872e-10 4.33854e-13)
(2764.5 -3.54826e-10 3.93475e-13)
(2764.5 -3.42316e-10 3.76054e-13)
(2764.5 -3.27075e-10 3.43255e-13)
(2764.5 -3.12097e-10 3.52023e-13)
(2764.5 -3.09768e-10 3.16439e-13)
(2764.5 -3.01216e-10 3.06609e-13)
(2764.5 -2.84746e-10 2.85718e-13)
(2764.5 -2.75326e-10 2.85693e-13)
(2764.5 -2.72927e-10 2.64933e-13)
(2764.5 -2.62244e-10 2.68382e-13)
(2764.5 -2.53876e-10 2.46453e-13)
(2764.5 -2.50539e-10 2.51335e-13)
(2764.5 -2.47414e-10 2.408e-13)
(2764.5 -2.40293e-10 2.40722e-13)
(2764.5 -2.33485e-10 2.30815e-13)
(2764.5 -2.22267e-10 2.08578e-13)
(2764.5 -2.25678e-10 2.05952e-13)
(2764.5 -2.24686e-10 1.92846e-13)
(2764.5 -2.19341e-10 1.88197e-13)
(2764.5 -2.17185e-10 1.68928e-13)
(2764.5 -2.06453e-10 1.72811e-13)
(2764.5 -2.01493e-10 1.66681e-13)
(2764.5 -1.97747e-10 1.6176e-13)
(2764.5 -1.95246e-10 1.72217e-13)
(2764.5 -2.01361e-10 1.65752e-13)
(2764.5 -2.06343e-10 1.52963e-13)
(2764.5 -2.10207e-10 1.38995e-13)
(2764.5 -2.05173e-10 1.3431e-13)
(2764.5 -1.96341e-10 1.32296e-13)
(2764.5 -1.86622e-10 1.4703e-13)
(2764.5 -1.82241e-10 1.34306e-13)
(2764.5 -1.76853e-10 1.22801e-13)
(2764.5 -1.73953e-10 1.28883e-13)
(2764.5 -1.78421e-10 1.11337e-13)
(2764.5 -1.89458e-10 1.07458e-13)
(2764.5 -1.8549e-10 1.05574e-13)
(2764.5 -1.79257e-10 1.12924e-13)
(2764.5 -1.78308e-10 1.09932e-13)
(2764.5 -1.80783e-10 1.12805e-13)
(2764.5 -1.73575e-10 1.071e-13)
(2764.5 -1.75948e-10 9.98825e-14)
(2764.5 -1.73231e-10 1.02504e-13)
(2764.5 -1.66698e-10 1.08389e-13)
(2764.5 -1.66129e-10 1.03743e-13)
(2764.5 -1.65576e-10 9.29321e-14)
(2764.5 -1.64604e-10 8.32652e-14)
(2764.5 -1.71556e-10 9.45768e-14)
(2764.5 -1.76272e-10 8.84354e-14)
(2764.5 -1.75399e-10 8.79756e-14)
(2764.5 -1.69865e-10 8.38224e-14)
(2764.5 -1.64231e-10 8.83979e-14)
(2764.5 -1.58974e-10 8.41976e-14)
(2764.5 -1.65209e-10 8.09182e-14)
(2764.5 -1.67256e-10 7.51711e-14)
(2764.5 -1.66342e-10 7.87647e-14)
(2764.5 -1.67412e-10 7.8332e-14)
(2764.5 -1.66543e-10 7.87835e-14)
(2764.5 -1.63114e-10 8.14816e-14)
(2764.5 -1.6226e-10 8.98183e-14)
(2764.5 -1.64313e-10 7.66408e-14)
(2764.5 -1.6774e-10 7.22021e-14)
(2764.5 -1.71465e-10 7.60159e-14)
(2764.5 -1.69336e-10 6.78563e-14)
(2764.5 -1.67823e-10 6.67585e-14)
(2764.5 -1.65924e-10 6.56881e-14)
(2764.5 -1.66306e-10 5.877e-14)
(2764.5 -1.67246e-10 6.32794e-14)
(2764.5 -1.70675e-10 6.56538e-14)
(2764.5 -1.71569e-10 6.58415e-14)
(2764.5 -1.6875e-10 6.59582e-14)
(2764.5 -1.67775e-10 6.44961e-14)
(2764.5 -1.65517e-10 6.11696e-14)
(2764.5 -1.65993e-10 5.9153e-14)
(2764.5 -1.74413e-10 5.52348e-14)
(2764.5 -1.72398e-10 4.84638e-14)
(2764.5 -1.71653e-10 5.11184e-14)
(2764.5 -1.721e-10 5.25298e-14)
(2764.5 -1.77225e-10 5.70065e-14)
(2764.5 -1.80278e-10 5.77273e-14)
(2764.5 -1.82013e-10 6.19005e-14)
(2764.5 -1.80299e-10 6.16001e-14)
(2764.5 -1.7681e-10 6.1008e-14)
(2764.5 -1.78121e-10 5.68741e-14)
(2764.5 -1.7811e-10 5.097e-14)
(2764.5 -1.76038e-10 5.34987e-14)
(2764.5 -1.76367e-10 5.34066e-14)
(2764.5 -1.76319e-10 5.1799e-14)
(2764.5 -1.7863e-10 4.78143e-14)
(2764.5 -1.83108e-10 5.0171e-14)
(2764.5 -1.81931e-10 5.453e-14)
(2764.5 -1.80329e-10 5.21277e-14)
(2764.5 -1.80448e-10 5.54832e-14)
(2764.5 -1.83101e-10 5.77191e-14)
(2764.5 -1.86038e-10 5.25496e-14)
(2764.5 -1.93246e-10 4.98563e-14)
(2764.5 -1.97269e-10 5.05445e-14)
(2764.5 -1.99621e-10 5.15623e-14)
(2764.5 -2.00191e-10 4.87488e-14)
(2764.5 -2.00238e-10 4.8113e-14)
(2764.5 -2.01938e-10 4.87315e-14)
(2764.5 -2.05683e-10 4.88059e-14)
(2764.5 -2.08311e-10 5.33071e-14)
(2764.5 -2.11112e-10 5.42856e-14)
(2764.5 -2.19461e-10 4.8901e-14)
(2764.5 -2.23439e-10 4.57454e-14)
(2764.5 -2.26495e-10 5.02872e-14)
(2764.5 -2.20942e-10 4.49543e-14)
(2764.5 -2.17534e-10 4.29134e-14)
(2764.5 -2.1404e-10 4.36875e-14)
(2764.5 -2.11736e-10 4.61955e-14)
(2764.5 -2.08932e-10 4.77312e-14)
(2764.5 -2.14791e-10 4.66345e-14)
(2764.5 -2.14559e-10 4.72835e-14)
(2764.5 -2.1584e-10 4.68796e-14)
(2764.5 -2.15117e-10 4.50959e-14)
(2764.5 -2.21517e-10 4.84953e-14)
(2764.5 -2.25278e-10 4.20725e-14)
(2764.5 -2.24284e-10 5.15007e-14)
(2764.5 -2.34141e-10 4.03244e-14)
(2764.5 -2.3892e-10 4.49066e-14)
(2764.5 -2.41288e-10 4.25869e-14)
(2764.5 -1.62697e-07 2.73937e-10)
(2764.5 -8.6845e-08 1.3592e-10)
(2764.5 -4.48811e-08 6.63702e-11)
(2764.5 -2.54198e-08 3.67815e-11)
(2764.5 -1.61537e-08 2.35097e-11)
(2764.5 -1.12354e-08 1.64567e-11)
(2764.5 -8.33386e-09 1.21965e-11)
(2764.5 -6.4767e-09 9.48057e-12)
(2764.5 -5.19035e-09 7.59423e-12)
(2764.5 -4.25061e-09 6.23333e-12)
(2764.5 -3.54413e-09 5.14893e-12)
(2764.5 -3.01081e-09 4.36292e-12)
(2764.5 -2.59137e-09 3.70823e-12)
(2764.5 -2.25246e-09 3.22626e-12)
(2764.5 -1.99193e-09 2.86597e-12)
(2764.5 -1.77571e-09 2.50657e-12)
(2764.5 -1.59553e-09 2.18318e-12)
(2764.5 -1.44436e-09 1.97974e-12)
(2764.5 -1.31694e-09 1.79221e-12)
(2764.5 -1.20592e-09 1.62497e-12)
(2764.5 -1.10174e-09 1.48704e-12)
(2764.5 -1.01954e-09 1.3657e-12)
(2764.5 -9.45524e-10 1.22858e-12)
(2764.5 -8.7207e-10 1.14651e-12)
(2764.5 -8.10326e-10 1.03351e-12)
(2764.5 -7.69241e-10 1.00398e-12)
(2764.5 -7.214e-10 9.19194e-13)
(2764.5 -6.76465e-10 8.74759e-13)
(2764.5 -6.36297e-10 8.3086e-13)
(2764.5 -6.00967e-10 7.64974e-13)
(2764.5 -5.71004e-10 6.97883e-13)
(2764.5 -5.48596e-10 6.66426e-13)
(2764.5 -5.27864e-10 6.11617e-13)
(2764.5 -5.0259e-10 5.67565e-13)
(2764.5 -4.82127e-10 5.48035e-13)
(2764.5 -4.63604e-10 5.29292e-13)
(2764.5 -4.47311e-10 4.90961e-13)
(2764.5 -4.35544e-10 4.64211e-13)
(2764.5 -4.18147e-10 4.3069e-13)
(2764.5 -4.05931e-10 4.06071e-13)
(2764.5 -3.97232e-10 4.11416e-13)
(2764.5 -3.8144e-10 3.94556e-13)
(2764.5 -3.65551e-10 3.78296e-13)
(2764.5 -3.55993e-10 3.66373e-13)
(2764.5 -3.42043e-10 3.52191e-13)
(2764.5 -3.34249e-10 3.34454e-13)
(2764.5 -3.2858e-10 3.15124e-13)
(2764.5 -3.20398e-10 3.07532e-13)
(2764.5 -3.12245e-10 2.92954e-13)
(2764.5 -3.07923e-10 2.69407e-13)
(2764.5 -2.96052e-10 2.78192e-13)
(2764.5 -2.90696e-10 2.66424e-13)
(2764.5 -2.8944e-10 2.5701e-13)
(2764.5 -2.84523e-10 2.44802e-13)
(2764.5 -2.78745e-10 2.3892e-13)
(2764.5 -2.73325e-10 2.31566e-13)
(2764.5 -2.67782e-10 2.11356e-13)
(2764.5 -2.57669e-10 2.06381e-13)
(2764.5 -2.51171e-10 2.15079e-13)
(2764.5 -2.52491e-10 1.96104e-13)
(2764.5 -2.63971e-10 1.86671e-13)
(2764.5 -2.70634e-10 1.77531e-13)
(2764.5 -2.6462e-10 1.83993e-13)
(2764.5 -2.6034e-10 1.91738e-13)
(2764.5 -2.50422e-10 1.7343e-13)
(2764.5 -2.40407e-10 1.76357e-13)
(2764.5 -2.35406e-10 1.70155e-13)
(2764.5 -2.295e-10 1.57303e-13)
(2764.5 -2.28933e-10 1.63491e-13)
(2764.5 -2.36856e-10 1.58177e-13)
(2764.5 -2.41609e-10 1.47869e-13)
(2764.5 -2.37688e-10 1.48831e-13)
(2764.5 -2.31841e-10 1.4172e-13)
(2764.5 -2.30125e-10 1.4018e-13)
(2764.5 -2.27414e-10 1.43201e-13)
(2764.5 -2.23628e-10 1.38269e-13)
(2764.5 -2.2195e-10 1.41656e-13)
(2764.5 -2.20071e-10 1.32306e-13)
(2764.5 -2.17006e-10 1.21251e-13)
(2764.5 -2.14179e-10 1.21455e-13)
(2764.5 -2.13343e-10 1.29121e-13)
(2764.5 -2.15739e-10 1.17971e-13)
(2764.5 -2.25893e-10 1.129e-13)
(2764.5 -2.29709e-10 1.15152e-13)
(2764.5 -2.26262e-10 1.12557e-13)
(2764.5 -2.19061e-10 1.06349e-13)
(2764.5 -2.08482e-10 1.00124e-13)
(2764.5 -2.05966e-10 1.0706e-13)
(2764.5 -2.09863e-10 1.13685e-13)
(2764.5 -2.14433e-10 1.12708e-13)
(2764.5 -2.17204e-10 1.04103e-13)
(2764.5 -2.17707e-10 1.02077e-13)
(2764.5 -2.12275e-10 1.02471e-13)
(2764.5 -2.10848e-10 9.74549e-14)
(2764.5 -2.09975e-10 9.5683e-14)
(2764.5 -2.12975e-10 9.84083e-14)
(2764.5 -2.1572e-10 8.87278e-14)
(2764.5 -2.19166e-10 8.72227e-14)
(2764.5 -2.15578e-10 9.0146e-14)
(2764.5 -2.15105e-10 8.36784e-14)
(2764.5 -2.17239e-10 7.70156e-14)
(2764.5 -2.15001e-10 8.22573e-14)
(2764.5 -2.1496e-10 8.74563e-14)
(2764.5 -2.17175e-10 7.99004e-14)
(2764.5 -2.18799e-10 8.02132e-14)
(2764.5 -2.16708e-10 8.38428e-14)
(2764.5 -2.13358e-10 8.01959e-14)
(2764.5 -2.10359e-10 7.83301e-14)
(2764.5 -2.18013e-10 7.37886e-14)
(2764.5 -2.19282e-10 7.62824e-14)
(2764.5 -2.18066e-10 7.83745e-14)
(2764.5 -2.16436e-10 7.51602e-14)
(2764.5 -2.18978e-10 7.81139e-14)
(2764.5 -2.24615e-10 6.46003e-14)
(2764.5 -2.28806e-10 6.3986e-14)
(2764.5 -2.33425e-10 6.9713e-14)
(2764.5 -2.30623e-10 7.3429e-14)
(2764.5 -2.27185e-10 7.01895e-14)
(2764.5 -2.26034e-10 7.2242e-14)
(2764.5 -2.26471e-10 7.33302e-14)
(2764.5 -2.27304e-10 6.80483e-14)
(2764.5 -2.31013e-10 6.5736e-14)
(2764.5 -2.31935e-10 6.92813e-14)
(2764.5 -2.34077e-10 7.20135e-14)
(2764.5 -2.35841e-10 6.63543e-14)
(2764.5 -2.33959e-10 6.88882e-14)
(2764.5 -2.32726e-10 7.1025e-14)
(2764.5 -2.35823e-10 6.38892e-14)
(2764.5 -2.38045e-10 6.20391e-14)
(2764.5 -2.453e-10 6.05877e-14)
(2764.5 -2.48944e-10 6.14557e-14)
(2764.5 -2.52438e-10 6.54189e-14)
(2764.5 -2.53916e-10 6.41212e-14)
(2764.5 -2.54388e-10 6.62356e-14)
(2764.5 -2.55053e-10 6.70865e-14)
(2764.5 -2.56759e-10 6.7725e-14)
(2764.5 -2.60399e-10 6.54296e-14)
(2764.5 -2.63591e-10 6.1823e-14)
(2764.5 -2.69805e-10 6.30471e-14)
(2764.5 -2.77207e-10 5.47142e-14)
(2764.5 -2.82114e-10 6.14595e-14)
(2764.5 -2.78653e-10 6.14174e-14)
(2764.5 -2.78279e-10 6.24436e-14)
(2764.5 -2.78515e-10 6.00964e-14)
(2764.5 -2.80658e-10 6.02681e-14)
(2764.5 -2.75408e-10 6.24e-14)
(2764.5 -2.76509e-10 5.81876e-14)
(2764.5 -2.73613e-10 5.50228e-14)
(2764.5 -2.73183e-10 5.53549e-14)
(2764.5 -2.74696e-10 5.83703e-14)
(2764.5 -2.81123e-10 5.55064e-14)
(2764.5 -2.87162e-10 5.91296e-14)
(2764.5 -2.86107e-10 5.69674e-14)
(2764.5 -2.92037e-10 5.50109e-14)
(2764.5 -2.9659e-10 6.19566e-14)
(2764.5 -2.96217e-10 6.26724e-14)
(2764.5 -1.82783e-07 3.07123e-10)
(2764.5 -1.06072e-07 1.64676e-10)
(2764.5 -5.78139e-08 8.35174e-11)
(2764.5 -3.32721e-08 4.65469e-11)
(2764.5 -2.10637e-08 2.94821e-11)
(2764.5 -1.45332e-08 2.04722e-11)
(2764.5 -1.07054e-08 1.5261e-11)
(2764.5 -8.28249e-09 1.17232e-11)
(2764.5 -6.6259e-09 9.33135e-12)
(2764.5 -5.4188e-09 7.62381e-12)
(2764.5 -4.51481e-09 6.34789e-12)
(2764.5 -3.82965e-09 5.35903e-12)
(2764.5 -3.29876e-09 4.58646e-12)
(2764.5 -2.86441e-09 4.01459e-12)
(2764.5 -2.52394e-09 3.48484e-12)
(2764.5 -2.25297e-09 3.05837e-12)
(2764.5 -2.02157e-09 2.72275e-12)
(2764.5 -1.83035e-09 2.42328e-12)
(2764.5 -1.66389e-09 2.21119e-12)
(2764.5 -1.52524e-09 1.97799e-12)
(2764.5 -1.39731e-09 1.82601e-12)
(2764.5 -1.28966e-09 1.66708e-12)
(2764.5 -1.1905e-09 1.51448e-12)
(2764.5 -1.0984e-09 1.3651e-12)
(2764.5 -1.02495e-09 1.2923e-12)
(2764.5 -9.69643e-10 1.22816e-12)
(2764.5 -9.14332e-10 1.13172e-12)
(2764.5 -8.55934e-10 1.07195e-12)
(2764.5 -8.04123e-10 9.80034e-13)
(2764.5 -7.59559e-10 8.92072e-13)
(2764.5 -7.19482e-10 8.55824e-13)
(2764.5 -6.8965e-10 7.99997e-13)
(2764.5 -6.65019e-10 7.52605e-13)
(2764.5 -6.32642e-10 7.18873e-13)
(2764.5 -6.0597e-10 6.76405e-13)
(2764.5 -5.79878e-10 6.14386e-13)
(2764.5 -5.59896e-10 6.21282e-13)
(2764.5 -5.41641e-10 5.7908e-13)
(2764.5 -5.24229e-10 5.49751e-13)
(2764.5 -5.12213e-10 5.29061e-13)
(2764.5 -4.96495e-10 4.89994e-13)
(2764.5 -4.77508e-10 4.7056e-13)
(2764.5 -4.59025e-10 4.53608e-13)
(2764.5 -4.42944e-10 4.45481e-13)
(2764.5 -4.2927e-10 4.2298e-13)
(2764.5 -4.19415e-10 4.2089e-13)
(2764.5 -4.08802e-10 3.80891e-13)
(2764.5 -4.00113e-10 3.71543e-13)
(2764.5 -3.94212e-10 3.64279e-13)
(2764.5 -3.86251e-10 3.42163e-13)
(2764.5 -3.70903e-10 3.34018e-13)
(2764.5 -3.60687e-10 3.21281e-13)
(2764.5 -3.54279e-10 3.07081e-13)
(2764.5 -3.52665e-10 3.01587e-13)
(2764.5 -3.49217e-10 2.84262e-13)
(2764.5 -3.41088e-10 2.71907e-13)
(2764.5 -3.36185e-10 2.62913e-13)
(2764.5 -3.25791e-10 2.65766e-13)
(2764.5 -3.16239e-10 2.52934e-13)
(2764.5 -3.09739e-10 2.4087e-13)
(2764.5 -3.17353e-10 2.40499e-13)
(2764.5 -3.2487e-10 2.30551e-13)
(2764.5 -3.24672e-10 2.27077e-13)
(2764.5 -3.19248e-10 2.16086e-13)
(2764.5 -3.10313e-10 2.10936e-13)
(2764.5 -3.00324e-10 2.16564e-13)
(2764.5 -2.91191e-10 2.03281e-13)
(2764.5 -2.86766e-10 1.88849e-13)
(2764.5 -2.84497e-10 1.97856e-13)
(2764.5 -2.90094e-10 1.87691e-13)
(2764.5 -2.94901e-10 1.76815e-13)
(2764.5 -2.96691e-10 1.75817e-13)
(2764.5 -2.88737e-10 1.76183e-13)
(2764.5 -2.76069e-10 1.66787e-13)
(2764.5 -2.7178e-10 1.72995e-13)
(2764.5 -2.8107e-10 1.68847e-13)
(2764.5 -2.81209e-10 1.62928e-13)
(2764.5 -2.74492e-10 1.55834e-13)
(2764.5 -2.69816e-10 1.6561e-13)
(2764.5 -2.6396e-10 1.59237e-13)
(2764.5 -2.60429e-10 1.53287e-13)
(2764.5 -2.62487e-10 1.4018e-13)
(2764.5 -2.67548e-10 1.43726e-13)