/*--------------------------------*- C++ -*----------------------------------*\
| =========                 |                                                 |
| \\      /  F ield         | OpenFOAM: The Open Source CFD Toolbox           |
|  \\    /   O peration     | Version:  v1706                                 |
|   \\  /    A nd           | Web:      www.OpenFOAM.com                      |
|    \\/     M anipulation  |                                                 |
\*---------------------------------------------------------------------------*/
FoamFile
{
    version     2.0;
    format      ascii;
    class       volScalarField;
    location    "1.1e-05";
    object      wallHeatFlux;
}
// * * * * * * * * * * * * * * * * * * * * * * * * * * * * * * * * * * * * * //

dimensions      [1 0 -3 0 0 0 0];


internalField   uniform 0;

boundaryField
{
    cone
    {
        type            calculated;
        value           nonuniform List<scalar> 
147
(
1.04048e+06
1.04016e+06
1.03982e+06
1.03943e+06
1.03898e+06
1.03848e+06
1.0379e+06
1.03725e+06
1.03653e+06
1.03574e+06
1.03488e+06
1.03396e+06
1.03296e+06
1.03189e+06
1.03075e+06
1.02955e+06
1.02828e+06
1.02694e+06
1.02552e+06
1.02405e+06
1.0225e+06
1.02088e+06
1.0192e+06
1.01744e+06
1.01562e+06
1.01372e+06
1.01176e+06
1.00973e+06
1.00763e+06
1.00545e+06
1.00322e+06
1.00091e+06
998532
996089
993579
991002
988359
985652
982878
980039
977134
974166
971133
968037
964878
961656
958373
955029
951624
948159
944635
941052
937411
933712
929957
926145
922279
918357
914381
910351
906267
902132
897945
893706
889418
885080
880693
876259
871777
867248
862674
858056
853393
848686
843937
839146
834314
829442
824531
819581
814593
809568
804507
799411
794281
789117
783919
778690
773430
768139
762819
757471
752095
746691
741262
735808
730330
724827
719303
713757
708192
702606
697002
691380
685741
680086
674415
668731
663035
657326
651606
645875
640136
634388
628632
622869
617101
611327
605549
599768
593984
588199
582413
576630
570848
565069
559293
553521
547753
541991
536235
530487
524746
519013
513290
507576
501874
496183
490504
484838
479186
473550
467934
462339
456760
451194
1.04158e+06
)
;
    }
    inlet
    {
        type            calculated;
        value           uniform 0;
    }
    rWedge
    {
        type            wedge;
    }
    lWedge
    {
        type            wedge;
    }
    outlet
    {
        type            calculated;
        value           nonuniform 0();
    }
    procBoundary3to2
    {
        type            processor;
        value           uniform 0;
    }
}


// ************************************************************************* //
