/*--------------------------------*- C++ -*----------------------------------*\
| =========                 |                                                 |
| \\      /  F ield         | OpenFOAM: The Open Source CFD Toolbox           |
|  \\    /   O peration     | Version:  v1706                                 |
|   \\  /    A nd           | Web:      www.OpenFOAM.com                      |
|    \\/     M anipulation  |                                                 |
\*---------------------------------------------------------------------------*/
FoamFile
{
    version     2.0;
    format      ascii;
    class       volScalarField;
    location    "1.4e-05";
    object      alpha;
}
// * * * * * * * * * * * * * * * * * * * * * * * * * * * * * * * * * * * * * //

dimensions      [1 -1 -1 0 0 0 0];


internalField   nonuniform List<scalar> 
30038
(
1.40478e-05
1.40478e-05
1.40478e-05
1.40478e-05
1.40478e-05
1.40478e-05
1.40478e-05
1.40478e-05
1.40478e-05
1.40478e-05
1.40478e-05
1.40478e-05
1.40478e-05
1.40478e-05
1.40478e-05
1.40478e-05
1.40478e-05
1.40478e-05
1.40478e-05
1.40478e-05
1.40478e-05
1.40478e-05
1.40478e-05
1.40478e-05
1.40478e-05
1.40478e-05
1.40478e-05
1.40478e-05
1.40478e-05
1.40478e-05
1.40478e-05
1.40478e-05
1.40478e-05
1.40478e-05
1.40478e-05
1.40478e-05
1.40478e-05
1.40478e-05
1.40478e-05
1.40478e-05
1.40478e-05
1.40478e-05
1.40478e-05
1.40478e-05
1.40478e-05
1.40478e-05
1.40478e-05
1.40478e-05
1.40478e-05
1.40478e-05
1.40478e-05
1.40478e-05
1.40478e-05
1.40478e-05
1.40478e-05
1.40478e-05
1.40478e-05
1.40478e-05
1.40478e-05
1.40478e-05
1.40478e-05
1.40478e-05
1.40478e-05
1.40478e-05
1.40478e-05
1.40478e-05
1.40478e-05
1.40478e-05
1.40478e-05
1.40478e-05
1.40478e-05
1.40478e-05
1.40478e-05
1.40478e-05
1.40478e-05
1.40478e-05
1.40478e-05
1.40478e-05
1.40478e-05
1.40478e-05
1.40478e-05
1.40478e-05
1.40478e-05
1.40478e-05
1.40478e-05
1.40478e-05
1.40478e-05
1.40478e-05
1.40478e-05
1.40478e-05
1.40478e-05
1.40478e-05
1.40478e-05
1.40478e-05
1.40478e-05
1.40478e-05
1.40478e-05
1.40478e-05
1.40478e-05
1.40478e-05
1.40478e-05
1.40478e-05
1.40478e-05
1.40478e-05
1.40478e-05
1.40478e-05
1.40478e-05
1.40478e-05
1.40478e-05
1.40478e-05
1.40478e-05
1.40478e-05
1.40478e-05
1.40478e-05
1.40478e-05
1.40478e-05
1.40478e-05
1.40478e-05
1.40478e-05
1.40478e-05
1.40478e-05
1.40478e-05
1.40478e-05
1.40478e-05
1.40478e-05
1.40478e-05
1.40478e-05
1.40478e-05
1.40478e-05
1.40478e-05
1.40478e-05
1.40478e-05
1.40478e-05
1.40478e-05
1.40478e-05
1.40478e-05
1.40478e-05
1.40478e-05
1.40478e-05
1.40478e-05
1.40478e-05
1.40478e-05
1.40478e-05
1.40478e-05
1.40478e-05
1.40478e-05
1.40478e-05
1.40478e-05
1.40478e-05
1.40478e-05
1.40478e-05
1.40478e-05
1.40478e-05
1.40478e-05
1.40478e-05
1.40478e-05
1.40478e-05
1.40478e-05
1.40478e-05
1.40478e-05
1.40478e-05
1.40478e-05
1.40478e-05
1.40478e-05
1.40478e-05
1.40478e-05
1.40478e-05
1.40478e-05
1.40478e-05
1.40478e-05
1.40478e-05
1.40478e-05
1.40478e-05
1.40478e-05
1.40478e-05
1.40478e-05
1.40478e-05
1.40478e-05
1.40478e-05
1.40478e-05
1.40478e-05
1.40478e-05
1.40478e-05
1.40478e-05
1.40478e-05
1.40478e-05
1.40478e-05
1.40478e-05
1.40478e-05
1.40478e-05
1.40478e-05
1.40478e-05
1.40478e-05
1.40478e-05
1.40478e-05
1.40478e-05
1.40478e-05
1.40478e-05
1.40478e-05
1.40478e-05
1.40478e-05
1.40478e-05
1.40478e-05
1.40478e-05
1.40478e-05
1.40478e-05
1.40478e-05
1.40478e-05
1.40478e-05
1.40478e-05
1.40478e-05
1.40478e-05
1.40478e-05
1.40478e-05
1.40478e-05
1.40478e-05
1.40478e-05
1.40478e-05
1.40478e-05
1.40478e-05
1.40478e-05
1.40478e-05
1.40478e-05
1.40478e-05
1.40478e-05
1.40478e-05
1.40478e-05
1.40478e-05
1.40478e-05
1.40478e-05
1.40478e-05
1.40478e-05
1.40478e-05
1.40478e-05
1.40478e-05
1.40478e-05
1.40478e-05
1.40478e-05
1.40478e-05
1.40478e-05
1.40478e-05
1.40478e-05
1.40478e-05
1.40478e-05
1.40478e-05
1.40478e-05
1.40478e-05
1.40478e-05
1.40478e-05
1.40478e-05
1.40478e-05
1.40478e-05
1.40478e-05
1.40478e-05
1.40478e-05
1.40478e-05
1.40478e-05
1.40478e-05
1.40478e-05
1.40478e-05
1.40478e-05
1.40478e-05
1.40478e-05
1.40478e-05
1.40478e-05
1.40478e-05
1.40478e-05
1.40478e-05
1.40478e-05
1.40478e-05
1.40478e-05
1.40478e-05
1.40478e-05
1.40478e-05
1.40478e-05
1.40478e-05
1.40478e-05
1.40478e-05
1.40478e-05
1.40478e-05
1.40478e-05
1.40478e-05
1.40478e-05
1.40478e-05
1.40478e-05
1.40478e-05
1.40478e-05
1.40478e-05
1.40478e-05
1.40478e-05
1.40478e-05
1.40478e-05
1.40478e-05
1.40478e-05
1.40478e-05
1.40478e-05
1.40478e-05
1.40478e-05
1.40478e-05
1.40478e-05
1.40478e-05
1.40478e-05
1.40479e-05
1.40479e-05
1.40478e-05
1.40478e-05
1.40478e-05
1.40478e-05
1.40478e-05
1.40478e-05
1.40478e-05
1.40478e-05
1.40478e-05
1.40478e-05
1.40478e-05
1.40478e-05
1.40478e-05
1.40478e-05
1.40478e-05
1.40478e-05
1.40478e-05
1.40478e-05
1.40478e-05
1.40478e-05
1.40478e-05
1.40478e-05
1.40478e-05
1.40478e-05
1.40478e-05
1.40478e-05
1.40478e-05
1.40478e-05
1.40478e-05
1.40478e-05
1.40478e-05
1.40478e-05
1.40478e-05
1.40478e-05
1.40478e-05
1.40479e-05
1.40479e-05
1.40479e-05
1.4048e-05
1.40478e-05
1.40478e-05
1.40478e-05
1.40478e-05
1.40478e-05
1.40478e-05
1.40478e-05
1.40478e-05
1.40478e-05
1.40478e-05
1.40478e-05
1.40478e-05
1.40478e-05
1.40478e-05
1.40478e-05
1.40478e-05
1.40478e-05
1.40478e-05
1.40478e-05
1.40478e-05
1.40478e-05
1.40478e-05
1.40478e-05
1.40478e-05
1.40478e-05
1.40478e-05
1.40478e-05
1.40478e-05
1.40478e-05
1.40478e-05
1.40478e-05
1.40478e-05
1.40479e-05
1.40479e-05
1.40479e-05
1.4048e-05
1.4048e-05
1.40481e-05
1.40483e-05
1.40478e-05
1.40478e-05
1.40478e-05
1.40478e-05
1.40478e-05
1.40478e-05
1.40478e-05
1.40478e-05
1.40478e-05
1.40478e-05
1.40478e-05
1.40478e-05
1.40478e-05
1.40478e-05
1.40478e-05
1.40478e-05
1.40478e-05
1.40478e-05
1.40478e-05
1.40478e-05
1.40478e-05
1.40478e-05
1.40478e-05
1.40478e-05
1.40478e-05
1.40478e-05
1.40478e-05
1.40478e-05
1.40478e-05
1.40478e-05
1.40479e-05
1.40479e-05
1.40479e-05
1.4048e-05
1.40481e-05
1.40482e-05
1.40483e-05
1.40486e-05
1.40488e-05
1.40478e-05
1.40478e-05
1.40478e-05
1.40478e-05
1.40478e-05
1.40478e-05
1.40478e-05
1.40478e-05
1.40478e-05
1.40478e-05
1.40478e-05
1.40478e-05
1.40478e-05
1.40478e-05
1.40478e-05
1.40478e-05
1.40478e-05
1.40478e-05
1.40478e-05
1.40478e-05
1.40478e-05
1.40478e-05
1.40478e-05
1.40478e-05
1.40478e-05
1.40478e-05
1.40478e-05
1.40478e-05
1.40479e-05
1.40479e-05
1.40479e-05
1.4048e-05
1.4048e-05
1.40481e-05
1.40483e-05
1.40484e-05
1.40487e-05
1.4049e-05
1.40495e-05
1.40501e-05
1.40478e-05
1.40478e-05
1.40478e-05
1.40478e-05
1.40478e-05
1.40478e-05
1.40478e-05
1.40478e-05
1.40478e-05
1.40478e-05
1.40478e-05
1.40478e-05
1.40478e-05
1.40478e-05
1.40478e-05
1.40478e-05
1.40478e-05
1.40478e-05
1.40478e-05
1.40478e-05
1.40478e-05
1.40478e-05
1.40478e-05
1.40478e-05
1.40478e-05
1.40478e-05
1.40479e-05
1.40479e-05
1.40479e-05
1.4048e-05
1.40481e-05
1.40482e-05
1.40483e-05
1.40485e-05
1.40488e-05
1.40492e-05
1.40497e-05
1.40504e-05
1.40514e-05
1.40527e-05
1.40478e-05
1.40478e-05
1.40478e-05
1.40478e-05
1.40478e-05
1.40478e-05
1.40478e-05
1.40478e-05
1.40478e-05
1.40478e-05
1.40478e-05
1.40478e-05
1.40478e-05
1.40478e-05
1.40478e-05
1.40478e-05
1.40478e-05
1.40478e-05
1.40478e-05
1.40478e-05
1.40478e-05
1.40478e-05
1.40478e-05
1.40479e-05
1.40479e-05
1.40479e-05
1.4048e-05
1.4048e-05
1.40481e-05
1.40482e-05
1.40484e-05
1.40486e-05
1.40489e-05
1.40494e-05
1.40499e-05
1.40507e-05
1.40518e-05
1.40534e-05
1.40554e-05
1.40583e-05
1.40478e-05
1.40478e-05
1.40478e-05
1.40478e-05
1.40478e-05
1.40478e-05
1.40478e-05
1.40478e-05
1.40478e-05
1.40478e-05
1.40478e-05
1.40478e-05
1.40478e-05
1.40478e-05
1.40478e-05
1.40478e-05
1.40478e-05
1.40478e-05
1.40478e-05
1.40478e-05
1.40478e-05
1.40479e-05
1.40479e-05
1.40479e-05
1.4048e-05
1.40481e-05
1.40482e-05
1.40483e-05
1.40485e-05
1.40488e-05
1.40491e-05
1.40496e-05
1.40502e-05
1.40511e-05
1.40524e-05
1.40541e-05
1.40564e-05
1.40595e-05
1.40639e-05
1.40699e-05
1.40478e-05
1.40478e-05
1.40478e-05
1.40478e-05
1.40478e-05
1.40478e-05
1.40478e-05
1.40478e-05
1.40478e-05
1.40478e-05
1.40478e-05
1.40478e-05
1.40478e-05
1.40478e-05
1.40478e-05
1.40478e-05
1.40478e-05
1.40478e-05
1.40479e-05
1.40479e-05
1.40479e-05
1.4048e-05
1.4048e-05
1.40481e-05
1.40482e-05
1.40484e-05
1.40486e-05
1.40489e-05
1.40493e-05
1.40498e-05
1.40506e-05
1.40516e-05
1.4053e-05
1.40548e-05
1.40574e-05
1.40609e-05
1.40657e-05
1.40723e-05
1.40813e-05
1.40937e-05
1.40478e-05
1.40478e-05
1.40478e-05
1.40478e-05
1.40478e-05
1.40478e-05
1.40478e-05
1.40478e-05
1.40478e-05
1.40478e-05
1.40478e-05
1.40478e-05
1.40478e-05
1.40478e-05
1.40478e-05
1.40479e-05
1.40479e-05
1.40479e-05
1.40479e-05
1.4048e-05
1.40481e-05
1.40482e-05
1.40483e-05
1.40485e-05
1.40487e-05
1.4049e-05
1.40495e-05
1.40501e-05
1.40509e-05
1.40521e-05
1.40536e-05
1.40557e-05
1.40585e-05
1.40624e-05
1.40677e-05
1.40749e-05
1.40848e-05
1.40982e-05
1.41166e-05
1.41417e-05
1.40478e-05
1.40478e-05
1.40478e-05
1.40478e-05
1.40478e-05
1.40478e-05
1.40478e-05
1.40478e-05
1.40478e-05
1.40478e-05
1.40478e-05
1.40478e-05
1.40478e-05
1.40479e-05
1.40479e-05
1.40479e-05
1.4048e-05
1.4048e-05
1.40481e-05
1.40482e-05
1.40484e-05
1.40486e-05
1.40488e-05
1.40492e-05
1.40497e-05
1.40504e-05
1.40513e-05
1.40526e-05
1.40543e-05
1.40566e-05
1.40598e-05
1.40641e-05
1.40699e-05
1.40778e-05
1.40886e-05
1.41032e-05
1.41231e-05
1.41502e-05
1.4187e-05
1.42369e-05
1.40478e-05
1.40478e-05
1.40478e-05
1.40478e-05
1.40478e-05
1.40478e-05
1.40478e-05
1.40478e-05
1.40478e-05
1.40478e-05
1.40478e-05
1.40479e-05
1.40479e-05
1.40479e-05
1.40479e-05
1.4048e-05
1.40481e-05
1.40482e-05
1.40483e-05
1.40485e-05
1.40487e-05
1.4049e-05
1.40494e-05
1.405e-05
1.40507e-05
1.40518e-05
1.40532e-05
1.40551e-05
1.40577e-05
1.40611e-05
1.40659e-05
1.40723e-05
1.4081e-05
1.40927e-05
1.41087e-05
1.41303e-05
1.41596e-05
1.41991e-05
1.42524e-05
1.43243e-05
1.44208e-05
1.40478e-05
1.40478e-05
1.40478e-05
1.40478e-05
1.40478e-05
1.40478e-05
1.40478e-05
1.40478e-05
1.40478e-05
1.40479e-05
1.40479e-05
1.40479e-05
1.4048e-05
1.4048e-05
1.40481e-05
1.40482e-05
1.40484e-05
1.40485e-05
1.40488e-05
1.40492e-05
1.40496e-05
1.40503e-05
1.40511e-05
1.40523e-05
1.40538e-05
1.40559e-05
1.40588e-05
1.40626e-05
1.40678e-05
1.40748e-05
1.40843e-05
1.40971e-05
1.41145e-05
1.41379e-05
1.41696e-05
1.42121e-05
1.42693e-05
1.43459e-05
1.44481e-05
1.45837e-05
1.47624e-05
1.40478e-05
1.40478e-05
1.40478e-05
1.40478e-05
1.40478e-05
1.40478e-05
1.40478e-05
1.40479e-05
1.40479e-05
1.40479e-05
1.40479e-05
1.4048e-05
1.40481e-05
1.40481e-05
1.40483e-05
1.40484e-05
1.40486e-05
1.40489e-05
1.40493e-05
1.40499e-05
1.40506e-05
1.40515e-05
1.40528e-05
1.40545e-05
1.40568e-05
1.406e-05
1.40642e-05
1.40699e-05
1.40775e-05
1.40879e-05
1.41018e-05
1.41206e-05
1.4146e-05
1.41801e-05
1.42259e-05
1.42871e-05
1.43689e-05
1.44774e-05
1.46206e-05
1.48078e-05
1.50503e-05
1.53598e-05
1.40478e-05
1.40478e-05
1.40478e-05
1.40478e-05
1.40478e-05
1.40478e-05
1.40479e-05
1.40479e-05
1.40479e-05
1.4048e-05
1.4048e-05
1.40481e-05
1.40482e-05
1.40483e-05
1.40485e-05
1.40488e-05
1.40491e-05
1.40495e-05
1.40501e-05
1.40509e-05
1.40519e-05
1.40534e-05
1.40553e-05
1.40578e-05
1.40612e-05
1.40659e-05
1.40721e-05
1.40804e-05
1.40917e-05
1.41068e-05
1.41271e-05
1.41545e-05
1.41911e-05
1.42402e-05
1.43057e-05
1.43928e-05
1.45079e-05
1.46591e-05
1.48559e-05
1.51088e-05
1.54294e-05
1.58287e-05
1.63148e-05
1.40478e-05
1.40478e-05
1.40478e-05
1.40479e-05
1.40479e-05
1.40479e-05
1.40479e-05
1.4048e-05
1.40481e-05
1.40481e-05
1.40483e-05
1.40484e-05
1.40486e-05
1.40489e-05
1.40493e-05
1.40497e-05
1.40504e-05
1.40513e-05
1.40524e-05
1.4054e-05
1.40561e-05
1.40589e-05
1.40626e-05
1.40677e-05
1.40744e-05
1.40835e-05
1.40957e-05
1.4112e-05
1.4134e-05
1.41633e-05
1.42026e-05
1.42551e-05
1.43249e-05
1.44174e-05
1.45393e-05
1.46987e-05
1.49051e-05
1.51692e-05
1.55018e-05
1.59128e-05
1.64094e-05
1.69943e-05
1.76617e-05
1.40478e-05
1.40478e-05
1.40479e-05
1.40479e-05
1.40479e-05
1.4048e-05
1.4048e-05
1.40481e-05
1.40482e-05
1.40483e-05
1.40485e-05
1.40487e-05
1.4049e-05
1.40494e-05
1.405e-05
1.40507e-05
1.40517e-05
1.40529e-05
1.40547e-05
1.4057e-05
1.406e-05
1.40641e-05
1.40696e-05
1.4077e-05
1.40868e-05
1.41e-05
1.41176e-05
1.41412e-05
1.41726e-05
1.42147e-05
1.42706e-05
1.43447e-05
1.44427e-05
1.45713e-05
1.47389e-05
1.49551e-05
1.52302e-05
1.5575e-05
1.59986e-05
1.65068e-05
1.71002e-05
1.7772e-05
1.85065e-05
1.92799e-05
1.40479e-05
1.40479e-05
1.40479e-05
1.40479e-05
1.4048e-05
1.40481e-05
1.40481e-05
1.40482e-05
1.40484e-05
1.40486e-05
1.40488e-05
1.40492e-05
1.40496e-05
1.40502e-05
1.4051e-05
1.40521e-05
1.40535e-05
1.40554e-05
1.40579e-05
1.40613e-05
1.40657e-05
1.40717e-05
1.40796e-05
1.40903e-05
1.41045e-05
1.41234e-05
1.41487e-05
1.41823e-05
1.42271e-05
1.42865e-05
1.43651e-05
1.44686e-05
1.46039e-05
1.47796e-05
1.50053e-05
1.52913e-05
1.56479e-05
1.60836e-05
1.66036e-05
1.72072e-05
1.78858e-05
1.86214e-05
1.93878e-05
2.01498e-05
2.08701e-05
1.40479e-05
1.40479e-05
1.4048e-05
1.4048e-05
1.40481e-05
1.40482e-05
1.40483e-05
1.40485e-05
1.40487e-05
1.4049e-05
1.40494e-05
1.40499e-05
1.40505e-05
1.40514e-05
1.40526e-05
1.40541e-05
1.40562e-05
1.40589e-05
1.40626e-05
1.40674e-05
1.40739e-05
1.40825e-05
1.40939e-05
1.41092e-05
1.41295e-05
1.41565e-05
1.41924e-05
1.424e-05
1.4303e-05
1.4386e-05
1.4495e-05
1.4637e-05
1.48207e-05
1.50556e-05
1.5352e-05
1.57199e-05
1.61672e-05
1.66982e-05
1.73114e-05
1.7997e-05
1.87364e-05
1.95021e-05
2.02583e-05
2.09635e-05
2.15773e-05
2.20772e-05
1.40479e-05
1.40479e-05
1.4048e-05
1.40481e-05
1.40481e-05
1.40482e-05
1.40484e-05
1.40486e-05
1.40488e-05
1.40491e-05
1.40495e-05
1.40501e-05
1.40508e-05
1.40518e-05
1.40531e-05
1.40548e-05
1.4057e-05
1.406e-05
1.4064e-05
1.40693e-05
1.40762e-05
1.40855e-05
1.40978e-05
1.41142e-05
1.41359e-05
1.41647e-05
1.42029e-05
1.42533e-05
1.43199e-05
1.44074e-05
1.45218e-05
1.46705e-05
1.48619e-05
1.51058e-05
1.54122e-05
1.57907e-05
1.62488e-05
1.67899e-05
1.74116e-05
1.81036e-05
1.88462e-05
1.96122e-05
2.03658e-05
2.10658e-05
2.16724e-05
2.21592e-05
2.25206e-05
2.27743e-05
1.4048e-05
1.40481e-05
1.40482e-05
1.40483e-05
1.40485e-05
1.40487e-05
1.40489e-05
1.40493e-05
1.40498e-05
1.40504e-05
1.40512e-05
1.40522e-05
1.40537e-05
1.40555e-05
1.4058e-05
1.40612e-05
1.40655e-05
1.40712e-05
1.40787e-05
1.40887e-05
1.41019e-05
1.41194e-05
1.41426e-05
1.41732e-05
1.42137e-05
1.42671e-05
1.43373e-05
1.44292e-05
1.45491e-05
1.47042e-05
1.49032e-05
1.51558e-05
1.54717e-05
1.58602e-05
1.63282e-05
1.68784e-05
1.75077e-05
1.82049e-05
1.89501e-05
1.97158e-05
2.0467e-05
2.11631e-05
2.17653e-05
2.22478e-05
2.26055e-05
2.28526e-05
2.30127e-05
2.31125e-05
1.40481e-05
1.40481e-05
1.40482e-05
1.40484e-05
1.40485e-05
1.40488e-05
1.40491e-05
1.40495e-05
1.405e-05
1.40507e-05
1.40516e-05
1.40527e-05
1.40543e-05
1.40563e-05
1.4059e-05
1.40625e-05
1.40671e-05
1.40733e-05
1.40814e-05
1.40921e-05
1.41062e-05
1.41249e-05
1.41495e-05
1.4182e-05
1.42249e-05
1.42812e-05
1.4355e-05
1.44514e-05
1.45766e-05
1.47381e-05
1.49445e-05
1.52054e-05
1.55304e-05
1.59282e-05
1.64053e-05
1.69637e-05
1.75995e-05
1.83011e-05
1.9048e-05
1.9813e-05
2.05616e-05
2.12541e-05
2.18528e-05
2.23325e-05
2.26883e-05
2.2934e-05
2.30931e-05
2.31906e-05
2.32468e-05
2.32775e-05
1.40483e-05
1.40485e-05
1.40486e-05
1.40489e-05
1.40492e-05
1.40497e-05
1.40502e-05
1.4051e-05
1.4052e-05
1.40533e-05
1.40549e-05
1.40571e-05
1.406e-05
1.40639e-05
1.40689e-05
1.40755e-05
1.40842e-05
1.40956e-05
1.41107e-05
1.41306e-05
1.41568e-05
1.41912e-05
1.42364e-05
1.42957e-05
1.43732e-05
1.4474e-05
1.46045e-05
1.47722e-05
1.49857e-05
1.52545e-05
1.55879e-05
1.59945e-05
1.64798e-05
1.70455e-05
1.76868e-05
1.83919e-05
1.91399e-05
1.99037e-05
2.06496e-05
2.13389e-05
2.19347e-05
2.24125e-05
2.27674e-05
2.30128e-05
2.3172e-05
2.32694e-05
2.33254e-05
2.33553e-05
2.33694e-05
2.33731e-05
1.40488e-05
1.4049e-05
1.40494e-05
1.40499e-05
1.40505e-05
1.40514e-05
1.40524e-05
1.40538e-05
1.40557e-05
1.40581e-05
1.40612e-05
1.40653e-05
1.40707e-05
1.40778e-05
1.40871e-05
1.40994e-05
1.41155e-05
1.41366e-05
1.41643e-05
1.42007e-05
1.42483e-05
1.43106e-05
1.43917e-05
1.44968e-05
1.46325e-05
1.48062e-05
1.50266e-05
1.5303e-05
1.56444e-05
1.60589e-05
1.65517e-05
1.71237e-05
1.77697e-05
1.84773e-05
1.92258e-05
1.9988e-05
2.07312e-05
2.14175e-05
2.20112e-05
2.24878e-05
2.28427e-05
2.30886e-05
2.32484e-05
2.33465e-05
2.34032e-05
2.34329e-05
2.34467e-05
2.34505e-05
2.34488e-05
2.34442e-05
1.40496e-05
1.40502e-05
1.40509e-05
1.40518e-05
1.40529e-05
1.40545e-05
1.40565e-05
1.40591e-05
1.40625e-05
1.40669e-05
1.40727e-05
1.40804e-05
1.40903e-05
1.41034e-05
1.41205e-05
1.41429e-05
1.41722e-05
1.42106e-05
1.42606e-05
1.43259e-05
1.44106e-05
1.452e-05
1.46608e-05
1.48404e-05
1.50674e-05
1.53508e-05
1.56996e-05
1.61214e-05
1.66209e-05
1.71983e-05
1.78481e-05
1.85575e-05
1.93059e-05
2.00661e-05
2.08065e-05
2.14902e-05
2.20822e-05
2.25586e-05
2.29142e-05
2.31614e-05
2.33226e-05
2.34216e-05
2.34788e-05
2.35094e-05
2.35235e-05
2.35266e-05
2.3525e-05
2.35202e-05
2.35134e-05
2.35058e-05
1.40512e-05
1.40522e-05
1.40535e-05
1.40552e-05
1.40574e-05
1.40602e-05
1.40639e-05
1.40687e-05
1.40749e-05
1.40831e-05
1.40938e-05
1.41077e-05
1.41259e-05
1.41496e-05
1.41806e-05
1.42209e-05
1.42735e-05
1.43417e-05
1.443e-05
1.45437e-05
1.46894e-05
1.48747e-05
1.51079e-05
1.53981e-05
1.57538e-05
1.61821e-05
1.66874e-05
1.72695e-05
1.79222e-05
1.86327e-05
1.93803e-05
2.01383e-05
2.08758e-05
2.15572e-05
2.21481e-05
2.2625e-05
2.29821e-05
2.32312e-05
2.33942e-05
2.34948e-05
2.35531e-05
2.3584e-05
2.35986e-05
2.36023e-05
2.36003e-05
2.3595e-05
2.35884e-05
2.35807e-05
2.35715e-05
2.35632e-05
1.40542e-05
1.40561e-05
1.40584e-05
1.40615e-05
1.40655e-05
1.40707e-05
1.40774e-05
1.40862e-05
1.40976e-05
1.41124e-05
1.41317e-05
1.41568e-05
1.41895e-05
1.42319e-05
1.4287e-05
1.43582e-05
1.44501e-05
1.45681e-05
1.47187e-05
1.49094e-05
1.51487e-05
1.54451e-05
1.58072e-05
1.62415e-05
1.67518e-05
1.73376e-05
1.79925e-05
1.87033e-05
1.94496e-05
2.02051e-05
2.09396e-05
2.16188e-05
2.22091e-05
2.26871e-05
2.30465e-05
2.32983e-05
2.34638e-05
2.35662e-05
2.36258e-05
2.36578e-05
2.36726e-05
2.36763e-05
2.36747e-05
2.36695e-05
2.36618e-05
2.36541e-05
2.36468e-05
2.36361e-05
2.36266e-05
2.36185e-05
1.40598e-05
1.40631e-05
1.40675e-05
1.40731e-05
1.40804e-05
1.40898e-05
1.4102e-05
1.41178e-05
1.41383e-05
1.41649e-05
1.41994e-05
1.4244e-05
1.43016e-05
1.4376e-05
1.44715e-05
1.45938e-05
1.47492e-05
1.49453e-05
1.51903e-05
1.54928e-05
1.58606e-05
1.63002e-05
1.68149e-05
1.74037e-05
1.80599e-05
1.87703e-05
1.95148e-05
2.02673e-05
2.09987e-05
2.16759e-05
2.22659e-05
2.27456e-05
2.3108e-05
2.33631e-05
2.35315e-05
2.36362e-05
2.36975e-05
2.37303e-05
2.37459e-05
2.37502e-05
2.37482e-05
2.37431e-05
2.37358e-05
2.37271e-05
2.37176e-05
2.371e-05
2.37016e-05
2.36892e-05
2.368e-05
2.36724e-05
1.40701e-05
1.40762e-05
1.40841e-05
1.40943e-05
1.41074e-05
1.41244e-05
1.41462e-05
1.41745e-05
1.42109e-05
1.42579e-05
1.43183e-05
1.4396e-05
1.44953e-05
1.46219e-05
1.47823e-05
1.49837e-05
1.52344e-05
1.55426e-05
1.59159e-05
1.63602e-05
1.68786e-05
1.74696e-05
1.81263e-05
1.88356e-05
1.95776e-05
2.03268e-05
2.10548e-05
2.17299e-05
2.23199e-05
2.28016e-05
2.31674e-05
2.34264e-05
2.35983e-05
2.37057e-05
2.37689e-05
2.38031e-05
2.38193e-05
2.38239e-05
2.38224e-05
2.38171e-05
2.38094e-05
2.38012e-05
2.37927e-05
2.37815e-05
2.37717e-05
2.37644e-05
2.3754e-05
2.37417e-05
2.37327e-05
2.37254e-05
1.40894e-05
1.41006e-05
1.41148e-05
1.41331e-05
1.41566e-05
1.41868e-05
1.42255e-05
1.42752e-05
1.43388e-05
1.44201e-05
1.45237e-05
1.4655e-05
1.48206e-05
1.50276e-05
1.5284e-05
1.55979e-05
1.59764e-05
1.64251e-05
1.69466e-05
1.75391e-05
1.81955e-05
1.89029e-05
1.96417e-05
2.0387e-05
2.1111e-05
2.17836e-05
2.23735e-05
2.28574e-05
2.32269e-05
2.34902e-05
2.36659e-05
2.37765e-05
2.38419e-05
2.38775e-05
2.38947e-05
2.38998e-05
2.38982e-05
2.38931e-05
2.38857e-05
2.38765e-05
2.38671e-05
2.38589e-05
2.38481e-05
2.38364e-05
2.38269e-05
2.38191e-05
2.38071e-05
2.37951e-05
2.37866e-05
2.37789e-05
1.41261e-05
1.41462e-05
1.41719e-05
1.42046e-05
1.42462e-05
1.42992e-05
1.43667e-05
1.44525e-05
1.4561e-05
1.46978e-05
1.48692e-05
1.50824e-05
1.53451e-05
1.5665e-05
1.60488e-05
1.65018e-05
1.7026e-05
1.76194e-05
1.82747e-05
1.89791e-05
1.97136e-05
2.0454e-05
2.11733e-05
2.18426e-05
2.24317e-05
2.29174e-05
2.32907e-05
2.35582e-05
2.37381e-05
2.38519e-05
2.39197e-05
2.39571e-05
2.39752e-05
2.3981e-05
2.39798e-05
2.39747e-05
2.39669e-05
2.39583e-05
2.39489e-05
2.39378e-05
2.3928e-05
2.39196e-05
2.39069e-05
2.38954e-05
2.38861e-05
2.38769e-05
2.38643e-05
2.38526e-05
2.38444e-05
2.38358e-05
1.41967e-05
1.42329e-05
1.42786e-05
1.43363e-05
1.4409e-05
1.45006e-05
1.46155e-05
1.47593e-05
1.49381e-05
1.51589e-05
1.54291e-05
1.57559e-05
1.61457e-05
1.66031e-05
1.71299e-05
1.77235e-05
1.83767e-05
1.90769e-05
1.98057e-05
2.05397e-05
2.12525e-05
2.19168e-05
2.25037e-05
2.29901e-05
2.33662e-05
2.36378e-05
2.38215e-05
2.39387e-05
2.4009e-05
2.40481e-05
2.40675e-05
2.40741e-05
2.4073e-05
2.40684e-05
2.40608e-05
2.40516e-05
2.40419e-05
2.40327e-05
2.40209e-05
2.40092e-05
2.39995e-05
2.39895e-05
2.39755e-05
2.3964e-05
2.39548e-05
2.39437e-05
2.39309e-05
2.39192e-05
2.39101e-05
2.39007e-05
1.43342e-05
1.43988e-05
1.44793e-05
1.45794e-05
1.47035e-05
1.4857e-05
1.5046e-05
1.5277e-05
1.5557e-05
1.58927e-05
1.629e-05
1.67528e-05
1.72822e-05
1.78755e-05
1.85254e-05
1.92194e-05
1.994e-05
2.06647e-05
2.13682e-05
2.20246e-05
2.26064e-05
2.30909e-05
2.34679e-05
2.37419e-05
2.39286e-05
2.40486e-05
2.41212e-05
2.41621e-05
2.41826e-05
2.41902e-05
2.41897e-05
2.41854e-05
2.4178e-05
2.41694e-05
2.41595e-05
2.41485e-05
2.41388e-05
2.41287e-05
2.41144e-05
2.41027e-05
2.40928e-05
2.40795e-05
2.40647e-05
2.40527e-05
2.4042e-05
2.40291e-05
2.40155e-05
2.40029e-05
2.39916e-05
2.39808e-05
1.46038e-05
1.47171e-05
1.48554e-05
1.50237e-05
1.52277e-05
1.54736e-05
1.57676e-05
1.61158e-05
1.65231e-05
1.69927e-05
1.75252e-05
1.81173e-05
1.87617e-05
1.94465e-05
2.01549e-05
2.08655e-05
2.15545e-05
2.21976e-05
2.2769e-05
2.32468e-05
2.36205e-05
2.38938e-05
2.40812e-05
2.42024e-05
2.42764e-05
2.43186e-05
2.43401e-05
2.43488e-05
2.43488e-05
2.43454e-05
2.4339e-05
2.43306e-05
2.43215e-05
2.43121e-05
2.43003e-05
2.42884e-05
2.42786e-05
2.42652e-05
2.42501e-05
2.42373e-05
2.4225e-05
2.42089e-05
2.41924e-05
2.41783e-05
2.41639e-05
2.41482e-05
2.41322e-05
2.41168e-05
2.41021e-05
2.40884e-05
1.51267e-05
1.53182e-05
1.55453e-05
1.58135e-05
1.61282e-05
1.64941e-05
1.69154e-05
1.7394e-05
1.79298e-05
1.8519e-05
1.91543e-05
1.98244e-05
2.05136e-05
2.12021e-05
2.18679e-05
2.24886e-05
2.30404e-05
2.35028e-05
2.38657e-05
2.41319e-05
2.43153e-05
2.44344e-05
2.45076e-05
2.45496e-05
2.45714e-05
2.45809e-05
2.45823e-05
2.458e-05
2.45752e-05
2.45688e-05
2.45609e-05
2.45517e-05
2.45424e-05
2.45319e-05
2.45178e-05
2.45048e-05
2.44925e-05
2.4475e-05
2.44576e-05
2.44419e-05
2.44243e-05
2.44046e-05
2.43844e-05
2.43648e-05
2.43446e-05
2.43235e-05
2.43022e-05
2.42813e-05
2.42609e-05
2.42418e-05
1.61007e-05
1.6402e-05
1.67463e-05
1.71371e-05
1.75769e-05
1.80665e-05
1.86045e-05
1.91869e-05
1.98066e-05
2.04529e-05
2.11118e-05
2.17652e-05
2.23937e-05
2.29773e-05
2.34948e-05
2.39276e-05
2.42666e-05
2.45149e-05
2.46856e-05
2.47962e-05
2.4864e-05
2.49031e-05
2.49239e-05
2.49337e-05
2.49368e-05
2.49364e-05
2.49342e-05
2.49306e-05
2.49257e-05
2.4919e-05
2.49106e-05
2.49006e-05
2.48905e-05
2.48752e-05
2.48584e-05
2.48423e-05
2.48234e-05
2.48009e-05
2.47781e-05
2.47551e-05
2.47295e-05
2.47023e-05
2.46742e-05
2.46454e-05
2.46157e-05
2.45851e-05
2.4554e-05
2.45231e-05
2.44928e-05
2.44641e-05
1.73856e-05
1.77693e-05
1.81916e-05
1.86533e-05
1.91535e-05
1.96899e-05
2.02581e-05
2.08513e-05
2.14603e-05
2.20722e-05
2.26715e-05
2.32425e-05
2.37679e-05
2.42293e-05
2.46111e-05
2.49064e-05
2.51196e-05
2.52635e-05
2.53547e-05
2.54093e-05
2.54401e-05
2.54569e-05
2.54659e-05
2.54708e-05
2.54733e-05
2.5474e-05
2.54738e-05
2.54723e-05
2.5469e-05
2.54637e-05
2.54558e-05
2.54443e-05
2.5431e-05
2.54162e-05
2.53933e-05
2.53702e-05
2.53465e-05
2.53179e-05
2.52868e-05
2.52537e-05
2.52182e-05
2.51804e-05
2.51403e-05
2.50987e-05
2.50557e-05
2.50113e-05
2.49656e-05
2.4919e-05
2.48723e-05
2.48261e-05
2.47822e-05
1.98021e-05
2.02834e-05
2.07889e-05
2.13151e-05
2.18573e-05
2.24093e-05
2.29628e-05
2.35066e-05
2.4029e-05
2.45174e-05
2.49579e-05
2.53354e-05
2.56383e-05
2.58637e-05
2.60182e-05
2.61154e-05
2.61714e-05
2.62008e-05
2.62149e-05
2.62216e-05
2.62256e-05
2.62292e-05
2.6233e-05
2.62364e-05
2.62387e-05
2.62392e-05
2.62381e-05
2.62343e-05
2.62274e-05
2.62175e-05
2.62034e-05
2.61837e-05
2.61628e-05
2.61366e-05
2.61038e-05
2.60703e-05
2.60331e-05
2.5992e-05
2.59475e-05
2.58996e-05
2.58484e-05
2.57939e-05
2.57363e-05
2.56764e-05
2.56146e-05
2.55507e-05
2.5485e-05
2.54179e-05
2.53501e-05
2.52825e-05
2.52176e-05
2.25152e-05
2.30121e-05
2.35133e-05
2.40137e-05
2.45065e-05
2.49837e-05
2.54376e-05
2.58605e-05
2.62419e-05
2.65696e-05
2.68318e-05
2.70244e-05
2.71505e-05
2.72204e-05
2.72488e-05
2.72495e-05
2.72379e-05
2.72229e-05
2.72089e-05
2.71986e-05
2.71928e-05
2.71901e-05
2.71892e-05
2.71886e-05
2.71866e-05
2.71821e-05
2.7175e-05
2.71654e-05
2.7152e-05
2.71341e-05
2.71135e-05
2.70853e-05
2.70538e-05
2.70205e-05
2.69798e-05
2.69358e-05
2.68891e-05
2.68387e-05
2.67836e-05
2.67243e-05
2.66614e-05
2.65949e-05
2.65246e-05
2.64506e-05
2.63733e-05
2.62932e-05
2.62103e-05
2.61247e-05
2.60369e-05
2.59473e-05
2.58571e-05
2.57692e-05
2.61504e-05
2.65837e-05
2.69949e-05
2.73781e-05
2.77257e-05
2.80278e-05
2.82748e-05
2.84597e-05
2.8578e-05
2.86337e-05
2.86321e-05
2.8597e-05
2.85387e-05
2.84704e-05
2.84028e-05
2.83426e-05
2.82932e-05
2.82552e-05
2.82267e-05
2.82053e-05
2.81885e-05
2.81739e-05
2.81598e-05
2.81448e-05
2.81277e-05
2.81077e-05
2.80847e-05
2.8059e-05
2.80301e-05
2.79987e-05
2.79619e-05
2.79197e-05
2.78772e-05
2.78306e-05
2.778e-05
2.77263e-05
2.76698e-05
2.76099e-05
2.75463e-05
2.74789e-05
2.74081e-05
2.73338e-05
2.72557e-05
2.71736e-05
2.70878e-05
2.69985e-05
2.69055e-05
2.68088e-05
2.67086e-05
2.66053e-05
2.64998e-05
2.63951e-05
2.95833e-05
2.98427e-05
3.00503e-05
3.01977e-05
3.02803e-05
3.02948e-05
3.02526e-05
3.01645e-05
3.0041e-05
2.98976e-05
2.97483e-05
2.96054e-05
2.94767e-05
2.93658e-05
2.92735e-05
2.91984e-05
2.91379e-05
2.90887e-05
2.90476e-05
2.90116e-05
2.89784e-05
2.89463e-05
2.89143e-05
2.88813e-05
2.88466e-05
2.88107e-05
2.87726e-05
2.87313e-05
2.86893e-05
2.86473e-05
2.85989e-05
2.85485e-05
2.84983e-05
2.84455e-05
2.83898e-05
2.83321e-05
2.82728e-05
2.82114e-05
2.81474e-05
2.80807e-05
2.80112e-05
2.79388e-05
2.78633e-05
2.77843e-05
2.77018e-05
2.76156e-05
2.75256e-05
2.74314e-05
2.73329e-05
2.72302e-05
2.71235e-05
2.70159e-05
3.1989e-05
3.19515e-05
3.1862e-05
3.1723e-05
3.15448e-05
3.1339e-05
3.11185e-05
3.08962e-05
3.06812e-05
3.04809e-05
3.03018e-05
3.01468e-05
3.00157e-05
2.99064e-05
2.98156e-05
2.97396e-05
2.96747e-05
2.96179e-05
2.95665e-05
2.95184e-05
2.94721e-05
2.94273e-05
2.93826e-05
2.9337e-05
2.92913e-05
2.9245e-05
2.91972e-05
2.91486e-05
2.91006e-05
2.90523e-05
2.90002e-05
2.8947e-05
2.8894e-05
2.884e-05
2.87847e-05
2.87285e-05
2.86717e-05
2.86137e-05
2.85543e-05
2.84932e-05
2.84304e-05
2.83656e-05
2.82986e-05
2.82292e-05
2.8157e-05
2.80819e-05
2.80036e-05
2.79215e-05
2.78354e-05
2.77451e-05
2.76502e-05
2.75532e-05
3.28717e-05
3.26262e-05
3.23621e-05
3.20876e-05
3.18118e-05
3.15439e-05
3.12911e-05
3.10598e-05
3.08535e-05
3.0674e-05
3.05186e-05
3.03855e-05
3.0273e-05
3.01773e-05
3.00952e-05
3.00232e-05
2.99583e-05
2.98992e-05
2.98435e-05
2.97897e-05
2.97375e-05
2.96866e-05
2.9636e-05
2.95856e-05
2.95355e-05
2.94855e-05
2.94346e-05
2.9384e-05
2.93347e-05
2.92848e-05
2.92328e-05
2.91805e-05
2.91286e-05
2.90764e-05
2.90241e-05
2.89716e-05
2.89191e-05
2.88662e-05
2.88126e-05
2.87583e-05
2.8703e-05
2.86466e-05
2.8589e-05
2.853e-05
2.84692e-05
2.84065e-05
2.83416e-05
2.8274e-05
2.82034e-05
2.81295e-05
2.80516e-05
2.79717e-05
3.28286e-05
3.25242e-05
3.22272e-05
3.19424e-05
3.16751e-05
3.14293e-05
3.12078e-05
3.10125e-05
3.08435e-05
3.06991e-05
3.05754e-05
3.04689e-05
3.03767e-05
3.02952e-05
3.02232e-05
3.01571e-05
3.00954e-05
3.00372e-05
2.99815e-05
2.99274e-05
2.98746e-05
2.98227e-05
2.97712e-05
2.97201e-05
2.96699e-05
2.962e-05
2.95699e-05
2.95204e-05
2.9472e-05
2.9423e-05
2.93732e-05
2.93234e-05
2.9274e-05
2.9225e-05
2.91763e-05
2.9128e-05
2.908e-05
2.90319e-05
2.89837e-05
2.89353e-05
2.88865e-05
2.88373e-05
2.87875e-05
2.8737e-05
2.86857e-05
2.86333e-05
2.85797e-05
2.85245e-05
2.84673e-05
2.84082e-05
2.83461e-05
2.82828e-05
3.24868e-05
3.21949e-05
3.19218e-05
3.16713e-05
3.14456e-05
3.12452e-05
3.10698e-05
3.09178e-05
3.07866e-05
3.0673e-05
3.05754e-05
3.049e-05
3.04149e-05
3.03452e-05
3.02813e-05
3.02215e-05
3.01645e-05
3.01095e-05
3.00561e-05
3.00039e-05
2.99527e-05
2.99023e-05
2.98523e-05
2.98027e-05
2.97542e-05
2.97064e-05
2.96584e-05
2.96112e-05
2.95648e-05
2.9518e-05
2.94709e-05
2.9424e-05
2.93778e-05
2.93322e-05
2.92872e-05
2.92428e-05
2.91988e-05
2.9155e-05
2.91114e-05
2.90679e-05
2.90244e-05
2.89809e-05
2.89372e-05
2.88933e-05
2.8849e-05
2.88044e-05
2.87591e-05
2.87132e-05
2.86662e-05
2.86182e-05
2.85684e-05
2.8518e-05
3.18283e-05
3.16053e-05
3.14058e-05
3.123e-05
3.10766e-05
3.09437e-05
3.08287e-05
3.07288e-05
3.06414e-05
3.05647e-05
3.04945e-05
3.04307e-05
3.03712e-05
3.03145e-05
3.026e-05
3.02072e-05
3.01556e-05
3.01048e-05
3.00548e-05
3.00056e-05
2.99571e-05
2.99089e-05
2.98614e-05
2.9815e-05
2.97692e-05
2.97235e-05
2.96785e-05
2.9634e-05
2.95895e-05
2.9545e-05
2.95012e-05
2.9458e-05
2.94157e-05
2.93741e-05
2.93333e-05
2.92931e-05
2.92534e-05
2.92141e-05
2.91752e-05
2.91365e-05
2.90981e-05
2.906e-05
2.90219e-05
2.89839e-05
2.89457e-05
2.89073e-05
2.88684e-05
2.88288e-05
2.8789e-05
2.87481e-05
2.87072e-05
3.15227e-05
3.135e-05
3.11986e-05
3.10669e-05
3.09523e-05
3.08524e-05
3.07653e-05
3.0689e-05
3.06205e-05
3.05578e-05
3.04991e-05
3.04431e-05
3.03893e-05
3.03369e-05
3.02857e-05
3.02356e-05
3.01865e-05
3.01379e-05
3.00899e-05
3.00428e-05
2.99962e-05
2.995e-05
2.99047e-05
2.98605e-05
2.98167e-05
2.97732e-05
2.97304e-05
2.96878e-05
2.96455e-05
2.96036e-05
2.95624e-05
2.9522e-05
2.94826e-05
2.9444e-05
2.94062e-05
2.93692e-05