/*--------------------------------*- C++ -*----------------------------------*\
| =========                 |                                                 |
| \\      /  F ield         | OpenFOAM: The Open Source CFD Toolbox           |
|  \\    /   O peration     | Version:  v1706                                 |
|   \\  /    A nd           | Web:      www.OpenFOAM.com                      |
|    \\/     M anipulation  |                                                 |
\*---------------------------------------------------------------------------*/
FoamFile
{
    version     2.0;
    format      ascii;
    class       volScalarField;
    location    "1.4e-05";
    object      kappave;
}
// * * * * * * * * * * * * * * * * * * * * * * * * * * * * * * * * * * * * * //

dimensions      [1 1 -3 -1 0 0 0];


internalField   nonuniform List<scalar> 
30038
(
1.46038e-10
1.46038e-10
1.46038e-10
1.46038e-10
1.46038e-10
1.46038e-10
1.46038e-10
1.46038e-10
1.46038e-10
1.46038e-10
1.46038e-10
1.46038e-10
1.46038e-10
1.46038e-10
1.46038e-10
1.46038e-10
1.46038e-10
1.46038e-10
1.46038e-10
1.46038e-10
1.46038e-10
1.46038e-10
1.46038e-10
1.46038e-10
1.46038e-10
1.46038e-10
1.46038e-10
1.46038e-10
1.46038e-10
1.46038e-10
1.46038e-10
1.46038e-10
1.46038e-10
1.46038e-10
1.46038e-10
1.46038e-10
1.46038e-10
1.46038e-10
1.46038e-10
1.46038e-10
1.46038e-10
1.46038e-10
1.46038e-10
1.46038e-10
1.46038e-10
1.46038e-10
1.46038e-10
1.46038e-10
1.46038e-10
1.46038e-10
1.46038e-10
1.46038e-10
1.46038e-10
1.46038e-10
1.46038e-10
1.46038e-10
1.46038e-10
1.46038e-10
1.46038e-10
1.46038e-10
1.46038e-10
1.46038e-10
1.46038e-10
1.46038e-10
1.46038e-10
1.46038e-10
1.46038e-10
1.46038e-10
1.46038e-10
1.46038e-10
1.46038e-10
1.46038e-10
1.46038e-10
1.46038e-10
1.46038e-10
1.46038e-10
1.46038e-10
1.46038e-10
1.46038e-10
1.46038e-10
1.46038e-10
1.46038e-10
1.46038e-10
1.46038e-10
1.46038e-10
1.46038e-10
1.46038e-10
1.46038e-10
1.46038e-10
1.46038e-10
1.46038e-10
1.46038e-10
1.46038e-10
1.46038e-10
1.46038e-10
1.46038e-10
1.46038e-10
1.46038e-10
1.46038e-10
1.46038e-10
1.46038e-10
1.46038e-10
1.46038e-10
1.46038e-10
1.46038e-10
1.46038e-10
1.46038e-10
1.46038e-10
1.46038e-10
1.46038e-10
1.46038e-10
1.46038e-10
1.46038e-10
1.46038e-10
1.46038e-10
1.46038e-10
1.46038e-10
1.46038e-10
1.46038e-10
1.46038e-10
1.46038e-10
1.46038e-10
1.46038e-10
1.46038e-10
1.46038e-10
1.46038e-10
1.46038e-10
1.46038e-10
1.46038e-10
1.46038e-10
1.46038e-10
1.46038e-10
1.46038e-10
1.46038e-10
1.46038e-10
1.46038e-10
1.46038e-10
1.46038e-10
1.46038e-10
1.46038e-10
1.46038e-10
1.46038e-10
1.46038e-10
1.46038e-10
1.46038e-10
1.46038e-10
1.46038e-10
1.46038e-10
1.46038e-10
1.46038e-10
1.46038e-10
1.46038e-10
1.46038e-10
1.46038e-10
1.46038e-10
1.46038e-10
1.46038e-10
1.46038e-10
1.46038e-10
1.46038e-10
1.46038e-10
1.46038e-10
1.46038e-10
1.46038e-10
1.46038e-10
1.46038e-10
1.46038e-10
1.46038e-10
1.46038e-10
1.46038e-10
1.46038e-10
1.46038e-10
1.46038e-10
1.46038e-10
1.46038e-10
1.46038e-10
1.46038e-10
1.46038e-10
1.46038e-10
1.46038e-10
1.46038e-10
1.46038e-10
1.46038e-10
1.46038e-10
1.46038e-10
1.46038e-10
1.46038e-10
1.46038e-10
1.46038e-10
1.46038e-10
1.46038e-10
1.46038e-10
1.46038e-10
1.46038e-10
1.46038e-10
1.46038e-10
1.46038e-10
1.46038e-10
1.46038e-10
1.46038e-10
1.46038e-10
1.46038e-10
1.46038e-10
1.46038e-10
1.46038e-10
1.46038e-10
1.46038e-10
1.46038e-10
1.46038e-10
1.46038e-10
1.46038e-10
1.46038e-10
1.46038e-10
1.46038e-10
1.46038e-10
1.46038e-10
1.46038e-10
1.46038e-10
1.46038e-10
1.46038e-10
1.46038e-10
1.46038e-10
1.46038e-10
1.46038e-10
1.46038e-10
1.46038e-10
1.46038e-10
1.46038e-10
1.46038e-10
1.46038e-10
1.46038e-10
1.46038e-10
1.46038e-10
1.46038e-10
1.46038e-10
1.46038e-10
1.46038e-10
1.46038e-10
1.46038e-10
1.46038e-10
1.46038e-10
1.46038e-10
1.46038e-10
1.46038e-10
1.46038e-10
1.46038e-10
1.46038e-10
1.46038e-10
1.46038e-10
1.46038e-10
1.46038e-10
1.46038e-10
1.46038e-10
1.46038e-10
1.46038e-10
1.46038e-10
1.46038e-10
1.46038e-10
1.46038e-10
1.46038e-10
1.46038e-10
1.46038e-10
1.46038e-10
1.46038e-10
1.46038e-10
1.46038e-10
1.46038e-10
1.46038e-10
1.46038e-10
1.46038e-10
1.46038e-10
1.46038e-10
1.46038e-10
1.46038e-10
1.46038e-10
1.46038e-10
1.46038e-10
1.46038e-10
1.46038e-10
1.46038e-10
1.46038e-10
1.46038e-10
1.46038e-10
1.46038e-10
1.46038e-10
1.46038e-10
1.46038e-10
1.46038e-10
1.46038e-10
1.46038e-10
1.46038e-10
1.46038e-10
1.46038e-10
1.46038e-10
1.46038e-10
1.46038e-10
1.46038e-10
1.46038e-10
1.46038e-10
1.46038e-10
1.46038e-10
1.46038e-10
1.46038e-10
1.46039e-10
1.46038e-10
1.46038e-10
1.46038e-10
1.46038e-10
1.46038e-10
1.46038e-10
1.46038e-10
1.46038e-10
1.46038e-10
1.46038e-10
1.46038e-10
1.46038e-10
1.46038e-10
1.46038e-10
1.46038e-10
1.46038e-10
1.46038e-10
1.46038e-10
1.46038e-10
1.46038e-10
1.46038e-10
1.46038e-10
1.46038e-10
1.46038e-10
1.46038e-10
1.46038e-10
1.46038e-10
1.46038e-10
1.46038e-10
1.46038e-10
1.46038e-10
1.46038e-10
1.46038e-10
1.46038e-10
1.46038e-10
1.46039e-10
1.46039e-10
1.46039e-10
1.4604e-10
1.46038e-10
1.46038e-10
1.46038e-10
1.46038e-10
1.46038e-10
1.46038e-10
1.46038e-10
1.46038e-10
1.46038e-10
1.46038e-10
1.46038e-10
1.46038e-10
1.46038e-10
1.46038e-10
1.46038e-10
1.46038e-10
1.46038e-10
1.46038e-10
1.46038e-10
1.46038e-10
1.46038e-10
1.46038e-10
1.46038e-10
1.46038e-10
1.46038e-10
1.46038e-10
1.46038e-10
1.46038e-10
1.46038e-10
1.46038e-10
1.46038e-10
1.46038e-10
1.46038e-10
1.46039e-10
1.46039e-10
1.4604e-10
1.4604e-10
1.46041e-10
1.46043e-10
1.46038e-10
1.46038e-10
1.46038e-10
1.46038e-10
1.46038e-10
1.46038e-10
1.46038e-10
1.46038e-10
1.46038e-10
1.46038e-10
1.46038e-10
1.46038e-10
1.46038e-10
1.46038e-10
1.46038e-10
1.46038e-10
1.46038e-10
1.46038e-10
1.46038e-10
1.46038e-10
1.46038e-10
1.46038e-10
1.46038e-10
1.46038e-10
1.46038e-10
1.46038e-10
1.46038e-10
1.46038e-10
1.46038e-10
1.46038e-10
1.46039e-10
1.46039e-10
1.46039e-10
1.4604e-10
1.46041e-10
1.46042e-10
1.46043e-10
1.46046e-10
1.46049e-10
1.46038e-10
1.46038e-10
1.46038e-10
1.46038e-10
1.46038e-10
1.46038e-10
1.46038e-10
1.46038e-10
1.46038e-10
1.46038e-10
1.46038e-10
1.46038e-10
1.46038e-10
1.46038e-10
1.46038e-10
1.46038e-10
1.46038e-10
1.46038e-10
1.46038e-10
1.46038e-10
1.46038e-10
1.46038e-10
1.46038e-10
1.46038e-10
1.46038e-10
1.46038e-10
1.46038e-10
1.46038e-10
1.46038e-10
1.46039e-10
1.46039e-10
1.4604e-10
1.4604e-10
1.46041e-10
1.46043e-10
1.46044e-10
1.46047e-10
1.4605e-10
1.46055e-10
1.46062e-10
1.46038e-10
1.46038e-10
1.46038e-10
1.46038e-10
1.46038e-10
1.46038e-10
1.46038e-10
1.46038e-10
1.46038e-10
1.46038e-10
1.46038e-10
1.46038e-10
1.46038e-10
1.46038e-10
1.46038e-10
1.46038e-10
1.46038e-10
1.46038e-10
1.46038e-10
1.46038e-10
1.46038e-10
1.46038e-10
1.46038e-10
1.46038e-10
1.46038e-10
1.46038e-10
1.46039e-10
1.46039e-10
1.46039e-10
1.4604e-10
1.46041e-10
1.46042e-10
1.46043e-10
1.46045e-10
1.46048e-10
1.46052e-10
1.46057e-10
1.46065e-10
1.46075e-10
1.46089e-10
1.46038e-10
1.46038e-10
1.46038e-10
1.46038e-10
1.46038e-10
1.46038e-10
1.46038e-10
1.46038e-10
1.46038e-10
1.46038e-10
1.46038e-10
1.46038e-10
1.46038e-10
1.46038e-10
1.46038e-10
1.46038e-10
1.46038e-10
1.46038e-10
1.46038e-10
1.46038e-10
1.46038e-10
1.46038e-10
1.46038e-10
1.46038e-10
1.46039e-10
1.46039e-10
1.4604e-10
1.4604e-10
1.46041e-10
1.46042e-10
1.46044e-10
1.46046e-10
1.4605e-10
1.46054e-10
1.4606e-10
1.46068e-10
1.4608e-10
1.46096e-10
1.46117e-10
1.46147e-10
1.46038e-10
1.46038e-10
1.46038e-10
1.46038e-10
1.46038e-10
1.46038e-10
1.46038e-10
1.46038e-10
1.46038e-10
1.46038e-10
1.46038e-10
1.46038e-10
1.46038e-10
1.46038e-10
1.46038e-10
1.46038e-10
1.46038e-10
1.46038e-10
1.46038e-10
1.46038e-10
1.46038e-10
1.46039e-10
1.46039e-10
1.46039e-10
1.4604e-10
1.46041e-10
1.46042e-10
1.46043e-10
1.46045e-10
1.46048e-10
1.46051e-10
1.46056e-10
1.46063e-10
1.46073e-10
1.46085e-10
1.46103e-10
1.46127e-10
1.4616e-10
1.46205e-10
1.46268e-10
1.46038e-10
1.46038e-10
1.46038e-10
1.46038e-10
1.46038e-10
1.46038e-10
1.46038e-10
1.46038e-10
1.46038e-10
1.46038e-10
1.46038e-10
1.46038e-10
1.46038e-10
1.46038e-10
1.46038e-10
1.46038e-10
1.46038e-10
1.46038e-10
1.46038e-10
1.46039e-10
1.46039e-10
1.4604e-10
1.4604e-10
1.46041e-10
1.46042e-10
1.46044e-10
1.46046e-10
1.46049e-10
1.46053e-10
1.46059e-10
1.46067e-10
1.46077e-10
1.46091e-10
1.46111e-10
1.46138e-10
1.46174e-10
1.46224e-10
1.46292e-10
1.46386e-10
1.46515e-10
1.46038e-10
1.46038e-10
1.46038e-10
1.46038e-10
1.46038e-10
1.46038e-10
1.46038e-10
1.46038e-10
1.46038e-10
1.46038e-10
1.46038e-10
1.46038e-10
1.46038e-10
1.46038e-10
1.46038e-10
1.46038e-10
1.46039e-10
1.46039e-10
1.46039e-10
1.4604e-10
1.46041e-10
1.46042e-10
1.46043e-10
1.46045e-10
1.46047e-10
1.46051e-10
1.46055e-10
1.46062e-10
1.4607e-10
1.46082e-10
1.46098e-10
1.4612e-10
1.4615e-10
1.4619e-10
1.46245e-10
1.4632e-10
1.46422e-10
1.46562e-10
1.46753e-10
1.47014e-10
1.46038e-10
1.46038e-10
1.46038e-10
1.46038e-10
1.46038e-10
1.46038e-10
1.46038e-10
1.46038e-10
1.46038e-10
1.46038e-10
1.46038e-10
1.46038e-10
1.46038e-10
1.46038e-10
1.46039e-10
1.46039e-10
1.4604e-10
1.4604e-10
1.46041e-10
1.46042e-10
1.46044e-10
1.46046e-10
1.46049e-10
1.46053e-10
1.46058e-10
1.46065e-10
1.46075e-10
1.46088e-10
1.46105e-10
1.4613e-10
1.46162e-10
1.46207e-10
1.46268e-10
1.4635e-10
1.46462e-10
1.46614e-10
1.46821e-10
1.47102e-10
1.47484e-10
1.48004e-10
1.46038e-10
1.46038e-10
1.46038e-10
1.46038e-10
1.46038e-10
1.46038e-10
1.46038e-10
1.46038e-10
1.46038e-10
1.46038e-10
1.46038e-10
1.46038e-10
1.46039e-10
1.46039e-10
1.46039e-10
1.4604e-10
1.46041e-10
1.46042e-10
1.46043e-10
1.46045e-10
1.46047e-10
1.4605e-10
1.46055e-10
1.4606e-10
1.46068e-10
1.46079e-10
1.46094e-10
1.46113e-10
1.4614e-10
1.46176e-10
1.46226e-10
1.46292e-10
1.46383e-10
1.46505e-10
1.46671e-10
1.46896e-10
1.472e-10
1.47611e-10
1.48165e-10
1.48912e-10
1.49916e-10
1.46038e-10
1.46038e-10
1.46038e-10
1.46038e-10
1.46038e-10
1.46038e-10
1.46038e-10
1.46038e-10
1.46038e-10
1.46038e-10
1.46039e-10
1.46039e-10
1.4604e-10
1.4604e-10
1.46041e-10
1.46042e-10
1.46044e-10
1.46046e-10
1.46048e-10
1.46052e-10
1.46057e-10
1.46063e-10
1.46072e-10
1.46084e-10
1.461e-10
1.46122e-10
1.46152e-10
1.46192e-10
1.46246e-10
1.46319e-10
1.46417e-10
1.46551e-10
1.46731e-10
1.46975e-10
1.47304e-10
1.47746e-10
1.48341e-10
1.49137e-10
1.502e-10
1.51609e-10
1.53467e-10
1.46038e-10
1.46038e-10
1.46038e-10
1.46038e-10
1.46038e-10
1.46038e-10
1.46038e-10
1.46038e-10
1.46039e-10
1.46039e-10
1.46039e-10
1.4604e-10
1.46041e-10
1.46041e-10
1.46043e-10
1.46044e-10
1.46047e-10
1.4605e-10
1.46054e-10
1.46059e-10
1.46067e-10
1.46076e-10
1.4609e-10
1.46108e-10
1.46132e-10
1.46164e-10
1.46208e-10
1.46267e-10
1.46347e-10
1.46454e-10
1.46599e-10
1.46795e-10
1.47059e-10
1.47413e-10
1.47889e-10
1.48526e-10
1.49376e-10
1.50504e-10
1.51992e-10
1.53939e-10
1.5646e-10
1.59677e-10
1.46038e-10
1.46038e-10
1.46038e-10
1.46038e-10
1.46038e-10
1.46038e-10
1.46038e-10
1.46039e-10
1.46039e-10
1.4604e-10
1.4604e-10
1.46041e-10
1.46042e-10
1.46043e-10
1.46045e-10
1.46048e-10
1.46051e-10
1.46056e-10
1.46062e-10
1.4607e-10
1.46081e-10
1.46096e-10
1.46115e-10
1.46142e-10
1.46178e-10
1.46226e-10
1.4629e-10
1.46377e-10
1.46494e-10
1.46651e-10
1.46863e-10
1.47147e-10
1.47528e-10
1.48038e-10
1.48719e-10
1.49624e-10
1.50821e-10
1.52393e-10
1.54438e-10
1.57068e-10
1.60401e-10
1.64552e-10
1.69605e-10
1.46038e-10
1.46038e-10
1.46038e-10
1.46038e-10
1.46039e-10
1.46039e-10
1.46039e-10
1.4604e-10
1.4604e-10
1.46041e-10
1.46043e-10
1.46044e-10
1.46046e-10
1.46049e-10
1.46053e-10
1.46058e-10
1.46065e-10
1.46074e-10
1.46086e-10
1.46102e-10
1.46124e-10
1.46153e-10
1.46192e-10
1.46244e-10
1.46315e-10
1.46409e-10
1.46536e-10
1.46706e-10
1.46934e-10
1.47239e-10
1.47648e-10
1.48193e-10
1.48919e-10
1.4988e-10
1.51147e-10
1.52804e-10
1.54951e-10
1.57696e-10
1.61153e-10
1.65426e-10
1.70588e-10
1.76668e-10
1.83608e-10
1.46038e-10
1.46038e-10
1.46038e-10
1.46039e-10
1.46039e-10
1.4604e-10
1.4604e-10
1.46041e-10
1.46042e-10
1.46043e-10
1.46045e-10
1.46047e-10
1.46051e-10
1.46055e-10
1.4606e-10
1.46068e-10
1.46078e-10
1.46091e-10
1.46109e-10
1.46133e-10
1.46165e-10
1.46207e-10
1.46265e-10
1.46341e-10
1.46443e-10
1.4658e-10
1.46763e-10
1.47008e-10
1.47336e-10
1.47772e-10
1.48354e-10
1.49125e-10
1.50143e-10
1.5148e-10
1.53223e-10
1.55469e-10
1.5833e-10
1.61915e-10
1.66318e-10
1.71601e-10
1.7777e-10
1.84754e-10
1.9239e-10
2.00429e-10
1.46038e-10
1.46039e-10
1.46039e-10
1.46039e-10
1.4604e-10
1.4604e-10
1.46041e-10
1.46042e-10
1.46044e-10
1.46046e-10
1.46049e-10
1.46052e-10
1.46057e-10
1.46063e-10
1.46071e-10
1.46083e-10
1.46097e-10
1.46117e-10
1.46143e-10
1.46178e-10
1.46224e-10
1.46286e-10
1.46369e-10
1.46479e-10
1.46627e-10
1.46824e-10
1.47086e-10
1.47436e-10
1.47902e-10
1.4852e-10
1.49337e-10
1.50412e-10
1.51819e-10
1.53646e-10
1.55991e-10
1.58965e-10
1.62672e-10
1.67202e-10
1.72608e-10
1.78883e-10
1.85936e-10
1.93584e-10
2.01551e-10
2.09473e-10
2.16961e-10
1.46039e-10
1.46039e-10
1.4604e-10
1.4604e-10
1.46041e-10
1.46042e-10
1.46043e-10
1.46045e-10
1.46047e-10
1.4605e-10
1.46054e-10
1.46059e-10
1.46066e-10
1.46075e-10
1.46087e-10
1.46104e-10
1.46125e-10
1.46154e-10
1.46191e-10
1.46242e-10
1.46309e-10
1.46398e-10
1.46517e-10
1.46676e-10
1.46887e-10
1.47168e-10
1.47541e-10
1.48036e-10
1.48691e-10
1.49554e-10
1.50687e-10
1.52163e-10
1.54072e-10
1.56514e-10
1.59596e-10
1.6342e-10
1.6807e-10
1.73591e-10
1.79965e-10
1.87093e-10
1.9478e-10
2.0274e-10
2.10601e-10
2.17932e-10
2.24312e-10
2.2951e-10
1.46039e-10
1.46039e-10
1.4604e-10
1.4604e-10
1.46041e-10
1.46042e-10
1.46044e-10
1.46046e-10
1.46048e-10
1.46052e-10
1.46056e-10
1.46062e-10
1.46069e-10
1.4608e-10
1.46093e-10
1.46111e-10
1.46134e-10
1.46165e-10
1.46206e-10
1.46261e-10
1.46333e-10
1.4643e-10
1.46558e-10
1.46728e-10
1.46954e-10
1.47253e-10
1.4765e-10
1.48175e-10
1.48867e-10
1.49776e-10
1.50966e-10
1.52511e-10
1.54501e-10
1.57036e-10
1.60222e-10
1.64157e-10
1.68919e-10
1.74544e-10
1.81007e-10
1.88201e-10
1.95921e-10
2.03884e-10
2.11718e-10
2.18995e-10
2.25301e-10
2.30363e-10
2.3412e-10
2.36756e-10
1.4604e-10
1.46041e-10
1.46042e-10
1.46043e-10
1.46045e-10
1.46047e-10
1.4605e-10
1.46053e-10
1.46058e-10
1.46065e-10
1.46073e-10
1.46084e-10
1.46099e-10
1.46118e-10
1.46144e-10
1.46177e-10
1.46222e-10
1.46281e-10
1.46359e-10
1.46463e-10
1.466e-10
1.46782e-10
1.47023e-10
1.47342e-10
1.47762e-10
1.48317e-10
1.49047e-10
1.50003e-10
1.51249e-10
1.52862e-10
1.54931e-10
1.57556e-10
1.60841e-10
1.6488e-10
1.69745e-10
1.75465e-10
1.82006e-10
1.89255e-10
1.97001e-10
2.04962e-10
2.1277e-10
2.20006e-10
2.26267e-10
2.31283e-10
2.35002e-10
2.37571e-10
2.39235e-10
2.40273e-10
1.4604e-10
1.46041e-10
1.46042e-10
1.46044e-10
1.46046e-10
1.46048e-10
1.46051e-10
1.46055e-10
1.46061e-10
1.46068e-10
1.46077e-10
1.46089e-10
1.46105e-10
1.46126e-10
1.46154e-10
1.4619e-10
1.46239e-10
1.46303e-10
1.46387e-10
1.46498e-10
1.46645e-10
1.46839e-10
1.47095e-10
1.47433e-10
1.47879e-10
1.48464e-10
1.49232e-10
1.50234e-10
1.51535e-10
1.53214e-10
1.5536e-10
1.58072e-10
1.6145e-10
1.65586e-10
1.70546e-10
1.76351e-10
1.8296e-10
1.90254e-10
1.98019e-10
2.05971e-10
2.13754e-10
2.20953e-10
2.27177e-10
2.32164e-10
2.35863e-10
2.38417e-10
2.4007e-10
2.41084e-10
2.41668e-10
2.41988e-10
1.46043e-10
1.46045e-10
1.46047e-10
1.46049e-10
1.46053e-10
1.46057e-10
1.46063e-10
1.46071e-10
1.46081e-10
1.46094e-10
1.46112e-10
1.46135e-10
1.46165e-10
1.46205e-10
1.46257e-10
1.46325e-10
1.46416e-10
1.46535e-10
1.46692e-10
1.46899e-10
1.47171e-10
1.47529e-10
1.47999e-10
1.48615e-10
1.4942e-10
1.50468e-10
1.51825e-10
1.53568e-10
1.55788e-10
1.58582e-10
1.62049e-10
1.66275e-10
1.71321e-10
1.77201e-10
1.83869e-10
1.91198e-10
1.98974e-10
2.06914e-10
2.14669e-10
2.21834e-10
2.28028e-10
2.32995e-10
2.36685e-10
2.39236e-10
2.40891e-10
2.41904e-10
2.42486e-10
2.42797e-10
2.42943e-10
2.42982e-10
1.46048e-10
1.46051e-10
1.46055e-10
1.4606e-10
1.46066e-10
1.46075e-10
1.46086e-10
1.461e-10
1.4612e-10
1.46144e-10
1.46177e-10
1.4622e-10
1.46276e-10
1.4635e-10
1.46447e-10
1.46574e-10
1.46741e-10
1.46961e-10
1.47249e-10
1.47627e-10
1.48123e-10
1.4877e-10
1.49612e-10
1.50706e-10
1.52116e-10
1.53922e-10
1.56214e-10
1.59086e-10
1.62635e-10
1.66944e-10
1.72068e-10
1.78014e-10
1.8473e-10
1.92086e-10
1.99867e-10
2.07791e-10
2.15517e-10
2.22652e-10
2.28823e-10
2.33779e-10
2.37467e-10
2.40024e-10
2.41686e-10
2.42705e-10
2.43294e-10
2.43604e-10
2.43747e-10
2.43786e-10
2.43769e-10
2.43721e-10
1.46057e-10
1.46062e-10
1.4607e-10
1.46079e-10
1.46091e-10
1.46107e-10
1.46128e-10
1.46155e-10
1.4619e-10
1.46237e-10
1.46297e-10
1.46376e-10
1.4648e-10
1.46616e-10
1.46794e-10
1.47027e-10
1.47331e-10
1.4773e-10
1.48251e-10
1.48929e-10
1.49809e-10
1.50947e-10
1.5241e-10
1.54277e-10
1.56637e-10
1.59584e-10
1.6321e-10
1.67595e-10
1.72787e-10
1.78789e-10
1.85545e-10
1.9292e-10
2.00699e-10
2.08603e-10
2.163e-10
2.23407e-10
2.29562e-10
2.34514e-10
2.38211e-10
2.4078e-10
2.42456e-10
2.43486e-10
2.44081e-10
2.44398e-10
2.44545e-10
2.44578e-10
2.4456e-10
2.44511e-10
2.4444e-10
2.44361e-10
1.46073e-10
1.46084e-10
1.46097e-10
1.46115e-10
1.46137e-10
1.46167e-10
1.46205e-10
1.46255e-10
1.4632e-10
1.46405e-10
1.46516e-10
1.4666e-10
1.46849e-10
1.47096e-10
1.47418e-10
1.47838e-10
1.48384e-10
1.49093e-10
1.50011e-10
1.51193e-10
1.52708e-10
1.54634e-10
1.57059e-10
1.60075e-10
1.63773e-10
1.68226e-10
1.73479e-10
1.79529e-10
1.86315e-10
1.93701e-10
2.01474e-10
2.09353e-10
2.1702e-10
2.24103e-10
2.30247e-10
2.35204e-10
2.38917e-10
2.41507e-10
2.43201e-10
2.44247e-10
2.44853e-10
2.45174e-10
2.45325e-10
2.45365e-10
2.45343e-10
2.45289e-10
2.4522e-10
2.4514e-10
2.45044e-10
2.44958e-10
1.46105e-10
1.46124e-10
1.46148e-10
1.4618e-10
1.46222e-10
1.46276e-10
1.46346e-10
1.46437e-10
1.46555e-10
1.46709e-10
1.4691e-10
1.47171e-10
1.47511e-10
1.47952e-10
1.48524e-10
1.49265e-10
1.5022e-10
1.51447e-10
1.53012e-10
1.54995e-10
1.57482e-10
1.60564e-10
1.64328e-10
1.68843e-10
1.74148e-10
1.80238e-10
1.87046e-10
1.94435e-10
2.02194e-10
2.10047e-10
2.17683e-10
2.24744e-10
2.30881e-10
2.3585e-10
2.39586e-10
2.42204e-10
2.43924e-10
2.44989e-10
2.45608e-10
2.45941e-10
2.46095e-10
2.46134e-10
2.46117e-10
2.46063e-10
2.45983e-10
2.45903e-10
2.45827e-10
2.45716e-10
2.45617e-10
2.45534e-10
1.46162e-10
1.46197e-10
1.46242e-10
1.46301e-10
1.46376e-10
1.46474e-10
1.46601e-10
1.46765e-10
1.46979e-10
1.47255e-10
1.47613e-10
1.48077e-10
1.48677e-10
1.4945e-10
1.50443e-10
1.51713e-10
1.53329e-10
1.55368e-10
1.57915e-10
1.61059e-10
1.64883e-10
1.69453e-10
1.74804e-10
1.80925e-10
1.87746e-10
1.95132e-10
2.02871e-10
2.10694e-10
2.18298e-10
2.25337e-10
2.31472e-10
2.36458e-10
2.40225e-10
2.42877e-10
2.44628e-10
2.45717e-10
2.46354e-10
2.46695e-10
2.46858e-10
2.46902e-10
2.46882e-10
2.46828e-10
2.46752e-10
2.46662e-10
2.46563e-10
2.46484e-10
2.46397e-10
2.46268e-10
2.46173e-10
2.46094e-10
1.46269e-10
1.46333e-10
1.46415e-10
1.46521e-10
1.46658e-10
1.46834e-10
1.47061e-10
1.47355e-10
1.47733e-10
1.48222e-10
1.4885e-10
1.49657e-10
1.5069e-10
1.52006e-10
1.53673e-10
1.55768e-10
1.58374e-10
1.61577e-10
1.65458e-10
1.70077e-10
1.75467e-10
1.8161e-10
1.88437e-10
1.9581e-10
2.03524e-10
2.11313e-10
2.18881e-10
2.25899e-10
2.32032e-10
2.3704e-10
2.40843e-10
2.43536e-10
2.45323e-10
2.46439e-10
2.47096e-10
2.47452e-10
2.4762e-10
2.47668e-10
2.47652e-10
2.47597e-10
2.47517e-10
2.47432e-10
2.47344e-10
2.47228e-10
2.47126e-10
2.4705e-10
2.46942e-10
2.46814e-10
2.46721e-10
2.46646e-10
1.4647e-10
1.46586e-10
1.46735e-10
1.46925e-10
1.47169e-10
1.47483e-10
1.47886e-10
1.48402e-10
1.49063e-10
1.49909e-10
1.50985e-10
1.5235e-10
1.54071e-10
1.56224e-10
1.58889e-10
1.62152e-10
1.66087e-10
1.70752e-10
1.76174e-10
1.82333e-10
1.89157e-10
1.9651e-10
2.0419e-10
2.11938e-10
2.19466e-10
2.26458e-10
2.3259e-10
2.3762e-10
2.41462e-10
2.44199e-10
2.46026e-10
2.47175e-10
2.47855e-10
2.48225e-10
2.48404e-10
2.48458e-10
2.4844e-10
2.48388e-10
2.4831e-10
2.48215e-10
2.48117e-10
2.48032e-10
2.4792e-10
2.47799e-10
2.477e-10
2.47619e-10
2.47495e-10
2.47371e-10
2.47283e-10
2.47204e-10
1.46852e-10
1.47061e-10
1.47328e-10
1.47668e-10
1.481e-10
1.48652e-10
1.49353e-10
1.50244e-10
1.51373e-10
1.52795e-10
1.54577e-10
1.56794e-10
1.59525e-10
1.6285e-10
1.6684e-10
1.71549e-10
1.76999e-10
1.83167e-10
1.89979e-10
1.97302e-10
2.04938e-10
2.12636e-10
2.20113e-10
2.27071e-10
2.33195e-10
2.38244e-10
2.42124e-10
2.44906e-10
2.46776e-10
2.47959e-10
2.48664e-10
2.49053e-10
2.49241e-10
2.49302e-10
2.49289e-10
2.49236e-10
2.49155e-10
2.49066e-10
2.48968e-10
2.48853e-10
2.48751e-10
2.48664e-10
2.48531e-10
2.48412e-10
2.48316e-10
2.48221e-10
2.48091e-10
2.4797e-10
2.47885e-10
2.47798e-10
1.47586e-10
1.47962e-10
1.48437e-10
1.49037e-10
1.49793e-10
1.50745e-10
1.51939e-10
1.53434e-10
1.55293e-10
1.57588e-10
1.60397e-10
1.63794e-10
1.67847e-10
1.72602e-10
1.78079e-10
1.8425e-10
1.91041e-10
1.9832e-10
2.05896e-10
2.13526e-10
2.20936e-10
2.27842e-10
2.33944e-10
2.39e-10
2.4291e-10
2.45733e-10
2.47643e-10
2.48861e-10
2.49592e-10
2.49999e-10
2.502e-10
2.5027e-10
2.50258e-10
2.50209e-10
2.50131e-10
2.50035e-10
2.49935e-10
2.49839e-10
2.49716e-10
2.49595e-10
2.49495e-10
2.4939e-10
2.49245e-10
2.49127e-10
2.49031e-10
2.48917e-10
2.48785e-10
2.48664e-10
2.48573e-10
2.48477e-10
1.49015e-10
1.49687e-10
1.50524e-10
1.51564e-10
1.52854e-10
1.5445e-10
1.56415e-10
1.58816e-10
1.61727e-10
1.65218e-10
1.69347e-10
1.74158e-10
1.79662e-10
1.8583e-10
1.92586e-10
1.99801e-10
2.07292e-10
2.14826e-10
2.22139e-10
2.28963e-10
2.35011e-10
2.40048e-10
2.43967e-10
2.46815e-10
2.48757e-10
2.50004e-10
2.50759e-10
2.51184e-10
2.51397e-10
2.51476e-10
2.51471e-10
2.51426e-10
2.51349e-10
2.5126e-10
2.51157e-10
2.51043e-10
2.50942e-10
2.50837e-10
2.50689e-10
2.50568e-10
2.50465e-10
2.50327e-10
2.50175e-10
2.50051e-10
2.49941e-10
2.49808e-10
2.49668e-10
2.49539e-10
2.49426e-10
2.49317e-10
1.51817e-10
1.52996e-10
1.54434e-10
1.56183e-10
1.58304e-10
1.6086e-10
1.63917e-10
1.67536e-10
1.7177e-10
1.76653e-10
1.82188e-10
1.88344e-10
1.95043e-10
2.02162e-10
2.09526e-10
2.16913e-10
2.24076e-10
2.30762e-10
2.36702e-10
2.41669e-10
2.45554e-10
2.48394e-10
2.50343e-10
2.51603e-10
2.52372e-10
2.52811e-10
2.53035e-10
2.53125e-10
2.53125e-10
2.5309e-10
2.53023e-10
2.52936e-10
2.52842e-10
2.52744e-10
2.52622e-10
2.52499e-10
2.52397e-10
2.52258e-10
2.52101e-10
2.51968e-10
2.51841e-10
2.51675e-10
2.51505e-10
2.5136e-10
2.51212e-10
2.51051e-10
2.50888e-10
2.50733e-10
2.50586e-10
2.5045e-10
1.57254e-10
1.59245e-10
1.61606e-10
1.64394e-10
1.67665e-10
1.7147e-10
1.75849e-10
1.80825e-10
1.86395e-10
1.9252e-10
1.99124e-10
2.0609e-10
2.13255e-10
2.20413e-10
2.27334e-10
2.33787e-10
2.39524e-10
2.44331e-10
2.48103e-10
2.5087e-10
2.52777e-10
2.54015e-10
2.54776e-10
2.55213e-10
2.5544e-10
2.55538e-10
2.55553e-10
2.55529e-10
2.5548e-10
2.55413e-10
2.55331e-10
2.55236e-10
2.55139e-10
2.55031e-10
2.54884e-10
2.54749e-10
2.54623e-10
2.54441e-10
2.54262e-10
2.54099e-10
2.53918e-10
2.53714e-10
2.53507e-10
2.53306e-10
2.53099e-10
2.52885e-10
2.52669e-10
2.52459e-10
2.52256e-10
2.52069e-10
1.6738e-10
1.70512e-10
1.74092e-10
1.78155e-10
1.82726e-10
1.87816e-10
1.9341e-10
1.99464e-10
2.05906e-10
2.12625e-10
2.19474e-10
2.26267e-10
2.32801e-10
2.38869e-10
2.44248e-10
2.48747e-10
2.52272e-10
2.54853e-10
2.56628e-10
2.57778e-10
2.58483e-10
2.58889e-10
2.59106e-10
2.59208e-10
2.5924e-10
2.59237e-10
2.59214e-10
2.59177e-10
2.59126e-10
2.59058e-10
2.5897e-10
2.58867e-10
2.58763e-10
2.58605e-10
2.58431e-10
2.58265e-10
2.5807e-10
2.57837e-10
2.57602e-10
2.57366e-10
2.57101e-10
2.56823e-10
2.56535e-10
2.5624e-10
2.55937e-10
2.55627e-10
2.55314e-10
2.55004e-10
2.54704e-10
2.54426e-10
1.80739e-10
1.84728e-10
1.89118e-10
1.93918e-10
1.99118e-10
2.04695e-10
2.10601e-10
2.16769e-10
2.23099e-10
2.2946e-10
2.35692e-10
2.41628e-10
2.47089e-10
2.51886e-10
2.55855e-10
2.58926e-10
2.61142e-10
2.62638e-10
2.63587e-10
2.64154e-10
2.64476e-10
2.64651e-10
2.64745e-10
2.64797e-10
2.64824e-10
2.64832e-10
2.64831e-10
2.64817e-10
2.64783e-10
2.6473e-10
2.6465e-10
2.64531e-10
2.64395e-10
2.64244e-10
2.64008e-10
2.6377e-10
2.63526e-10
2.63231e-10
2.62912e-10
2.62572e-10
2.62207e-10
2.61819e-10
2.6141e-10
2.60984e-10
2.60546e-10
2.60096e-10
2.59634e-10
2.59166e-10
2.58701e-10
2.58246e-10
2.57821e-10
2.05865e-10
2.1087e-10
2.16125e-10
2.21595e-10
2.27232e-10
2.32971e-10
2.38725e-10
2.44379e-10
2.4981e-10
2.54888e-10
2.59467e-10
2.63391e-10
2.66541e-10
2.68885e-10
2.70491e-10
2.71502e-10
2.72086e-10
2.72392e-10
2.7254e-10
2.72612e-10
2.72655e-10
2.72694e-10
2.72736e-10
2.72775e-10
2.72801e-10
2.7281e-10
2.72801e-10
2.72766e-10
2.72698e-10
2.72599e-10
2.72458e-10
2.72258e-10
2.72046e-10
2.71779e-10
2.71444e-10
2.71103e-10
2.70722e-10
2.70303e-10
2.69849e-10
2.6936e-10
2.68838e-10
2.68282e-10
2.67696e-10
2.67088e-10
2.66461e-10
2.65817e-10
2.65158e-10
2.64488e-10
2.63815e-10
2.63154e-10
2.6253e-10
2.34085e-10
2.39251e-10
2.44463e-10
2.49666e-10
2.54789e-10
2.59751e-10
2.6447e-10
2.68867e-10
2.72832e-10
2.76239e-10
2.78965e-10
2.80969e-10
2.82281e-10
2.83009e-10
2.83306e-10
2.83315e-10
2.83198e-10
2.83045e-10
2.82904e-10
2.82802e-10
2.82747e-10
2.82725e-10
2.82723e-10
2.82724e-10
2.82711e-10
2.82673e-10
2.82609e-10
2.8252e-10
2.82391e-10
2.82218e-10
2.82016e-10
2.81736e-10
2.81422e-10
2.81091e-10
2.80683e-10
2.80242e-10
2.79774e-10
2.79267e-10
2.78713e-10
2.78116e-10
2.77483e-10
2.76814e-10
2.76106e-10
2.75362e-10
2.74587e-10
2.73785e-10
2.72958e-10
2.72108e-10
2.71241e-10
2.70364e-10
2.6949e-10
2.68658e-10
2.71917e-10
2.76423e-10
2.80699e-10
2.84683e-10
2.88299e-10
2.9144e-10
2.94009e-10
2.95931e-10
2.97164e-10
2.97744e-10
2.9773e-10
2.97369e-10
2.96767e-10
2.96062e-10
2.95366e-10
2.94749e-10
2.94246e-10
2.93862e-10
2.93579e-10
2.93372e-10
2.93214e-10
2.9308e-10
2.92954e-10
2.9282e-10
2.92665e-10
2.92482e-10
2.92271e-10
2.92032e-10
2.91762e-10
2.91468e-10
2.9112e-10
2.90717e-10
2.90312e-10
2.89866e-10
2.8938e-10
2.88863e-10
2.88317e-10
2.87738e-10
2.87121e-10
2.86466e-10
2.85777e-10
2.85053e-10
2.8429e-10
2.83489e-10
2.82652e-10
2.8178e-10
2.80875e-10
2.79938e-10
2.78972e-10
2.77983e-10
2.76984e-10
2.76022e-10
3.07701e-10
3.10399e-10
3.12559e-10
3.14093e-10
3.14954e-10
3.15107e-10
3.14671e-10
3.1376e-10
3.12482e-10
3.10999e-10
3.09456e-10
3.07984e-10
3.06662e-10
3.05528e-10
3.04591e-10
3.03837e-10
3.03238e-10
3.0276e-10
3.0237e-10
3.02037e-10
3.01737e-10
3.01453e-10
3.01173e-10
3.00887e-10
3.00588e-10
3.00281e-10
2.99954e-10
2.99598e-10
2.9924e-10
2.98884e-10
2.98466e-10
2.98031e-10
2.97601e-10
2.97147e-10
2.96664e-10
2.96163e-10
2.95647e-10
2.9511e-10
2.94547e-10
2.93955e-10
2.93336e-10
2.92687e-10
2.92004e-10
2.91287e-10
2.90533e-10
2.89743e-10
2.88915e-10
2.88049e-10
2.87145e-10
2.86207e-10
2.85243e-10
2.84313e-10
3.32908e-10
3.32522e-10
3.31596e-10
3.30155e-10
3.2831e-10
3.26181e-10
3.23901e-10
3.21608e-10
3.19395e-10
3.17341e-10
3.15513e-10
3.13941e-10
3.12626e-10
3.11545e-10
3.10663e-10
3.09944e-10
3.09347e-10
3.08843e-10
3.08404e-10
3.08008e-10
3.07639e-10
3.07294e-10
3.06959e-10
3.06624e-10
3.06296e-10
3.05972e-10
3.05641e-10
3.0531e-10
3.04993e-10
3.04682e-10
3.04338e-10
3.0399e-10
3.0365e-10
3.03303e-10
3.02946e-10
3.02583e-10
3.02214e-10
3.01834e-10
3.01438e-10
3.01022e-10
3.00584e-10
3.00122e-10
2.99632e-10
2.99111e-10
2.98556e-10
2.97966e-10
2.97338e-10
2.96669e-10
2.95959e-10
2.95209e-10
2.94426e-10
2.93688e-10
3.4247e-10
3.39931e-10
3.37202e-10
3.3437e-10
3.31533e-10
3.28784e-10
3.26203e-10
3.23854e-10
3.21777e-10
3.19991e-10
3.1847e-10
3.17194e-10
3.16146e-10
3.15289e-10
3.1459e-10
3.14012e-10
3.13524e-10
3.13113e-10
3.12755e-10
3.12435e-10
3.1215e-10
3.11895e-10
3.11663e-10
3.11451e-10
3.11261e-10
3.11089e-10
3.10927e-10
3.10785e-10
3.10672e-10
3.10567e-10
3.10455e-10
3.10352e-10
3.10261e-10
3.10174e-10
3.1009e-10
3.10007e-10
3.09922e-10
3.09829e-10
3.09722e-10
3.09597e-10
3.0945e-10
3.09276e-10
3.09071e-10
3.0883e-10
3.08551e-10
3.0823e-10
3.07864e-10
3.07452e-10
3.06991e-10
3.06484e-10
3.05938e-10
3.05474e-10
3.42772e-10
3.39656e-10
3.36629e-10
3.33743e-10
3.31054e-10
3.28607e-10
3.26433e-10
3.24554e-10
3.22971e-10
3.2167e-10
3.20611e-10
3.1976e-10
3.19086e-10
3.18554e-10
3.18153e-10
3.17844e-10
3.17614e-10
3.17455e-10
3.17355e-10
3.17308e-10
3.17308e-10
3.17354e-10
3.17439e-10
3.17565e-10
3.17733e-10
3.1794e-10
3.18176e-10
3.18452e-10
3.18768e-10
3.19104e-10
3.19452e-10
3.19819e-10
3.20203e-10
3.20598e-10
3.20999e-10
3.21402e-10
3.21799e-10
3.2218e-10
3.22539e-10
3.22868e-10
3.23158e-10
3.23403e-10
3.23595e-10
3.23729e-10
3.23799e-10
3.23802e-10
3.23733e-10
3.23591e-10
3.23374e-10
3.23088e-10
3.22744e-10
3.22538e-10
3.40697e-10
3.37805e-10
3.35134e-10
3.32729e-10
3.30614e-10
3.28801e-10
3.27287e-10
3.26061e-10
3.25098e-10
3.24367e-10
3.23856e-10
3.23525e-10
3.23356e-10
3.23301e-10
3.23366e-10
3.23533e-10
3.23791e-10
3.24134e-10
3.24556e-10
3.25056e-10
3.25631e-10
3.26279e-10
3.26995e-10
3.27781e-10
3.28638e-10
3.2956e-10
3.30539e-10
3.31581e-10
3.32676e-10
3.33808e-10
3.34967e-10
3.36153e-10
3.37358e-10
3.38573e-10
3.39789e-10
3.40993e-10
3.42174e-10
3.43316e-10
3.44406e-10
3.45431e-10
3.46377e-10
3.47231e-10
3.47982e-10
3.48619e-10
3.49134e-10
3.49521e-10
3.49773e-10
3.49892e-10
3.49874e-10
3.49727e-10
3.49474e-10
3.49443e-10
3.37079e-10
3.35163e-10
3.33553e-10
3.32256e-10
3.31262e-10
3.30561e-10
3.30127e-10
3.29938e-10
3.2997e-10
3.30209e-10
3.30612e-10
3.31184e-10
3.31903e-10
3.32759e-10
3.33745e-10
3.34859e-10
3.36097e-10
3.37455e-10
3.38935e-10
3.40535e-10
3.42254e-10
3.44084e-10
3.46029e-10
3.48085e-10
3.50243e-10
3.52494e-10
3.54833e-10
3.57244e-10
3.59708e-10
3.62211e-10
3.64741e-10
3.67283e-10
3.6982e-10
3.72334e-10
3.74805e-10
3.77209e-10
3.79522e-10
3.81722e-10
3.83785e-10
3.8569e-10
3.87415e-10
3.8894e-10
3.90249e-10
3.91327e-10
3.92161e-10
3.92743e-10
3.93071e-10
3.9315e-10
3.92986e-10
3.92639e-10
3.92612e-10
3.39801e-10
3.3888e-10
3.38294e-10
3.38037e-10
3.38089e-10
3.38433e-10
3.3906e-10
3.39954e-10
3.41089e-10
3.4245e-10
3.44023e-10
3.45799e-10
3.47775e-10
3.49948e-10
3.52317e-10
3.54885e-10
3.57647e-10
3.60603e-10
3.63751e-10
3.6709e-10
3.70612e-10
3.74312e-10
3.78185e-10
3.82224e-10
3.86409e-10
3.90728e-10
3.95161e-10
3.99682e-10
4.04262e-10
4.08877e-10
4.135e-10
4.18105e-10
4.22661e-10
4.27137e-10
4.31496e-10
4.35701e-10
4.39715e-10