/*--------------------------------*- C++ -*----------------------------------*\
| =========                 |                                                 |
| \\      /  F ield         | OpenFOAM: The Open Source CFD Toolbox           |
|  \\    /   O peration     | Version:  v1706                                 |
|   \\  /    A nd           | Web:      www.OpenFOAM.com                      |
|    \\/     M anipulation  |                                                 |
\*---------------------------------------------------------------------------*/
FoamFile
{
    version     2.0;
    format      ascii;
    class       volScalarField;
    location    "1.4e-05";
    object      kappatr;
}
// * * * * * * * * * * * * * * * * * * * * * * * * * * * * * * * * * * * * * //

dimensions      [1 1 -3 -1 0 0 0];


internalField   nonuniform List<scalar> 
30038
(
0.014593
0.014593
0.014593
0.014593
0.014593
0.014593
0.014593
0.014593
0.014593
0.014593
0.014593
0.014593
0.014593
0.014593
0.014593
0.014593
0.014593
0.014593
0.014593
0.014593
0.014593
0.014593
0.014593
0.014593
0.014593
0.014593
0.014593
0.014593
0.014593
0.014593
0.014593
0.014593
0.014593
0.014593
0.014593
0.014593
0.014593
0.014593
0.014593
0.014593
0.014593
0.014593
0.014593
0.014593
0.014593
0.014593
0.014593
0.014593
0.014593
0.014593
0.014593
0.014593
0.014593
0.014593
0.014593
0.014593
0.014593
0.014593
0.014593
0.014593
0.014593
0.014593
0.014593
0.014593
0.014593
0.014593
0.014593
0.014593
0.014593
0.014593
0.014593
0.014593
0.014593
0.014593
0.014593
0.014593
0.014593
0.014593
0.014593
0.014593
0.014593
0.014593
0.014593
0.014593
0.014593
0.014593
0.014593
0.014593
0.014593
0.014593
0.014593
0.014593
0.014593
0.014593
0.014593
0.014593
0.014593
0.014593
0.014593
0.014593
0.014593
0.014593
0.014593
0.014593
0.014593
0.014593
0.014593
0.014593
0.014593
0.014593
0.014593
0.014593
0.014593
0.014593
0.014593
0.014593
0.014593
0.014593
0.014593
0.014593
0.014593
0.014593
0.014593
0.014593
0.014593
0.014593
0.014593
0.014593
0.014593
0.014593
0.014593
0.014593
0.014593
0.014593
0.014593
0.014593
0.014593
0.014593
0.014593
0.014593
0.014593
0.014593
0.014593
0.014593
0.014593
0.014593
0.014593
0.014593
0.014593
0.014593
0.014593
0.014593
0.014593
0.014593
0.014593
0.014593
0.014593
0.014593
0.014593
0.014593
0.014593
0.014593
0.014593
0.014593
0.014593
0.014593
0.014593
0.014593
0.014593
0.014593
0.014593
0.014593
0.014593
0.014593
0.014593
0.014593
0.014593
0.014593
0.014593
0.014593
0.014593
0.014593
0.014593
0.014593
0.014593
0.014593
0.014593
0.014593
0.014593
0.014593
0.014593
0.014593
0.014593
0.014593
0.014593
0.014593
0.014593
0.014593
0.014593
0.014593
0.014593
0.014593
0.014593
0.014593
0.014593
0.014593
0.014593
0.014593
0.014593
0.014593
0.014593
0.014593
0.014593
0.014593
0.014593
0.014593
0.014593
0.014593
0.014593
0.014593
0.014593
0.014593
0.014593
0.014593
0.014593
0.014593
0.014593
0.014593
0.014593
0.014593
0.014593
0.014593
0.014593
0.014593
0.014593
0.014593
0.014593
0.014593
0.014593
0.014593
0.014593
0.014593
0.014593
0.014593
0.014593
0.014593
0.014593
0.014593
0.014593
0.014593
0.014593
0.014593
0.014593
0.014593
0.014593
0.014593
0.014593
0.014593
0.014593
0.014593
0.014593
0.014593
0.014593
0.014593
0.014593
0.014593
0.014593
0.014593
0.014593
0.014593
0.014593
0.014593
0.014593
0.014593
0.014593
0.014593
0.014593
0.014593
0.014593
0.014593
0.014593
0.014593
0.014593
0.014593
0.014593
0.014593
0.014593
0.014593
0.014593
0.014593
0.014593
0.014593
0.014593
0.014593
0.014593
0.014593
0.014593
0.014593
0.014593
0.014593
0.014593
0.0145931
0.0145931
0.0145931
0.014593
0.014593
0.014593
0.014593
0.014593
0.014593
0.014593
0.014593
0.014593
0.014593
0.014593
0.014593
0.014593
0.014593
0.014593
0.014593
0.014593
0.014593
0.014593
0.014593
0.014593
0.014593
0.014593
0.014593
0.014593
0.014593
0.014593
0.014593
0.014593
0.014593
0.014593
0.014593
0.014593
0.014593
0.0145931
0.0145931
0.0145931
0.0145932
0.0145932
0.014593
0.014593
0.014593
0.014593
0.014593
0.014593
0.014593
0.014593
0.014593
0.014593
0.014593
0.014593
0.014593
0.014593
0.014593
0.014593
0.014593
0.014593
0.014593
0.014593
0.014593
0.014593
0.014593
0.014593
0.014593
0.014593
0.014593
0.014593
0.014593
0.014593
0.014593
0.0145931
0.0145931
0.0145931
0.0145931
0.0145932
0.0145933
0.0145934
0.0145935
0.014593
0.014593
0.014593
0.014593
0.014593
0.014593
0.014593
0.014593
0.014593
0.014593
0.014593
0.014593
0.014593
0.014593
0.014593
0.014593
0.014593
0.014593
0.014593
0.014593
0.014593
0.014593
0.014593
0.014593
0.014593
0.014593
0.014593
0.014593
0.0145931
0.0145931
0.0145931
0.0145931
0.0145932
0.0145932
0.0145933
0.0145934
0.0145936
0.0145938
0.0145941
0.014593
0.014593
0.014593
0.014593
0.014593
0.014593
0.014593
0.014593
0.014593
0.014593
0.014593
0.014593
0.014593
0.014593
0.014593
0.014593
0.014593
0.014593
0.014593
0.014593
0.014593
0.014593
0.014593
0.014593
0.014593
0.014593
0.014593
0.0145931
0.0145931
0.0145931
0.0145931
0.0145932
0.0145933
0.0145934
0.0145935
0.0145937
0.0145939
0.0145943
0.0145947
0.0145954
0.014593
0.014593
0.014593
0.014593
0.014593
0.014593
0.014593
0.014593
0.014593
0.014593
0.014593
0.014593
0.014593
0.014593
0.014593
0.014593
0.014593
0.014593
0.014593
0.014593
0.014593
0.014593
0.014593
0.014593
0.0145931
0.0145931
0.0145931
0.0145931
0.0145932
0.0145932
0.0145933
0.0145934
0.0145936
0.0145938
0.0145941
0.0145944
0.014595
0.0145957
0.0145967
0.0145982
0.014593
0.014593
0.014593
0.014593
0.014593
0.014593
0.014593
0.014593
0.014593
0.014593
0.014593
0.014593
0.014593
0.014593
0.014593
0.014593
0.014593
0.014593
0.014593
0.014593
0.014593
0.014593
0.0145931
0.0145931
0.0145931
0.0145931
0.0145932
0.0145933
0.0145934
0.0145935
0.0145936
0.0145939
0.0145942
0.0145946
0.0145953
0.0145961
0.0145972
0.0145988
0.0146009
0.0146039
0.014593
0.014593
0.014593
0.014593
0.014593
0.014593
0.014593
0.014593
0.014593
0.014593
0.014593
0.014593
0.014593
0.014593
0.014593
0.014593
0.014593
0.014593
0.014593
0.0145931
0.0145931
0.0145931
0.0145931
0.0145932
0.0145932
0.0145933
0.0145934
0.0145935
0.0145937
0.014594
0.0145944
0.0145949
0.0145956
0.0145965
0.0145978
0.0145995
0.0146019
0.0146052
0.0146097
0.014616
0.014593
0.014593
0.014593
0.014593
0.014593
0.014593
0.014593
0.014593
0.014593
0.014593
0.014593
0.014593
0.014593
0.014593
0.014593
0.014593
0.014593
0.0145931
0.0145931
0.0145931
0.0145931
0.0145932
0.0145933
0.0145933
0.0145935
0.0145936
0.0145939
0.0145942
0.0145946
0.0145951
0.0145959
0.0145969
0.0145984
0.0146003
0.014603
0.0146066
0.0146116
0.0146184
0.0146278
0.0146407
0.014593
0.014593
0.014593
0.014593
0.014593
0.014593
0.014593
0.014593
0.014593
0.014593
0.014593
0.014593
0.014593
0.014593
0.0145931
0.0145931
0.0145931
0.0145931
0.0145932
0.0145932
0.0145933
0.0145934
0.0145935
0.0145937
0.014594
0.0145943
0.0145948
0.0145954
0.0145963
0.0145975
0.014599
0.0146012
0.0146042
0.0146082
0.0146137
0.0146212
0.0146314
0.0146454
0.0146644
0.0146906
0.014593
0.014593
0.014593
0.014593
0.014593
0.014593
0.014593
0.014593
0.014593
0.014593
0.014593
0.014593
0.0145931
0.0145931
0.0145931
0.0145931
0.0145932
0.0145933
0.0145933
0.0145935
0.0145936
0.0145938
0.0145941
0.0145945
0.014595
0.0145957
0.0145967
0.014598
0.0145998
0.0146022
0.0146055
0.0146099
0.014616
0.0146242
0.0146354
0.0146506
0.0146713
0.0146994
0.0147376
0.0147895
0.014593
0.014593
0.014593
0.014593
0.014593
0.014593
0.014593
0.014593
0.014593
0.014593
0.0145931
0.0145931
0.0145931
0.0145931
0.0145932
0.0145932
0.0145933
0.0145934
0.0145935
0.0145937
0.0145939
0.0145943
0.0145947
0.0145953
0.0145961
0.0145972
0.0145986
0.0146006
0.0146033
0.0146069
0.0146118
0.0146184
0.0146275
0.0146397
0.0146563
0.0146787
0.0147091
0.0147502
0.0148056
0.0148802
0.0149805
0.014593
0.014593
0.014593
0.014593
0.014593
0.014593
0.014593
0.014593
0.0145931
0.0145931
0.0145931
0.0145931
0.0145932
0.0145933
0.0145933
0.0145934
0.0145936
0.0145938
0.0145941
0.0145944
0.0145949
0.0145956
0.0145965
0.0145977
0.0145993
0.0146014
0.0146044
0.0146084
0.0146138
0.0146211
0.0146309
0.0146443
0.0146623
0.0146867
0.0147195
0.0147637
0.0148231
0.0149027
0.0150089
0.0151498
0.0153353
0.014593
0.014593
0.014593
0.014593
0.014593
0.014593
0.0145931
0.0145931
0.0145931
0.0145931
0.0145932
0.0145932
0.0145933
0.0145934
0.0145935
0.0145937
0.0145939
0.0145942
0.0145946
0.0145952
0.0145959
0.0145969
0.0145982
0.0146
0.0146024
0.0146056
0.01461
0.0146159
0.0146239
0.0146346
0.0146491
0.0146687
0.014695
0.0147304
0.014778
0.0148416
0.0149266
0.0150393
0.015188
0.0153826
0.0156345
0.0159559
0.014593
0.014593
0.014593
0.014593
0.0145931
0.0145931
0.0145931
0.0145931
0.0145931
0.0145932
0.0145932
0.0145933
0.0145934
0.0145936
0.0145938
0.014594
0.0145944
0.0145948
0.0145954
0.0145962
0.0145973
0.0145988
0.0146008
0.0146034
0.014607
0.0146118
0.0146182
0.0146269
0.0146386
0.0146543
0.0146754
0.0147038
0.0147419
0.0147929
0.0148609
0.0149514
0.015071
0.0152281
0.0154324
0.0156952
0.0160283
0.0164431
0.016948
0.014593
0.014593
0.0145931
0.0145931
0.0145931
0.0145931
0.0145932
0.0145932
0.0145933
0.0145934
0.0145935
0.0145937
0.0145939
0.0145942
0.0145945
0.014595
0.0145957
0.0145966
0.0145978
0.0145994
0.0146016
0.0146045
0.0146084
0.0146137
0.0146207
0.0146301
0.0146428
0.0146598
0.0146825
0.0147131
0.0147539
0.0148084
0.0148809
0.014977
0.0151036
0.0152692
0.0154836
0.015758
0.0161035
0.0165304
0.0170463
0.0176538
0.0183472
0.0145931
0.0145931
0.0145931
0.0145931
0.0145931
0.0145932
0.0145932
0.0145933
0.0145934
0.0145936
0.0145937
0.014594
0.0145943
0.0145947
0.0145953
0.014596
0.014597
0.0145984
0.0146001
0.0146025
0.0146057
0.01461
0.0146157
0.0146233
0.0146335
0.0146472
0.0146655
0.01469
0.0147227
0.0147663
0.0148244
0.0149015
0.0150032
0.0151369
0.015311
0.0155355
0.0158214
0.0161795
0.0166195
0.0171474
0.0177639
0.0184618
0.0192248
0.0200282
0.0145931
0.0145931
0.0145931
0.0145932
0.0145932
0.0145933
0.0145934
0.0145935
0.0145936
0.0145938
0.0145941
0.0145945
0.0145949
0.0145956
0.0145964
0.0145975
0.014599
0.0146009
0.0146035
0.014607
0.0146116
0.0146178
0.0146261
0.0146371
0.0146519
0.0146716
0.0146978
0.0147328
0.0147793
0.014841
0.0149227
0.0150301
0.0151707
0.0153532
0.0155876
0.0158847
0.0162552
0.0167079
0.0172481
0.0178751
0.0185799
0.0193441
0.0201402
0.0209318
0.0216801
0.0145931
0.0145931
0.0145932
0.0145932
0.0145933
0.0145934
0.0145935
0.0145937
0.0145939
0.0145942
0.0145946
0.0145952
0.0145959
0.0145968
0.014598
0.0145996
0.0146017
0.0146046
0.0146084
0.0146134
0.0146201
0.0146291
0.014641
0.0146568
0.0146779
0.014706
0.0147432
0.0147927
0.0148581
0.0149444
0.0150576
0.0152051
0.0153959
0.0156399
0.0159478
0.01633
0.0167946
0.0173463
0.0179832
0.0186955
0.0194636
0.0202591
0.0210446
0.0217772
0.0224147
0.0229341
0.0145931
0.0145932
0.0145932
0.0145933
0.0145934
0.0145935
0.0145936
0.0145938
0.0145941
0.0145944
0.0145948
0.0145954
0.0145962
0.0145972
0.0145985
0.0146003
0.0146026
0.0146057
0.0146098
0.0146153
0.0146226
0.0146322
0.014645
0.014662
0.0146845
0.0147145
0.0147541
0.0148065
0.0148757
0.0149666
0.0150855
0.0152399
0.0154387
0.0156921
0.0160104
0.0164036
0.0168794
0.0174415
0.0180874
0.0188062
0.0195777
0.0203734
0.0211562
0.0218834
0.0225135
0.0230193
0.0233947
0.0236582
0.0145932
0.0145933
0.0145934
0.0145935
0.0145937
0.0145939
0.0145942
0.0145946
0.0145951
0.0145957
0.0145965
0.0145976
0.0145991
0.014601
0.0146036
0.014607
0.0146114
0.0146173
0.0146251
0.0146355
0.0146492
0.0146674
0.0146915
0.0147233
0.0147654
0.0148208
0.0148937
0.0149893
0.0151137
0.0152749
0.0154817
0.015744
0.0160722
0.0164758
0.0169619
0.0175335
0.0181872
0.0189115
0.0196856
0.0204811
0.0212613
0.0219844
0.02261
0.0231113
0.0234828
0.0237396
0.0239058
0.0240096
0.0145933
0.0145934
0.0145935
0.0145936
0.0145938
0.014594
0.0145943
0.0145948
0.0145953
0.014596
0.0145969
0.0145981
0.0145997
0.0146018
0.0146046
0.0146083
0.0146131
0.0146195
0.0146279
0.014639
0.0146537
0.0146731
0.0146987
0.0147325
0.014777
0.0148355
0.0149122
0.0150123
0.0151424
0.0153101
0.0155246
0.0157955
0.0161331
0.0165464
0.017042
0.0176221
0.0182826
0.0190114
0.0197873
0.020582
0.0213596
0.022079
0.0227009
0.0231993
0.0235689
0.0238241
0.0239893
0.0240906
0.024149
0.024181
0.0145935
0.0145937
0.0145939
0.0145942
0.0145945
0.014595
0.0145956
0.0145963
0.0145974
0.0145987
0.0146004
0.0146027
0.0146057
0.0146097
0.0146149
0.0146218
0.0146308
0.0146427
0.0146584
0.014679
0.0147062
0.014742
0.014789
0.0148505
0.014931
0.0150357
0.0151713
0.0153455
0.0155673
0.0158465
0.0161929
0.0166152
0.0171194
0.017707
0.0183733
0.0191057
0.0198827
0.0206762
0.0214511
0.0221671
0.022786
0.0232824
0.023651
0.0239059
0.0240714
0.0241726
0.0242307
0.0242618
0.0242764
0.0242803
0.014594
0.0145943
0.0145947
0.0145952
0.0145959
0.0145967
0.0145978
0.0145993
0.0146012
0.0146037
0.0146069
0.0146112
0.0146168
0.0146242
0.0146339
0.0146466
0.0146633
0.0146853
0.0147141
0.0147519
0.0148013
0.014866
0.0149502
0.0150595
0.0152004
0.0153809
0.0156099
0.0158969
0.0162516
0.0166821
0.0171941
0.0177882
0.0184594
0.0191945
0.019972
0.0207638
0.0215358
0.0222488
0.0228654
0.0233606
0.0237292
0.0239847
0.0241507
0.0242526
0.0243115
0.0243424
0.0243567
0.0243606
0.0243589
0.0243541
0.0145949
0.0145955
0.0145962
0.0145971
0.0145984
0.0145999
0.014602
0.0146047
0.0146083
0.0146129
0.0146189
0.0146268
0.0146372
0.0146508
0.0146685
0.0146918
0.0147223
0.0147621
0.0148141
0.0148819
0.0149698
0.0150836
0.0152298
0.0154164
0.0156521
0.0159466
0.016309
0.0167471
0.0172659
0.0178658
0.0185408
0.0192778
0.0200552
0.0208449
0.021614
0.0223243
0.0229393
0.0234342
0.0238035
0.0240603
0.0242277
0.0243306
0.0243901
0.0244218
0.0244365
0.0244397
0.024438
0.0244331
0.024426
0.0244181
0.0145966
0.0145976
0.014599
0.0146007
0.014603
0.0146059
0.0146097
0.0146147
0.0146212
0.0146297
0.0146408
0.0146552
0.0146741
0.0146988
0.0147309
0.0147729
0.0148274
0.0148983
0.01499
0.0151082
0.0152595
0.015452
0.0156943
0.0159957
0.0163652
0.0168102
0.0173351
0.0179397
0.0186178
0.0193559
0.0201325
0.0209199
0.021686
0.0223938
0.0230077
0.0235031
0.0238741
0.0241329
0.0243022
0.0244067
0.0244673
0.0244994
0.0245145
0.0245184
0.0245162
0.0245108
0.0245039
0.0244959
0.0244863
0.0244777
0.0145997
0.0146016
0.0146041
0.0146073
0.0146114
0.0146168
0.0146238
0.0146329
0.0146447
0.0146601
0.0146802
0.0147063
0.0147402
0.0147843
0.0148415
0.0149155
0.0150109
0.0151335
0.0152899
0.0154881
0.0157366
0.0160446
0.0164207
0.0168718
0.017402
0.0180105
0.0186908
0.0194292
0.0202045
0.0209892
0.0217523
0.0224578
0.0230711
0.0235676
0.023941
0.0242026
0.0243745
0.0244808
0.0245427
0.024576
0.0245914
0.0245952
0.0245935
0.0245881
0.0245802
0.0245721
0.0245645
0.0245534
0.0245436
0.0245352
0.0146054
0.0146089
0.0146134
0.0146193
0.0146268
0.0146366
0.0146493
0.0146657
0.014687
0.0147147
0.0147505
0.0147968
0.0148567
0.0149339
0.0150332
0.0151602
0.0153216
0.0155253
0.0157799
0.0160941
0.0164762
0.0169329
0.0174676
0.0180792
0.0187608
0.0194988
0.0202722
0.0210539
0.0218137
0.0225171
0.0231301
0.0236284
0.0240048
0.0242698
0.0244448
0.0245536
0.0246172
0.0246513
0.0246676
0.024672
0.0246699
0.0246646
0.024657
0.024648
0.0246381
0.0246302
0.0246215
0.0246086
0.024599
0.0245911
0.0146161
0.0146225
0.0146307
0.0146413
0.0146549
0.0146725
0.0146953
0.0147246
0.0147624
0.0148112
0.014874
0.0149547
0.0150579
0.0151894
0.015356
0.0155653
0.0158257
0.0161458
0.0165336
0.0169952
0.0175337
0.0181476
0.0188298
0.0195666
0.0203374
0.0211157
0.021872
0.0225732
0.0231861
0.0236865
0.0240666
0.0243356
0.0245142
0.0246258
0.0246914
0.024727
0.0247437
0.0247485
0.024747
0.0247415
0.0247334
0.024725
0.0247161
0.0247045
0.0246943
0.0246868
0.024676
0.0246631
0.0246538
0.0246462
0.0146362
0.0146478
0.0146626
0.0146817
0.0147061
0.0147374
0.0147777
0.0148293
0.0148954
0.0149798
0.0150874
0.0152238
0.0153958
0.0156108
0.0158772
0.0162032
0.0165964
0.0170626
0.0176044
0.0182199
0.0189017
0.0196365
0.020404
0.0211782
0.0219304
0.0226291
0.0232418
0.0237445
0.0241284
0.0244019
0.0245845
0.0246993
0.0247672
0.0248042
0.024822
0.0248274
0.0248257
0.0248204
0.0248127
0.0248032
0.0247934
0.0247849
0.0247737
0.0247616
0.0247516
0.0247435
0.0247311
0.0247187
0.0247098
0.0247018
0.0146744
0.0146953
0.0147219
0.0147559
0.0147991
0.0148542
0.0149243
0.0150134
0.0151261
0.0152682
0.0154463
0.0156678
0.0159407
0.0162729
0.0166717
0.0171422
0.0176868
0.0183032
0.0189839
0.0197157
0.0204787
0.0212479
0.0219951
0.0226903
0.0233023
0.0238069
0.0241946
0.0244726
0.0246594
0.0247776
0.0248481
0.0248869
0.0249057
0.0249118
0.0249105
0.0249052
0.0248971
0.0248882
0.0248784
0.0248669
0.0248567
0.024848
0.0248347
0.0248228
0.0248132
0.0248036
0.0247905
0.0247784
0.0247698
0.0247609
0.0147477
0.0147853
0.0148328
0.0148927
0.0149683
0.0150633
0.0151828
0.0153321
0.0155178
0.0157472
0.0160279
0.0163674
0.0167723
0.0172475
0.0177947
0.0184114
0.01909
0.0198173
0.0205744
0.0213368
0.0220773
0.0227674
0.0233771
0.0238824
0.0242731
0.0245552
0.0247461
0.0248678
0.0249408
0.0249815
0.0250016
0.0250085
0.0250074
0.0250025
0.0249947
0.024985
0.024975
0.0249655
0.0249532
0.0249411
0.024931
0.0249205
0.024906
0.0248941
0.0248845
0.024873
0.0248597
0.0248475
0.0248381
0.0248283
0.0148905
0.0149577
0.0150413
0.0151452
0.0152742
0.0154336
0.0156299
0.0158699
0.0161608
0.0165096
0.0169222
0.017403
0.017953
0.0185693
0.0192444
0.0199654
0.0207139
0.0214667
0.0221975
0.0228794
0.0234838
0.0239871
0.0243787
0.0246633
0.0248573
0.0249819
0.0250574
0.0250999
0.0251212
0.0251291
0.0251285
0.0251241
0.0251164
0.0251074
0.0250971
0.0250857
0.0250756
0.0250652
0.0250504
0.0250382
0.0250279
0.0250141
0.0249987
0.0249863
0.0249752
0.0249617
0.0249476
0.0249345
0.0249228
0.0249115
0.0151705
0.0152883
0.015432
0.0156068
0.0158188
0.0160742
0.0163796
0.0167413
0.0171644
0.0176523
0.0182054
0.0188205
0.0194899
0.0202013
0.0209371
0.0216753
0.0223911
0.0230592
0.0236527
0.0241491
0.0245373
0.0248211
0.0250158
0.0251417
0.0252186
0.0252624
0.0252848
0.0252938
0.0252938
0.0252903
0.0252836
0.0252749
0.0252655
0.0252557
0.0252435
0.0252311
0.0252209
0.025207
0.0251913
0.0251779
0.0251652
0.0251484
0.0251313
0.0251167
0.0251018
0.0250854
0.0250688
0.0250529
0.0250376
0.0250233
0.0157138
0.0159127
0.0161487
0.0164273
0.0167541
0.0171343
0.0175719
0.0180691
0.0186257
0.0192377
0.0198977
0.0205938
0.0213097
0.022025
0.0227166
0.0233614
0.0239347
0.024415
0.0247919
0.0250685
0.025259
0.0253828
0.0254587
0.0255024
0.0255251
0.0255349
0.0255364
0.025534
0.025529
0.0255223
0.0255141
0.0255046
0.0254949
0.025484
0.0254693
0.0254558
0.0254431
0.0254249
0.0254069
0.0253905
0.0253723
0.0253517
0.0253308
0.0253104
0.0252894
0.0252675
0.0252454
0.0252237
0.0252025
0.0251826
0.0167256
0.0170386
0.0173963
0.0178022
0.0182591
0.0187677
0.0193266
0.0199316
0.0205753
0.0212467
0.0219311
0.0226099
0.0232629
0.0238691
0.0244067
0.0248563
0.0252084
0.0254664
0.0256437
0.0257586
0.025829
0.0258696
0.0258913
0.0259014
0.0259046
0.0259042
0.0259019
0.0258982
0.0258931
0.0258862
0.0258774
0.025867
0.0258565
0.0258406
0.0258232
0.0258065
0.0257869
0.0257634
0.0257397
0.0257159
0.0256893
0.0256611
0.0256319
0.0256019
0.0255711
0.0255393
0.025507
0.0254749
0.0254434
0.0254136
0.0180604
0.018459
0.0188977
0.0193772
0.0198969
0.0204541
0.0210443
0.0216606
0.0222932
0.0229288
0.0235515
0.0241446
0.0246903
0.0251696
0.0255663
0.0258731
0.0260946
0.026244
0.0263388
0.0263954
0.0264275
0.0264449
0.0264543
0.0264594
0.026462
0.0264627
0.0264625
0.026461
0.0264575
0.026452
0.0264438
0.0264319
0.0264181
0.0264027
0.0263789
0.0263549
0.0263302
0.0263005
0.0262683
0.0262338
0.026197
0.0261576
0.0261161
0.0260728
0.0260281
0.025982
0.0259345
0.0258862
0.0258376
0.0257897
0.025744
0.0205706
0.0210706
0.0215957
0.0221423
0.0227056
0.0232791
0.023854
0.0244189
0.0249616
0.025469
0.0259266
0.0263187
0.0266334
0.0268675
0.027028
0.0271289
0.0271872
0.0272177
0.0272324
0.0272393
0.0272435
0.0272472
0.0272511
0.0272547
0.0272571
0.0272576
0.0272564
0.0272525
0.0272453
0.027235
0.0272204
0.0271999
0.0271782
0.027151
0.0271169
0.0270822
0.0270435
0.0270008
0.0269546
0.0269048
0.0268517
0.026795
0.0267352
0.026673
0.0266087
0.0265424
0.0264742
0.0264044
0.026334
0.0262638
0.0261963
0.023389
0.0239052
0.0244259
0.0249458
0.0254576
0.0259533
0.0264249
0.0268642
0.0272604
0.0276008
0.0278731
0.0280733
0.0282043
0.0282769
0.0283063
0.0283071
0.0282951
0.0282795
0.0282649
0.0282543
0.0282482
0.0282454
0.0282445
0.0282439
0.0282417
0.0282371
0.0282297
0.0282198
0.0282058
0.0281873
0.0281658
0.0281366
0.0281038
0.0280692
0.0280269
0.0279812
0.0279327
0.0278803
0.0278231
0.0277615
0.0276962
0.0276271
0.0275541
0.0274772
0.0273969
0.0273137
0.0272276
0.0271387
0.0270474
0.0269544
0.0268607
0.0267694
0.0271653
0.0276154
0.0280426
0.0284406
0.0288018
0.0291156
0.0293722
0.0295642
0.0296872
0.029745
0.0297433
0.0297069
0.0296464
0.0295753
0.0295051
0.0294426
0.0293913
0.0293518
0.0293222
0.0293
0.0292826
0.0292674
0.0292527
0.0292372
0.0292193
0.0291986
0.0291748
0.029148
0.029118
0.0290854
0.0290472
0.0290033
0.0289592
0.0289108
0.0288582
0.0288024
0.0287437
0.0286815
0.0286154
0.0285454
0.0284719
0.0283947
0.0283135
0.0282283
0.0281392
0.0280463
0.0279497
0.0278493
0.0277452
0.0276379
0.0275283
0.0274196
0.0307315
0.0310009
0.0312166
0.0313697
0.0314556
0.0314706
0.0314267
0.0313352
0.0312069
0.031058
0.0309028
0.0307544
0.0306208
0.0305056
0.0304097
0.0303317
0.0302688
0.0302177
0.030175
0.0301376
0.0301031
0.0300698
0.0300365
0.0300022
0.0299662
0.0299289
0.0298893
0.0298464
0.0298028
0.0297591
0.0297088
0.0296565
0.0296043
0.0295496
0.0294916
0.0294317
0.0293701
0.0293064
0.0292399
0.0291705
0.0290984
0.0290232
0.0289447
0.0288627
0.0287769
0.0286874
0.0285939
0.0284961
0.0283937
0.028287
0.0281762
0.0280644
0.0332306
0.0331916
0.0330986
0.0329542
0.0327691
0.0325553
0.0323262
0.0320953
0.031872
0.0316639
0.0314779
0.0313168
0.0311807
0.0310671
0.0309728
0.0308939
0.0308264
0.0307674
0.030714
0.0306641
0.030616
0.0305694
0.030523
0.0304756
0.0304281
0.03038
0.0303304
0.0302799
0.03023
0.0301799
0.0301257
0.0300705
0.0300154
0.0299593
0.0299018
0.0298435
0.0297845
0.0297243
0.0296625
0.0295991
0.0295338
0.0294665
0.0293969
0.0293248
0.0292498
0.0291718
0.0290904
0.0290052
0.0289157
0.0288219
0.0287233
0.0286225
0.0341475
0.0338925
0.0336181
0.0333329
0.0330465
0.0327681
0.0325056
0.0322653
0.032051
0.0318645
0.0317031
0.0315648
0.0314479
0.0313485
0.0312632
0.0311884
0.0311211
0.0310596
0.0310018
0.0309459
0.0308917
0.0308388
0.0307862
0.0307338
0.0306818
0.0306299
0.030577
0.0305245
0.0304732
0.0304214
0.0303674
0.0303131
0.0302591
0.0302049
0.0301505
0.0300961
0.0300415
0.0299866
0.0299309
0.0298744
0.029817
0.0297585
0.0296986
0.0296373
0.0295741
0.029509
0.0294416
0.0293714
0.029298
0.0292213
0.0291404
0.0290574
0.0341028
0.0337865
0.0334779
0.0331822
0.0329045
0.0326491
0.032419
0.0322162
0.0320406
0.0318906
0.0317621
0.0316515
0.0315557
0.031471
0.0313962
0.0313276
0.0312635
0.031203
0.0311452
0.031089
0.031034
0.0309801
0.0309267
0.0308736
0.0308214
0.0307696
0.0307175
0.0306662
0.0306158
0.030565
0.0305132
0.0304615
0.0304102
0.0303593
0.0303087
0.0302585
0.0302086
0.0301587
0.0301086
0.0300583
0.0300076
0.0299565
0.0299048
0.0298523
0.029799
0.0297446
0.0296889
0.0296316
0.0295722
0.0295107
0.0294463
0.0293805
0.0337476
0.0334444
0.0331608
0.0329005
0.0326661
0.0324579
0.0322757
0.0321178
0.0319815
0.0318634
0.0317621
0.0316734
0.0315953
0.031523
0.0314566
0.0313944
0.0313352
0.0312781
0.0312227
0.0311684
0.0311152
0.0310628
0.0310109
0.0309594
0.0309091
0.0308593
0.0308095
0.0307605
0.0307122
0.0306636
0.0306147
0.030566
0.030518
0.0304707
0.0304239
0.0303777
0.030332
0.0302866
0.0302413
0.0301961
0.0301509
0.0301056
0.0300603
0.0300147
0.0299687
0.0299223
0.0298753
0.0298276
0.0297788
0.0297289
0.0296772
0.0296249
0.0330637
0.0328319
0.0326247
0.0324421
0.0322827
0.0321447
0.0320252
0.0319214
0.0318306
0.031751
0.031678
0.0316118
0.0315499
0.031491
0.0314345
0.0313796
0.031326
0.0312732
0.0312213
0.0311702
0.0311198
0.0310697
0.0310203
0.0309722
0.0309246
0.0308771
0.0308304
0.0307841
0.0307379
0.0306917
0.0306461
0.0306014
0.0305574
0.0305142
0.0304718
0.03043
0.0303888
0.030348
0.0303075
0.0302673
0.0302275
0.0301878
0.0301483
0.0301088
0.0300692
0.0300292
0.0299888
0.0299477
0.0299063
0.0298639
0.0298214
0.0327461
0.0325667
0.0324095
0.0322727
0.0321536
0.0320498
0.0319593
0.0318801
0.031809
0.0317438
0.0316828
0.0316247
0.0315687
0.0315143
0.0314611
0.0314091
0.0313581
0.0313076
0.0312578
0.0312088
0.0311604
0.0311124
0.0310653
0.0310194
0.0309739
0.0309288
0.0308842
0.0308401
0.0307961
0.0307525
0.0307097
0.0306678
0.0306269
0.0305868
0.0305475
0.0305091
0.0304713
0.0304341
0.0303975
0.0303614
0.0303259
0.0302909
0.0302564
0.0302223
0.0301885
0.0301551
0.030122
0.0300888
0.0300557
0.0300221
0.029988
0.0325123
0.032378
0.0322609
0.0321577
0.0320685
0.0319908
0.0319218
0.031858
0.0317978
0.0317409
0.0316864
0.0316334
0.0315815
0.0315304
0.03148
0.0314304
0.0313814
0.031333
0.0312853
0.0312384
0.0311921
0.0311464
0.0311017
0.031058
0.0310148
0.030972
0.0309296
0.0308876
0.0308459
0.0308049
0.0307647
0.0307254
0.030687
0.0306496
0.030613
0.0305772
0.0305422
0.0305078
0.0304742
0.0304412
0.030409
0.0303774
0.0303466
0.0303166
0.0302872
0.0302585
0.0302305
0.0302029
0.0301759
0.0301493
0.0301229
0.0322536
0.0321652
0.0320887
0.0320203
0.0319585
0.0319002
0.0318458
0.031793
0.0317414
0.0316911
0.0316418
0.0315932
0.0315452
0.0314977
0.0314509
0.0314046
0.0313587
0.0313135
0.0312691
0.0312252
0.0311821
0.03114
0.0310987
0.0310579
0.0310174
0.0309773
0.0309376
0.0308984
0.0308598
0.0308222
0.0307854
0.0307495
0.0307145
0.0306803
0.0306468
0.0306141
0.030582
0.0305506
0.03052
0.03049
0.0304609
0.0304325
0.0304048
0.0303781
0.0303521
0.030327
0.0303028
0.0302796
0.0302575
0.0302358
0.0321763
0.0321095
0.0320497
0.0319943
0.0319422
0.0318917
0.031843
0.0317956
0.0317489
0.0317026
0.0316567
0.0316111
0.0315659
0.0315212
0.031477
0.0314333
0.0313901
0.0313475
0.0313056
0.0312644
0.031224
0.0311844
0.0311455
0.031107
0.0310689
0.031031
0.0309936
0.0309567
0.0309206
0.0308852
0.0308508
0.0308171
0.0307843
0.0307522
0.0307207
0.03069
0.0306598
0.0306304
0.0306015
0.0305734
0.030546
0.0305193
0.0304935
0.0304684
0.0304443
0.0304211
0.0303989
0.0303777
0.030358
0.0303386
0.0321347
0.0320824
0.0320329
0.0319855
0.0319405
0.0318961
0.031852
0.0318086
0.0317655
0.0317224
0.0316794
0.0316365
0.0315939
0.0315517
0.03151
0.0314688
0.0314281
0.031388
0.0313486
0.0313099
0.031272
0.0312348
0.0311981
0.0311618
0.0311258
0.0310901
0.0310549
0.0310202
0.0309862
0.030953
0.0309206
0.030889
0.030858
0.0308277
0.030798
0.0307689
0.0307403
0.0307124
0.030685
0.0306583
0.0306322
0.0306068
0.0305822
0.0305584
0.0305355
0.0305134
0.0304925
0.0304725
0.0304542
0.0304362
0.0321191
0.0320749
0.0320331
0.0319921
0.0319516
0.0319115
0.0318711
0.0318307
0.0317901
0.0317495
0.0317089
0.0316685
0.0316283
0.0315885
0.0315492
0.0315104
0.031472
0.0314343
0.0313973
0.031361
0.0313253
0.0312903
0.0312557
0.0312213
0.0311873
0.0311536
0.0311203
0.0310876
0.0310556
0.0310242
0.0309936
0.0309636
0.0309342
0.0309054
0.0308771
0.0308492
0.0308219
0.0307951
0.0307688
0.030743
0.0307179
0.0306934
0.0306695
0.0306465
0.0306243
0.0306029
0.0305827
0.0305634
0.0305459
0.0305286
0.032121
0.0320834
0.0320466
0.0320099
0.031973
0.0319357
0.031898
0.0318598
0.0318215
0.031783
0.0317446
0.0317064
0.0316685
0.031631
0.0315939
0.0315572
0.0315211
0.0314857
0.0314509
0.0314167
0.0313831
0.03135
0.0313172
0.0312846
0.0312523
0.0312204
0.0311888
0.0311578
0.0311274
0.0310976
0.0310684
0.0310397
0.0310115
0.0309838
0.0309565
0.0309296
0.030903
0.0308769
0.0308513
0.0308261
0.0308014
0.0307773
0.0307539
0.0307312
0.0307092
0.0306882
0.0306682
0.0306491
0.0306319
0.0306148
0.0321367
0.0321038
0.0320705
0.0320366
0.032002
0.0319668
0.0319311
0.0318949
0.0318585
0.031822
0.0317857
0.0317495
0.0317137
0.0316783
0.0316432
0.0316087
0.0315747
0.0315412
0.0315084
0.0314761
0.0314443
0.0314128
0.0313816
0.0313506
0.0313198
0.0312893
0.0312592
0.0312296
0.0312004
0.0311718
0.0311436
0.0311159
0.0310885
0.0310615
0.0310348
0.0310083
0.0309822
0.0309565
0.030931
0.030906
0.0308814
0.0308573
0.0308339
0.030811
0.030789
0.0307678
0.0307477
0.0307284
0.0307111
0.0306938
0.0321632
0.032133
0.032102
0.03207
0.0320371
0.0320035
0.0319694
0.031935
0.0319004
0.0318658
0.0318314
0.0317971
0.0317632
0.0317297
0.0316966
0.0316639
0.0316317
0.0316001
0.0315689
0.0315383
0.0315079
0.0314779
0.0314479
0.0314182
0.0313886
0.0313592
0.0313302
0.0313016
0.0312733
0.0312455
0.0312179
0.0311907
0.0311638
0.031137
0.0311105
0.0310842
0.0310581
0.0310322
0.0310066
0.0309813
0.0309564
0.030932
0.0309081
0.0308848
0.0308623
0.0308406
0.03082
0.0308003
0.0307824
0.0307646
0.0321687
0.0321391
0.0321085
0.032077
0.0320449
0.0320123
0.0319795
0.0319465
0.0319136
0.0318809
0.0318484
0.0318162
0.0317844
0.0317529
0.0317219
0.0316913
0.0316612
0.0316315
0.0316021
0.0315729
0.0315439
0.0315149
0.0314861
0.0314573
0.0314288
0.0314005
0.0313724
0.0313447
0.0313172
0.0312899
0.0312628
0.0312359
0.031209
0.0311823
0.0311556
0.0311291
0.0311028
0.0310766
0.0310507
0.0310252
0.031
0.0309754
0.0309513
0.030928
0.0309055
0.0308842
0.0308637
0.0308451
0.0308265
0.0322093
0.0321808
0.0321513
0.032121
0.0320901
0.0320589
0.0320275
0.0319961
0.0319647
0.0319335
0.0319025
0.0318718
0.0318414
0.0318114
0.0317817
0.0317524
0.0317235
0.0316948
0.0316664
0.031638
0.0316097
0.0315814
0.0315531
0.0315248
0.0314967
0.0314687
0.0314409
0.0314132
0.0313857
0.0313583
0.0313309
0.0313035
0.0312762
0.0312488
0.0312215
0.0311942
0.031167
0.03114
0.0311132
0.0310866
0.0310604
0.0310348
0.0310097
0.0309853
0.0309618
0.0309395
0.030918
0.0308984
0.0308789
0.0322537
0.032226
0.0321974
0.0321682
0.0321384
0.0321084
0.0320783
0.0320482
0.0320181
0.0319882
0.0319585
0.031929
0.0318998
0.0318709
0.0318423
0.0318139
0.0317858
0.0317579
0.03173
0.0317021
0.0316741
0.0316461
0.031618
0.0315898
0.0315617
0.0315337
0.0315057
0.0314777
0.0314497
0.0314217
0.0313937
0.0313656
0.0313374
0.0313091
0.0312807