/*--------------------------------*- C++ -*----------------------------------*\
| =========                 |                                                 |
| \\      /  F ield         | OpenFOAM: The Open Source CFD Toolbox           |
|  \\    /   O peration     | Version:  v1706                                 |
|   \\  /    A nd           | Web:      www.OpenFOAM.com                      |
|    \\/     M anipulation  |                                                 |
\*---------------------------------------------------------------------------*/
FoamFile
{
    version     2.0;
    format      ascii;
    class       volScalarField;
    location    "1.4e-05";
    object      p;
}
// * * * * * * * * * * * * * * * * * * * * * * * * * * * * * * * * * * * * * //

dimensions      [1 -1 -2 0 0 0 0];


internalField   nonuniform List<scalar> 
30038
(
21.9139
21.9139
21.9139
21.9139
21.9139
21.9139
21.9139
21.9139
21.9139
21.9139
21.9139
21.9139
21.9139
21.9139
21.9139
21.9139
21.9139
21.9139
21.9139
21.9139
21.9139
21.9139
21.9139
21.9139
21.9139
21.9139
21.9139
21.9139
21.9139
21.9139
21.9139
21.9139
21.9139
21.9139
21.9139
21.9139
21.9139
21.9139
21.9139
21.9139
21.9139
21.9139
21.9139
21.9139
21.9139
21.9139
21.9139
21.9139
21.9139
21.9139
21.9139
21.9139
21.9139
21.9139
21.9139
21.9139
21.9139
21.9139
21.9139
21.9139
21.9139
21.9139
21.9139
21.9139
21.9139
21.9139
21.9139
21.9139
21.9139
21.9139
21.9139
21.9139
21.9139
21.9139
21.9139
21.9139
21.9139
21.9139
21.9139
21.9139
21.9139
21.9139
21.9139
21.9139
21.9139
21.9139
21.9139
21.9139
21.9139
21.9139
21.9139
21.9139
21.9139
21.9139
21.9139
21.9139
21.9139
21.9139
21.9139
21.9139
21.9139
21.9139
21.9139
21.9139
21.9139
21.9139
21.9139
21.9139
21.9139
21.9139
21.9139
21.9139
21.9139
21.9139
21.9139
21.9139
21.9139
21.9139
21.9139
21.9139
21.9139
21.9139
21.9139
21.9139
21.9139
21.9139
21.9139
21.9139
21.9139
21.9139
21.9139
21.9139
21.9139
21.9139
21.9139
21.9139
21.9139
21.9139
21.9139
21.9139
21.9139
21.9139
21.9139
21.9139
21.9139
21.9139
21.9139
21.9139
21.9139
21.9139
21.9139
21.9139
21.9139
21.9139
21.9139
21.9139
21.9139
21.9139
21.9139
21.9139
21.9139
21.9139
21.9139
21.9139
21.9139
21.9139
21.9139
21.9139
21.9139
21.9139
21.9139
21.9139
21.9139
21.9139
21.9139
21.9139
21.9139
21.9139
21.9139
21.9139
21.9139
21.9139
21.9139
21.9139
21.9139
21.9139
21.9139
21.9139
21.9139
21.9139
21.9139
21.9139
21.9139
21.9139
21.9139
21.9139
21.9139
21.9139
21.9139
21.9139
21.9139
21.9139
21.9139
21.9139
21.9139
21.9139
21.9139
21.9139
21.9139
21.9139
21.9139
21.9139
21.9139
21.9139
21.9139
21.9139
21.9139
21.9139
21.9139
21.9139
21.9139
21.9139
21.9139
21.9139
21.9139
21.9139
21.9139
21.914
21.9139
21.9139
21.9139
21.9139
21.9139
21.9139
21.9139
21.9139
21.9139
21.9139
21.9139
21.9139
21.9139
21.9139
21.9139
21.9139
21.9139
21.9139
21.9139
21.9139
21.9139
21.9139
21.9139
21.9139
21.9139
21.9139
21.9139
21.9139
21.9139
21.9139
21.9139
21.9139
21.9139
21.9139
21.9139
21.914
21.914
21.914
21.9139
21.9139
21.9139
21.9139
21.9139
21.9139
21.9139
21.9139
21.9139
21.9139
21.9139
21.9139
21.9139
21.9139
21.9139
21.9139
21.9139
21.9139
21.9139
21.9139
21.9139
21.9139
21.9139
21.9139
21.9139
21.9139
21.9139
21.9139
21.9139
21.9139
21.9139
21.9139
21.914
21.914
21.914
21.9141
21.9141
21.9142
21.9139
21.9139
21.9139
21.9139
21.9139
21.9139
21.9139
21.9139
21.9139
21.9139
21.9139
21.9139
21.9139
21.9139
21.9139
21.9139
21.9139
21.9139
21.9139
21.9139
21.9139
21.9139
21.9139
21.9139
21.9139
21.9139
21.9139
21.9139
21.9139
21.9139
21.914
21.914
21.914
21.914
21.9141
21.9142
21.9142
21.9144
21.9146
21.9139
21.9139
21.9139
21.9139
21.9139
21.9139
21.9139
21.9139
21.9139
21.9139
21.9139
21.9139
21.9139
21.9139
21.9139
21.9139
21.9139
21.9139
21.9139
21.9139
21.9139
21.9139
21.9139
21.9139
21.9139
21.9139
21.9139
21.9139
21.914
21.914
21.914
21.9141
21.9141
21.9142
21.9143
21.9145
21.9147
21.915
21.9154
21.9139
21.9139
21.9139
21.9139
21.9139
21.9139
21.9139
21.9139
21.9139
21.9139
21.9139
21.9139
21.9139
21.9139
21.9139
21.9139
21.9139
21.9139
21.9139
21.9139
21.9139
21.9139
21.9139
21.9139
21.9139
21.914
21.914
21.914
21.914
21.9141
21.9142
21.9142
21.9144
21.9146
21.9148
21.9151
21.9156
21.9163
21.9172
21.9139
21.9139
21.9139
21.9139
21.9139
21.9139
21.9139
21.9139
21.9139
21.9139
21.9139
21.9139
21.9139
21.9139
21.9139
21.9139
21.9139
21.9139
21.9139
21.9139
21.9139
21.9139
21.9139
21.9139
21.914
21.914
21.914
21.9141
21.9141
21.9142
21.9143
21.9145
21.9147
21.9149
21.9153
21.9159
21.9166
21.9176
21.9191
21.9211
21.9139
21.9139
21.9139
21.9139
21.9139
21.9139
21.9139
21.9139
21.9139
21.9139
21.9139
21.9139
21.9139
21.9139
21.9139
21.9139
21.9139
21.9139
21.9139
21.9139
21.9139
21.914
21.914
21.914
21.914
21.9141
21.9142
21.9142
21.9144
21.9145
21.9148
21.9151
21.9156
21.9162
21.917
21.9182
21.9198
21.922
21.925
21.9293
21.9139
21.9139
21.9139
21.9139
21.9139
21.9139
21.9139
21.9139
21.9139
21.9139
21.9139
21.9139
21.9139
21.9139
21.9139
21.9139
21.9139
21.9139
21.9139
21.914
21.914
21.914
21.9141
21.9141
21.9142
21.9143
21.9145
21.9147
21.9149
21.9153
21.9158
21.9165
21.9175
21.9188
21.9206
21.9231
21.9264
21.9311
21.9376
21.9467
21.9139
21.9139
21.9139
21.9139
21.9139
21.9139
21.9139
21.9139
21.9139
21.9139
21.9139
21.9139
21.9139
21.9139
21.9139
21.9139
21.914
21.914
21.914
21.914
21.9141
21.9142
21.9142
21.9144
21.9145
21.9148
21.9151
21.9155
21.9161
21.9169
21.918
21.9195
21.9215
21.9243
21.9281
21.9333
21.9404
21.9502
21.9637
21.9827
21.9139
21.9139
21.9139
21.9139
21.9139
21.9139
21.9139
21.9139
21.9139
21.9139
21.9139
21.9139
21.9139
21.9139
21.914
21.914
21.914
21.9141
21.9141
21.9142
21.9143
21.9144
21.9146
21.9149
21.9153
21.9157
21.9164
21.9173
21.9185
21.9202
21.9225
21.9256
21.9298
21.9356
21.9436
21.9544
21.9692
21.9896
22.0175
22.0568
21.9139
21.9139
21.9139
21.9139
21.9139
21.9139
21.9139
21.9139
21.9139
21.9139
21.9139
21.914
21.914
21.914
21.914
21.9141
21.9142
21.9142
21.9144
21.9145
21.9148
21.9151
21.9155
21.916
21.9168
21.9178
21.9191
21.921
21.9236
21.927
21.9318
21.9382
21.947
21.959
21.9753
21.9977
22.0282
22.0699
22.1269
22.207
21.9139
21.9139
21.9139
21.9139
21.9139
21.9139
21.9139
21.9139
21.914
21.914
21.914
21.914
21.9141
21.9141
21.9142
21.9143
21.9144
21.9146
21.9149
21.9152
21.9157
21.9163
21.9171
21.9183
21.9198
21.9219
21.9248
21.9286
21.9339
21.941
21.9507
21.964
21.9819
22.0064
22.0398
22.0852
22.1471
22.2316
22.3466
22.5073
21.9139
21.9139
21.9139
21.9139
21.9139
21.9139
21.9139
21.914
21.914
21.914
21.914
21.9141
21.9142
21.9142
21.9144
21.9145
21.9147
21.915
21.9154
21.9159
21.9166
21.9176
21.9189
21.9206
21.9229
21.9261
21.9304
21.9362
21.9441
21.9548
21.9693
21.989
22.0158
22.0522
22.1016
22.1688
22.2601
22.384
22.5525
22.7807
23.0977
21.9139
21.9139
21.9139
21.9139
21.914
21.914
21.914
21.914
21.9141
21.9141
21.9142
21.9143
21.9144
21.9146
21.9149
21.9152
21.9156
21.9162
21.917
21.9181
21.9195
21.9214
21.924
21.9275
21.9323
21.9387
21.9474
21.9591
21.9751
21.9966
22.0258
22.0654
22.1191
22.1918
22.2903
22.4237
22.6043
22.8484
23.1785
23.6223
24.2335
21.9139
21.9139
21.9139
21.914
21.914
21.914
21.914
21.9141
21.9142
21.9142
21.9144
21.9145
21.9147
21.915
21.9154
21.9159
21.9165
21.9174
21.9186
21.9202
21.9223
21.9252
21.9291
21.9343
21.9414
21.951
21.9638
21.9812
22.0047
22.0365
22.0795
22.1375
22.216
22.3221
22.4654
22.6587
22.9193
23.2701
23.741
24.3721
25.2118
26.3553
21.9139
21.914
21.914
21.914
21.914
21.9141
21.9141
21.9142
21.9143
21.9144
21.9146
21.9148
21.9151
21.9156
21.9161
21.9168
21.9178
21.9192
21.9209
21.9233
21.9265
21.9308
21.9366
21.9443
21.9548
21.9689
21.9878
22.0134
22.0478
22.0943
22.1569
22.2414
22.3553
22.5088
22.7153
22.9929
23.3654
23.8638
24.5286
25.4118
26.5809
28.1119
30.1668
21.914
21.914
21.9141
21.9141
21.9142
21.9142
21.9144
21.9145
21.9147
21.915
21.9153
21.9158
21.9164
21.9172
21.9183
21.9198
21.9218
21.9244
21.9279
21.9327
21.939
21.9475
21.9589
21.9742
21.9948
22.0225
22.0598
22.1099
22.1773
22.268
22.39
22.5538
22.7738
23.0687
23.4633
23.9896
24.6893
25.6157
26.8356
28.4309
30.5064
33.1756
36.7099
21.914
21.9141
21.9141
21.9142
21.9143
21.9144
21.9146
21.9148
21.9151
21.9155
21.916
21.9167
21.9176
21.9189
21.9205
21.9227
21.9256
21.9295
21.9347
21.9416
21.9509
21.9633
21.98
22.0023
22.0323
22.0724
22.1264
22.1987
22.2958
22.426
22.6005
22.8341
23.1464
23.5632
24.1175
24.8522
25.8216
27.0938
28.7512
30.896
33.6529
37.1742
41.5916
47.4013
21.9141
21.9142
21.9143
21.9144
21.9145
21.9147
21.915
21.9153
21.9157
21.9163
21.9171
21.9181
21.9195
21.9213
21.9237
21.9269
21.9311
21.9368
21.9444
21.9545
21.968
21.9861
22.0102
22.0425
22.0858
22.1436
22.221
22.3246
22.4633
22.6486
22.896
23.2259
23.6649
24.2471
25.0162
26.0279
27.3513
29.0695
31.285
34.1234
37.7282
42.2601
47.9464
54.9848
64.0551
21.9142
21.9143
21.9144
21.9146
21.9148
21.9151
21.9155
21.916
21.9166
21.9175
21.9186
21.9201
21.9221
21.9248
21.9283
21.933
21.9392
21.9474
21.9584
21.9731
21.9926
22.0186
22.0534
22.0997
22.1616
22.2443
22.3546
22.5018
22.6981
22.9595
23.307
23.768
24.3777
25.1807
26.2337
27.6066
29.3831
31.6662
34.5817
38.2728
42.8988
48.6714
55.8497
64.6471
74.8288
86.3229
21.9143
21.9144
21.9145
21.9147
21.9149
21.9153
21.9157
21.9162
21.917
21.9179
21.9192
21.9208
21.923
21.9259
21.9298
21.9349
21.9417
21.9507
21.9626
21.9784
21.9995
22.0275
22.0648
22.1144
22.1805
22.2685
22.3857
22.5416
22.7489
23.0243
23.3894
23.8723
24.5091
25.3452
26.4381
27.8585
29.6905
32.0371
35.0244
38.7953
43.5069
49.3681
56.6395
65.5074
75.8305
87.0011
97.8719
107.853
21.9146
21.9148
21.9151
21.9154
21.9159
21.9165
21.9173
21.9184
21.9198
21.9216
21.924
21.9272
21.9315
21.937
21.9444
21.9541
21.967
21.9841
22.0068
22.0369
22.0768
22.1298
22.2001
22.2936
22.4177
22.5825
22.8009
23.0903
23.4729
23.9775
24.6408
25.509
26.6404
28.1061
29.9905
32.3962
35.4495
39.2929
44.0806
50.0192
57.3678
66.3086
76.7039
87.9164
98.905
108.679
116.51
122.494
21.9147
21.9149
21.9152
21.9156
21.9162
21.9169
21.9177
21.9189
21.9205
21.9225
21.9251
21.9286
21.9332
21.9393
21.9473
21.9578
21.9718
21.9902
22.0145
22.0467
22.0893
22.1458
22.2206
22.3196
22.4508
22.6245
22.8541
23.1574
23.5573
24.0832
24.7723
25.6717
26.84
28.3486
30.282
32.7425
35.8557
39.7638
44.6182
50.6221
58.0323
67.03
77.4801
88.7472
99.8057
109.631
117.561
123.48
127.567
130.31
21.9154
21.9159
21.9165
21.9172
21.9182
21.9195
21.9212
21.9234
21.9263
21.9302
21.9352
21.9418
21.9504
21.9618
21.9768
21.9966
22.0227
22.0571
22.1025
22.1626
22.2418
22.3466
22.4849
22.6675
22.9083
23.2255
23.6424
24.1892
24.9035
25.8328
27.0362
28.5852
30.5643
33.0748
36.2417
40.2068
45.1188
51.1756
58.6324
67.6697
78.1587
89.4746
100.597
110.5
118.528
124.512
128.669
131.425
133.135
134.158
21.9168
21.9176
21.9187
21.9202
21.922
21.9245
21.9277
21.9318
21.9373
21.9444
21.9538
21.9661
21.9822
22.0034
22.0313
22.0681
22.1164
22.1801
22.2639
22.3744
22.52
22.7116
22.9636
23.2944
23.7282
24.2953
25.034
25.992
27.2286
28.8154
30.8365
33.3923
36.6067
40.621
45.5814
51.6791
59.1671
68.2278
78.7407
90.0951
101.284
111.275
119.396
125.487
129.742
132.529
134.304
135.372
135.917
136.194
21.9193
21.9209
21.923
21.9256
21.9291
21.9337
21.9396
21.9473
21.9575
21.9707
21.988
22.0108
22.0406
22.0797
22.131
22.1984
22.287
22.4033
22.5562
22.7568
23.0199
23.3644
23.8146
24.4015
25.1636
26.149
27.4168
29.0387
31.0982
33.6945
36.9502
41.0057
46.0055
52.1326
59.637
68.7047
79.2262
90.6108
101.863
111.952
120.194
126.383
130.73
133.631
135.439
136.516
137.179
137.474
137.526
137.528
21.924
21.927
21.9308
21.9358
21.9422
21.9506
21.9615
21.9758
21.9944
22.0187
22.0505
22.0921
22.1465
22.2178
22.3112
22.4335
22.5937
22.8034
23.0775
23.4355
23.9019
24.508
25.2926
26.304
27.6011
29.2553
31.3496
33.9817
37.2724
41.3613
46.3914
52.537
60.0435
69.1023
79.6174
91.0212
102.337
112.53
120.895
127.224
131.683
134.64
136.551
137.701
138.295
138.65
138.873
138.838
138.691
138.599
21.9328
21.9382
21.9452
21.9543
21.9661
21.9815
22.0014
22.0274
22.0613
22.1056
22.1632
22.2386
22.3369
22.4654
22.6331
22.8519
23.1372
23.5085
23.9908
24.6155
25.4219
26.4579
27.7824
29.4662
31.5916
34.2549
37.5746
41.6893
46.7408
52.8944
60.3898
69.424
79.9173
91.3302
102.706
113.01
121.518
127.98
132.568
135.65
137.599
138.798
139.524
139.84
139.938
140.051
140.105
139.894
139.651
139.554
21.9489
21.9588
21.9716
21.9882
22.0097
22.0375
22.0737
22.1208
22.182
22.2616
22.3651
22.5
22.6754
22.9036
23.2002
23.5848
24.0829
24.726
25.5534
26.6129
27.963
29.6739
31.8271
34.5171
37.8602
41.9934
47.0577
53.2097
60.6818
69.6766
80.133
91.5431
102.976
113.395
122.054
128.682
133.406
136.583
138.651
139.906
140.603
141.04
141.255
141.215
141.132
141.172
141.113
140.783
140.517
140.43
21.9787
21.9967
22.02
22.05
22.0888
22.139
22.2041
22.2884
22.3976
22.5393
22.723
22.9611
23.2693
23.6678
24.1819
24.8433
25.6914
26.7736
28.148
29.884
32.0621
34.7751
38.1366
42.2817
47.3508
53.4932
60.9305
69.8722
80.2773
91.6731
103.157
113.697
122.52
129.315
134.2
137.516
139.648
140.983
141.783
142.163
142.347
142.511
142.506
142.299
142.156
142.16
141.988
141.586
141.33
141.22
22.0342
22.0669
22.1089
22.1629
22.2325
22.3223
22.4381
22.5876
22.7805
23.0295
23.3505
23.7637
24.2948
24.9753
25.8445
26.9497
28.348
30.108
32.309
35.0422
38.4181
42.5696
47.6368
53.763
61.1563
70.0326
80.3742
91.7441
103.274
113.936
122.933
129.922
134.974
138.421
140.684
142.083
142.896
143.397
143.635
143.648
143.647
143.719
143.564
143.261
143.12
143.076
142.803
142.357
142.113
141.944
22.1386
22.1976
22.2731
22.3698
22.4938
22.6529
22.857
23.1189
23.4549
23.8852
24.4355
25.1374
26.0298
27.1596
28.5832
30.3679
32.5917
35.3441
38.7324
42.8872
47.9476
54.053
61.3969
70.1988
80.4674
91.8026
103.373
114.161
123.344
130.533
135.78
139.389
141.751
143.248
144.151
144.625
144.887
145.07
145.06
144.907
144.844
144.846
144.573
144.227
144.104
143.983
143.621
143.156
142.907
142.659
22.3378
22.4442
22.5794
22.7514
22.9704
23.2494
23.6046
24.0566
24.6309
25.3591
26.2797
27.4388
28.8919
30.7052
32.9551
35.7289
39.1311
43.2895
48.3425
54.4263
61.7205
70.4457
80.6373
91.9333
103.543
114.46
123.84
131.256
136.709
140.491
143.003
144.586
145.536
146.12
146.414
146.495
146.56
146.625
146.442
146.206
146.147
146.046
145.67
145.321
145.188
144.971
144.545
144.079
143.775
143.448
22.7239
22.9153
23.1562
23.4599
23.8426
24.3251
24.9327
25.6969
26.6555
27.8538
29.3463
31.1974
33.4821
36.2854
39.7089
43.8778
48.9292
54.9972
62.25
70.907
81.0284
92.2906
103.944
115.002
124.595
132.254
137.944
141.93
144.584
146.29
147.336
147.932
148.286
148.512
148.521
148.428
148.45
148.403
148.081
147.835
147.772
147.533
147.066
146.726
146.528
146.211
145.749
145.262
144.849
144.439
23.4827
23.8253
24.251
24.7802
25.4383
26.2564
27.2714
28.5277
30.0781
31.9858
34.3234
37.1736
40.6356
44.8324
49.8997
55.9698
63.2035
71.8182
81.8955
93.1478
104.867
116.083
125.914
133.846
139.802
144.015
146.859
148.692
149.826
150.542
150.946
151.127
151.267
151.342
151.182
151.027
151.031
150.823
150.415
150.188
150.039
149.666
149.13
148.761
148.426
148.001
147.485
146.934
146.39
145.865
24.9826
25.5877
26.3269
27.2306
28.3347
29.6818
31.3234
33.3211
35.7448
38.6747
42.2083
46.4679
51.5878
57.698
64.9581
73.586
83.679
94.9783
106.811
118.226
128.331
136.574
142.837
147.319
150.368
152.375
153.658
154.453
154.965
155.303
155.422
155.442
155.543
155.479
155.194
155.039
154.958
154.585
154.111
153.843
153.526
153.029
152.432
151.905
151.386
150.814
150.175
149.495
148.798
148.117
27.9138
28.9563
30.2033
31.696
33.4848
35.6289
38.1951
41.2611
44.9258
49.3123
54.5528
60.7744
68.1468
76.8936
87.1188
98.5777
110.617
122.305
132.741
141.348
147.964
152.758
156.078
158.308
159.784
160.774
161.422
161.833
162.155
162.341
162.312
162.296
162.371
162.107
161.736
161.562
161.284
160.728
160.161
159.705
159.154
158.486
157.729
156.951
156.167
155.347
154.475
153.562
152.623
151.708
31.9754
33.45
35.1759
37.2011
39.5809
42.3791
45.6752
49.5746
54.2018
59.6819
66.1435
73.7855
82.8457
93.4155
105.235
117.645
129.722
140.573
149.605
156.635
161.814
165.487
168.049
169.833
171.076
171.968
172.629
173.064
173.37
173.653
173.731
173.599
173.565
173.493
172.986
172.494
172.127
171.556
170.801
169.979
169.139
168.247
167.253
166.16
165.008
163.819
162.586
161.306
159.988
158.642
157.348
40.9844
43.3739
46.122
49.2966
52.9875
57.3034
62.3607
68.2711
75.2042
83.4149
93.1489
104.437
116.95
129.984
142.617
153.984
163.515
171.037
176.707
180.865
183.884
186.094
187.749
188.999
189.952
190.711
191.278
191.626
191.895
192.115
191.992
191.689
191.528
191.099
190.276
189.508
188.665
187.692
186.555
185.267
183.886
182.415
180.836
179.157
177.402
175.585
173.711
171.785
169.822
167.829
165.94
53.1307
56.4637
60.2644
64.6193
69.6129
75.3608
82.0493
89.9517
99.3619
110.434
123.03
136.69
150.641
163.981
175.919
185.958
194.006
200.228
204.941
208.504
211.223
213.331
215.004
216.345
217.392
218.207
218.836
219.204
219.346
219.45
219.377
218.803
218.144
217.539
216.534
215.285
213.944
212.511
210.89
209.06
207.061
204.929
202.667
200.272
197.76
195.151
192.461
189.697
186.87
184.004
181.094
178.357
76.8102
82.1289
88.2248
95.3345
103.752
113.727
125.383
138.62
153.066
168.102
182.89
196.718
208.914
219.157
227.424
233.914
238.938
242.818
245.834
248.204
250.073
251.55
252.714
253.583
254.173
254.537
254.66
254.453
254.075
253.723
252.942
251.707
250.498
249.107
247.475
245.633
243.624
241.445
239.066
236.485
233.727
230.812
227.737
224.503
221.123
217.617
213.996
210.27
206.453
202.575
198.606
194.871
116.753
126.708
138.217
151.257
165.639
180.962
196.732
212.268
226.886
240.035
251.369
260.795
268.391
274.37
279.004
282.561
285.278
287.342
288.896
290.035
290.819
291.31
291.522
291.465
291.178
290.7
289.965
288.936
287.815
286.741
285.145
283.262
281.382
279.362
277.114
274.695
272.138
269.425
266.529
263.448
260.199
256.789
253.211
249.459
245.541
241.464
237.233
232.853
228.327
223.693
218.883
214.302
188.292
203.354
218.833
234.242
249.079
262.883
275.306
286.128
295.255
302.711
308.647
313.266
316.785
319.394
321.269
322.55
323.349
323.757
323.839
323.642
323.198
322.554
321.677
320.606
319.396
318.078
316.516
314.756
313.026
311.234
309.067
306.733
304.372
301.911
299.31
296.599
293.787
290.857
287.784
284.566
281.21
277.715
274.068
270.262
266.293
262.157
257.85
253.367
248.694
243.866
238.777
233.843
274.894
287.428
298.839
308.974
317.771
325.235
331.425
336.451
340.425
343.496
345.751
347.284
348.228
348.669
348.69
348.366
347.754
346.9
345.833
344.598
343.208
341.698
340.023
338.215
336.372
334.484
332.389
330.192
328.052
325.802
323.317
320.751
318.163
315.518
312.798
310.013
307.165
304.237
301.211
298.084
294.858
291.529
288.085
284.516
280.814
276.97
272.973
268.813
264.461
259.95
255.147
250.406
336.368
342.643
348.022
352.549
356.293
359.315
361.675
363.452
364.684
365.431
365.73
365.594
365.105
364.299
363.215
361.931
360.466
358.846
357.09
355.231
353.294
351.29
349.168
346.966
344.792
342.593
340.238
337.836
335.459
332.981
330.375
327.732
325.08
322.4
319.681
316.926
314.134
311.292
308.386
305.415
302.379
299.274
296.091
292.822
289.459
285.993
282.412
278.708
274.846
270.86
266.621
262.37
366.799
369.232
371.272
372.954
374.3
375.297
375.937
376.238
376.173
375.739
375.038
374.017
372.759
371.297
369.636
367.842
365.937
363.932
361.836
359.675
357.48
355.247
352.924
350.56
348.247
345.909
343.454
340.972
338.49
335.937
333.315
330.677
328.039
325.388
322.717
320.027
317.315
314.571
311.786
308.959
306.089
303.175
300.209
297.188
294.103
290.95
287.715
284.398
280.966
277.455
273.761
270.014
380.425
381.193
381.766
382.147
382.261
382.093
381.65
380.906
379.878
378.662
377.213
375.578
373.802
371.892
369.878
367.798
365.651
363.431
361.163
358.879
356.568
354.177
351.769
349.419
347.03
344.55
342.051
339.536
336.972
334.372
331.769
329.172
326.57
323.958
321.336
318.701
316.046
313.364
310.654
307.915
305.147
302.345
299.505
296.623
293.696
290.715
287.684
284.568
281.4
278.111
274.75
385.066
385.34
385.444
385.364
384.997
384.322
383.463
382.399
381.155
379.709
378.107
376.332
374.415
372.375
370.243
368.06
365.827
363.531
361.199
358.866
356.504
354.075
351.654
349.275
346.848
344.354
341.841
339.308
336.743
334.162
331.588
329.023
326.46
323.895
321.329
318.759
316.18
313.588
310.983
308.366
305.735
303.089
300.423
297.734
295.023
292.279
289.509
286.678
283.807
280.86
277.824
387.043
387.083
386.872
386.303
385.647
384.853
383.864
382.704
381.27
379.614
377.822
375.897
373.854
371.707
369.484
367.208
364.881
362.494
360.086
357.685
355.252
352.783
350.334
347.895
345.416
342.893
340.351
337.794
335.222
332.649
330.088
327.539
324.999
322.464
319.935
317.411
314.888
312.367
309.848
307.331
304.818
302.309
299.802
297.294
294.786
292.267
289.739
287.188
284.622
282.039
279.361
387.605
387.06
386.442
385.693
384.732
383.477
382.047
380.414
378.597
376.6
374.499
372.315
370.058
367.748
365.411
363.032
360.605
358.168
355.733
353.275
350.8
348.338
345.87
343.369
340.836
338.286
335.725
333.159
330.599
328.052
325.518
322.995
320.48
317.974
315.476
312.984
310.5
308.024
305.559
303.106
300.667
298.244
295.837
293.448
291.074
288.722
286.385
284.054
281.765
279.37
387.354
386.8
386.042
385.037
383.822
382.363
380.669
378.835
376.872
374.787
372.61
370.363
368.054
365.705
363.336
360.933
358.494
356.05
353.605
351.145
348.677
346.212
343.733
341.225
338.693
336.147
333.595
331.042
328.498
325.968
323.45
320.944
318.447
315.96
313.482
311.014
308.555
306.11
303.679
301.265
298.871
296.5
294.152
291.833
289.542
287.284
285.063
282.858
280.742
278.522
386.902
386.14
385.166
383.906
382.452
380.824
379.009
377.056
374.995
372.845
370.622
368.339
366.005
363.638
361.252
358.836
356.395
353.95
351.503
349.047
346.584
344.116
341.631
339.121
336.594
334.056
331.516
328.98
326.453
323.939
321.439
318.95
316.471
314.003
311.546
309.099
306.666
304.248
301.848
299.469
297.113
294.784
292.484
290.219
287.99
285.799
283.662
281.542
279.544
277.44
386.204
385.197
383.992
382.567
380.955
379.183
377.267
375.234
373.105
370.902
368.64
366.329
363.976
361.597
359.199
356.776
354.336
351.893
349.448
346.995
344.535
342.064
339.576
337.069
334.549
332.022
329.496
326.976
324.467
321.972
319.489
317.019
314.559
312.111
309.675
307.253
304.845
302.456
300.087
297.742
295.423
293.136
290.882
288.666
286.493
284.363
282.298
280.251
278.347
276.338
385.281
384.093
382.705
381.127
379.382
377.498
375.495
373.395
371.213
368.969
366.676
364.343
361.975
359.586
357.179
354.753
352.315
349.876
347.433
344.983
342.525
340.054
337.567
335.065
332.553
330.04
327.53
325.028
322.538
320.062
317.598
315.147
312.708
310.282
307.87
305.473
303.093
300.734
298.397
296.088
293.808
291.562
289.355
287.189
285.072
283.001
281.004
279.028
277.206
275.285
384.228
382.864
381.318
379.608
377.754
375.779
373.704
371.547
369.322
367.045
364.729
362.377
359.999
357.602
355.19
352.764
350.331
347.896
345.456
343.01
340.553
338.084
335.601
333.108
330.609
328.11
325.618
323.135
320.665
318.209
315.767
313.337
310.921
308.518
306.131
303.762
301.412
299.084
296.783
294.51
292.271
290.069
287.909
285.795
283.735
281.723
279.794
277.887
276.145
274.308
383.05
381.534
379.855
378.032
376.085
374.034
371.9
369.696
367.436
365.135
362.799
360.435
358.05
355.649
353.235
350.812
348.384
345.954
343.519
341.076
338.624
336.159
333.684
331.201
328.717
326.236
323.763
321.301
318.852
316.418
313.997
311.591
309.199
306.822
304.463
302.123
299.804
297.511
295.246
293.013
290.817
288.661
286.55
284.489
282.487
280.536
278.675
276.839
275.174
273.42
380.124
378.33
376.41
374.385
372.273
370.09
367.849
365.563
363.243
360.894
358.521
356.132
353.729
351.317
348.899
346.478
344.054
341.624
339.187
336.74
334.283
331.818
329.349
326.881
324.419
321.967
319.527
317.101
314.69
312.293
309.911
307.545
305.196
302.866
300.557
298.273
296.016
293.789
291.598
289.447
287.339
285.28
283.274
281.332
279.444
277.651
275.889
274.3
272.63
378.65
376.758
374.758
372.668
370.506
368.284
366.015
363.71
361.375
359.017
356.64
354.249
351.848
349.441
347.029
344.615
342.197
339.774
337.344
334.905
332.458
330.006
327.553
325.104
322.663
320.233
317.816
315.414
313.027
310.656
308.301
305.962
303.643
301.344
299.068
296.819
294.6
292.414
290.267
288.162
286.104
284.1
282.151
280.27
278.447
276.725
275.037
273.526
271.939
377.128
375.154
373.087
370.945
368.742
366.491
364.202
361.881
359.537
357.174
354.795
352.406
350.01
347.608
345.204
342.798
340.389
337.973
335.552
333.123
330.689
328.252
325.817
323.388
320.969
318.562
316.17
313.793
311.432
309.087
306.759
304.45
302.161
299.895
297.655
295.443
293.264
291.121
289.019
286.963
284.958
283.009
281.119
279.302
277.546
275.895
274.283
272.851
271.348
373.53
371.409
369.226
366.993
364.719
362.414
360.084
357.734
355.368
352.991
350.606
348.216
345.822
343.427
341.03
338.629
336.223
333.812
331.395
328.976
326.556
324.141
321.734
319.338
316.956
314.589
312.238
309.903
307.586
305.287
303.009
300.752
298.521
296.317
294.144
292.006
289.908
287.854
285.849
283.897
282.006
280.177
278.425
276.738
275.159
273.624
272.271
270.854
371.899
369.736
367.52
365.263
362.973
360.657
358.321
355.969
353.604
351.231
348.851
346.469
344.085
341.699
339.312
336.921
334.526
332.127
329.724
327.321
324.92
322.526
320.142
317.77
315.413
313.072
310.748
308.441
306.153
303.884
301.637
299.415
297.218
295.052
292.92
290.826
288.774
286.769
284.816
282.919
281.087
279.321
277.636
276.02
274.514
273.058
271.785
270.455
368.076
365.835
363.561
361.259
358.936
356.597
354.245
351.883
349.516
347.145
344.771
342.397
340.022
337.645
335.266
332.883
330.497
328.11
325.725
323.344
320.972
318.612
316.265
313.934
311.62
309.323
307.045
304.786
302.549
300.334
298.146
295.987
293.86
291.77
289.72
287.715
285.761
283.862
282.023
280.252
278.55
276.934
275.389
273.958
272.582
271.39
270.151
366.436
364.177
361.889
359.58
357.254
354.914
352.565
350.209
347.849
345.486
343.123
340.76
338.396
336.031
333.663
331.293
328.923
326.553
324.187
321.828
319.479
317.143
314.822
312.517
310.23
307.961
305.712
303.483
301.278
299.097
296.945
294.824
292.738
290.69
288.686
286.731
284.829
282.986
281.206
279.498
277.862
276.315
274.842
273.489
272.195
271.09
269.941
362.549
360.253
357.94
355.612
353.275
350.93
348.581
346.23
343.878
341.526
339.174
336.821
334.468
332.114
329.759
327.404
325.052
322.707
320.37
318.044
315.733
313.438
311.16
308.9
306.66
304.44
302.243
300.07
297.925
295.809
293.727
291.683
289.681
287.725
285.82
283.971
282.186
280.467
278.822
277.251
275.774
274.374
273.1
271.885
270.87
269.797
360.956
358.655
356.34
354.014
351.681
349.342
347.002
344.66
342.318
339.978
337.638
335.298
332.957
330.617
328.277
325.94
323.607
321.283
318.968
316.667
314.381
312.112
309.861
307.629
305.418
303.229
301.063
298.925
296.815
294.738
292.697
290.696
288.74
286.833
284.978
283.183
281.453
279.791
278.209
276.704
275.3
273.975
272.785
271.646
270.699
269.704
359.4
357.097
354.782
352.46
350.132
347.802
345.47
343.139
340.809
338.48
336.152
333.824
331.498
329.172
326.848
324.529
322.216
319.913
317.622
315.345
313.084
310.841
308.618
306.415
304.234
302.076
299.944
297.84
295.768
293.729
291.728
289.768
287.856
285.996
284.192
282.45
280.776
279.176
277.66
276.227
274.9
273.655
272.529
271.463
270.582
269.679
357.884
355.58
353.268
350.95
348.63
346.308
343.986
341.666
339.347
337.03
334.714
332.4
330.088
327.777
325.47
323.17
320.877
318.596
316.328
314.076
311.842
309.627
307.431
305.257
303.107
300.981
298.88
296.809
294.771
292.769
290.808
288.891
287.024
285.213
283.462
281.778
280.165
278.631
277.183
275.827
274.561
273.381
272.319
271.332
270.543
269.732
356.407
354.105
351.797
349.486
347.173
344.86
342.549
340.24
337.932
335.628
333.325
331.024
328.726
326.431
324.142
321.861
319.59
317.331
315.088
312.861
310.654
308.465
306.297
304.15
302.027
299.93
297.861
295.823
293.821
291.859
289.94
288.07
286.251
284.49
282.793
281.167
279.615
278.15
276.768
275.468
274.264
273.149
272.174
271.276
270.568
269.843
354.972
352.673
350.37
348.066
345.761
343.458
341.157
338.859
336.564
334.271
331.981
329.694
327.411
325.134
322.864
320.602
318.354
316.118
313.898
311.695
309.51
307.346
305.203
303.083
300.988
298.923
296.889
294.888
292.924
291.002
289.126
287.3
285.53
283.82
282.18
280.613
279.129
277.715
276.39
275.146
274.02
272.989
272.093
271.275
270.642
270.002
353.577
351.283
348.986
346.689
344.394
342.1
339.81
337.523
335.24
332.96
330.684
328.412
326.145
323.885
321.633
319.391
317.161
314.946
312.747
310.567
308.406
306.267
304.153
302.063
299.999
297.966
295.965
294
292.074
290.192
288.358
286.578
284.858
283.202
281.622
280.109
278.675
277.315
276.053
274.888
273.838
272.884
272.06
271.321
270.762
270.207
349.934
347.644
345.355
343.069
340.786
338.507
336.232
333.961
331.694
329.432
327.174
324.921
322.676
320.44
318.216
316.005
313.812
311.637
309.482
307.347
305.235
303.147
301.086
299.053
297.051
295.084
293.154
291.266
289.425
287.635
285.904
284.236
282.637
281.101
279.638
278.253
276.965
275.776
274.685
273.704
272.822
272.069
271.408
270.925
270.452
348.626
346.344
344.064
341.787
339.515
337.247
334.984
332.723
330.467
328.216
325.971
323.732
321.502
319.285
317.082
314.893
312.722
310.57
308.438
306.329
304.243
302.182
300.149
298.146
296.176
294.243
292.349
290.5
288.702
286.957
285.277
283.656
282.1
280.61
279.204
277.889
276.668
275.546
274.522
273.609
272.799
272.118
271.535
271.125
270.733
347.36
345.086
342.815
340.547
338.284
336.025
333.77
331.52
329.274
327.035
324.804
322.582
320.371
318.172
315.988
313.82
311.67
309.541
307.433
305.348
303.287
301.254
299.249
297.276
295.338
293.439
291.583
289.775
288.021
286.325
284.683
283.103
281.591
280.164
278.822
277.571
276.412
275.354
274.396
273.551
272.813
272.205
271.697
271.355
271.044
343.865
341.601
339.341
337.085
334.834
332.59
330.352
328.119
325.894
323.677
321.471
319.276
317.095
314.93
312.783
310.655
308.547
306.462
304.402
302.367
300.36
298.384
296.442
294.536
292.673
290.855
289.091
287.376
285.717
284.113
282.583
281.132
279.763
278.48
277.288
276.191
275.196
274.305
273.528