/*--------------------------------*- C++ -*----------------------------------*\
| =========                 |                                                 |
| \\      /  F ield         | OpenFOAM: The Open Source CFD Toolbox           |
|  \\    /   O peration     | Version:  v1706                                 |
|   \\  /    A nd           | Web:      www.OpenFOAM.com                      |
|    \\/     M anipulation  |                                                 |
\*---------------------------------------------------------------------------*/
FoamFile
{
    version     2.0;
    format      ascii;
    class       volScalarField;
    location    "1.4e-05";
    object      Tov;
}
// * * * * * * * * * * * * * * * * * * * * * * * * * * * * * * * * * * * * * //

dimensions      [0 0 0 1 0 0 0];


internalField   nonuniform List<scalar> 
30038
(
144.4
144.4
144.4
144.4
144.4
144.4
144.4
144.4
144.4
144.4
144.4
144.4
144.4
144.4
144.4
144.4
144.4
144.4
144.4
144.4
144.4
144.4
144.4
144.4
144.4
144.4
144.4
144.4
144.4
144.4
144.4
144.4
144.4
144.4
144.4
144.4
144.4
144.4
144.4
144.4
144.4
144.4
144.4
144.4
144.4
144.4
144.4
144.4
144.4
144.4
144.4
144.4
144.4
144.4
144.4
144.4
144.4
144.4
144.4
144.4
144.4
144.4
144.4
144.4
144.4
144.4
144.4
144.4
144.4
144.4
144.4
144.4
144.4
144.4
144.4
144.4
144.4
144.4
144.4
144.4
144.4
144.4
144.4
144.4
144.4
144.4
144.4
144.4
144.4
144.4
144.4
144.4
144.4
144.4
144.4
144.4
144.4
144.4
144.4
144.4
144.4
144.4
144.4
144.4
144.4
144.4
144.4
144.4
144.4
144.4
144.4
144.4
144.4
144.4
144.4
144.4
144.4
144.4
144.4
144.4
144.4
144.4
144.4
144.4
144.4
144.4
144.4
144.4
144.4
144.4
144.4
144.4
144.4
144.4
144.4
144.4
144.4
144.4
144.4
144.4
144.4
144.4
144.4
144.4
144.4
144.4
144.4
144.4
144.4
144.4
144.4
144.4
144.4
144.4
144.4
144.4
144.4
144.4
144.4
144.4
144.4
144.4
144.4
144.4
144.4
144.4
144.4
144.4
144.4
144.4
144.4
144.4
144.4
144.4
144.4
144.4
144.4
144.4
144.4
144.4
144.4
144.4
144.4
144.4
144.4
144.4
144.4
144.4
144.4
144.4
144.4
144.4
144.4
144.4
144.4
144.4
144.4
144.4
144.4
144.4
144.4
144.4
144.4
144.4
144.4
144.4
144.4
144.4
144.4
144.4
144.4
144.4
144.4
144.4
144.4
144.4
144.4
144.4
144.4
144.4
144.4
144.4
144.4
144.4
144.4
144.4
144.4
144.4
144.4
144.4
144.4
144.4
144.4
144.4
144.4
144.4
144.4
144.4
144.4
144.4
144.4
144.4
144.4
144.4
144.4
144.4
144.4
144.4
144.4
144.4
144.4
144.4
144.4
144.4
144.4
144.4
144.4
144.4
144.4
144.4
144.4
144.4
144.4
144.4
144.4
144.401
144.4
144.4
144.4
144.4
144.4
144.4
144.4
144.4
144.4
144.4
144.4
144.4
144.4
144.4
144.4
144.4
144.4
144.4
144.4
144.4
144.4
144.4
144.4
144.4
144.4
144.4
144.4
144.4
144.4
144.4
144.4
144.4
144.4
144.4
144.4
144.401
144.401
144.401
144.4
144.4
144.4
144.4
144.4
144.4
144.4
144.4
144.4
144.4
144.4
144.4
144.4
144.4
144.4
144.4
144.4
144.4
144.4
144.4
144.4
144.4
144.4
144.4
144.4
144.4
144.4
144.4
144.4
144.4
144.4
144.4
144.4
144.401
144.401
144.401
144.402
144.402
144.403
144.4
144.4
144.4
144.4
144.4
144.4
144.4
144.4
144.4
144.4
144.4
144.4
144.4
144.4
144.4
144.4
144.4
144.4
144.4
144.4
144.4
144.4
144.4
144.4
144.4
144.4
144.4
144.4
144.4
144.4
144.401
144.401
144.401
144.401
144.402
144.403
144.403
144.405
144.407
144.4
144.4
144.4
144.4
144.4
144.4
144.4
144.4
144.4
144.4
144.4
144.4
144.4
144.4
144.4
144.4
144.4
144.4
144.4
144.4
144.4
144.4
144.4
144.4
144.4
144.4
144.4
144.4
144.401
144.401
144.401
144.402
144.402
144.403
144.404
144.406
144.408
144.411
144.415
144.4
144.4
144.4
144.4
144.4
144.4
144.4
144.4
144.4
144.4
144.4
144.4
144.4
144.4
144.4
144.4
144.4
144.4
144.4
144.4
144.4
144.4
144.4
144.4
144.4
144.4
144.401
144.401
144.401
144.401
144.402
144.402
144.403
144.405
144.406
144.409
144.412
144.417
144.423
144.432
144.4
144.4
144.4
144.4
144.4
144.4
144.4
144.4
144.4
144.4
144.4
144.4
144.4
144.4
144.4
144.4
144.4
144.4
144.4
144.4
144.4
144.4
144.4
144.4
144.401
144.401
144.401
144.402
144.402
144.403
144.404
144.405
144.407
144.41
144.414
144.419
144.426
144.436
144.45
144.468
144.4
144.4
144.4
144.4
144.4
144.4
144.4
144.4
144.4
144.4
144.4
144.4
144.4
144.4
144.4
144.4
144.4
144.4
144.4
144.4
144.4
144.401
144.401
144.401
144.401
144.402
144.402
144.403
144.405
144.406
144.409
144.412
144.416
144.422
144.43
144.441
144.456
144.477
144.506
144.546
144.4
144.4
144.4
144.4
144.4
144.4
144.4
144.4
144.4
144.4
144.4
144.4
144.4
144.4
144.4
144.4
144.4
144.4
144.4
144.401
144.401
144.401
144.402
144.402
144.403
144.404
144.405
144.407
144.41
144.413
144.418
144.425
144.434
144.446
144.463
144.487
144.518
144.562
144.623
144.706
144.4
144.4
144.4
144.4
144.4
144.4
144.4
144.4
144.4
144.4
144.4
144.4
144.4
144.4
144.4
144.4
144.401
144.401
144.401
144.401
144.402
144.402
144.403
144.405
144.406
144.408
144.411
144.415
144.421
144.428
144.439
144.452
144.471
144.497
144.533
144.581
144.648
144.738
144.863
145.035
144.4
144.4
144.4
144.4
144.4
144.4
144.4
144.4
144.4
144.4
144.4
144.4
144.4
144.4
144.401
144.401
144.401
144.402
144.402
144.403
144.404
144.405
144.407
144.41
144.413
144.417
144.424
144.432
144.444
144.459
144.48
144.509
144.549
144.602
144.675
144.775
144.911
145.097
145.351
145.7
144.4
144.4
144.4
144.4
144.4
144.4
144.4
144.4
144.4
144.4
144.4
144.401
144.401
144.401
144.401
144.402
144.402
144.403
144.404
144.406
144.408
144.411
144.415
144.42
144.427
144.436
144.449
144.466
144.49
144.522
144.566
144.625
144.706
144.815
144.964
145.167
145.443
145.817
146.327
147.021
144.4
144.4
144.4
144.4
144.4
144.4
144.4
144.4
144.4
144.4
144.401
144.401
144.401
144.402
144.402
144.403
144.404
144.405
144.407
144.409
144.412
144.417
144.422
144.43
144.441
144.455
144.474
144.501
144.536
144.584
144.65
144.738
144.859
145.021
145.242
145.542
145.947
146.495
147.236
148.235
149.581
144.4
144.4
144.4
144.4
144.4
144.4
144.4
144.401
144.401
144.401
144.401
144.402
144.402
144.403
144.404
144.406
144.408
144.41
144.414
144.419
144.425
144.434
144.446
144.462
144.483
144.512
144.552
144.605
144.676
144.773
144.905
145.082
145.323
145.647
146.085
146.676
147.47
148.536
149.962
151.859
154.368
144.4
144.4
144.4
144.4
144.4
144.401
144.401
144.401
144.401
144.402
144.402
144.403
144.404
144.405
144.407
144.409
144.412
144.416
144.421
144.429
144.438
144.451
144.469
144.493
144.525
144.568
144.626
144.705
144.811
144.954
145.147
145.408
145.759
146.231
146.866
147.718
148.856
150.37
152.375
155.007
158.435
162.838
144.4
144.4
144.4
144.4
144.401
144.401
144.401
144.401
144.402
144.402
144.403
144.404
144.406
144.408
144.41
144.413
144.418
144.424
144.432
144.443
144.457
144.477
144.503
144.538
144.586
144.65
144.735
144.851
145.007
145.216
145.497
145.876
146.384
147.065
147.975
149.188
150.796
152.915
155.683
159.263
163.832
169.571
176.629
144.4
144.401
144.401
144.401
144.401
144.402
144.402
144.403
144.404
144.405
144.406
144.409
144.411
144.415
144.42
144.427
144.436
144.448
144.464
144.486
144.514
144.553
144.605
144.675
144.768
144.894
145.062
145.288
145.592
145.999
146.544
147.272
148.243
149.531
151.235
153.47
156.378
160.12
164.867
170.784
178.009
186.621
196.584
144.401
144.401
144.401
144.401
144.402
144.402
144.403
144.404
144.406
144.407
144.41
144.413
144.417
144.423
144.43
144.44
144.453
144.471
144.495
144.527
144.569
144.626
144.701
144.803
144.939
145.121
145.365
145.691
146.127
146.71
147.486
148.518
149.884
151.683
154.035
157.082
160.987
165.915
172.024
179.433
188.191
198.24
209.389
221.304
144.401
144.401
144.402
144.402
144.403
144.404
144.405
144.406
144.408
144.411
144.415
144.419
144.426
144.434
144.445
144.46
144.479
144.505
144.54
144.586
144.648
144.73
144.84
144.987
145.183
145.445
145.795
146.262
146.883
147.708
148.802
150.245
152.139
154.606
157.792
161.855
166.96
173.256
180.852
189.779
199.952
211.143
222.976
234.918
246.364
144.401
144.402
144.402
144.403
144.404
144.406
144.407
144.41
144.412
144.416
144.422
144.429
144.438
144.45
144.466
144.488
144.516
144.554
144.604
144.671
144.76
144.879
145.038
145.249
145.53
145.904
146.401
147.062
147.937
149.093
150.613
152.602
155.184
158.503
162.72
167.994
174.468
182.24
191.327
201.63
212.903
224.752
236.627
247.854
257.747
265.89
144.402
144.402
144.403
144.404
144.405
144.406
144.408
144.411
144.414
144.419
144.424
144.432
144.442
144.456
144.473
144.497
144.528
144.569
144.624
144.696
144.793
144.921
145.091
145.318
145.618
146.017
146.546
147.247
148.172
149.391
150.988
153.071
155.764
159.214
163.578
169.013
175.654
183.588
192.821
203.24
214.587
226.465
238.322
249.487
259.281
267.224
273.167
277.362
144.403
144.404
144.405
144.407
144.409
144.412
144.416
144.421
144.427
144.436
144.447
144.462
144.481
144.507
144.541
144.585
144.645
144.723
144.827
144.965
145.148
145.39
145.71
146.135
146.696
147.437
148.413
149.694
151.369
153.544
156.347
159.923
164.428
170.015
176.811
184.893
194.256
204.775
216.183
228.08
239.921
251.043
260.783
268.667
274.557
278.652
281.314
282.979
144.404
144.405
144.406
144.408
144.411
144.414
144.418
144.423
144.43
144.44
144.452
144.468
144.489
144.517
144.554
144.603
144.667
144.752
144.864
145.012
145.207
145.465
145.807
146.257
146.851
147.633
148.66
150.004
151.754
154.02
156.929
160.627
165.266
170.995
177.935
186.151
195.629
206.233
217.69
229.597
241.418
252.501
262.199
270.048
275.916
279.992
282.642
284.27
285.212
285.727
144.407
144.409
144.412
144.415
144.42
144.426
144.434
144.444
144.458
144.475
144.499
144.529
144.569
144.622
144.691
144.782
144.902
145.061
145.269
145.545
145.907
146.384
147.011
147.834
148.912
150.318
152.143
154.497
157.51
161.324
166.091
171.953
179.023
187.36
196.937
207.613
219.106
231.015
242.813
253.861
263.526
271.354
277.215
281.291
283.948
285.577
286.516
287.019
287.256
287.32
144.413
144.417
144.423
144.429
144.438
144.449
144.464
144.483
144.509
144.542
144.585
144.642
144.717
144.815
144.944
145.113
145.335
145.627
146.011
146.515
147.176
148.041
149.169
150.637
152.535
154.976
158.088
162.013
166.9
172.884
180.074
188.518
198.181
208.914
220.433
232.336
244.107
255.123
264.765
272.586
278.453
282.543
285.213
286.855
287.806
288.308
288.541
288.605
288.579
288.503
144.425
144.433
144.442
144.455
144.471
144.492
144.52
144.556
144.603
144.664
144.744
144.85
144.987
145.168
145.405
145.715
146.121
146.652
147.347
148.253
149.432
150.961
152.932
155.457
158.664
162.694
167.692
173.79
181.087
189.624
199.359
210.136
221.671
233.56
245.303
256.291
265.918
273.743
279.629
283.745
286.441
288.102
289.064
289.579
289.818
289.873
289.846
289.768
289.653
289.527
144.448
144.461
144.479
144.502
144.532
144.571
144.622
144.688
144.775
144.888
145.035
145.227
145.479
145.807
146.236
146.796
147.525
148.473
149.702
151.291
153.333
155.939
159.238
163.368
168.47
174.671
182.064
190.681
200.474
211.283
222.823
234.693
246.404
257.367
266.988
274.828
280.747
284.901
287.63
289.319
290.301
290.822
291.068
291.134
291.1
291.013
290.903
290.776
290.621
290.483
144.489
144.514
144.547
144.589
144.645
144.716
144.809
144.93
145.088
145.293
145.56
145.907
146.36
146.948
147.712
148.703
149.983
151.632
153.743
156.429
159.816
164.04
169.238
175.533
183.01
191.695
201.533
212.362
223.897
235.741
247.419
258.359
267.979
275.846
281.809
286.011
288.785
290.506
291.511
292.051
292.303
292.367
292.34
292.255
292.128
291.998
291.876
291.698
291.539
291.404
144.565
144.612
144.672
144.749
144.85
144.98
145.149
145.367
145.651
146.019
146.497
147.115
147.916
148.95
150.282
151.991
154.172
156.935
160.407
164.72
170.009
176.388
183.939
192.68
202.55
213.387
224.908
236.72
248.36
259.278
268.903
276.804
282.822
287.084
289.91
291.673
292.706
293.262
293.527
293.601
293.569
293.483
293.362
293.218
293.059
292.93
292.792
292.585
292.43
292.302
144.708
144.793
144.902
145.043
145.224
145.458
145.761
146.152
146.657
147.309
148.149
149.229
150.615
152.386
154.637
157.479
161.034
165.434
170.807
177.264
184.878
193.664
203.555
214.388
225.885
237.658
249.255
260.149
269.78
277.722
283.803
288.134
291.021
292.831
293.898
294.478
294.753
294.832
294.809
294.721
294.592
294.456
294.314
294.127
293.963
293.84
293.668
293.461
293.31
293.188
144.976
145.13
145.327
145.581
145.906
146.324
146.861
147.551
148.435
149.567
151.013
152.851
155.178
158.101
161.742
166.228
171.684
178.213
185.884
194.705
204.606
215.423
226.883
238.608
250.155
261.017
270.654
278.639
284.787
289.193
292.148
294.013
295.118
295.722
296.015
296.105
296.078
295.994
295.87
295.718
295.559
295.421
295.242
295.046
294.885
294.755
294.556
294.355
294.211
294.083
145.485
145.764
146.119
146.572
147.15
147.887
148.826
150.021
151.537
153.454
155.866
158.881
162.616
167.196
172.737
179.339
187.063
195.911
205.811
216.6
228.009
239.672
251.154
261.973
271.606
279.628
285.843
290.326
293.353
295.275
296.423
297.058
297.366
297.467
297.448
297.364
297.234
297.09
296.933
296.747
296.581
296.441
296.228
296.034
295.878
295.725
295.515
295.318
295.178
295.036
146.466
146.969
147.604
148.407
149.42
150.698
152.307
154.325
156.846
159.974
163.823
168.512
174.152
180.835
188.613
197.485
207.374
218.118
229.458
241.035
252.43
263.182
272.79
280.831
287.1
291.654
294.75
296.731
297.923
298.588
298.918
299.034
299.017
298.94
298.814
298.659
298.496
298.342
298.144
297.948
297.784
297.617
297.382
297.189
297.033
296.849
296.633
296.436
296.284
296.125
148.386
149.288
150.412
151.812
153.554
155.716
158.387
161.67
165.672
170.506
176.272
183.055
190.898
199.793
209.66
220.34
231.58
243.037
254.304
264.946
274.484
282.506
288.798
293.4
296.551
298.582
299.815
300.512
300.862
300.994
300.986
300.915
300.792
300.647
300.48
300.296
300.132
299.964
299.724
299.526
299.359
299.137
298.888
298.685
298.505
298.289
298.06
297.846
297.657
297.474
152.173
153.768
155.718
158.099
160.997
164.508
168.733
173.772
179.716
186.636
194.566
203.487
213.317
223.9
234.992
246.266
257.337
267.791
277.182
285.11
291.36
295.958
299.127
301.183
302.442
303.161
303.53
303.679
303.681
303.625
303.518
303.378
303.225
303.066
302.869
302.668
302.503
302.279
302.022
301.805
301.599
301.328
301.049
300.811
300.568
300.302
300.033
299.773
299.525
299.292
159.602
162.333
165.587
169.45
174.01
179.354
185.556
192.67
200.717
209.666
219.431
229.86
240.722
251.709
262.462
272.598
281.704
289.404
295.492
299.987
303.096
305.123
306.37
307.089
307.463
307.626
307.652
307.615
307.535
307.427
307.295
307.139
306.983
306.807
306.568
306.347
306.141
305.846
305.55
305.283
304.987
304.652
304.31
303.978
303.635
303.278
302.917
302.562
302.217
301.892
173.694
178.095
183.157
188.945
195.513
202.893
211.085
220.047
229.69
239.864
250.356
260.882
271.119
280.723
289.319
296.569
302.288
306.5
309.406
311.296
312.456
313.126
313.484
313.653
313.708
313.703
313.666
313.607
313.524
313.412
313.27
313.101
312.929
312.671
312.385
312.111
311.791
311.407
311.018
310.628
310.191
309.729
309.251
308.76
308.254
307.732
307.204
306.677
306.16
305.673
192.782
198.547
204.942
211.989
219.693
228.032
236.95
246.357
256.112
266.015
275.812
285.235
293.983
301.729
308.185
313.209
316.852
319.318
320.885
321.822
322.353
322.642
322.797
322.882
322.926
322.939
322.937
322.913
322.856
322.767
322.634
322.438
322.211
321.958
321.567
321.17
320.763
320.273
319.741
319.172
318.565
317.916
317.23
316.516
315.78
315.02
314.237
313.441
312.641
311.851
311.1
229.975
237.551
245.571
253.99
262.741
271.727
280.812
289.816
298.535
306.749
314.21
320.644
325.835
329.713
332.377
334.056
335.024
335.529
335.769
335.882
335.948
336.008
336.073
336.132
336.172
336.181
336.161
336.097
335.978
335.806
335.564
335.223
334.861
334.409
333.841
333.262
332.617
331.906
331.138
330.31
329.426
328.484
327.491
326.458
325.391
324.291
323.16
322.006
320.839
319.677
318.561
273.669
281.846
290.156
298.511
306.795
314.871
322.603
329.848
336.417
342.087
346.64
349.994
352.19
353.402
353.887
353.883
353.669
353.392
353.135
352.947
352.837
352.785
352.764
352.751
352.713
352.632
352.507
352.338
352.1
351.787
351.424
350.932
350.378
349.796
349.084
348.314
347.498
346.618
345.656
344.623
343.527
342.37
341.147
339.86
338.518
337.127
335.69
334.208
332.687
331.137
329.578
328.059
335.039
342.54
349.696
356.397
362.501
367.822
372.184
375.45
377.537
378.506
378.448
377.802
376.736
375.493
374.266
373.175
372.278
371.586
371.066
370.675
370.368
370.102
369.845
369.575
369.266
368.908
368.498
368.039
367.525
366.967
366.317
365.568
364.815
363.993
363.099
362.151
361.155
360.101
358.982
357.799
356.556
355.254
353.886
352.45
350.951
349.39
347.767
346.083
344.339
342.542
340.707
338.89
395.714
400.38
404.117
406.765
408.24
408.47
407.677
406.046
403.775
401.146
398.411
395.801
393.453
391.43
389.746
388.376
387.273
386.375
385.625
384.97
384.367
383.787
383.207
382.612
381.988
381.343
380.659
379.918
379.167
378.415
377.553
376.654
375.759
374.821
373.829
372.805
371.754
370.666
369.534
368.354
367.128
365.852
364.521
363.132
361.682
360.169
358.59
356.94
355.216
353.421
351.558
349.68
439.577
438.852
437.162
434.56
431.242
427.423
423.343
419.241
415.286
411.605
408.318
405.474
403.073
401.073
399.412
398.023
396.839
395.803
394.868
393.994
393.155
392.344
391.534
390.712
389.886
389.052
388.193
387.318
386.455
385.59
384.656
383.704
382.756
381.791
380.803
379.801
378.788
377.757
376.701
375.616
374.501
373.354
372.169
370.941
369.667
368.343
366.962
365.519
364.006
362.42
360.756
359.057
455.836
451.229
446.287
441.165
436.036
431.065
426.388
422.116
418.312
415.008
412.157
409.715
407.651
405.899
404.399
403.084
401.901
400.825
399.812
398.835
397.89
396.966
396.051
395.14
394.235
393.333
392.417
391.505
390.616
389.72
388.787
387.848
386.916
385.981
385.043
384.105
383.167
382.222
381.266
380.297
379.313
378.311
377.287
376.239
375.162
374.052
372.904
371.71
370.464
369.162
367.791
366.387
454.916
449.222
443.68
438.382
433.42
428.866
424.773
421.169
418.052
415.396
413.124
411.173
409.484
407.993
406.679
405.474
404.349
403.291
402.279
401.298
400.339
399.399
398.467
397.543
396.635
395.735
394.83
393.938
393.065
392.184
391.287
390.392
389.505
388.625
387.751
386.884
386.023
385.164
384.302
383.435
382.564
381.687
380.799
379.9
378.987
378.057
377.104
376.126
375.114
374.067
372.971
371.853
448.466
443.022
437.943
433.296
429.117
425.414
422.178
419.378
416.966
414.879
413.088
411.524
410.15
408.878
407.712
406.622
405.585
404.587
403.617
402.669
401.74
400.826
399.92
399.024
398.147
397.281
396.416
395.564
394.726
393.883
393.034
392.191
391.36
390.539
389.73
388.932
388.142
387.358
386.577
385.797
385.019
384.24
383.46
382.676
381.887
381.091
380.285
379.469
378.633
377.781
376.898
376.006
436.181
432.045
428.354
425.107
422.277
419.83
417.715
415.881
414.277
412.873
411.588
410.424
409.338
408.305
407.313
406.352
405.414
404.491
403.583
402.69
401.811
400.937
400.076
399.237
398.408
397.582
396.769
395.966
395.162
394.361
393.57
392.794
392.031
391.283
390.549
389.826
389.113
388.408
387.709
387.017
386.329
385.646
384.966
384.286
383.606
382.92
382.226
381.522
380.813
380.087
379.359
430.499
427.306
424.51
422.082
419.972
418.134
416.534
415.136
413.882
412.735
411.662
410.641
409.659
408.704
407.772
406.862
405.968
405.085
404.214
403.358
402.513
401.675
400.854
400.053
399.261
398.475
397.7
396.932
396.167
395.41
394.667
393.94
393.228
392.533
391.853
391.187
390.532
389.889
389.256
388.633
388.02
387.416
386.82
386.232
385.651
385.075
384.506
383.936
383.368
382.792
382.211
426.325
423.938
421.862
420.033
418.454
417.08
415.861
414.737
413.677
412.677
411.719
410.788
409.877
408.981
408.098
407.229
406.372
405.526
404.692
403.872
403.064
402.266
401.486
400.723
399.97
399.224
398.486
397.755
397.031
396.317
395.618
394.936
394.27
393.62
392.985
392.365
391.757
391.162
390.579
390.008
389.45
388.905
388.373
387.853
387.346
386.851
386.368
385.894
385.429
384.972
384.518
421.723
420.156
418.801
417.592
416.502
415.475
414.516
413.587
412.681
411.797
410.933
410.081
409.239
408.407
407.587
406.776
405.973
405.183
404.406
403.641
402.888
402.152
401.432
400.721
400.016
399.317
398.626
397.943
397.272
396.617
395.977
395.353
394.745
394.151
393.57
393.002
392.446
391.902
391.371
390.853
390.347
389.856
389.378
388.914
388.465
388.032
387.614
387.213
386.831
386.458
420.344
419.162
418.105
417.129
416.209
415.321
414.465
413.632
412.811
411.999
411.193
410.394
409.602
408.818
408.044
407.279
406.522
405.777
405.045
404.325
403.618
402.927
402.248
401.577
400.912
400.252
399.6
398.958
398.328
397.714
397.114
396.529
395.958
395.4
394.854
394.319
393.796
393.285
392.785
392.297
391.822
391.36
390.911
390.478
390.059
389.658
389.274
388.906
388.565
388.231
419.603
418.677
417.805
416.971
416.177
415.397
414.623
413.859
413.102
412.346
411.591
410.839
410.092
409.352
408.622
407.9
407.187
406.485
405.796
405.12
404.456
403.806
403.166
402.533
401.905
401.282
400.668
400.063
399.471
398.893
398.329
397.778
397.239
396.712
396.195
395.689
395.193
394.708
394.232
393.768
393.316
392.876
392.448
392.036
391.638
391.256
390.893
390.547
390.23
389.918
419.323
418.542
417.807
417.084
416.371
415.666
414.958
414.247
413.535
412.822
412.11
411.4
410.695
409.998
409.309
408.628
407.956
407.296
406.648
406.012
405.388
404.776
404.171
403.572
402.978
402.389
401.809
401.238
400.68
400.133
399.599
399.077
398.565
398.063
397.57
397.086
396.61
396.144
395.687
395.239
394.802
394.376
393.963
393.562
393.176
392.806
392.455
392.12
391.817
391.516
419.353
418.691
418.042
417.398
416.748
416.093
415.43
414.76
414.086
413.41
412.736
412.066
411.4
410.741
410.091
409.449
408.816
408.194
407.585
406.986
406.398
405.819
405.246
404.677
404.113
403.555
403.004
402.463
401.932
401.412
400.902
400.402
399.911
399.428
398.952
398.483
398.021
397.567
397.121
396.682
396.253
395.835
395.427
395.032
394.65
394.284
393.937
393.606
393.307
393.009
419.629
419.049
418.464
417.868
417.26
416.641
416.012
415.376
414.736
414.096
413.457
412.822
412.193
411.571
410.957
410.35
409.754
409.167
408.592
408.026
407.469
406.919
406.373
405.83
405.292
404.759
404.233
403.715
403.206
402.706
402.214
401.73
401.252
400.781
400.315
399.855
399.4
398.95
398.508
398.072
397.644
397.225
396.816
396.419
396.035
395.666
395.317
394.982
394.68
394.379
420.096
419.565
419.018
418.456
417.878
417.287
416.688
416.082
415.474
414.866
414.26
413.658
413.062
412.473
411.892
411.318
410.754
410.199
409.653
409.115
408.584
408.057
407.533
407.012
406.494
405.981
405.473
404.972
404.478
403.991
403.511
403.035
402.565
402.098
401.635
401.176
400.72
400.269
399.823
399.382
398.948
398.522
398.106
397.701
397.309
396.931
396.572
396.229
395.918
395.608
420.195
419.675
419.136
418.582
418.016
417.443
416.865
416.285
415.707
415.131
414.56
413.994
413.434
412.882
412.336
411.799
411.271
410.749
410.233
409.722
409.213
408.706
408.2
407.697
407.197
406.702
406.211
405.726
405.245
404.768
404.294
403.823
403.354
402.887
402.422
401.959
401.499
401.043
400.591
400.145
399.707
399.277
398.858
398.452
398.06
397.688
397.331
397.007
396.683
420.913
420.41
419.891
419.357
418.814
418.264
417.711
417.157
416.605
416.056
415.511
414.971
414.437
413.909
413.387
412.872
412.364
411.861
411.361
410.864
410.367
409.871
409.374
408.879
408.386
407.896
407.409
406.924
406.443
405.962
405.483
405.005
404.527
404.049
403.571
403.095
402.62
402.148
401.679
401.216
400.759
400.311
399.873
399.449
399.039
398.649
398.275
397.933
397.593
421.697
421.209
420.705
420.19
419.666
419.137
418.606
418.075
417.546
417.019
416.496
415.977
415.463
414.954
414.451
413.952
413.458
412.967
412.478
411.988
411.497
411.005
410.512
410.019
409.526
409.034
408.543
408.053
407.563
407.073
406.581
406.089
405.595
405.1
404.605
404.109
403.613
403.12
402.629
402.144
401.665
401.194
400.735
400.288
399.857
399.446
399.052
398.69
398.33
422.056
421.565
421.065
420.559
420.048
419.535
419.023
418.512
418.003
417.497
416.994
416.495
416
415.509
415.02
414.534
414.048
413.562
413.074
412.582
412.088
411.592
411.094
410.594
410.094
409.593
409.09
408.586
408.079
407.57
407.058
406.543
406.025
405.506
404.985
404.465
403.946
403.43
402.918
402.414
401.918
401.433
400.962
400.507
400.073
399.657
399.273
398.892
422.936
422.457
421.969
421.476
420.98
420.482
419.983
419.486
418.99
418.496
418.004
417.514
417.026
416.54
416.056
415.571
415.084
414.595
414.101
413.603
413.101
412.595
412.086
411.573
411.058
410.54
410.019
409.494
408.966
408.433
407.896
407.355
406.81
406.263
405.714
405.165
404.617
404.072
403.532
402.999
402.475
401.963
401.466
400.985
400.527
400.088
399.68
399.277
423.364
422.886
422.402
421.916
421.428
420.939
420.45
419.962
419.474
418.987
418.5
418.014
417.528
417.04
416.55
416.056
415.557
415.053
414.542
414.026
413.504
412.977
412.446
411.911
411.371
410.826
410.275
409.72
409.159
408.592
408.021
407.445
406.867
406.286
405.706
405.126
404.55
403.98
403.416
402.863
402.323
401.799
401.292
400.809
400.345
399.914
399.489
424.271
423.799
423.322
422.841
422.358
421.873
421.388
420.901
420.414
419.925
419.436
418.945
418.452
417.956
417.454
416.947
416.433
415.912
415.383
414.847
414.304
413.755
413.2
412.639
412.072
411.498
410.918
410.331
409.738
409.139
408.534
407.925
407.313
406.699
406.084
405.471
404.863
404.261
403.666
403.084
402.515
401.963
401.43
400.924
400.44
399.989
399.545
424.694
424.218
423.738
423.255
422.769
422.281
421.791
421.298
420.803
420.305
419.804
419.298
418.787
418.268
417.742
417.208
416.665
416.113
415.552
414.983
414.407
413.824
413.233
412.635
412.029
411.415
410.794
410.166
409.531
408.891
408.246
407.598
406.949
406.3
405.653
405.012
404.379
403.759
403.151
402.558
401.983
401.428
400.898
400.392
399.919
399.458
425.554
425.075
424.591
424.103
423.611
423.115
422.616
422.112
421.605
421.093
420.575
420.051
419.52
418.98
418.43
417.87
417.301
416.721
416.131
415.533
414.926
414.31
413.686
413.054
412.412
411.762
411.105
410.44
409.768
409.09
408.408
407.725
407.044
406.365
405.69
405.02
404.359
403.71
403.075
402.456
401.857
401.279
400.727
400.2
399.711
399.234
426.366
425.878
425.385
424.887
424.384
423.876
423.362
422.843
422.318
421.787
421.248
420.701
420.144
419.578
419
418.411
417.811
417.2
416.578
415.947
415.306
414.655
413.995
413.325
412.646
411.959
411.263
410.56
409.855
409.145
408.431
407.716
407.002
406.291
405.585
404.886
404.196
403.518
402.856
402.211
401.589
400.989
400.42
399.878
399.371
398.878
427.115
426.615
426.109
425.596
425.076
424.55
424.018
423.478
422.931
422.376
421.812
421.237
420.652
420.055
419.445
418.824
418.191
417.545
416.888
416.221
415.544
414.855
414.157
413.449
412.736
412.015
411.285
410.549
409.808
409.063
408.316
407.567
406.82
406.076
405.339
404.61
403.893
403.189
402.502
401.835
401.193
400.578
399.992
399.434
398.91
398.403
427.791
427.274
426.749
426.217
425.677
425.129
424.573
424.009
423.436
422.853
422.259
421.654
421.036
420.405
419.762
419.105
418.436
417.753
417.06
416.354
415.641
414.919
414.188
413.446
412.696
411.938
411.173
410.401
409.624
408.843
408.061
407.28
406.501
405.727
404.961
404.205
403.463
402.736
402.028
401.345
400.686
400.055
399.453
398.881
398.342
397.822
428.381
427.844
427.297
426.742
426.177
425.604
425.021
424.429
423.826
423.212
422.585
421.945
421.293
420.626
419.946
419.251
418.545
417.83
417.103
416.364
415.615
414.857
414.089
413.311
412.523
411.728
410.926
410.118
409.306
408.492
407.678
406.866
406.058
405.256
404.464
403.685
402.92
402.175
401.452
400.752
400.078
399.432
398.817
398.231
397.68
397.151
428.879
428.317
427.745
427.163
426.571
425.969
425.356
424.732
424.096
423.448
422.786
422.11
421.42
420.719
420.005
419.277
418.536
417.785
417.022
416.248
415.461
414.665
413.859
413.044
412.22
411.388
410.552
409.71
408.866
408.021
407.177
406.337
405.503
404.677
403.862
403.063
402.282
401.521
400.782
400.068
399.381
398.722
398.096
397.501
396.94
396.403
428.688
428.087
427.476
426.853
426.219
425.574
424.915
424.244
423.559
422.864
422.156
421.432
420.695
419.946
419.182
418.406
417.616
416.815
416.003
415.18
414.347
413.505
412.654
411.796
410.931
410.062
409.189
408.315
407.442
406.571
405.706
404.848
404.001
403.169
402.354
401.558
400.782
400.031
399.304
398.607
397.94
397.305
396.704
396.136
395.592
428.951
428.32
427.676
427.02
426.352
425.672
424.982
424.279
423.561
422.831
422.087
421.328
420.554
419.766
418.965
418.151
417.325
416.487
415.639
414.78
413.913
413.036
412.152
411.262
410.366
409.467
408.566
407.665
406.766
405.872
404.985
404.108
403.245
402.398
401.568
400.758
399.971
399.209
398.475
397.77
397.097
396.457
395.852
395.28
394.733
429.104
428.439
427.763
427.077
426.377
425.665
424.941
424.203
423.451
422.683
421.901
421.104
420.293
419.468
418.63
417.78
416.919
416.046
415.164
414.272
413.371
412.463
411.548
410.628
409.704
408.778
407.851
406.926
406.005
405.091
404.187
403.295
402.418
401.557
400.716
399.896
399.1
398.331
397.591
396.883
396.207
395.564
394.956
394.387
393.839
428.455
427.747
427.028
426.295
425.549
424.788
424.013
423.223
422.419
421.599
420.766
419.919
419.059
418.186
417.302
416.407
415.502
414.587
413.664
412.733
411.795
410.852
409.905
408.956
408.005
407.056
406.11
405.171
404.242
403.323
402.418
401.529
400.658
399.808
398.981
398.18
397.408
396.666
395.956
395.279
394.637
394.029
393.464
392.92
428.369
427.627
426.871
426.103
425.32
424.523
423.711
422.885
422.045
421.19
420.322
419.441
418.547
417.641
416.724
415.798
414.862
413.917
412.965
412.007
411.042
410.074
409.103
408.131
407.16
406.192
405.23
404.277
403.334
402.403
401.487
400.589
399.711
398.856
398.026
397.223
396.45
395.708
394.999
394.325
393.685
393.083
392.521
391.982
428.174
427.397
426.606
425.802
424.984
424.151
423.305
422.444
421.569
420.681
419.779
418.865
417.939
417.002
416.056
415.1
414.136
413.164
412.186
411.202
410.214
409.223
408.231
407.24
406.252
405.269
404.294
403.329
402.375
401.435
400.512
399.609
398.727
397.869
397.039
396.237
395.466
394.727
394.022
393.352
392.72
392.124
391.567
391.035
427.875
427.063
426.238
425.399
424.547
423.68
422.8
421.906
420.998
420.077
419.144
418.2
417.244
416.279
415.305
414.322
413.332
412.336
411.334
410.328
409.319
408.309
407.3
406.293
405.292
404.297
403.311
402.336
401.375
400.429
399.502
398.596
397.714