/*--------------------------------*- C++ -*----------------------------------*\
| =========                 |                                                 |
| \\      /  F ield         | OpenFOAM: The Open Source CFD Toolbox           |
|  \\    /   O peration     | Version:  v1706                                 |
|   \\  /    A nd           | Web:      www.OpenFOAM.com                      |
|    \\/     M anipulation  |                                                 |
\*---------------------------------------------------------------------------*/
FoamFile
{
    version     2.0;
    format      ascii;
    class       volScalarField;
    location    "1.4e-05";
    object      Tv;
}
// * * * * * * * * * * * * * * * * * * * * * * * * * * * * * * * * * * * * * //

dimensions      [0 0 0 1 0 0 0];


internalField   nonuniform List<scalar> 
30038
(
144.4
144.4
144.4
144.4
144.4
144.4
144.4
144.4
144.4
144.4
144.4
144.4
144.4
144.4
144.4
144.4
144.4
144.4
144.4
144.4
144.4
144.4
144.4
144.4
144.4
144.4
144.4
144.4
144.4
144.4
144.4
144.4
144.4
144.4
144.4
144.4
144.4
144.4
144.4
144.4
144.4
144.4
144.4
144.4
144.4
144.4
144.4
144.4
144.4
144.4
144.4
144.4
144.4
144.4
144.4
144.4
144.4
144.4
144.4
144.4
144.4
144.4
144.4
144.4
144.4
144.4
144.4
144.4
144.4
144.4
144.4
144.4
144.4
144.4
144.4
144.4
144.4
144.4
144.4
144.4
144.4
144.4
144.4
144.4
144.4
144.4
144.4
144.4
144.4
144.4
144.4
144.4
144.4
144.4
144.4
144.4
144.4
144.4
144.4
144.4
144.4
144.4
144.4
144.4
144.4
144.4
144.4
144.4
144.4
144.4
144.4
144.4
144.4
144.4
144.4
144.4
144.4
144.4
144.4
144.4
144.4
144.4
144.4
144.4
144.4
144.4
144.4
144.4
144.4
144.4
144.4
144.4
144.4
144.4
144.4
144.4
144.4
144.4
144.4
144.4
144.4
144.4
144.4
144.4
144.4
144.4
144.4
144.4
144.4
144.4
144.4
144.4
144.4
144.4
144.4
144.4
144.4
144.4
144.4
144.4
144.4
144.4
144.4
144.4
144.4
144.4
144.4
144.4
144.4
144.4
144.4
144.4
144.4
144.4
144.4
144.4
144.4
144.4
144.4
144.4
144.4
144.4
144.4
144.4
144.4
144.4
144.4
144.4
144.4
144.4
144.4
144.4
144.4
144.4
144.4
144.4
144.4
144.4
144.4
144.4
144.4
144.4
144.4
144.4
144.4
144.4
144.4
144.4
144.4
144.4
144.4
144.4
144.4
144.4
144.4
144.4
144.4
144.4
144.4
144.4
144.4
144.4
144.4
144.4
144.4
144.4
144.4
144.4
144.4
144.4
144.4
144.4
144.4
144.4
144.4
144.4
144.4
144.4
144.4
144.4
144.4
144.4
144.4
144.4
144.4
144.4
144.4
144.4
144.4
144.4
144.4
144.4
144.4
144.4
144.4
144.4
144.4
144.4
144.4
144.4
144.4
144.4
144.4
144.4
144.4
144.4
144.4
144.4
144.4
144.4
144.4
144.4
144.4
144.4
144.4
144.4
144.4
144.4
144.4
144.4
144.4
144.4
144.4
144.4
144.4
144.4
144.4
144.4
144.4
144.4
144.4
144.4
144.4
144.4
144.4
144.4
144.4
144.4
144.4
144.4
144.4
144.4
144.4
144.4
144.4
144.4
144.4
144.4
144.4
144.4
144.4
144.4
144.4
144.4
144.4
144.4
144.4
144.4
144.4
144.4
144.4
144.4
144.4
144.4
144.4
144.4
144.4
144.4
144.4
144.4
144.4
144.4
144.4
144.4
144.4
144.4
144.4
144.4
144.4
144.4
144.4
144.4
144.4
144.4
144.4
144.4
144.4
144.4
144.4
144.4
144.4
144.4
144.4
144.4
144.4
144.4
144.4
144.4
144.4
144.4
144.4
144.4
144.4
144.4
144.4
144.4
144.4
144.4
144.4
144.4
144.4
144.4
144.4
144.4
144.4
144.4
144.4
144.4
144.4
144.4
144.4
144.4
144.4
144.4
144.4
144.4
144.4
144.4
144.4
144.4
144.4
144.4
144.4
144.4
144.4
144.4
144.4
144.4
144.4
144.4
144.4
144.4
144.4
144.4
144.4
144.4
144.4
144.4
144.4
144.4
144.4
144.4
144.4
144.4
144.4
144.4
144.4
144.4
144.4
144.4
144.4
144.4
144.4
144.4
144.4
144.4
144.4
144.4
144.4
144.4
144.4
144.4
144.4
144.4
144.4
144.4
144.4
144.4
144.4
144.4
144.4
144.4
144.4
144.4
144.4
144.4
144.4
144.4
144.4
144.4
144.4
144.4
144.4
144.4
144.4
144.4
144.4
144.4
144.4
144.4
144.4
144.4
144.4
144.4
144.4
144.4
144.4
144.4
144.4
144.4
144.4
144.4
144.4
144.4
144.4
144.4
144.4
144.4
144.4
144.4
144.4
144.4
144.4
144.4
144.4
144.4
144.4
144.4
144.4
144.4
144.4
144.4
144.4
144.4
144.4
144.4
144.4
144.4
144.4
144.4
144.4
144.4
144.4
144.4
144.4
144.4
144.4
144.4
144.4
144.4
144.4
144.4
144.4
144.4
144.4
144.4
144.4
144.4
144.4
144.4
144.4
144.4
144.4
144.4
144.4
144.4
144.4
144.4
144.4
144.4
144.4
144.4
144.4
144.4
144.4
144.4
144.4
144.4
144.4
144.4
144.4
144.4
144.4
144.4
144.4
144.4
144.4
144.4
144.4
144.4
144.4
144.4
144.4
144.4
144.4
144.4
144.4
144.4
144.4
144.4
144.4
144.4
144.4
144.4
144.4
144.4
144.4
144.4
144.4
144.4
144.4
144.4
144.4
144.4
144.4
144.4
144.4
144.4
144.4
144.4
144.4
144.4
144.4
144.4
144.4
144.4
144.4
144.4
144.4
144.4
144.4
144.4
144.4
144.4
144.4
144.4
144.4
144.4
144.4
144.4
144.4
144.4
144.4
144.4
144.4
144.4
144.4
144.4
144.4
144.4
144.4
144.4
144.4
144.4
144.4
144.4
144.4
144.4
144.4
144.4
144.4
144.4
144.4
144.4
144.4
144.4
144.4
144.4
144.4
144.4
144.4
144.4
144.4
144.4
144.4
144.4
144.4
144.4
144.4
144.4
144.4
144.4
144.4
144.4
144.4
144.4
144.4
144.4
144.4
144.4
144.4
144.4
144.4
144.4
144.4
144.4
144.4
144.4
144.4
144.4
144.4
144.4
144.4
144.4
144.4
144.4
144.4
144.4
144.4
144.4
144.4
144.4
144.4
144.4
144.4
144.4
144.4
144.4
144.4
144.4
144.4
144.4
144.4
144.4
144.4
144.4
144.4
144.4
144.4
144.4
144.4
144.4
144.4
144.4
144.4
144.4
144.4
144.4
144.4
144.4
144.4
144.4
144.4
144.4
144.4
144.4
144.4
144.4
144.4
144.4
144.4
144.4
144.4
144.4
144.4
144.4
144.4
144.4
144.4
144.4
144.4
144.4
144.4
144.4
144.4
144.4
144.4
144.4
144.4
144.4
144.4
144.4
144.4
144.4
144.4
144.4
144.4
144.4
144.4
144.4
144.4
144.4
144.4
144.4
144.4
144.4
144.4
144.4
144.4
144.4
144.4
144.4
144.4
144.4
144.4
144.4
144.4
144.4
144.4
144.4
144.4
144.4
144.4
144.4
144.4
144.4
144.4
144.4
144.4
144.4
144.4
144.4
144.4
144.4
144.4
144.4
144.4
144.4
144.4
144.4
144.4
144.4
144.4
144.4
144.4
144.4
144.4
144.4
144.4
144.4
144.4
144.4
144.4
144.4
144.4
144.4
144.4
144.4
144.4
144.4
144.4
144.4
144.4
144.4
144.4
144.4
144.4
144.4
144.4
144.4
144.4
144.4
144.4
144.4
144.4
144.4
144.4
144.4
144.4
144.4
144.4
144.4
144.4
144.4
144.4
144.4
144.4
144.4
144.4
144.4
144.4
144.4
144.4
144.4
144.4
144.4
144.4
144.4
144.4
144.4
144.4
144.4
144.4
144.4
144.4
144.4
144.4
144.4
144.4
144.4
144.4
144.4
144.4
144.4
144.4
144.4
144.4
144.4
144.4
144.4
144.4
144.4
144.4
144.4
144.4
144.4
144.4
144.4
144.4
144.4
144.4
144.4
144.4
144.4
144.4
144.4
144.4
144.4
144.4
144.4
144.4
144.4
144.4
144.4
144.4
144.4
144.4
144.4
144.4
144.4
144.4
144.4
144.4
144.4
144.4
144.4
144.4
144.4
144.4
144.4
144.4
144.4
144.4
144.4
144.4
144.4
144.4
144.4
144.4
144.4
144.4
144.4
144.4
144.4
144.4
144.4
144.4
144.4
144.4
144.4
144.4
144.4
144.4
144.4
144.4
144.4
144.4
144.4
144.4
144.4
144.4
144.4
144.4
144.4
144.4
144.4
144.4
144.4
144.4
144.4
144.4
144.4
144.4
144.4
144.4
144.4
144.4
144.4
144.4
144.4
144.4
144.4
144.4
144.4
144.4
144.4
144.4
144.4
144.4
144.4
144.4
144.4
144.4
144.4
144.4
144.4
144.4
144.4
144.4
144.4
144.4
144.4
144.4
144.4
144.4
144.4
144.4
144.4
144.4
144.4
144.4
144.4
144.4
144.4
144.4
144.4
144.4
144.4
144.4
144.4
144.4
144.4
144.4
144.4
144.4
144.4
144.4
144.4
144.4
144.4
144.4
144.4
144.4
144.4
144.4
144.4
144.4
144.4
144.4
144.4
144.4
144.4
144.4
144.4
144.4
144.4
144.4
144.4
144.4
144.4
144.4
144.4
144.4
144.4
144.4
144.4
144.4
144.4
144.4
144.4
144.4
144.4
144.4
144.4
144.4
144.4
144.4
144.4
144.4
144.4
144.4
144.4
144.4
144.4
144.4
144.4
144.4
144.4
144.4
144.4
144.4
144.4
144.4
144.4
144.4
144.4
144.4
144.4
144.4
144.4
144.4
144.4
144.4
144.4
144.4
144.4
144.4
144.4
144.4
144.4
144.4
144.4
144.4
144.4
144.4
144.4
144.4
144.4
144.4
144.4
144.4
144.4
144.4
144.4
144.4
144.4
144.4
144.4
144.4
144.4
144.4
144.4
144.4
144.4
144.4
144.4
144.4
144.4
144.4
144.4
144.4
144.4
144.4
144.4
144.4
144.4
144.4
144.4
144.4
144.4
144.4
144.4
144.4
144.4
144.4
144.4
144.4
144.4
144.4
144.4
144.4
144.4
144.4
144.4
144.4
144.4
144.4
144.4
144.4
144.4
144.4
144.4
144.4
144.4
144.4
144.4
144.4
144.4
144.4
144.4
144.4
144.4
144.4
144.4
144.4
144.4
144.4
144.4
144.4
144.4
144.4
144.4
144.4
144.4
144.4
144.4
144.4
144.4
144.4
144.4
144.4
144.4
144.4
144.4
144.4
144.4
144.4
144.4
144.4
144.4
144.4
144.4
144.4
144.4
144.4
144.4
144.4
144.4
144.4
144.4
144.4
144.4
144.4
144.4
144.4
144.4
144.4
144.4
144.4
144.4
144.4
144.4
144.4
144.4
144.4
144.4
144.4
144.4
144.4
144.4
144.4
144.4
144.4
144.4
144.4
144.4
144.4
144.4
144.4
144.4
144.4
144.4
144.4
144.4
144.4
144.4
144.4
144.4
144.4
144.4
144.4
144.4
144.4
144.4
144.4
144.4
144.4
144.4
144.4
144.4
144.4
144.4
144.4
144.4
144.4
144.4
144.4
144.4
144.4
144.4
144.4
144.4
144.4
144.4
144.4
144.4
144.4
144.4
144.4
144.4
144.4
144.4
144.4
144.4
144.4
144.4
144.4
144.4
144.4
144.4
144.4
144.4
144.4
144.4
144.4
144.4
144.4
144.4
144.4
144.4
144.4
144.4
144.4
144.4
144.4
144.4
144.4
144.4
144.4
144.4
144.4
144.4
144.4
144.4
144.4
144.4
144.4
144.4
144.4
144.4
144.4
144.4
144.4
144.4
144.4
144.4
144.4
144.4
144.4
144.4
144.4
144.4
144.4
144.4
144.4
144.4
144.4
144.4
144.4
144.4
144.4
144.4
144.4
144.4
144.4
144.4
144.4
144.4
144.4
144.4
144.4
144.4
144.4
144.4
144.4
144.4
144.4
144.4
144.4
144.4
144.4
144.4
144.4
144.4
144.4
144.4
144.4
144.4
144.4
144.4
144.4
144.4
144.4
144.4
144.4
144.4
144.4
144.4
144.4
144.4
144.4
144.4
144.4
144.4
144.4
144.4
144.4
144.4
144.4
144.4
144.4
144.4
144.4
144.4
144.4
144.4
144.4
144.4
144.4
144.4
144.4
144.4
144.4
144.4
144.4
144.4
144.4
144.4
144.4
144.4
144.4
144.4
144.4
144.4
144.4
144.4
144.4
144.4
144.4
144.4
144.4
144.4
144.4
144.4
144.4
144.4
144.4
144.4
144.4
144.4
144.4
144.4
144.4
144.4
144.4
144.4
144.4
144.4
144.4
144.4
144.4
144.4
144.4
144.4
144.4
144.4
144.4
144.4
144.4
144.4
144.4
144.4
144.4
144.4
144.4
144.4
144.4
144.4
144.4
144.4
144.4
144.4
144.4
144.4
144.4
144.4
144.4
144.4
144.4
144.4
144.4
144.4
144.4
144.4
144.4
144.4
144.4
144.4
144.4
144.4
144.4
144.4
144.4
144.4
144.4
144.4
144.4
144.4
144.4
144.4
144.4
144.4
144.4
144.4
144.4
144.4
144.4
144.4
144.4
144.4
144.4
144.4
144.4
144.4
144.4
144.4
144.4
144.4
144.4
144.4
144.4
144.4
144.4
144.4
144.4
144.4
144.4
144.4
144.4
144.4
144.4
144.4
144.4
144.4
144.4
144.4
144.4
144.4
144.4
144.4
144.4
144.4
144.4
144.4
144.4
144.4
144.4
144.4
144.4
144.4
144.4
144.4
144.4
144.4
144.4
144.4
144.4
144.4
144.4
144.4
144.4
144.4
144.4
144.4
144.4
144.4
144.4
144.4
144.4
144.4
144.4
144.4
144.4
144.4
144.4
144.4
144.4
144.4
144.4
144.4
144.4
144.4
144.4
144.4
144.4
144.4
144.4
144.4
144.4
144.4
144.4
144.4
144.4
144.4
144.4
144.4
144.4
144.4
144.4
144.4
144.4
144.4
144.4
144.4
144.4
144.4
144.4
144.4
144.4
144.4
144.4
144.4
144.4
144.4
144.4
144.4
144.4
144.4
144.4
144.4
144.4
144.4
144.4
144.4
144.4
144.4
144.4
144.4
144.4
144.4
144.4
144.4
144.4
144.4
144.4
144.4
144.4
144.4
144.4
144.4
144.4
144.4
144.4
144.4
144.4
144.4
144.4
144.4
144.4
144.4
144.4
144.4
144.4
144.4
144.4
144.4
144.4
144.4
144.4
144.4
144.4
144.4
144.4
144.4
144.4
144.4
144.4
144.4
144.4
144.4
144.4
144.4
144.4
144.4
144.4
144.4
144.4
144.4
144.4
144.4
144.4
144.4
144.4
144.4
144.4
144.4
144.4
144.4
144.4
144.4
144.4
144.4
144.4
144.4
144.4
144.4
144.4
144.4
144.4
144.4
144.4
144.4
144.4
144.4
144.4
144.4
144.4
144.4
144.4
144.4
144.4
144.4
144.4
144.4
144.4
144.4
144.4
144.4
144.4
144.4
144.4
144.4
144.4
144.4
144.4
144.4
144.4
144.4
144.4
144.4
144.4
144.4
144.4
144.4
144.4
144.4
144.4
144.4
144.4
144.4
144.4
144.4
144.4
144.4
144.4
144.4
144.4
144.4
144.4
144.4
144.4
144.4
144.4
144.4
144.4
144.4
144.4
144.4
144.4
144.4
144.4
144.4
144.4
144.4
144.4
144.4
144.4
144.4
144.4
144.4
144.4
144.4
144.4
144.4
144.4
144.4
144.4
144.4
144.4
144.4
144.4
144.401
144.4
144.4
144.4
144.4
144.4
144.4
144.4
144.4
144.4
144.4
144.4
144.4
144.4
144.4
144.4
144.4
144.4
144.4
144.4
144.4
144.4
144.4
144.4
144.4
144.4
144.4
144.4
144.4
144.4
144.4
144.4
144.4
144.4
144.4
144.4
144.4
144.4
144.4
144.4
144.4
144.4
144.4
144.4
144.4
144.4
144.4
144.4
144.401
144.401
144.401
144.4
144.4
144.4
144.4
144.4
144.4
144.4
144.4
144.4
144.4
144.4
144.4
144.4
144.4
144.4
144.4
144.4
144.4
144.4
144.4
144.4
144.4
144.4
144.4
144.4
144.4
144.4
144.4
144.4
144.4
144.4
144.4
144.4
144.4
144.4
144.4
144.4
144.4
144.4
144.4
144.4
144.4
144.4
144.4
144.4
144.401
144.401
144.401
144.401
144.402
144.4
144.4
144.4
144.4
144.4
144.4
144.4
144.4
144.4
144.4
144.4
144.4
144.4
144.4
144.4
144.4
144.4
144.4
144.4
144.4
144.4
144.4
144.4
144.4
144.4
144.4
144.4
144.4
144.4
144.4
144.4
144.4
144.4
144.4
144.4
144.4
144.4
144.4
144.4
144.4
144.401
144.401
144.401
144.401
144.401
144.401
144.401
144.402
144.402
144.403
144.4
144.4
144.4
144.4
144.4
144.4
144.4
144.4
144.4
144.4
144.4
144.4
144.4
144.4
144.4
144.4
144.4
144.4
144.4
144.4
144.4
144.4
144.4
144.4
144.4
144.4
144.4
144.4
144.4
144.4
144.4
144.4
144.401
144.401
144.401
144.401
144.401
144.401
144.401
144.401
144.401
144.401
144.401
144.402
144.402
144.402
144.403
144.403
144.404
144.404
144.405
144.4
144.4
144.4
144.4
144.4
144.4
144.4
144.4
144.4
144.4
144.4
144.4
144.4
144.4
144.4
144.4
144.4
144.4
144.4
144.4
144.4
144.401
144.401
144.401
144.401
144.401
144.401
144.401
144.401
144.401
144.401
144.401
144.402
144.402
144.402
144.402
144.402
144.402
144.403
144.403
144.403
144.403
144.404
144.404
144.405
144.405
144.406
144.406
144.407
144.408
144.41
144.401
144.401
144.401
144.401
144.401
144.401
144.401
144.401
144.401
144.401
144.401
144.401
144.401
144.401
144.401
144.401
144.401
144.401
144.401
144.401
144.401
144.402
144.402
144.402
144.402
144.402
144.403
144.403
144.403
144.403
144.404
144.404
144.404
144.405
144.405
144.405
144.406
144.406
144.407
144.407
144.408
144.408
144.409
144.41
144.41
144.411
144.412
144.413
144.414
144.416
144.417
144.419
144.402
144.402
144.402
144.402
144.402
144.402
144.402
144.402
144.402
144.402
144.402
144.402
144.402
144.402
144.402
144.402
144.403
144.403
144.403
144.404
144.404
144.404
144.405
144.405
144.406
144.407
144.407
144.408
144.409
144.409
144.41
144.411
144.412
144.413
144.414
144.415
144.416
144.417
144.418
144.419
144.42
144.422
144.423
144.424
144.426
144.427
144.429
144.43
144.432
144.434
144.437
144.44
144.404
144.404
144.404
144.404
144.404
144.404
144.404
144.404
144.404
144.404
144.404
144.405
144.405
144.406
144.406
144.407
144.407
144.408
144.409
144.41
144.411
144.412
144.413
144.415
144.416
144.418
144.419
144.421
144.423
144.425
144.427
144.429
144.431
144.433
144.435
144.438
144.44
144.443
144.445
144.448
144.45
144.453
144.455
144.458
144.46
144.463
144.466
144.469
144.472
144.475
144.479
144.484
144.407
144.407
144.408
144.408
144.408
144.408
144.408
144.409
144.409
144.41
144.411
144.412
144.413
144.414
144.416
144.417
144.419
144.421
144.423
144.425
144.428
144.431
144.434
144.437
144.44
144.444
144.447
144.451
144.456
144.46
144.465
144.469
144.474
144.479
144.484
144.489
144.495
144.5
144.505
144.51
144.515
144.521
144.526
144.53
144.535
144.54
144.545
144.549
144.554
144.559
144.564
144.571
144.415
144.415
144.416
144.416
144.417
144.418
144.419
144.42
144.422
144.424
144.426
144.428
144.431
144.434
144.438
144.441
144.446
144.45
144.455
144.46
144.466
144.472
144.479
144.486
144.493
144.501
144.509
144.518
144.527
144.536
144.546
144.556
144.566
144.576
144.587
144.597
144.608
144.619
144.629
144.639
144.649
144.659
144.668
144.677
144.685
144.693
144.701
144.708
144.715
144.722
144.728
144.737
144.43
144.431
144.433
144.434
144.437
144.439
144.442
144.445
144.449
144.454
144.459
144.465
144.471
144.478
144.485
144.494
144.503
144.513
144.523
144.534
144.546
144.559
144.573
144.587
144.603
144.619
144.635
144.653
144.671
144.689
144.708
144.728
144.748
144.768
144.788
144.808
144.828
144.847
144.866
144.885
144.903
144.92
144.936
144.951
144.964
144.977
144.989
144.999
145.008
145.016
145.024
145.035
144.46
144.463
144.467
144.472
144.477
144.483
144.49
144.498
144.507
144.517
144.528
144.54
144.553
144.567
144.583
144.6
144.619
144.638
144.659
144.682
144.705
144.731
144.757
144.785
144.814
144.844
144.876
144.908
144.942
144.976
145.011
145.046
145.082
145.117
145.152
145.187
145.222
145.255
145.287
145.318
145.347
145.375
145.4
145.424
145.445
145.463
145.479
145.492
145.503
145.512
145.519
145.531
144.527
144.536
144.546
144.558
144.571
144.586
144.602
144.62
144.64
144.662
144.686
144.713
144.741
144.771
144.804
144.839
144.876
144.915
144.956
145
145.046
145.093
145.143
145.195
145.248
145.303
145.359
145.416
145.474
145.532
145.591
145.649
145.707
145.764
145.819
145.874
145.926
145.975
146.022
146.066
146.107
146.143
146.176
146.205
146.229
146.249
146.264
146.275
146.282
146.286
146.295
144.647
144.666
144.687
144.711
144.737
144.766
144.798
144.833
144.871
144.913
144.957
145.005
145.057
145.111
145.169
145.231
145.295
145.363
145.434
145.508
145.585
145.664
145.746
145.83
145.916
146.004
146.092
146.182
146.271
146.361
146.449
146.537
146.622
146.705
146.786
146.863
146.937
147.006
147.071
147.13
147.183
147.231
147.272
147.307
147.335
147.356
147.371
147.379
147.38
147.378
147.381
144.867
144.904
144.944
144.989
145.037
145.09
145.148
145.21
145.278
145.35
145.426
145.508
145.594
145.685
145.781
145.881
145.985
146.093
146.205
146.32
146.438
146.56
146.683
146.808
146.934
147.062
147.189
147.316
147.442
147.566
147.688
147.806
147.921
148.032
148.137
148.237
148.331
148.418
148.498
148.57
148.634
148.69
148.736
148.773
148.801
148.82
148.829
148.829
148.822
148.81
148.801
145.314
145.385
145.462
145.545
145.635
145.732
145.835
145.944
146.06
146.182
146.31
146.444
146.583
146.727
146.876
147.03
147.187
147.348
147.512
147.678
147.846
148.015
148.185
148.355
148.523
148.69
148.854
149.015
149.172
149.324
149.47
149.611
149.744
149.87
149.988
150.097
150.197
150.287
150.366
150.435
150.493
150.54
150.574
150.597
150.608
150.607
150.598
150.58
150.551
150.525
145.979
146.094
146.217
146.349
146.489
146.637
146.793
146.957
147.127
147.305
147.488
147.678
147.872
148.072
148.275
148.482
148.691
148.903
149.115
149.329
149.542
149.754
149.964
150.172
150.377
150.577
150.772
150.961
151.143
151.318
151.485
151.643
151.792
151.931
152.059
152.176
152.281
152.374
152.455
152.522
152.577
152.617
152.644
152.657
152.656
152.646
152.624
152.588
152.539
152.493
146.981
147.152
147.334
147.524
147.724
147.932
148.148
148.372
148.602
148.838
149.079
149.325
149.574
149.826
150.08
150.336
150.592
150.848
151.102
151.355
151.605
151.851
152.093
152.33
152.56
152.784
153
153.207
153.406
153.594
153.772
153.939
154.094
154.238
154.368
154.486
154.59
154.679
154.755
154.815
154.861
154.891
154.906
154.905
154.894
154.869
154.829
154.772
154.703
154.637
148.377
148.611
148.854
149.107
149.368
149.636
149.911
150.192
150.477
150.767
151.059
151.353
151.649
151.945
152.24
152.534
152.826
153.115
153.4
153.681
153.956
154.225
154.488
154.742
154.988
155.225
155.451
155.668
155.873
156.066
156.246
156.414
156.569
156.71
156.836
156.948
157.044
157.125
157.191
157.24
157.273
157.289
157.289
157.277
157.251
157.209
157.147
157.07
156.981
156.896
150.172
150.466
150.768
151.077
151.392
151.713
152.038
152.366
152.696
153.027
153.359
153.69
154.02
154.347
154.672
154.992
155.308
155.618
155.922
156.219
156.508
156.79
157.062
157.324
157.576
157.817
158.046
158.263
158.467
158.657
158.834
158.997
159.145
159.278
159.395
159.497
159.582
159.651
159.703
159.738
159.756
159.756
159.744
159.717
159.673
159.609
159.528
159.432
159.324
159.219
152.32
152.664
153.014
153.368
153.727
154.087
154.449
154.812
155.174
155.535
155.893
156.248
156.6
156.947
157.288
157.623
157.952
158.273
158.586
158.89
159.185
159.469
159.743
160.006
160.257
160.495
160.72
160.931
161.129
161.312
161.48
161.633
161.771
161.892
161.997
162.085
162.157
162.211
162.248
162.267
162.268
162.256
162.229
162.184
162.119
162.036
161.937
161.823
161.696
161.572
154.745
155.126
155.511
155.898
156.286
156.673
157.06
157.445
157.827
158.205
158.579
158.948
159.311
159.668
160.017
160.358
160.691
161.015
161.329
161.633
161.926
162.208
162.478
162.735
162.98
163.21
163.427
163.629
163.817
163.989
164.145
164.286
164.41
164.517
164.608
164.681
164.737
164.776
164.796
164.798
164.786
164.759
164.714
164.649
164.565
164.465
164.348
164.217
164.073
163.931
157.77
158.178
158.585
158.991
159.395
159.796
160.193
160.586
160.973
161.354
161.728
162.094
162.453
162.803
163.144
163.475
163.796
164.106
164.405
164.692
164.967
165.229
165.477
165.711
165.931
166.137
166.327
166.502
166.66
166.803
166.929
167.039
167.131
167.206
167.264
167.304
167.325
167.328
167.316
167.29
167.246
167.182
167.098
166.997
166.88
166.747
166.6
166.439
166.281
160.526
160.947
161.366
161.782
162.194
162.602
163.003
163.399
163.788
164.169
164.543
164.907
165.263
165.609
165.945
166.27
166.584
166.886
167.177
167.454
167.719
167.97
168.206
168.429
168.636
168.828
169.005
169.165
169.31
169.438
169.549
169.642
169.719
169.778
169.819
169.842
169.846
169.836
169.811
169.768
169.704
169.622
169.522
169.405
169.272
169.124
168.961
168.785
168.611
163.343
163.771
164.194
164.613
165.027
165.435
165.836
166.23
166.616
166.994
167.362
167.721
168.07
168.409
168.736
169.053
169.357
169.649
169.928
170.195
170.447
170.685
170.909
171.118
171.311
171.489
171.651
171.797
171.926
172.038
172.133
172.212
172.272
172.315
172.339
172.345
172.336
172.312
172.271
172.209
172.128
172.03
171.914
171.782
171.635
171.472
171.295
171.106
170.917
166.613
167.036
167.454
167.865
168.269
168.666
169.055
169.434
169.805
170.166
170.516
170.856
171.185
171.502
171.808
172.101
172.381
172.648
172.901
173.14
173.365
173.575
173.769
173.948
174.111
174.258
174.388
174.502
174.599
174.678
174.741
174.785
174.812
174.819
174.812
174.79
174.751
174.692
174.613
174.517
174.403
174.273
174.127
173.966
173.789
173.599
173.397
173.195
169.45
169.869
170.282
170.688
171.086
171.475
171.856
172.227
172.589
172.94
173.28
173.609
173.927
174.233
174.526
174.806
175.073
175.327
175.567
175.792
176.002
176.198
176.377
176.541
176.689
176.821
176.936
177.035
177.116
177.18
177.227
177.255
177.266
177.26
177.24
177.204
177.148
177.072
176.978
176.868
176.74
176.597
176.438
176.263
176.074
175.872
175.658
175.445
172.679
173.085
173.483
173.872
174.252
174.624
174.985
175.335
175.676
176.004
176.322
176.627
176.92
177.201
177.468
177.721
177.961
178.187
178.398
178.594
178.774
178.94
179.089
179.222
179.339
179.439
179.522
179.588
179.637
179.669
179.682
179.678
179.661
179.628
179.576
179.503
179.413
179.306
179.182
179.041
178.885
178.714
178.527
178.327
178.113
177.889
177.665
175.454
175.851
176.24
176.62
176.99
177.35
177.7
178.039
178.367
178.684
178.989
179.281
179.561
179.828
180.082
180.322
180.548
180.759
180.956
181.138
181.304
181.454
181.589
181.707
181.81
181.895
181.964
182.015
182.05
182.066
182.065
182.051
182.021
181.973
181.905
181.819
181.715
181.595
181.459
181.307
181.139
180.956
180.759
180.548
180.324
180.09
179.857
178.576
178.954
179.323
179.682
180.031
180.369
180.696
181.012
181.316
181.607
181.887
182.154
182.407
182.647
182.873
183.085
183.283
183.465
183.633
183.785
183.921
184.042
184.146
184.234
184.305
184.36
184.398
184.418
184.42
184.409
184.383
184.339
184.276
184.194
184.095
183.98
183.848
183.701
183.537
183.359
183.166
182.958
182.738
182.505
182.263
182.02
181.255
181.622
181.979
182.326
182.663
182.989
183.303
183.606
183.897
184.176
184.443
184.696
184.936
185.162
185.375
185.573
185.757
185.926
186.08
186.218
186.341
186.448
186.538
186.613
186.671
186.712
186.736
186.742
186.734
186.712
186.674
186.616
186.539
186.445
186.335
186.209
186.066
185.908
185.734
185.546
185.343
185.127
184.898
184.657
184.407
184.157
183.884
184.24
184.585
184.92
185.245
185.558
185.86
186.15
186.429
186.695
186.948
187.188
187.415
187.628
187.827
188.012
188.183
188.338
188.479
188.604
188.714
188.807
188.885
188.947
188.992
189.02
189.031
189.026
189.008
188.976
188.924
188.853
188.764
188.66
188.539
188.402
188.25
188.082
187.899
187.702
187.49
187.266
187.029
186.781
186.524
186.267
186.464
186.807
187.141
187.464
187.776
188.077
188.366
188.644
188.909
189.163
189.403
189.63
189.844
190.045
190.231
190.403
190.561
190.704
190.831
190.944
191.041
191.122
191.188
191.237
191.27
191.286
191.285
191.272
191.244
191.199
191.134
191.052
190.953
190.839
190.708
190.562
190.4
190.224
190.032
189.827
189.608
189.377
189.133
188.879
188.616
188.353
188.992
189.324
189.645
189.956
190.256
190.544
190.822
191.087
191.34
191.581
191.808
192.023
192.225
192.413
192.587
192.747
192.892
193.023
193.138
193.239
193.324
193.394
193.447
193.485
193.506
193.511
193.502
193.479
193.441
193.383
193.307
193.215
193.107
192.983
192.844
192.689
192.519
192.335
192.136
191.923
191.698
191.46
191.21
190.95
190.682
190.414
191.47
191.789
192.099
192.397
192.685
192.962
193.227
193.48
193.721
193.95
194.165
194.368
194.558
194.734
194.896
195.044
195.177
195.297
195.401
195.49
195.564
195.623
195.665
195.692
195.702
195.698
195.68
195.649
195.599
195.53
195.445
195.344
195.227
195.095
194.948
194.785
194.608
194.416
194.211
193.992
193.76
193.516
193.261
192.996
192.724
192.451
193.896
194.204
194.502
194.789
195.065
195.329
195.583
195.824
196.053
196.27
196.475
196.666
196.844
197.009
197.159
197.296
197.419
197.527
197.62
197.699
197.762
197.81
197.843
197.859
197.86
197.848
197.822
197.781
197.72
197.642
197.549
197.44
197.315
197.175
197.021
196.851
196.667
196.469
196.257
196.033
195.796
195.547
195.287
195.018
194.742
194.466
196.569
196.855
197.13
197.395
197.648
197.89
198.12
198.338
198.544
198.737
198.918
199.085
199.238
199.379
199.505
199.617
199.715
199.798
199.867
199.92
199.959
199.981
199.988
199.981
199.962
199.928
199.876
199.806
199.72
199.619
199.503
199.371
199.225
199.063
198.888
198.698
198.494
198.277
198.047
197.806
197.553
197.289
197.017
196.738
196.458
198.884
199.159
199.424
199.677
199.919
200.15
200.37
200.577
200.772
200.955
201.124
201.281
201.425
201.555
201.671
201.773
201.861
201.935
201.994
202.039
202.068
202.082
202.08
202.067
202.04
201.997
201.936
201.858
201.766
201.657
201.534
201.397
201.244
201.077
200.895
200.7
200.491
200.27
200.036
199.79
199.534
199.267
198.992
198.711
198.428
201.151
201.415
201.669
201.912
202.144
202.364
202.573
202.77
202.955
203.128
203.288
203.435
203.568
203.689
203.796
203.889
203.968
204.033
204.083
204.119
204.14
204.145
204.138
204.118
204.084
204.032
203.963
203.878
203.779
203.665
203.536
203.392
203.234
203.062
202.875
202.675
202.462
202.237
201.999
201.75
201.491
201.222
200.944
200.661
200.377
203.625
203.868
204.101
204.323
204.533
204.732
204.92
205.095
205.258
205.408
205.546
205.671
205.783
205.881
205.965
206.036
206.092
206.135
206.163
206.175
206.174
206.161
206.134
206.092
206.033
205.957
205.866
205.761
205.641
205.507
205.358
205.195
205.018
204.828
204.624
204.407
204.178
203.938
203.686
203.424
203.153
202.874
202.59
202.304
205.788
206.022
206.245
206.457
206.658
206.848
207.026
207.192
207.346
207.488
207.617
207.733
207.836
207.926
208.003
208.066
208.115
208.149
208.17
208.175
208.168
208.149
208.117
208.067
208.001
207.919
207.823
207.713
207.588
207.449
207.296
207.128
206.948
206.753
206.546
206.326
206.095
205.852
205.598
205.334
205.062
204.781
204.496
204.21
207.907
208.131
208.345
208.548
208.74
208.921
209.09
209.248
209.393
209.527
209.648
209.756
209.852
209.934
210.003
210.059
210.1
210.128
210.142
210.141
210.129
210.105
210.066
210.009
209.937
209.85
209.749
209.634
209.505
209.362
209.205
209.034
208.85
208.652
208.442
208.22
207.986
207.741
207.486
207.221
206.947
206.667
206.381
206.095
209.982
210.198
210.403
210.597
210.78
210.953
211.114
211.263
211.401
211.527
211.64
211.741
211.829
211.904
211.966
212.015
212.05
212.072
212.079
212.074
212.057
212.028
211.982
211.919
211.842
211.751
211.646
211.527
211.394
211.247
211.086
210.912
210.725
210.525
210.312
210.088
209.853
209.606
209.35
209.084
208.81
208.529
208.244
207.958
212.222
212.418
212.604
212.78
212.944
213.098
213.239
213.37
213.488
213.594
213.688
213.77
213.838
213.894
213.936
213.966
213.981
213.983
213.973
213.952
213.917
213.865
213.798
213.716
213.621
213.512
213.39
213.253
213.103
212.939
212.763
212.573
212.371
212.157
211.931
211.694
211.447
211.19
210.924
210.65
210.369
210.085
209.799
214.204
214.393
214.571
214.739
214.896
215.042
215.177
215.3
215.412
215.512
215.599
215.674
215.737
215.786
215.823
215.847
215.857
215.854
215.84
215.815
215.775
215.717
215.646
215.56
215.462
215.349
215.224
215.084
214.931
214.765
214.587
214.395
214.192
213.976
213.749
213.511
213.264
213.006
212.74
212.467
212.187
211.904
211.619
216.147
216.328
216.499
216.66
216.81
216.949
217.077
217.194
217.299
217.392
217.474
217.543
217.6
217.644
217.676
217.694
217.699
217.693
217.675
217.646
217.6
217.539
217.463
217.375
217.273
217.158
217.029
216.887
216.732
216.564
216.384
216.191
215.986
215.769
215.542
215.304
215.056
214.799
214.533
214.261
213.982
213.7
213.417
218.224
218.388
218.542
218.686
218.818
218.94
219.051
219.15
219.238
219.314
219.377
219.429
219.468
219.495
219.509
219.509
219.5
219.479
219.445
219.394
219.329
219.251
219.159
219.054
218.937
218.806
218.662
218.505
218.336
218.154
217.96
217.754
217.537
217.309
217.071
216.824
216.567
216.303
216.031
215.754
215.473
215.192
220.082
220.24
220.387
220.525
220.651
220.767
220.872
220.966
221.048
221.119
221.178
221.224
221.259
221.281
221.29
221.288
221.275
221.25
221.212
221.158
221.089
221.008
220.914
220.807
220.687
220.554
220.409
220.251
220.08
219.897
219.703
219.496
219.279
219.052
218.814
218.567
218.312
218.048
217.778
217.503
217.224
216.945
221.903
222.054
222.196
222.327
222.448
222.559
222.658
222.747
222.824
222.89
222.944
222.986
223.016
223.035
223.04
223.034
223.018
222.991
222.948
222.891
222.819
222.736
222.64
222.531
222.409
222.275
222.128
221.969
221.797
221.614
221.419
221.213
220.996
220.769
220.532
220.286
220.032
219.77
219.501
219.228
218.952
218.675
223.687
223.832
223.968
224.094
224.21
224.315
224.41
224.493
224.566
224.627
224.677
224.715
224.742
224.756
224.758
224.75
224.731
224.7
224.654
224.593
224.52
224.434
224.336
224.226
224.103
223.967
223.819
223.659
223.487
223.304
223.109
222.903
222.687
222.46
222.224
221.98
221.727
221.467
221.201
220.93
220.656
220.382
225.575
225.706
225.826
225.937
226.037
226.127
226.206
226.275
226.332
226.378
226.412
226.435
226.445
226.444
226.434
226.412
226.378
226.329
226.266
226.191
226.104
226.004
225.892