/*--------------------------------*- C++ -*----------------------------------*\
| =========                 |                                                 |
| \\      /  F ield         | OpenFOAM: The Open Source CFD Toolbox           |
|  \\    /   O peration     | Version:  v1706                                 |
|   \\  /    A nd           | Web:      www.OpenFOAM.com                      |
|    \\/     M anipulation  |                                                 |
\*---------------------------------------------------------------------------*/
FoamFile
{
    version     2.0;
    format      ascii;
    class       volScalarField;
    location    "3.5e-05";
    object      kappatr;
}
// * * * * * * * * * * * * * * * * * * * * * * * * * * * * * * * * * * * * * //

dimensions      [1 1 -3 -1 0 0 0];


internalField   nonuniform List<scalar> 
30038
(
0.014593
0.014593
0.014593
0.014593
0.014593
0.014593
0.014593
0.014593
0.014593
0.014593
0.014593
0.014593
0.014593
0.014593
0.014593
0.014593
0.014593
0.014593
0.014593
0.014593
0.014593
0.014593
0.014593
0.014593
0.014593
0.014593
0.014593
0.014593
0.014593
0.014593
0.014593
0.014593
0.014593
0.014593
0.014593
0.014593
0.014593
0.014593
0.014593
0.014593
0.014593
0.014593
0.014593
0.014593
0.014593
0.014593
0.014593
0.014593
0.014593
0.014593
0.014593
0.014593
0.014593
0.014593
0.014593
0.014593
0.014593
0.014593
0.014593
0.014593
0.014593
0.014593
0.014593
0.014593
0.014593
0.014593
0.014593
0.014593
0.014593
0.014593
0.014593
0.014593
0.014593
0.014593
0.014593
0.014593
0.014593
0.014593
0.014593
0.014593
0.014593
0.014593
0.014593
0.014593
0.014593
0.014593
0.014593
0.014593
0.014593
0.014593
0.014593
0.014593
0.014593
0.014593
0.014593
0.014593
0.014593
0.014593
0.014593
0.014593
0.014593
0.014593
0.014593
0.014593
0.014593
0.014593
0.014593
0.014593
0.014593
0.014593
0.014593
0.014593
0.014593
0.014593
0.014593
0.014593
0.014593
0.014593
0.014593
0.014593
0.014593
0.014593
0.014593
0.014593
0.014593
0.014593
0.014593
0.014593
0.014593
0.014593
0.014593
0.014593
0.014593
0.014593
0.014593
0.014593
0.014593
0.014593
0.014593
0.014593
0.014593
0.014593
0.014593
0.014593
0.014593
0.014593
0.014593
0.014593
0.014593
0.014593
0.014593
0.014593
0.014593
0.014593
0.014593
0.014593
0.014593
0.014593
0.014593
0.014593
0.014593
0.014593
0.014593
0.014593
0.014593
0.014593
0.014593
0.014593
0.014593
0.014593
0.014593
0.014593
0.014593
0.014593
0.014593
0.014593
0.014593
0.014593
0.014593
0.014593
0.014593
0.014593
0.014593
0.014593
0.014593
0.014593
0.014593
0.014593
0.014593
0.014593
0.014593
0.014593
0.014593
0.014593
0.014593
0.014593
0.014593
0.014593
0.014593
0.014593
0.014593
0.014593
0.014593
0.014593
0.014593
0.014593
0.014593
0.014593
0.014593
0.014593
0.014593
0.014593
0.014593
0.014593
0.014593
0.014593
0.014593
0.014593
0.014593
0.014593
0.014593
0.014593
0.014593
0.014593
0.014593
0.014593
0.014593
0.014593
0.014593
0.014593
0.014593
0.014593
0.014593
0.014593
0.014593
0.014593
0.014593
0.014593
0.014593
0.014593
0.014593
0.014593
0.014593
0.014593
0.014593
0.014593
0.014593
0.014593
0.014593
0.014593
0.014593
0.014593
0.014593
0.014593
0.014593
0.014593
0.014593
0.014593
0.014593
0.014593
0.014593
0.014593
0.014593
0.014593
0.014593
0.014593
0.014593
0.014593
0.014593
0.014593
0.014593
0.014593
0.014593
0.014593
0.014593
0.014593
0.014593
0.014593
0.014593
0.014593
0.014593
0.014593
0.014593
0.014593
0.014593
0.014593
0.014593
0.014593
0.014593
0.014593
0.014593
0.014593
0.014593
0.014593
0.014593
0.014593
0.014593
0.014593
0.014593
0.014593
0.014593
0.014593
0.014593
0.014593
0.014593
0.014593
0.014593
0.014593
0.014593
0.014593
0.014593
0.014593
0.014593
0.014593
0.014593
0.014593
0.014593
0.014593
0.014593
0.014593
0.014593
0.014593
0.014593
0.014593
0.014593
0.014593
0.014593
0.014593
0.014593
0.014593
0.014593
0.014593
0.014593
0.014593
0.014593
0.014593
0.014593
0.014593
0.014593
0.014593
0.014593
0.014593
0.0145931
0.014593
0.014593
0.014593
0.014593
0.014593
0.014593
0.014593
0.014593
0.014593
0.014593
0.014593
0.014593
0.014593
0.014593
0.014593
0.014593
0.014593
0.014593
0.014593
0.014593
0.014593
0.014593
0.014593
0.014593
0.014593
0.014593
0.014593
0.014593
0.014593
0.014593
0.014593
0.014593
0.014593
0.014593
0.014593
0.014593
0.0145931
0.0145931
0.0145931
0.014593
0.014593
0.014593
0.014593
0.014593
0.014593
0.014593
0.014593
0.014593
0.014593
0.014593
0.014593
0.014593
0.014593
0.014593
0.014593
0.014593
0.014593
0.014593
0.014593
0.014593
0.014593
0.014593
0.014593
0.014593
0.014593
0.014593
0.014593
0.014593
0.014593
0.014593
0.014593
0.014593
0.0145931
0.0145931
0.0145931
0.0145932
0.0145933
0.0145934
0.014593
0.014593
0.014593
0.014593
0.014593
0.014593
0.014593
0.014593
0.014593
0.014593
0.014593
0.014593
0.014593
0.014593
0.014593
0.014593
0.014593
0.014593
0.014593
0.014593
0.014593
0.014593
0.014593
0.014593
0.014593
0.014593
0.014593
0.014593
0.014593
0.014593
0.014593
0.0145931
0.0145931
0.0145931
0.0145932
0.0145933
0.0145934
0.0145936
0.0145938
0.0145942
0.014593
0.014593
0.014593
0.014593
0.014593
0.014593
0.014593
0.014593
0.014593
0.014593
0.014593
0.014593
0.014593
0.014593
0.014593
0.014593
0.014593
0.014593
0.014593
0.014593
0.014593
0.014593
0.014593
0.014593
0.014593
0.014593
0.014593
0.014593
0.0145931
0.0145931
0.0145931
0.0145932
0.0145933
0.0145934
0.0145935
0.0145938
0.0145941
0.0145946
0.0145953
0.0145964
0.014593
0.014593
0.014593
0.014593
0.014593
0.014593
0.014593
0.014593
0.014593
0.014593
0.014593
0.014593
0.014593
0.014593
0.014593
0.014593
0.014593
0.014593
0.014593
0.014593
0.014593
0.014593
0.014593
0.014593
0.014593
0.0145931
0.0145931
0.0145931
0.0145932
0.0145932
0.0145934
0.0145935
0.0145937
0.014594
0.0145945
0.0145952
0.0145961
0.0145976
0.0145996
0.0146028
0.014593
0.014593
0.014593
0.014593
0.014593
0.014593
0.014593
0.014593
0.014593
0.014593
0.014593
0.014593
0.014593
0.014593
0.014593
0.014593
0.014593
0.014593
0.014593
0.014593
0.014593
0.014593
0.0145931
0.0145931
0.0145931
0.0145932
0.0145933
0.0145934
0.0145935
0.0145937
0.014594
0.0145944
0.0145951
0.014596
0.0145973
0.0145991
0.0146019
0.0146058
0.0146116
0.0146202
0.014593
0.014593
0.014593
0.014593
0.014593
0.014593
0.014593
0.014593
0.014593
0.014593
0.014593
0.014593
0.014593
0.014593
0.014593
0.014593
0.014593
0.014593
0.0145931
0.0145931
0.0145931
0.0145931
0.0145932
0.0145933
0.0145934
0.0145935
0.0145937
0.014594
0.0145944
0.014595
0.0145959
0.0145971
0.0145988
0.0146013
0.0146049
0.0146101
0.0146175
0.0146284
0.0146441
0.0146673
0.014593
0.014593
0.014593
0.014593
0.014593
0.014593
0.014593
0.014593
0.014593
0.014593
0.014593
0.014593
0.014593
0.014593
0.014593
0.0145931
0.0145931
0.0145931
0.0145931
0.0145932
0.0145933
0.0145934
0.0145935
0.0145937
0.014594
0.0145944
0.014595
0.0145958
0.014597
0.0145986
0.014601
0.0146043
0.0146091
0.0146159
0.0146257
0.0146397
0.0146598
0.0146888
0.0147306
0.0147913
0.014593
0.014593
0.014593
0.014593
0.014593
0.014593
0.014593
0.014593
0.014593
0.014593
0.014593
0.014593
0.0145931
0.0145931
0.0145931
0.0145931
0.0145932
0.0145933
0.0145934
0.0145935
0.0145937
0.014594
0.0145944
0.014595
0.0145958
0.0145969
0.0145985
0.0146008
0.0146039
0.0146084
0.0146148
0.0146238
0.0146367
0.0146549
0.014681
0.0147181
0.014771
0.0148463
0.0149534
0.0151058
0.014593
0.014593
0.014593
0.014593
0.014593
0.014593
0.014593
0.014593
0.014593
0.0145931
0.0145931
0.0145931
0.0145931
0.0145932
0.0145932
0.0145933
0.0145934
0.0145936
0.0145938
0.0145941
0.0145945
0.014595
0.0145958
0.014597
0.0145985
0.0146007
0.0146037
0.014608
0.0146141
0.0146226
0.0146346
0.0146515
0.0146754
0.0147093
0.014757
0.0148245
0.0149194
0.0150527
0.0152388
0.0154967
0.0158501
0.014593
0.014593
0.014593
0.014593
0.014593
0.014593
0.0145931
0.0145931
0.0145931
0.0145931
0.0145932
0.0145932
0.0145933
0.0145934
0.0145936
0.0145938
0.0145941
0.0145945
0.0145951
0.0145959
0.014597
0.0145986
0.0146007
0.0146037
0.0146079
0.0146137
0.0146219
0.0146333
0.0146492
0.0146716
0.014703
0.014747
0.0148086
0.0148948
0.0150149
0.0151815
0.0154107
0.0157229
0.0161424
0.0166952
0.0174057
0.014593
0.014593
0.014593
0.0145931
0.0145931
0.0145931
0.0145931
0.0145932
0.0145932
0.0145933
0.0145934
0.0145935
0.0145937
0.0145939
0.0145942
0.0145946
0.0145952
0.0145961
0.0145972
0.0145988
0.0146009
0.0146039
0.014608
0.0146137
0.0146216
0.0146326
0.0146479
0.0146692
0.0146988
0.01474
0.0147974
0.0148769
0.0149871
0.015139
0.0153469
0.0156288
0.0160063
0.0165032
0.0171433
0.0179467
0.0189242
0.0200686
0.014593
0.0145931
0.0145931
0.0145931
0.0145931
0.0145932
0.0145932
0.0145933
0.0145934
0.0145935
0.0145937
0.014594
0.0145943
0.0145948
0.0145954
0.0145963
0.0145974
0.014599
0.0146012
0.0146043
0.0146084
0.0146141
0.0146219
0.0146327
0.0146476
0.0146681
0.0146965
0.0147357
0.0147899
0.0148645
0.0149672
0.0151078
0.0152994
0.015558
0.0159031
0.0163568
0.0169413
0.0176765
0.0185752
0.0196376
0.0208479
0.0221708
0.0235568
0.0145931
0.0145932
0.0145932
0.0145933
0.0145933
0.0145935
0.0145936
0.0145938
0.0145941
0.0145945
0.014595
0.0145956
0.0145965
0.0145978
0.0145994
0.0146017
0.0146048
0.014609
0.0146148
0.0146226
0.0146334
0.0146481
0.0146682
0.0146959
0.0147338
0.0147857
0.0148569
0.014954
0.0150863
0.0152653
0.0155058
0.0158256
0.016245
0.0167851
0.0174654
0.0183
0.0192931
0.0204342
0.0216951
0.0230321
0.0243844
0.0256695
0.0268124
0.0145932
0.0145933
0.0145934
0.0145935
0.0145937
0.0145939
0.0145942
0.0145946
0.0145952
0.0145959
0.0145969
0.0145982
0.0146
0.0146023
0.0146056
0.0146099
0.0146158
0.0146238
0.0146347
0.0146495
0.0146695
0.0146969
0.0147341
0.0147847
0.0148535
0.0149469
0.0150731
0.0152429
0.0154697
0.0157699
0.0161622
0.0166666
0.0173019
0.0180829
0.0190165
0.020097
0.0213033
0.0225988
0.0239324
0.0252348
0.0264225
0.027424
0.0282014
0.0287747
0.0145935
0.0145936
0.0145938
0.0145941
0.0145944
0.0145949
0.0145955
0.0145963
0.0145973
0.0145987
0.0146006
0.0146032
0.0146066
0.0146112
0.0146173
0.0146256
0.0146367
0.0146518
0.0146721
0.0146995
0.0147366
0.0147867
0.0148543
0.0149453
0.0150675
0.0152308
0.0154477
0.0157332
0.0161048
0.016581
0.01718
0.0179165
0.0187991
0.0198257
0.0209807
0.0222334
0.0235412
0.0248462
0.0260742
0.027148
0.0280157
0.0286655
0.0291229
0.0294252
0.0296219
0.014594
0.0145943
0.0145946
0.0145952
0.0145958
0.0145967
0.0145979
0.0145994
0.0146015
0.0146043
0.0146079
0.0146128
0.0146193
0.014628
0.0146396
0.0146551
0.014676
0.0147039
0.0147414
0.0147917
0.014859
0.014949
0.015069
0.0152284
0.0154386
0.0157138
0.01607
0.0165247
0.0170952
0.0177958
0.0186357
0.0196154
0.0207232
0.021934
0.0232108
0.0245051
0.0257531
0.0268806
0.0278253
0.0285589
0.0290909
0.0294544
0.0296899
0.0298367
0.0299234
0.0299741
0.0145945
0.0145949
0.0145955
0.0145963
0.0145973
0.0145986
0.0146003
0.0146026
0.0146056
0.0146096
0.0146149
0.0146218
0.0146311
0.0146433
0.0146596
0.0146814
0.0147102
0.0147487
0.0147999
0.0148679
0.0149582
0.0150778
0.0152354
0.0154419
0.0157105
0.0160562
0.0164954
0.0170442
0.0177166
0.0185218
0.0194618
0.0205279
0.0216993
0.0229433
0.0242187
0.0254709
0.0266326
0.0276378
0.0284452
0.0290496
0.0294748
0.0297581
0.0299382
0.0300472
0.0301099
0.0301434
0.0301585
0.0301608
0.0145969
0.014598
0.0145995
0.0146015
0.014604
0.0146074
0.0146117
0.0146175
0.0146251
0.014635
0.0146482
0.0146655
0.0146885
0.0147187
0.0147587
0.0148116
0.0148813
0.0149732
0.0150939
0.0152519
0.0154575
0.015723
0.0160626
0.0164915
0.017025
0.0176762
0.0184541
0.0193614
0.0203917
0.0215271
0.0227392
0.0239912
0.0252366
0.0264162
0.0274651
0.0283336
0.0290036
0.0294886
0.0298205
0.0300365
0.0301704
0.0302493
0.0302929
0.0303144
0.0303186
0.0303163
0.030311
0.0302989
0.014599
0.0146007
0.0146029
0.0146058
0.0146096
0.0146144
0.0146208
0.0146292
0.0146401
0.0146544
0.0146731
0.0146976
0.0147298
0.014772
0.0148273
0.0148997
0.0149944
0.015118
0.0152784
0.0154856
0.0157514
0.0160889
0.0165125
0.0170363
0.0176728
0.0184304
0.0193118
0.0203121
0.0214159
0.0225979
0.0238248
0.0250565
0.0262411
0.0273183
0.0282341
0.0289606
0.0295006
0.0298797
0.0301323
0.0302928
0.0303895
0.0304442
0.0304723
0.0304825
0.03048
0.0304752
0.0304645
0.030447
0.0304251
0.0304009
0.0146081
0.0146123
0.0146179
0.0146251
0.0146344
0.0146465
0.0146622
0.0146826
0.0147092
0.0147439
0.014789
0.0148476
0.0149239
0.0150228
0.0151508
0.0153158
0.0155273
0.0157965
0.0161357
0.0165585
0.0170781
0.0177057
0.0184493
0.0193112
0.0202873
0.0213642
0.0225187
0.0237206
0.0249342
0.0261145
0.0272066
0.0281563
0.0289284
0.0295167
0.0299396
0.0302279
0.0304151
0.0305306
0.0305975
0.0306335
0.0306492
0.0306483
0.0306431
0.0306342
0.0306182
0.0305968
0.0305726
0.0305453
0.0305165
0.0304883
0.0146305
0.014641
0.0146546
0.0146721
0.0146947
0.014724
0.0147617
0.0148105
0.0148735
0.0149548
0.0150595
0.0151938
0.0153656
0.015584
0.0158596
0.0162044
0.0166308
0.017151
0.0177753
0.0185107
0.019359
0.0203163
0.0213706
0.0225006
0.0236785
0.0248717
0.0260412
0.0271376
0.0281086
0.0289151
0.0295433
0.0300047
0.0303261
0.0305391
0.0306737
0.0307533
0.0307973
0.0308182
0.0308214
0.0308158
0.0308073
0.0307929
0.0307723
0.030748
0.0307211
0.0306915
0.0306613
0.030632
0.0306035
0.0305756
0.0146846
0.01471
0.0147425
0.0147842
0.0148377
0.0149062
0.0149939
0.015106
0.0152486
0.0154295
0.0156575
0.0159429
0.016297
0.0167311
0.0172566
0.0178827
0.0186152
0.0194554
0.020399
0.021435
0.0225435
0.0236987
0.0248705
0.0260245
0.0271166
0.0280979
0.0289276
0.0295865
0.03008
0.0304305
0.0306673
0.0308197
0.0309123
0.0309644
0.0309908
0.030998
0.030993
0.0309837
0.030971
0.0309511
0.030927
0.0309003
0.0308707
0.0308394
0.0308083
0.030778
0.0307481
0.0307188
0.0306903
0.0306624
0.0148125
0.0148718
0.0149472
0.015043
0.0151643
0.0153175
0.01551
0.0157506
0.0160491
0.0164161
0.0168622
0.0173974
0.0180299
0.0187645
0.0196014
0.0205359
0.0215573
0.0226473
0.0237811
0.024931
0.0260662
0.0271475
0.0281297
0.0289721
0.0296521
0.0301702
0.0305446
0.030802
0.0309707
0.0310754
0.0311354
0.0311667
0.031178
0.0311747
0.0311648
0.0311521
0.0311337
0.0311096
0.0310827
0.0310533
0.0310214
0.0309888
0.030957
0.0309256
0.0308946
0.0308643
0.0308344
0.0308048
0.030776
0.0307476
0.0151043
0.0152371
0.0154033
0.0156103
0.0158667
0.0161818
0.0165654
0.0170275
0.0175767
0.01822
0.0189609
0.0197987
0.020728
0.0217383
0.0228121
0.0239257
0.0250535
0.0261675
0.0272328
0.0282077
0.0290533
0.029745
0.0302797
0.030672
0.0309459
0.0311284
0.0312436
0.0313109
0.031347
0.031362
0.03136
0.0313502
0.0313367
0.0313195
0.0312956
0.0312685
0.0312393
0.031207
0.0311734
0.0311401
0.0311073
0.0310747
0.0310427
0.0310112
0.0309801
0.0309494
0.030919
0.030889
0.0308596
0.0308307
0.0157344
0.01601
0.0163453
0.0167495
0.0172314
0.0177987
0.0184568
0.0192078
0.02005
0.0209773
0.021979
0.0230384
0.0241328
0.0252381
0.0263288
0.0273737
0.0283347
0.0291747
0.029869
0.0304121
0.0308158
0.0311015
0.0312945
0.0314182
0.0314918
0.031532
0.03155
0.0315493
0.0315405
0.0315258
0.0315085
0.0314853
0.0314578
0.0314282
0.0313961
0.0313616
0.0313269
0.0312928
0.0312589
0.0312254
0.0311924
0.0311597
0.0311274
0.0310954
0.0310638
0.0310325
0.0310016
0.030971
0.0309411
0.0309116
0.0169738
0.0174794
0.0180684
0.0187446
0.019509
0.0203584
0.021286
0.0222811
0.0233272
0.0244025
0.0254846
0.0265502
0.0275709
0.0285119
0.0293386
0.030027
0.0305705
0.0309787
0.0312709
0.0314707
0.0316004
0.0316788
0.0317222
0.0317423
0.0317431
0.0317348
0.0317192
0.0317006
0.0316786
0.0316506
0.0316205
0.0315885
0.0315535
0.0315176
0.0314821
0.0314469
0.0314119
0.0313774
0.0313433
0.0313095
0.0312761
0.0312429
0.03121
0.0311775
0.0311452
0.0311133
0.0310819
0.0310507
0.0310202
0.0309902
0.0190888
0.0198688
0.0207273
0.0216567
0.0226461
0.0236792
0.024735
0.0257928
0.026831
0.027824
0.0287395
0.0295459
0.0302206
0.0307567
0.0311626
0.031456
0.0316584
0.0317914
0.0318726
0.031918
0.0319394
0.0319414
0.031933
0.0319167
0.0318972
0.0318751
0.0318469
0.031816
0.0317836
0.0317485
0.0317116
0.0316749
0.0316385
0.0316022
0.0315663
0.0315308
0.0314956
0.0314607
0.0314261
0.0313917
0.0313576
0.0313239
0.0312903
0.0312571
0.0312243
0.0311918
0.0311597
0.0311281
0.0310971
0.0310665
0.0220921
0.0230758
0.0240952
0.0251302
0.0261619
0.0271703
0.0281319
0.0290169
0.0297964
0.03045
0.0309716
0.0313687
0.0316577
0.0318588
0.0319919
0.0320738
0.03212
0.0321419
0.0321441
0.0321355
0.0321189
0.0320978
0.0320749
0.0320469
0.0320151
0.0319821
0.0319467
0.031909
0.0318711
0.0318335
0.0317961
0.0317587
0.0317219
0.0316854
0.031649
0.0316131
0.0315773
0.0315418
0.0315065
0.0314715
0.0314368
0.0314023
0.0313682
0.0313344
0.0313009
0.0312679
0.0312353
0.0312031
0.0311716
0.0311406
0.0255876
0.0265906
0.0275663
0.0284927
0.0293423
0.0300889
0.0307146
0.0312149
0.0315972
0.0318767
0.0320722
0.0322024
0.0322827
0.0323283
0.0323497
0.0323512
0.0323424
0.0323251
0.0323024
0.0322782
0.0322503
0.0322176
0.0321838
0.0321481
0.0321097
0.0320707
0.0320319
0.0319933
0.0319546
0.0319165
0.0318787
0.031841
0.0318037
0.0317666
0.0317297
0.031693
0.0316566
0.0316204
0.0315845
0.0315488
0.0315134
0.0314783
0.0314436
0.0314092
0.0313751
0.0313415
0.0313084
0.0312758
0.0312438
0.0312124
0.0289037
0.0297127
0.0304206
0.0310125
0.0314853
0.0318472
0.0321126
0.0322988
0.0324229
0.0324997
0.032543
0.0325628
0.0325628
0.0325534
0.032535
0.0325108
0.0324855
0.0324569
0.0324232
0.0323884
0.0323523
0.0323135
0.0322734
0.0322335
0.0321937
0.0321539
0.0321144
0.0320754
0.0320365
0.0319978
0.0319594
0.0319212
0.0318832
0.0318454
0.0318078
0.0317705
0.0317333
0.0316965
0.0316599
0.0316235
0.0315875
0.0315518
0.0315164
0.0314815
0.0314469
0.0314128
0.0313792
0.0313461
0.0313137
0.0312819
0.0313405
0.0317807
0.0321174
0.0323645
0.0325379
0.0326534
0.0327246
0.0327642
0.032781
0.0327795
0.0327686
0.0327485
0.0327229
0.0326963
0.0326666
0.0326324
0.0325964
0.0325595
0.03252
0.032479
0.032438
0.0323972
0.0323564
0.0323156
0.0322753
0.0322352
0.0321953
0.0321556
0.0321161
0.0320768
0.0320377
0.0319988
0.0319601
0.0319216
0.0318834
0.0318453
0.0318075
0.0317699
0.0317327
0.0316957
0.0316591
0.0316228
0.0315868
0.0315513
0.0315163
0.0314816
0.0314476
0.031414
0.0313812
0.031349
0.0326307
0.0327886
0.032893
0.032957
0.0329914
0.0330043
0.0330009
0.0329877
0.0329657
0.0329388
0.0329105
0.0328793
0.0328446
0.0328074
0.0327695
0.0327295
0.0326876
0.0326455
0.0326037
0.0325617
0.0325198
0.0324783
0.032437
0.0323959
0.032355
0.0323143
0.0322738
0.0322335
0.0321933
0.0321533
0.0321135
0.0320739
0.0320344
0.0319952
0.0319563
0.0319175
0.031879
0.0318408
0.0318029
0.0317654
0.0317281
0.0316913
0.0316548
0.0316187
0.0315832
0.0315481
0.0315136
0.0314796
0.0314465
0.0314139
0.0331961
0.0332245
0.0332325
0.0332265
0.0332106
0.0331865
0.033158
0.033128
0.0330953
0.0330598
0.0330214
0.0329822
0.0329416
0.0328989
0.0328558
0.0328129
0.0327699
0.0327269
0.0326842
0.0326418
0.0325995
0.0325574
0.0325156
0.0324739
0.0324323
0.0323909
0.0323497
0.0323087
0.0322678
0.0322271
0.0321865
0.0321462
0.0321061
0.0320662
0.0320265
0.0319871
0.031948
0.0319092
0.0318707
0.0318325
0.0317947
0.0317572
0.0317202
0.0316837
0.0316476
0.0316121
0.0315772
0.0315428
0.0315093
0.0314764
0.0334648
0.0334558
0.033437
0.0334105
0.0333803
0.0333487
0.0333144
0.0332773
0.0332382
0.0331979
0.0331564
0.0331129
0.0330687
0.0330247
0.0329808
0.0329367
0.0328929
0.0328494
0.032806
0.0327628
0.0327198
0.0326769
0.0326342
0.0325916
0.0325492
0.032507
0.0324649
0.0324229
0.0323811
0.0323395
0.0322981
0.0322569
0.0322159
0.0321751
0.0321345
0.0320942
0.0320541
0.0320144
0.0319749
0.0319358
0.0318971
0.0318587
0.0318207
0.0317832
0.0317462
0.0317096
0.0316737
0.0316383
0.0316036
0.0315698
0.0315366
0.0336375
0.0336055
0.0335722
0.0335361
0.0334976
0.0334576
0.033416
0.0333733
0.0333292
0.033284
0.033239
0.0331942
0.0331491
0.0331042
0.0330597
0.0330152
0.0329708
0.0329267
0.0328828
0.0328389
0.0327952
0.0327517
0.0327083
0.032665
0.0326219
0.0325789
0.0325361
0.0324934
0.0324509
0.0324086
0.0323665
0.0323246
0.0322829
0.0322414
0.0322002
0.0321592
0.0321185
0.0320782
0.0320381
0.0319984
0.0319591
0.0319202
0.0318817
0.0318437
0.0318062
0.0317692
0.0317328
0.0316971
0.031662
0.0316278
0.0315943
0.0337982
0.0337603
0.0337203
0.0336792
0.0336365
0.0335926
0.0335476
0.0335016
0.0334556
0.0334099
0.0333638
0.0333178
0.0332723
0.0332268
0.0331814
0.0331363
0.0330913
0.0330463
0.0330016
0.0329569
0.0329124
0.032868
0.0328237
0.0327796
0.0327356
0.0326918
0.0326481
0.0326046
0.0325612
0.032518
0.032475
0.0324322
0.0323896
0.0323472
0.0323051
0.0322632
0.0322217
0.0321804
0.0321394
0.0320987
0.0320585
0.0320186
0.0319791
0.0319402
0.0319017
0.0318637
0.0318263
0.0317895
0.0317534
0.031718
0.0316835
0.0316497
0.0339028
0.0338592
0.0338141
0.0337681
0.0337213
0.0336743
0.0336277
0.0335808
0.0335337
0.0334873
0.0334408
0.0333944
0.0333482
0.0333022
0.0332562
0.0332104
0.0331647
0.0331191
0.0330736
0.0330283
0.0329831
0.032938
0.032893
0.0328482
0.0328035
0.0327589
0.0327145
0.0326703
0.0326263
0.0325824
0.0325387
0.0324952
0.032452
0.032409
0.0323662
0.0323237
0.0322815
0.0322396
0.032198
0.0321568
0.032116
0.0320755
0.0320356
0.0319961
0.0319571
0.0319187
0.0318809
0.0318437
0.0318072
0.0317715
0.0317366
0.0317025
0.0339904
0.0339429
0.033895
0.0338473
0.0337996
0.0337517
0.0337043
0.033657
0.0336095
0.0335624
0.0335154
0.0334684
0.0334216
0.0333749
0.0333283
0.0332818
0.0332354
0.0331891
0.033143
0.0330969
0.033051
0.0330052
0.0329595
0.032914
0.0328686
0.0328234
0.0327783
0.0327334
0.0326887
0.0326441
0.0325998
0.0325556
0.0325117
0.032468
0.0324246
0.0323815
0.0323387
0.0322962
0.032254
0.0322123
0.0321709
0.0321299
0.0320894
0.0320495
0.03201
0.0319712
0.0319329
0.0318953
0.0318585
0.0318224
0.0317873
0.0317529
0.0340688
0.0340203
0.0339716
0.0339231
0.033875
0.0338266
0.0337785
0.0337307
0.0336827
0.033635
0.0335873
0.0335397
0.0334923
0.0334449
0.0333976
0.0333504
0.0333034
0.0332564
0.0332096
0.0331628
0.0331162
0.0330697
0.0330233
0.0329771
0.0329311
0.0328851
0.0328394
0.0327938
0.0327484
0.0327031
0.0326581
0.0326133
0.0325688
0.0325245
0.0324805
0.0324367
0.0323933
0.0323502
0.0323075
0.0322651
0.0322232
0.0321817
0.0321407
0.0321003
0.0320604
0.032021
0.0319824
0.0319444
0.0319072
0.0318708
0.0318353
0.0318006
0.0341437
0.0340947
0.0340455
0.0339965
0.0339478
0.033899
0.0338503
0.0338017
0.0337533
0.0337048
0.0336565
0.0336083
0.0335602
0.0335121
0.0334642
0.0334163
0.0333686
0.0333209
0.0332734
0.033226
0.0331787
0.0331315
0.0330844
0.0330375
0.0329908
0.0329442
0.0328977
0.0328515
0.0328054
0.0327595
0.0327139
0.0326684
0.0326232
0.0325783
0.0325336
0.0324893
0.0324453
0.0324016
0.0323583
0.0323154
0.0322729
0.0322309
0.0321894
0.0321484
0.0321081
0.0320683
0.0320292
0.0319908
0.0319533
0.0319165
0.0318807
0.0318457
0.0342161
0.0341665
0.0341169
0.0340673
0.034018
0.0339686
0.0339193
0.0338701
0.033821
0.0337719
0.033723
0.0336741
0.0336253
0.0335766
0.0335279
0.0334794
0.033431
0.0333827
0.0333345
0.0332864
0.0332384
0.0331905
0.0331428
0.0330952
0.0330478
0.0330005
0.0329534
0.0329065
0.0328598
0.0328132
0.0327669
0.0327208
0.032675
0.0326294
0.0325842
0.0325392
0.0324946
0.0324503
0.0324064
0.032363
0.0323199
0.0322774
0.0322354
0.0321939
0.0321531
0.0321129
0.0320734
0.0320346
0.0319966
0.0319594
0.0319233
0.031888
0.034286
0.0342358
0.0341856
0.0341355
0.0340854
0.0340355
0.0339856
0.0339357
0.033886
0.0338363
0.0337866
0.0337371
0.0336877
0.0336383
0.033589
0.0335398
0.0334907
0.0334417
0.0333928
0.0333441
0.0332954
0.0332469
0.0331985
0.0331503
0.0331022
0.0330542
0.0330064
0.0329588
0.0329114
0.0328643
0.0328173
0.0327706
0.0327241
0.0326779
0.032632
0.0325864
0.0325412
0.0324963
0.0324519
0.0324078
0.0323643
0.0323212
0.0322787
0.0322367
0.0321954
0.0321547
0.0321147
0.0320755
0.0320372
0.0319996
0.0319631
0.0319274
0.0343023
0.0342516
0.0342008
0.0341502
0.0340996
0.034049
0.0339986
0.0339482
0.0338978
0.0338476
0.0337974
0.0337473
0.0336973
0.0336473
0.0335975
0.0335477
0.0334981
0.0334485
0.0333991
0.0333498
0.0333006
0.0332515
0.0332026
0.0331538
0.0331052
0.0330567
0.0330085
0.0329604
0.0329126
0.0328649
0.0328176
0.0327705
0.0327236
0.0326771
0.0326309
0.0325851
0.0325396
0.0324946
0.03245
0.0324058
0.0323622
0.0323192
0.0322767
0.0322349
0.0321937
0.0321533
0.0321136
0.0320748
0.0320369
0.032
0.031964
0.0343661
0.0343147
0.0342634
0.0342121
0.0341609
0.0341098
0.0340587
0.0340077
0.0339567
0.0339058
0.033855
0.0338042
0.0337535
0.0337029
0.0336524
0.033602
0.0335517
0.0335015
0.0334514
0.0334014
0.0333515
0.0333018
0.0332522
0.0332027
0.0331534
0.0331043
0.0330554
0.0330067
0.0329582
0.0329099
0.0328618
0.0328141
0.0327666
0.0327195
0.0326726
0.0326262
0.0325801
0.0325345
0.0324893
0.0324446
0.0324004
0.0323568
0.0323138
0.0322715
0.0322298
0.0321889
0.0321488
0.0321096
0.0320712
0.0320339
0.0319975
0.0344272
0.0343752
0.0343233
0.0342714
0.0342196
0.0341678
0.0341161
0.0340644
0.0340128
0.0339613
0.0339098
0.0338584
0.0338071
0.0337559
0.0337047
0.0336536
0.0336026
0.0335517
0.0335009
0.0334503
0.0333997
0.0333493
0.033299
0.0332489
0.0331989
0.0331492
0.0330996
0.0330502
0.033001
0.032952
0.0329033
0.0328549
0.0328068
0.032759
0.0327116
0.0326645
0.0326178
0.0325715
0.0325258
0.0324805
0.0324357
0.0323916
0.032348
0.0323052
0.032263
0.0322216
0.032181
0.0321413
0.0321025
0.0320647
0.0320279
0.034433
0.0343804
0.034328
0.0342755
0.0342231
0.0341708
0.0341185
0.0340663
0.0340141
0.033962
0.0339099
0.033858
0.033806
0.0337542
0.0337025
0.0336508
0.0335992
0.0335478
0.0334964
0.0334452
0.0333941
0.0333431
0.0332923
0.0332417
0.0331912
0.0331409
0.0330909
0.033041
0.0329914
0.032942
0.0328929
0.0328442
0.0327957
0.0327476
0.0326999
0.0326526
0.0326057
0.0325593
0.0325134
0.0324681
0.0324233
0.0323792
0.0323358
0.0322931
0.0322512
0.0322101
0.0321699
0.0321306
0.0320924
0.0320551
0.034488
0.0344349
0.0343818
0.0343288
0.0342758
0.0342228
0.0341699
0.034117
0.0340642
0.0340114
0.0339587
0.0339061
0.0338535
0.033801
0.0337486
0.0336962
0.033644
0.0335919
0.0335398
0.0334879
0.0334361
0.0333845
0.033333
0.0332816
0.0332304
0.0331795
0.0331287
0.0330782
0.0330278
0.0329778
0.032928
0.0328786
0.0328295
0.0327807
0.0327323
0.0326843
0.0326368
0.0325898
0.0325433
0.0324974
0.032452
0.0324073
0.0323633
0.03232
0.0322776
0.032236
0.0321952
0.0321555
0.0321168
0.032079
0.0345404
0.0344866
0.034433
0.0343793
0.0343257
0.0342721
0.0342185
0.034165
0.0341115
0.0340581
0.0340048
0.0339514
0.0338982
0.033845
0.0337919
0.0337389
0.033686
0.0336331
0.0335804
0.0335278
0.0334753
0.0334229
0.0333707
0.0333187
0.0332668
0.0332151
0.0331636
0.0331124
0.0330614
0.0330106
0.0329602
0.03291
0.0328602
0.0328108
0.0327617
0.0327131
0.0326649
0.0326172
0.0325701
0.0325235
0.0324775
0.0324322
0.0323876
0.0323438
0.0323007
0.0322586
0.0322173
0.032177
0.0321378
0.0320995
0.03459
0.0345357
0.0344814
0.0344271
0.0343729
0.0343186
0.0342644
0.0342103
0.0341561
0.0341021
0.034048
0.0339941
0.0339401
0.0338863
0.0338325
0.0337788
0.0337251
0.0336716
0.0336181
0.0335648
0.0335116
0.0334585
0.0334056
0.0333528
0.0333002
0.0332478
0.0331956
0.0331437
0.0330919
0.0330405
0.0329893
0.0329385
0.0328879
0.0328378
0.032788
0.0327387
0.0326899
0.0326415
0.0325937
0.0325465
0.0324998
0.0324539
0.0324087
0.0323642
0.0323206
0.0322778
0.032236
0.0321952
0.0321554
0.0321166
0.034637
0.034582
0.0345271
0.0344722
0.0344173
0.0343624
0.0343076
0.0342528
0.034198
0.0341432
0.0340885
0.0340338
0.0339792
0.0339247
0.0338702
0.0338157
0.0337614
0.0337071
0.033653
0.0335989
0.033545
0.0334912
0.0334375
0.033384
0.0333307
0.0332775
0.0332246
0.0331719
0.0331194
0.0330672
0.0330153
0.0329637
0.0329125
0.0328616
0.0328112
0.0327611
0.0327116
0.0326625
0.032614
0.0325661
0.0325188
0.0324722
0.0324264
0.0323813
0.0323371
0.0322937
0.0322513
0.0322098
0.0321695
0.0321301
0.0346812
0.0346256
0.0345701
0.0345145
0.034459
0.0344035
0.034348
0.0342925
0.034237
0.0341816
0.0341262
0.0340708
0.0340155
0.0339602
0.033905
0.0338498
0.0337948
0.0337398
0.0336849
0.0336301
0.0335754
0.0335208
0.0334664
0.0334122
0.0333581
0.0333042
0.0332505
0.033197
0.0331438
0.0330909
0.0330382
0.0329859
0.0329339
0.0328823
0.0328311
0.0327803
0.03273
0.0326802
0.032631
0.0325824
0.0325345
0.0324872
0.0324407
0.0323949
0.0323501
0.0323061
0.032263
0.032221
0.0321801
0.0321401
0.0347227
0.0346665
0.0346103
0.0345541
0.0344979
0.0344417
0.0343855
0.0343293
0.0342732
0.034217
0.0341609
0.0341048
0.0340488
0.0339928
0.0339368
0.0338809
0.0338251
0.0337694
0.0337137
0.0336582
0.0336027
0.0335474
0.0334922
0.0334372
0.0333823
0.0333277
0.0332732
0.033219
0.033165
0.0331112
0.0330578
0.0330047
0.032952
0.0328996
0.0328476
0.0327961
0.0327451
0.0326946
0.0326446
0.0325953
0.0325466
0.0324987
0.0324515
0.0324051
0.0323595
0.0323149
0.0322712
0.0322286
0.032187
0.0321464
0.0347045
0.0346476
0.0345908
0.0345339
0.034477
0.0344201
0.0343633
0.0343064
0.0342495
0.0341927
0.0341359
0.0340791
0.0340224
0.0339657
0.033909
0.0338525
0.0337959
0.0337395
0.0336832
0.033627
0.0335709
0.0335149
0.0334591
0.0334034
0.033348
0.0332927
0.0332377
0.0331829
0.0331283
0.0330741
0.0330202
0.0329667
0.0329135
0.0328608
0.0328085
0.0327567
0.0327055
0.0326548
0.0326047
0.0325553
0.0325066
0.0324587
0.0324116
0.0323654
0.0323201
0.0322758
0.0322325
0.0321903
0.0321491
0.0347396
0.0346821
0.0346246
0.034567
0.0345094
0.0344518
0.0343943
0.0343367
0.0342791
0.0342215
0.034164
0.0341064
0.0340489
0.0339915
0.033934
0.0338767
0.0338194
0.0337622
0.033705
0.033648
0.0335911
0.0335343
0.0334777
0.0334212
0.0333649
0.0333089
0.033253
0.0331974
0.0331421
0.033087
0.0330323
0.032978
0.032924
0.0328705
0.0328174
0.0327648
0.0327128
0.0326614
0.0326105
0.0325604
0.032511
0.0324623
0.0324145
0.0323677
0.0323218
0.0322768
0.0322329
0.0321902
0.0321484
0.0347719
0.0347137
0.0346554
0.0345972
0.0345389
0.0344806
0.0344222
0.0343639
0.0343056
0.0342472
0.0341889
0.0341306
0.0340723
0.0340141
0.0339559
0.0338977
0.0338396
0.0337816
0.0337236
0.0336658
0.0336081
0.0335505
0.033493
0.0334357
0.0333786
0.0333217
0.033265
0.0332086
0.0331524
0.0330965
0.033041
0.0329858
0.032931
0.0328767
0.0328228
0.0327694
0.0327166
0.0326644
0.0326128
0.032562