/*--------------------------------*- C++ -*----------------------------------*\
| =========                 |                                                 |
| \\      /  F ield         | OpenFOAM: The Open Source CFD Toolbox           |
|  \\    /   O peration     | Version:  v1706                                 |
|   \\  /    A nd           | Web:      www.OpenFOAM.com                      |
|    \\/     M anipulation  |                                                 |
\*---------------------------------------------------------------------------*/
FoamFile
{
    version     2.0;
    format      ascii;
    class       volScalarField;
    location    "3.5e-05";
    object      Mach;
}
// * * * * * * * * * * * * * * * * * * * * * * * * * * * * * * * * * * * * * //

dimensions      [0 0 0 0 0 0 0];


internalField   nonuniform List<scalar> 
30038
(
3.99498
3.99498
3.99498
3.99498
3.99498
3.99498
3.99498
3.99498
3.99498
3.99498
3.99498
3.99498
3.99498
3.99498
3.99498
3.99498
3.99498
3.99498
3.99498
3.99498
3.99498
3.99498
3.99498
3.99498
3.99498
3.99498
3.99498
3.99498
3.99498
3.99498
3.99498
3.99498
3.99498
3.99498
3.99498
3.99498
3.99498
3.99498
3.99498
3.99498
3.99498
3.99498
3.99498
3.99498
3.99498
3.99498
3.99498
3.99498
3.99498
3.99498
3.99498
3.99498
3.99498
3.99498
3.99498
3.99498
3.99498
3.99498
3.99498
3.99498
3.99498
3.99498
3.99498
3.99498
3.99498
3.99498
3.99498
3.99498
3.99498
3.99498
3.99498
3.99498
3.99498
3.99498
3.99498
3.99498
3.99498
3.99498
3.99498
3.99498
3.99498
3.99498
3.99498
3.99498
3.99498
3.99498
3.99498
3.99498
3.99498
3.99498
3.99498
3.99498
3.99498
3.99498
3.99498
3.99498
3.99498
3.99498
3.99498
3.99498
3.99498
3.99498
3.99498
3.99498
3.99498
3.99498
3.99498
3.99498
3.99498
3.99498
3.99498
3.99498
3.99498
3.99498
3.99498
3.99498
3.99498
3.99498
3.99498
3.99498
3.99498
3.99498
3.99498
3.99498
3.99498
3.99498
3.99498
3.99498
3.99498
3.99498
3.99498
3.99498
3.99498
3.99498
3.99498
3.99498
3.99498
3.99498
3.99498
3.99498
3.99498
3.99498
3.99498
3.99498
3.99498
3.99498
3.99498
3.99498
3.99498
3.99498
3.99498
3.99498
3.99498
3.99498
3.99498
3.99498
3.99498
3.99498
3.99498
3.99498
3.99498
3.99498
3.99498
3.99498
3.99498
3.99498
3.99498
3.99498
3.99498
3.99498
3.99498
3.99498
3.99498
3.99498
3.99498
3.99498
3.99498
3.99498
3.99498
3.99498
3.99498
3.99498
3.99498
3.99498
3.99498
3.99498
3.99498
3.99498
3.99498
3.99498
3.99498
3.99498
3.99498
3.99498
3.99498
3.99498
3.99498
3.99498
3.99498
3.99498
3.99498
3.99498
3.99498
3.99498
3.99498
3.99498
3.99498
3.99498
3.99498
3.99498
3.99498
3.99498
3.99498
3.99498
3.99498
3.99498
3.99498
3.99498
3.99498
3.99498
3.99498
3.99498
3.99498
3.99498
3.99498
3.99498
3.99498
3.99498
3.99498
3.99498
3.99498
3.99498
3.99498
3.99498
3.99498
3.99498
3.99498
3.99498
3.99498
3.99498
3.99498
3.99498
3.99498
3.99498
3.99498
3.99498
3.99498
3.99498
3.99498
3.99498
3.99498
3.99498
3.99498
3.99498
3.99498
3.99498
3.99498
3.99498
3.99498
3.99498
3.99498
3.99498
3.99498
3.99498
3.99498
3.99498
3.99498
3.99498
3.99498
3.99498
3.99498
3.99498
3.99498
3.99498
3.99498
3.99498
3.99498
3.99498
3.99498
3.99498
3.99498
3.99498
3.99498
3.99498
3.99498
3.99498
3.99498
3.99498
3.99498
3.99498
3.99498
3.99498
3.99498
3.99498
3.99498
3.99498
3.99498
3.99498
3.99498
3.99498
3.99498
3.99498
3.99498
3.99497
3.99498
3.99498
3.99498
3.99498
3.99498
3.99498
3.99498
3.99498
3.99498
3.99498
3.99498
3.99498
3.99498
3.99498
3.99498
3.99498
3.99498
3.99498
3.99498
3.99498
3.99498
3.99498
3.99498
3.99498
3.99498
3.99498
3.99498
3.99498
3.99498
3.99498
3.99498
3.99498
3.99498
3.99498
3.99498
3.99497
3.99497
3.99497
3.99497
3.99498
3.99498
3.99498
3.99498
3.99498
3.99498
3.99498
3.99498
3.99498
3.99498
3.99498
3.99498
3.99498
3.99498
3.99498
3.99498
3.99498
3.99498
3.99498
3.99498
3.99498
3.99498
3.99498
3.99498
3.99498
3.99498
3.99498
3.99498
3.99498
3.99498
3.99498
3.99498
3.99497
3.99497
3.99497
3.99497
3.99496
3.99495
3.99494
3.99498
3.99498
3.99498
3.99498
3.99498
3.99498
3.99498
3.99498
3.99498
3.99498
3.99498
3.99498
3.99498
3.99498
3.99498
3.99498
3.99498
3.99498
3.99498
3.99498
3.99498
3.99498
3.99498
3.99498
3.99498
3.99498
3.99498
3.99498
3.99498
3.99497
3.99497
3.99497
3.99497
3.99496
3.99496
3.99495
3.99493
3.99491
3.99488
3.99498
3.99498
3.99498
3.99498
3.99498
3.99498
3.99498
3.99498
3.99498
3.99498
3.99498
3.99498
3.99498
3.99498
3.99498
3.99498
3.99498
3.99498
3.99498
3.99498
3.99498
3.99498
3.99498
3.99498
3.99498
3.99498
3.99498
3.99497
3.99497
3.99497
3.99497
3.99496
3.99496
3.99495
3.99493
3.99491
3.99488
3.99484
3.99478
3.99468
3.99498
3.99498
3.99498
3.99498
3.99498
3.99498
3.99498
3.99498
3.99498
3.99498
3.99498
3.99498
3.99498
3.99498
3.99498
3.99498
3.99498
3.99498
3.99498
3.99498
3.99498
3.99498
3.99498
3.99498
3.99497
3.99497
3.99497
3.99497
3.99496
3.99496
3.99495
3.99493
3.99492
3.99489
3.99485
3.99479
3.99471
3.99458
3.9944
3.99413
3.99498
3.99498
3.99498
3.99498
3.99498
3.99498
3.99498
3.99498
3.99498
3.99498
3.99498
3.99498
3.99498
3.99498
3.99498
3.99498
3.99498
3.99498
3.99498
3.99498
3.99497
3.99497
3.99497
3.99497
3.99497
3.99496
3.99496
3.99495
3.99494
3.99492
3.99489
3.99485
3.9948
3.99472
3.99461
3.99444
3.9942
3.99385
3.99333
3.99256
3.99498
3.99498
3.99498
3.99498
3.99498
3.99498
3.99498
3.99498
3.99498
3.99498
3.99498
3.99498
3.99498
3.99498
3.99498
3.99498
3.99498
3.99497
3.99497
3.99497
3.99497
3.99497
3.99496
3.99496
3.99495
3.99493
3.99492
3.99489
3.99485
3.9948
3.99473
3.99462
3.99447
3.99424
3.99392
3.99346
3.99279
3.99181
3.99037
3.98827
3.99498
3.99498
3.99498
3.99498
3.99498
3.99498
3.99498
3.99498
3.99498
3.99498
3.99498
3.99498
3.99498
3.99498
3.99497
3.99497
3.99497
3.99497
3.99497
3.99496
3.99496
3.99495
3.99493
3.99492
3.99489
3.99485
3.9948
3.99473
3.99463
3.99448
3.99427
3.99397
3.99354
3.99292
3.99203
3.99076
3.98891
3.98625
3.98235
3.97671
3.99498
3.99498
3.99498
3.99498
3.99498
3.99498
3.99498
3.99498
3.99498
3.99498
3.99498
3.99497
3.99497
3.99497
3.99497
3.99497
3.99496
3.99495
3.99494
3.99493
3.99491
3.99489
3.99485
3.9948
3.99473
3.99463
3.99449
3.99428
3.994
3.99359
3.99301
3.99218
3.991
3.98932
3.98691
3.98346
3.97851
3.97142
3.96116
3.94652
3.99498
3.99498
3.99498
3.99498
3.99498
3.99498
3.99498
3.99497
3.99497
3.99497
3.99497
3.99497
3.99496
3.99496
3.99495
3.99494
3.99493
3.99491
3.99488
3.99485
3.9948
3.99472
3.99462
3.99448
3.99428
3.99401
3.99361
3.99306
3.99228
3.99117
3.9896
3.98737
3.9842
3.97971
3.97332
3.96426
3.95139
3.93322
3.90745
3.87165
3.99498
3.99498
3.99498
3.99498
3.99498
3.99497
3.99497
3.99497
3.99497
3.99497
3.99496
3.99496
3.99495
3.99494
3.99492
3.9949
3.99488
3.99484
3.99479
3.99471
3.99461
3.99447
3.99427
3.994
3.99362
3.99308
3.99232
3.99126
3.98977
3.98768
3.98472
3.98056
3.97469
3.96642
3.95478
3.93846
3.91566
3.884
3.84054
3.78122
3.70301
3.99498
3.99497
3.99497
3.99497
3.99497
3.99497
3.99496
3.99496
3.99495
3.99495
3.99493
3.99492
3.9949
3.99487
3.99483
3.99477
3.9947
3.99459
3.99445
3.99425
3.99398
3.9936
3.99306
3.99233
3.9913
3.98986
3.98785
3.98505
3.98112
3.97563
3.96796
3.95724
3.9423
3.92157
3.89297
3.85385
3.80102
3.73079
3.6397
3.52385
3.3841
3.99497
3.99497
3.99497
3.99497
3.99496
3.99496
3.99495
3.99494
3.99493
3.99491
3.99489
3.99486
3.99482
3.99476
3.99468
3.99457
3.99442
3.99422
3.99394
3.99355
3.99302
3.99228
3.99127
3.98986
3.98791
3.9852
3.98144
3.97622
3.96898
3.95894
3.94504
3.92588
3.89959
3.86382
3.81567
3.75184
3.6689
3.56387
3.4348
3.2822
3.10748
2.91964
3.99497
3.99496
3.99496
3.99495
3.99495
3.99494
3.99492
3.9949
3.99488
3.99484
3.9948
3.99474
3.99465
3.99454
3.99438
3.99417
3.99388
3.99348
3.99294
3.9922
3.99118
3.98978
3.98785
3.98519
3.98154
3.9765
3.96956
3.96
3.94687
3.92888
3.90435
3.87115
3.82664
3.7678
3.6914
3.59449
3.47501
3.33254
3.16913
2.98895
2.79867
2.60343
2.41605
3.99495
3.99494
3.99493
3.99491
3.99489
3.99486
3.99483
3.99478
3.99471
3.99462
3.99449
3.99433
3.9941
3.9938
3.99339
3.99283
3.99206
3.99102
3.98961
3.98767
3.98503
3.98142
3.97647
3.96971
3.96048
3.94788
3.93073
3.90751
3.87625
3.83455
3.77962
3.70844
3.61815
3.50658
3.37287
3.21826
3.04633
2.86236
2.67308
2.48593
2.30932
2.14918
2.01458
3.99492
3.9949
3.99488
3.99485
3.9948
3.99475
3.99467
3.99457
3.99444
3.99426
3.99402
3.99369
3.99326
3.99267
3.99187
3.9908
3.98935
3.98738
3.9847
3.98108
3.97616
3.96948
3.96041
3.94814
3.93155
3.90924
3.87939
3.8398
3.78787
3.72079
3.63584
3.5308
3.40458
3.25782
3.09332
2.9158
2.73103
2.54584
2.36756
2.20352
2.06072
1.94507
1.85677
1.79372
3.99486
3.99482
3.99478
3.99471
3.99463
3.99452
3.99437
3.99417
3.99391
3.99356
3.99309
3.99246
3.99162
3.9905
3.98898
3.98695
3.98421
3.98051
3.97554
3.96884
3.95981
3.94768
3.9314
3.90965
3.88074
3.84264
3.79293
3.72898
3.64822
3.54848
3.42853
3.28863
3.13095
2.95958
2.77974
2.59745
2.41937
2.25226
2.10285
1.97722
1.87875
1.80646
1.75667
1.72359
1.70211
3.99474
3.99467
3.99457
3.99445
3.99428
3.99406
3.99377
3.99339
3.99288
3.9922
3.9913
3.9901
3.9885
3.98636
3.98351
3.9797
3.97459
3.96777
3.95865
3.94648
3.93028
3.90878
3.8804
3.84324
3.79505
3.73338
3.65578
3.5602
3.44538
3.3113
3.1597
2.99408
2.81925
2.64056
2.46397
2.29576
2.14206
2.00899
1.90103
1.8192
1.76089
1.72147
1.69584
1.67978
1.6701
1.66422
3.99461
3.9945
3.99435
3.99417
3.99392
3.99359
3.99317
3.99261
3.99186
3.99088
3.98959
3.98788
3.9856
3.98259
3.97859
3.97329
3.96624
3.9569
3.94452
3.92816
3.90661
3.87839
3.84167
3.79437
3.73419
3.65885
3.56641
3.45562
3.32637
3.18004
3.01967
2.84965
2.6749
2.50074
2.33286
2.17696
2.0387
1.92314
1.8327
1.7663
1.7202
1.68962
1.67007
1.65794
1.65086
1.64695
1.64539
1.64476
3.99402
3.99374
3.99337
3.99289
3.99226
3.99144
3.99036
3.98894
3.98708
3.98463
3.9814
3.97716
3.97156
3.96418
3.95448
3.94171
3.92497
3.90309
3.87464
3.83791
3.79092
3.73153
3.65761
3.56736
3.45961
3.33421
3.19233
3.03665
2.87114
2.70044
2.52928
2.36283
2.2063
2.06489
1.94366
1.84603
1.77225
1.71964
1.68393
1.66064
1.64602
1.6372
1.63217
1.62974
1.62904
1.62926
1.63013
1.63135
3.99351
3.99308
3.99253
3.99182
3.9909
3.98969
3.98812
3.98607
3.98339
3.97989
3.97532
3.96933
3.96151
3.95129
3.93795
3.9206
3.89809
3.86905
3.83185
3.78462
3.72536
3.6521
3.56318
3.45756
3.3351
3.19686
3.04526
2.88393
2.71719
2.54939
2.38514
2.22921
2.08634
1.96132
1.85804
1.7779
1.71927
1.67857
1.6515
1.63417
1.62344
1.61725
1.614
1.61282
1.61262
1.61375
1.61471
1.61648
1.61862
1.62075
3.99126
3.99021
3.98884
3.98708
3.98479
3.98183
3.97798
3.97299
3.96651
3.9581
3.94719
3.93308
3.91486
3.89142
3.86142
3.8233
3.7753
3.71555
3.64223
3.55385
3.44952
3.32918
3.19383
3.04572
2.88819
2.72525
2.56099
2.3995
2.24511
2.10215
1.97498
1.86767
1.78237
1.71847
1.6731
1.64232
1.62225
1.60968
1.60218
1.59804
1.59622
1.59595
1.59648
1.59778
1.5993
1.6015
1.60376
1.60613
1.60861
1.61112
3.98576
3.98317
3.97985
3.97557
3.97005
3.96294
3.95379
3.94201
3.92689
3.90753
3.88283
3.85148
3.81198
3.76268
3.70183
3.62778
3.53922
3.43543
3.31645
3.18332
3.03814
2.88404
2.72475
2.56411
2.40578
2.25366
2.11167
1.98379
1.87395
1.78481
1.71656
1.66708
1.63287
1.61017
1.59569
1.58682
1.58184
1.57945
1.57885
1.57905
1.58049
1.58179
1.58387
1.58631
1.58875
1.59126
1.59396
1.59666
1.59931
1.60185
3.97252
3.96635
3.95845
3.94837
3.9355
3.91911
3.8983
3.87197
3.83886
3.79752
3.74638
3.68384
3.60843
3.51902
3.41508
3.29681
3.16529
3.02256
2.87157
2.71579
2.5588
2.40392
2.25463
2.11449
1.98708
1.8761
1.78442
1.71288
1.65999
1.62276
1.59764
1.58134
1.57125
1.56537
1.56236
1.5613
1.56151
1.56246
1.56417
1.56595
1.56844
1.57096
1.57359
1.57629
1.57915
1.58194
1.58473
1.58746
1.59014
1.5927
3.94157
3.92734
3.90938
3.88677
3.85842
3.82309
3.7794
3.72589
3.66109
3.58371
3.49285
3.38817
3.27006
3.13967
2.99899
2.85084
2.69845
2.54513
2.39394
2.24796
2.11036
1.98442
1.87351
1.78055
1.7068
1.65134
1.61163
1.58442
1.56649
1.55521
1.54846
1.5449
1.54352
1.54356
1.54428
1.54611
1.54775
1.55015
1.55286
1.55554
1.55828
1.56123
1.56418
1.5671
1.57
1.57285
1.57565
1.57839
1.58109
1.58367
3.87243
3.84161
3.80357
3.75702
3.70059
3.63297
3.55307
3.46022
3.35431
3.23592
3.10627
2.96735
2.82187
2.67282
2.52326
2.37596
2.23366
2.09923
1.97557
1.86577
1.77269
1.69781
1.64066
1.59912
1.57025
1.55097
1.53863
1.53118
1.52708
1.52533
1.52509
1.52584
1.52737
1.52937
1.53155
1.53437
1.53711
1.53998
1.54293
1.54602
1.54906
1.55211
1.55513
1.55809
1.56101
1.56388
1.56671
1.56947
1.5722
1.5748
3.72961
3.66971
3.59873
3.51582
3.42053
3.31302
3.19403
3.06489
2.92758
2.78469
2.63901
2.4933
2.35012
2.21185
2.08108
1.96041
1.85264
1.76047
1.68551
1.62757
1.58491
1.55487
1.53456
1.52138
1.51334
1.50879
1.50674
1.50637
1.50707
1.50842
1.51065
1.51263
1.5154
1.51837
1.52129
1.52428
1.52748
1.53067
1.53384
1.537
1.54011
1.54319
1.54623
1.54922
1.55217
1.55507
1.55793
1.56073
1.56348
1.56611
3.47118
3.37313
3.26378
3.14403
3.01531
2.87958
2.73933
2.59711
2.45545
2.3166
2.1827
2.05605
1.93897
1.83402
1.7437
1.66962
1.61178
1.56873
1.53807
1.51711
1.50337
1.49485
1.48996
1.48768
1.48722
1.48783
1.48916
1.4912
1.49355
1.49618
1.49933
1.50228
1.50537
1.50859
1.51191
1.51518
1.51848
1.52175
1.52497
1.52816
1.53132
1.53443
1.5375
1.54053
1.54352
1.54645
1.54934
1.55217
1.55495
1.5576
3.08557
2.95733
2.8233
2.68585
2.54731
2.40992
2.27567
2.14646
2.02435
1.91141
1.80997
1.72232
1.65
1.59311
1.55039
1.51967
1.49848
1.48446
1.47568
1.47061
1.46817
1.46759
1.46815
1.4695
1.47155
1.47407
1.47658
1.47973
1.48292
1.4861
1.48933
1.49278
1.4962
1.49961
1.50301
1.50637
1.50971
1.51301
1.51628
1.51951
1.5227
1.52585
1.52896
1.53203
1.53505
1.53802
1.54094
1.54379
1.5466
1.54928
2.62441
2.48983
2.35699
2.22765
2.10346
1.98628
1.87797
1.78064
1.6964
1.62664
1.57147
1.52977
1.49957
1.47858
1.46458
1.45574
1.45063
1.44813
1.44752
1.44813
1.44953
1.45154
1.45417
1.45675
1.45988
1.46324
1.46648
1.46981
1.47332
1.47687
1.48037
1.48391
1.48742
1.49089
1.49434
1.49774
1.50112
1.50447
1.50778
1.51105
1.51428
1.51748
1.52063
1.52373
1.52679
1.52979
1.53274
1.53561
1.53844
1.54114
2.17291
2.05409
1.94223
1.83899
1.74633
1.66614
1.59965
1.54691
1.50687
1.47771
1.45733
1.44366
1.435
1.43
1.42755
1.42698
1.42769
1.42913
1.43117
1.43376
1.43664
1.43971
1.44324
1.44657
1.44999
1.45354
1.4572
1.46082
1.46447
1.46811
1.47171
1.47529
1.47884
1.48236
1.48585
1.48931
1.49273
1.49612
1.49948
1.5028
1.50607
1.50931
1.5125
1.51564
1.51872
1.52175
1.52473
1.52763
1.53047
1.53319
1.79491
1.70743
1.63188
1.56928
1.51958
1.48175
1.45412
1.43473
1.4217
1.41344
1.40868
1.40641
1.40596
1.40679
1.40832
1.41042
1.4131
1.41614
1.41919
1.42276
1.42631
1.42983
1.43341
1.4372
1.44095
1.44471
1.44847
1.45219
1.4559
1.45958
1.46324
1.46687
1.47047
1.47404
1.47757
1.48108
1.48456
1.48799
1.49139
1.49475
1.49807
1.50134
1.50457
1.50774
1.51086
1.51392
1.51691
1.51983
1.5227
1.52543
1.53585
1.48972
1.4546
1.4289
1.41085
1.39871
1.39104
1.3867
1.3847
1.38445
1.38545
1.38709
1.3893
1.39209
1.39521
1.39842
1.40201
1.40573
1.40934
1.41302
1.41688
1.42076
1.4246
1.42849
1.43235
1.43618
1.43999
1.44378
1.44753
1.45127
1.45498
1.45866
1.46231
1.46593
1.46952
1.47307
1.47659
1.48008
1.48352
1.48692
1.49028
1.49359
1.49684
1.50005
1.50319
1.50627
1.50929
1.51223
1.51511
1.51786
1.40221
1.38579
1.37476
1.36787
1.36406
1.36245
1.36246
1.36368
1.36548
1.36783
1.37072
1.37391
1.37736
1.38096
1.38482
1.38855
1.39233
1.39627
1.40025
1.4042
1.4082
1.41218
1.41613
1.42007
1.42398
1.42787
1.43173
1.43557
1.43939
1.44317
1.44693
1.45067
1.45437
1.45804
1.46168
1.46528
1.46885
1.47238
1.47586
1.4793
1.48269
1.48603
1.48932
1.49256
1.49573
1.49883
1.50187
1.50483
1.50772
1.51047
1.34397
1.34082
1.33966
1.34001
1.34149
1.34351
1.346
1.34902
1.35235
1.35596
1.35961
1.36359
1.36747
1.37134
1.37534
1.37944
1.38351
1.38761
1.39171
1.39577
1.39983
1.40386
1.40788
1.41187
1.41583
1.41978
1.4237
1.42759
1.43146
1.4353
1.43912
1.4429
1.44666
1.45038
1.45406
1.45771
1.46132
1.46489
1.46841
1.47189
1.47531
1.47869
1.48201
1.48527
1.48846
1.49159
1.49464
1.49761
1.50051
1.50328
1.31639
1.31714
1.31889
1.32114
1.32381
1.32697
1.33046
1.33415
1.33801
1.34208
1.3461
1.35006
1.35412
1.35834
1.36252
1.36672
1.37093
1.37512
1.37929
1.38344
1.38757
1.39168
1.39577
1.39984
1.40389
1.40791
1.41192
1.41589
1.41984
1.42377
1.42766
1.43153
1.43536
1.43916
1.44293
1.44666
1.45035
1.454
1.45761
1.46117
1.46468
1.46814
1.47155
1.47489
1.47818
1.48139
1.48454
1.48761
1.49059
1.4935
1.49627
1.2984
1.30126
1.3046
1.30826
1.31206
1.31611
1.32025
1.32438
1.32848
1.33263
1.33696
1.34126
1.34555
1.34987
1.35417
1.35845
1.36272
1.36697
1.3712
1.37541
1.3796
1.38377
1.38792
1.39204
1.39615
1.40023
1.40428
1.40832
1.41232
1.4163
1.42024
1.42416
1.42804
1.43189
1.4357
1.43948
1.44321
1.4469
1.45054
1.45414
1.45768
1.46117
1.46461
1.46798
1.47128
1.47452
1.47768
1.48076
1.48376
1.48667
1.48944
1.28193
1.28575
1.28971
1.29388
1.29816
1.30239
1.30663
1.31089
1.3153
1.3197
1.32409
1.32853
1.33294
1.33734
1.34172
1.34608
1.35042
1.35475
1.35906
1.36334
1.36761
1.37186
1.37609
1.38029
1.38448
1.38864
1.39277
1.39688
1.40097
1.40502
1.40905
1.41305
1.41701
1.42094
1.42483
1.42869
1.4325
1.43628
1.44
1.44368
1.44731
1.45089
1.45441
1.45787
1.46126
1.46459
1.46784
1.47102
1.47411
1.47711
1.48002
1.4828
1.27136
1.2758
1.28015
1.28449
1.28887
1.29338
1.29789
1.30239
1.30692
1.31144
1.31594
1.32043
1.32491
1.32937
1.33381
1.33823
1.34263
1.34701
1.35138
1.35572
1.36005
1.36436
1.36864
1.3729
1.37714
1.38136
1.38555
1.38971
1.39384
1.39795
1.40203
1.40607
1.41008
1.41405
1.41799
1.42189
1.42574
1.42955
1.43332
1.43703
1.44069
1.4443
1.44784
1.45132
1.45474
1.45808
1.46135
1.46454
1.46764
1.47064
1.47356
1.47634
1.26209
1.2666
1.27121
1.27582
1.28043
1.28506
1.28968
1.29429
1.29889
1.30347
1.30803
1.31258
1.31712
1.32163
1.32613
1.33061
1.33507
1.33951
1.34394
1.34834
1.35272
1.35709
1.36143
1.36574
1.37004
1.3743
1.37854
1.38276
1.38694
1.3911
1.39522
1.39931
1.40336
1.40738
1.41136
1.4153
1.41919
1.42304
1.42683
1.43058
1.43427
1.4379
1.44147
1.44498
1.44841
1.45177
1.45505
1.45825
1.46135
1.46436
1.46727
1.47004
1.2535
1.25821
1.26295
1.26767
1.27238
1.27709
1.28177
1.28644
1.2911
1.29574
1.30036
1.30497
1.30956
1.31414
1.31869
1.32323
1.32775
1.33225
1.33673
1.34119
1.34563
1.35005
1.35444
1.35881
1.36315
1.36747
1.37176
1.37603
1.38026
1.38446
1.38863
1.39276
1.39686
1.40092
1.40494
1.40891
1.41284
1.41672
1.42055
1.42433
1.42804
1.4317
1.43529
1.43882
1.44227
1.44564
1.44893
1.45214
1.45525
1.45825
1.46116
1.46392
1.24542
1.25023
1.25504
1.25983
1.2646
1.26937
1.27411
1.27884
1.28355
1.28825
1.29293
1.2976
1.30225
1.30688
1.31149
1.31609
1.32066
1.32522
1.32975
1.33427
1.33876
1.34323
1.34768
1.3521
1.35649
1.36086
1.3652
1.36951
1.37379
1.37804
1.38225
1.38643
1.39056
1.39466
1.39872
1.40273
1.40669
1.4106
1.41446
1.41827
1.42201
1.42569
1.42931
1.43285
1.43631
1.4397
1.443
1.4462
1.44931
1.45231
1.45521
1.45796
1.23765
1.24252
1.24739
1.25223
1.25707
1.26188
1.26669
1.27147
1.27624
1.281
1.28574
1.29046
1.29517
1.29986
1.30452
1.30917
1.3138
1.31841
1.323
1.32757
1.33212
1.33664
1.34113
1.3456
1.35005
1.35446
1.35885
1.36321
1.36753
1.37182
1.37608
1.38029
1.38447
1.38861
1.3927
1.39674
1.40074
1.40468
1.40857
1.4124
1.41617
1.41987
1.4235
1.42706
1.43054
1.43393
1.43723
1.44044
1.44355
1.44654
1.44943
1.45216
1.23012
1.23505
1.23998
1.24488
1.24977
1.25464
1.2595
1.26435
1.26917
1.27399
1.27878
1.28356
1.28832
1.29306
1.29778
1.30249
1.30717
1.31184
1.31648
1.3211
1.32569
1.33026
1.33481
1.33933
1.34382
1.34828
1.35271
1.35711
1.36148
1.36581
1.3701
1.37436
1.37858
1.38275
1.38687
1.39095
1.39498
1.39895
1.40286
1.40672
1.41051
1.41423
1.41788
1.42144
1.42493
1.42833
1.43164
1.43484
1.43794
1.44092
1.44379
1.44651
1.22783
1.2328
1.23776
1.24271
1.24764
1.25255
1.25745
1.26234
1.2672
1.27205
1.27688
1.2817
1.28649
1.29127
1.29602
1.30076
1.30547
1.31017
1.31483
1.31948
1.3241
1.32869
1.33326
1.33779
1.3423
1.34677
1.35122
1.35563
1.36
1.36433
1.36863
1.37288
1.37708
1.38124
1.38535
1.3894
1.3934
1.39734
1.40122
1.40503
1.40876
1.41242
1.416
1.41949
1.4229
1.4262
1.4294
1.43249
1.43545
1.43831
1.44099
1.22084
1.22587
1.23088
1.23588
1.24087
1.24584
1.25079
1.25572
1.26064
1.26555
1.27043
1.2753
1.28014
1.28497
1.28978
1.29456
1.29933
1.30407
1.30878
1.31347
1.31814
1.32278
1.32739
1.33197
1.33652
1.34104
1.34552
1.34997
1.35438
1.35875
1.36308
1.36737
1.37161
1.3758
1.37993
1.38401
1.38804
1.392
1.39589
1.39972
1.40347
1.40714
1.41072
1.41422
1.41762
1.42092
1.4241
1.42718
1.43013
1.43295
1.43561
1.21408
1.21916
1.22423
1.22928
1.23432
1.23934
1.24435
1.24934
1.25431
1.25926
1.2642
1.26911
1.27401
1.27889
1.28374
1.28857
1.29339
1.29817
1.30294
1.30767
1.31239
1.31707
1.32172
1.32635
1.33094
1.3355
1.34002
1.34451
1.34896
1.35336
1.35773
1.36204
1.36631
1.37053
1.37469
1.3788
1.38284
1.38682
1.39074
1.39457
1.39833
1.40201
1.4056
1.40909
1.41249
1.41578
1.41895
1.42201
1.42493
1.42773
1.43035
1.21268
1.2178
1.22291
1.228
1.23307
1.23813
1.24316
1.24819
1.25319
1.25817
1.26314
1.26808
1.27301
1.27791
1.28279
1.28765
1.29248
1.29729
1.30207
1.30683
1.31156
1.31625
1.32092
1.32555
1.33015
1.33471
1.33923
1.34371
1.34815
1.35255
1.3569
1.36119
1.36544
1.36963
1.37375
1.37782
1.38181
1.38574
1.38959
1.39335
1.39703
1.40062
1.40411
1.4075
1.41077
1.41393
1.41696
1.41986
1.42262
1.4252
1.20642
1.21159
1.21675
1.22189
1.22701
1.23211
1.2372
1.24227
1.24732
1.25236
1.25737
1.26236
1.26733
1.27228
1.27721
1.28211
1.28699
1.29184
1.29667
1.30146
1.30623
1.31097
1.31567
1.32034
1.32498
1.32958
1.33413
1.33865
1.34312
1.34755
1.35192
1.35625
1.36051
1.36472
1.36887
1.37295
1.37696
1.3809
1.38475
1.38852
1.3922
1.39579
1.39927
1.40264
1.4059
1.40903
1.41203
1.41489
1.41762
1.42015
1.20037
1.20559
1.2108
1.21599
1.22116
1.22631
1.23145
1.23656
1.24166
1.24674
1.2518
1.25684
1.26186
1.26685
1.27182
1.27677
1.28169
1.28658
1.29145
1.29629
1.3011
1.30587
1.31061
1.31532
1.31999
1.32462
1.32921
1.33376
1.33826
1.34271
1.34711
1.35146
1.35575
1.35998
1.36414
1.36824
1.37226
1.3762
1.38006
1.38383
1.3875
1.39108
1.39455
1.3979
1.40113
1.40424
1.40721
1.41003
1.4127
1.41519
1.19454
1.1998
1.20506
1.21029
1.21551
1.22071
1.22589
1.23105
1.2362
1.24132
1.24643
1.25151
1.25657
1.26161
1.26662
1.27161
1.27657
1.28151
1.28641
1.29129
1.29614
1.30095
1.30573
1.31047
1.31517
1.31984
1.32446
1.32903
1.33356
1.33804
1.34246
1.34683
1.35114
1.35538
1.35956
1.36366
1.36769
1.37163
1.37549
1.37926
1.38293
1.38649
1.38994
1.39327
1.39647
1.39954
1.40247
1.40525
1.40787
1.41029
1.1889
1.19421
1.19951
1.20479
1.21006
1.2153
1.22053
1.22574
1.23093
1.23609
1.24124
1.24637
1.25147
1.25655
1.2616
1.26663
1.27164
1.27661
1.28156
1.28647
1.29135
1.2962
1.30101
1.30579
1.31052
1.31521
1.31986
1.32447
1.32902
1.33352
1.33796
1.34235
1.34667
1.35093
1.35511
1.35922
1.36325
1.3672
1.37105
1.37481
1.37846
1.382
1.38543
1.38873
1.3919
1.39493
1.39781
1.40054
1.4031
1.40546
1.18346
1.18882
1.19416
1.19949
1.2048
1.21008
1.21536
1.22061
1.22584
1.23105
1.23624
1.24141
1.24655
1.25167
1.25676
1.26183
1.26687
1.27188
1.27687
1.28182
1.28673
1.29161
1.29646
1.30126
1.30603
1.31075
1.31542
1.32005
1.32462
1.32914
1.3336
1.338
1.34234
1.3466
1.35079
1.35491
1.35893
1.36287
1.36672
1.37046
1.37409
1.37761
1.38101
1.38428
1.38741
1.39039
1.39322
1.39588
1.39838
1.40066
1.17821
1.18361
1.189
1.19437
1.19972
1.20505
1.21036
1.21566
1.22093
1.22618
1.23141
1.23662
1.2418
1.24696
1.25209
1.2572
1.26228
1.26732
1.27234
1.27732
1.28227
1.28718
1.29206
1.29689
1.30168
1.30643
1.31112
1.31577
1.32036
1.3249
1.32937
1.33379
1.33813
1.3424
1.34659
1.3507
1.35472
1.35865
1.36248
1.3662
1.36981
1.3733
1.37667
1.37989
1.38298
1.38591
1.38868
1.39127
1.39369
1.39589
1.17859
1.18402
1.18943
1.19482
1.2002
1.20555
1.21088
1.2162
1.22149
1.22676
1.232
1.23722
1.24242
1.24759
1.25273
1.25784
1.26292
1.26797
1.27298
1.27796
1.2829
1.2878
1.29266
1.29748
1.30224
1.30696
1.31163
1.31623
1.32078
1.32527
1.32969
1.33403
1.3383
1.34249
1.34659
1.35061
1.35452
1.35833
1.36203
1.36561
1.36906
1.37239
1.37556
1.37859
1.38146
1.38417
1.38669
1.38902
1.39114
1.17375
1.17921
1.18467
1.1901
1.19551
1.2009
1.20628
1.21163
1.21696
1.22226
1.22755
1.2328
1.23803
1.24324
1.24841
1.25355
1.25867
1.26375
1.26879
1.27379
1.27876
1.28369
1.28857
1.2934
1.29819
1.30292
1.3076
1.31222
1.31678
1.32127
1.32569
1.33004
1.3343
1.33849
1.34258
1.34657
1.35047
1.35425
1.35792
1.36146
1.36488
1.36815
1.37128
1.37425
1.37705
1.37967
1.38211
1.38435
1.38637
1.16907
1.17458
1.18007
1.18554
1.19099
1.19642
1.20183
1.20722
1.21259
1.21793
1.22324
1.22854
1.2338
1.23903
1.24424
1.24941
1.25455
1.25966
1.26473
1.26976
1.27475
1.2797
1.2846
1.28945
1.29425
1.299
1.30369
1.30832
1.31288
1.31737
1.32179
1.32613
1.33039
1.33456
1.33864
1.34261
1.34648
1.35023
1.35386
1.35736
1.36073
1.36395
1.36701
1.36991
1.37263
1.37517
1.37752
1.37966
1.38157
1.1701
1.17563
1.18114
1.18663
1.1921
1.19754
1.20297
1.20836
1.21374
1.21909
1.22441
1.22971
1.23497
1.24021
1.24541
1.25057
1.25571
1.2608
1.26585
1.27086
1.27583
1.28074
1.28561
1.29042
1.29518
1.29987
1.30451
1.30907
1.31356
1.31798
1.32231
1.32655
1.3307
1.33476
1.3387
1.34254
1.34625
1.34984
1.35329
1.3566
1.35975
1.36274
1.36557
1.36821
1.37066
1.3729
1.37494
1.37673
1.16579
1.17135
1.17689
1.18242
1.18792
1.1934
1.19885
1.20429
1.20969
1.21507
1.22042
1.22575
1.23104
1.2363
1.24153
1.24672
1.25187
1.25698
1.26206
1.26708
1.27206
1.27699
1.28187
1.28669
1.29145
1.29615
1.30078
1.30534
1.30983
1.31423
1.31854
1.32277
1.3269
1.33092
1.33483
1.33862
1.34229
1.34583
1.34923
1.35247
1.35556
1.35847
1.36121
1.36376
1.36611
1.36825
1.37017
1.37184
1.16721
1.17279
1.17835
1.18388
1.18939
1.19488
1.20034
1.20578
1.21119
1.21656
1.22191
1.22723
1.23251
1.23776
1.24297
1.24815
1.25328
1.25836
1.2634
1.2684
1.27334
1.27822
1.28304
1.28781
1.2925
1.29713
1.30168
1.30615
1.31053
1.31483
1.31902
1.32312
1.32711
1.33098
1.33473
1.33835
1.34183
1.34516
1.34834
1.35135
1.35418
1.35683
1.35928
1.36152
1.36354
1.36534
1.36687
1.16322
1.16883
1.17441
1.17998
1.18552
1.19103
1.19652
1.20198
1.20742
1.21282
1.21819
1.22353
1.22884
1.23411
1.23933
1.24452
1.24967
1.25477
1.25982
1.26481
1.26976
1.27464
1.27947
1.28422
1.28891
1.29352
1.29806
1.30251
1.30687
1.31114
1.31531
1.31937
1.32332
1.32715
1.33084
1.33441
1.33782
1.34108
1.34418
1.34711
1.34985
1.35239
1.35473
1.35686
1.35876
1.36042
1.36181
1.16499
1.1706
1.1762
1.18176
1.1873
1.19282
1.19831
1.20376
1.20919
1.21458
1.21994
1.22526
1.23055
1.23579
1.24099
1.24614
1.25125
1.2563
1.2613
1.26624
1.27113
1.27594
1.28069
1.28537
1.28997
1.29448
1.29891
1.30325
1.30748
1.31161
1.31563
1.31953
1.32331
1.32695
1.33044
1.33379
1.33697
1.33998
1.34282
1.34546
1.34789
1.35012
1.35212
1.35388
1.3554
1.35664
1.16127
1.16691
1.17253
1.17812
1.18369
1.18922
1.19473
1.20021
1.20565
1.21106
1.21644
1.22177
1.22707
1.23232
1.23753
1.24268
1.24779
1.25285
1.25785
1.26278
1.26766
1.27247
1.2772
1.28186
1.28644
1.29093
1.29533
1.29963
1.30383
1.30792
1.31189
1.31574
1.31945
1.32302
1.32645
1.32971
1.33281
1.33573
1.33846
1.34099
1.34331
1.34541
1.34728
1.3489
1.35026
1.35134
1.15766
1.16333
1.16897
1.17458
1.18017
1.18573
1.19125
1.19674
1.2022
1.20763
1.21301
1.21835
1.22366
1.22891
1.23412
1.23929
1.24439
1.24944
1.25444
1.25937
1.26423
1.26902
1.27374
1.27837
1.28292
1.28739
1.29175
1.29601
1.30017
1.30421
1.30812
1.31191
1.31556
1.31906
1.3224
1.32558
1.32858
1.3314
1.33402
1.33644
1.33863
1.3406
1.34232
1.34379
1.345
1.3459
1.15416
1.15984
1.1655
1.17113
1.17674
1.18231
1.18785
1.19335
1.19882
1.20426
1.20965
1.215
1.22031
1.22557
1.23078
1.23593
1.24104
1.24608
1.25106
1.25598
1.26082
1.26559
1.27029
1.2749
1.27941
1.28384
1.28816
1.29238
1.29648
1.30047
1.30432
1.30804
1.31161
1.31503
1.31829
1.32138
1.32428
1.32699
1.32949
1.33178
1.33384
1.33567
1.33724
1.33855
1.33958
1.34031
1.15074
1.15644
1.16212
1.16776
1.17338
1.17896
1.18451
1.19003
1.19551
1.20095
1.20634
1.2117
1.217
1.22226
1.22747
1.23262
1.23771
1.24274
1.24771
1.2526
1.25743
1.26217
1.26684
1.27141
1.27589
1.28027
1.28455
1.28871
1.29276
1.29668
1.30047
1.30411
1.3076
1.31094
1.3141
1.31708
1.31988
1.32247
1.32485
1.327
1.32892
1.3306
1.33201
1.33315
1.33401
1.33454
1.14739
1.15311
1.1588
1.16446
1.17009
1.17568
1.18124
1.18676
1.19224
1.19769
1.20308
1.20843
1.21374
1.21899
1.22418
1.22932
1.2344
1.23942
1.24436
1.24923
1.25403
1.25874
1.26337
1.2679
1.27234
1.27667
1.2809
1.285
1.28898
1.29284
1.29655
1.30011
1.30351
1.30675
1.30981
1.31269
1.31536
1.31783
1.32008
1.32209
1.32386
1.32537
1.32662
1.32758
1.32825
1.32859
1.14412
1.14985
1.15555
1.16122
1.16685
1.17245
1.17801
1.18354
1.18902
1.19446
1.19985
1.2052
1.21049
1.21573
1.22091
1.22604
1.23109
1.23609
1.241
1.24585
1.25061
1.25529
1.25987
1.26436
1.26875
1.27303
1.27719
1.28123
1.28514
1.28892
1.29254
1.29602
1.29933
1.30246
1.30541
1.30817
1.31072
1.31306
1.31517
1.31703
1.31864
1.31999
1.32106
1.32183
1.32231
1.32245
1.14664
1.15235
1.15802
1.16366
1.16926
1.17482
1.18034
1.18582
1.19126
1.19664
1.20197
1.20726
1.21248
1.21764
1.22274
1.22778
1.23274
1.23763
1.24243
1.24716
1.25179
1.25633
1.26077
1.2651
1.26931
1.27341
1.27738
1.28122
1.28491
1.28845
1.29182
1.29503
1.29806
1.30089
1.30353
1.30595
1.30814
1.3101
1.31181
1.31325
1.31442
1.31531
1.31589
1.31617
1.31609
1.14347
1.14918
1.15486
1.1605
1.16609
1.17165
1.17717
1.18264
1.18806
1.19343
1.19875
1.20401
1.20922
1.21436
1.21943
1.22443
1.22936
1.23421
1.23898
1.24366
1.24824
1.25273
1.25711
1.26138
1.26553
1.26955
1.27344
1.27719
1.28079
1.28424
1.28751
1.29061
1.29352
1.29623
1.29873
1.30102
1.30306
1.30486
1.30641
1.30768
1.30867
1.30936
1.30974
1.30981
1.30951
1.14034
1.14605
1.15172
1.15735
1.16294
1.16849
1.174
1.17946
1.18486
1.19022
1.19552
1.20076
1.20593
1.21104
1.21609
1.22105
1.22594
1.23075
1.23547
1.2401
1.24463
1.24906
1.25337
1.25757
1.26165
1.26559
1.2694
1.27306
1.27657
1.27991
1.28307
1.28605
1.28884
1.29142
1.29378
1.29592
1.29781
1.29945
1.30082
1.30191
1.30271
1.30321
1.30338
1.30322
1.3027
1.14292
1.14859
1.15421
1.15979
1.16533
1.17082
1.17626
1.18165
1.18698
1.19225
1.19747
1.20261
1.20769
1.21269
1.21762
1.22247
1.22723
1.2319
1.23647
1.24094
1.2453
1.24954
1.25367
1.25767
1.26153
1.26524
1.26881
1.27221
1.27544