/*--------------------------------*- C++ -*----------------------------------*\
| =========                 |                                                 |
| \\      /  F ield         | OpenFOAM: The Open Source CFD Toolbox           |
|  \\    /   O peration     | Version:  v1706                                 |
|   \\  /    A nd           | Web:      www.OpenFOAM.com                      |
|    \\/     M anipulation  |                                                 |
\*---------------------------------------------------------------------------*/
FoamFile
{
    version     2.0;
    format      ascii;
    class       volScalarField;
    location    "3.5e-05";
    object      mu;
}
// * * * * * * * * * * * * * * * * * * * * * * * * * * * * * * * * * * * * * //

dimensions      [1 -1 -1 0 0 0 0];


internalField   nonuniform List<scalar> 
30038
(
1.0351e-05
1.0351e-05
1.0351e-05
1.0351e-05
1.0351e-05
1.0351e-05
1.0351e-05
1.0351e-05
1.0351e-05
1.0351e-05
1.0351e-05
1.0351e-05
1.0351e-05
1.0351e-05
1.0351e-05
1.0351e-05
1.0351e-05
1.0351e-05
1.0351e-05
1.0351e-05
1.0351e-05
1.0351e-05
1.0351e-05
1.0351e-05
1.0351e-05
1.0351e-05
1.0351e-05
1.0351e-05
1.0351e-05
1.0351e-05
1.0351e-05
1.0351e-05
1.0351e-05
1.0351e-05
1.0351e-05
1.0351e-05
1.0351e-05
1.0351e-05
1.0351e-05
1.0351e-05
1.0351e-05
1.0351e-05
1.0351e-05
1.0351e-05
1.0351e-05
1.0351e-05
1.0351e-05
1.0351e-05
1.0351e-05
1.0351e-05
1.0351e-05
1.0351e-05
1.0351e-05
1.0351e-05
1.0351e-05
1.0351e-05
1.0351e-05
1.0351e-05
1.0351e-05
1.0351e-05
1.0351e-05
1.0351e-05
1.0351e-05
1.0351e-05
1.0351e-05
1.0351e-05
1.0351e-05
1.0351e-05
1.0351e-05
1.0351e-05
1.0351e-05
1.0351e-05
1.0351e-05
1.0351e-05
1.0351e-05
1.0351e-05
1.0351e-05
1.0351e-05
1.0351e-05
1.0351e-05
1.0351e-05
1.0351e-05
1.0351e-05
1.0351e-05
1.0351e-05
1.0351e-05
1.0351e-05
1.0351e-05
1.0351e-05
1.0351e-05
1.0351e-05
1.0351e-05
1.0351e-05
1.0351e-05
1.0351e-05
1.0351e-05
1.0351e-05
1.0351e-05
1.0351e-05
1.0351e-05
1.0351e-05
1.0351e-05
1.0351e-05
1.0351e-05
1.0351e-05
1.0351e-05
1.0351e-05
1.0351e-05
1.0351e-05
1.0351e-05
1.0351e-05
1.0351e-05
1.0351e-05
1.0351e-05
1.0351e-05
1.0351e-05
1.0351e-05
1.0351e-05
1.0351e-05
1.0351e-05
1.0351e-05
1.0351e-05
1.0351e-05
1.0351e-05
1.0351e-05
1.0351e-05
1.0351e-05
1.0351e-05
1.0351e-05
1.0351e-05
1.0351e-05
1.0351e-05
1.0351e-05
1.0351e-05
1.0351e-05
1.0351e-05
1.0351e-05
1.0351e-05
1.0351e-05
1.0351e-05
1.0351e-05
1.0351e-05
1.0351e-05
1.0351e-05
1.0351e-05
1.0351e-05
1.0351e-05
1.0351e-05
1.0351e-05
1.0351e-05
1.0351e-05
1.0351e-05
1.0351e-05
1.0351e-05
1.0351e-05
1.0351e-05
1.0351e-05
1.0351e-05
1.0351e-05
1.0351e-05
1.0351e-05
1.0351e-05
1.0351e-05
1.0351e-05
1.0351e-05
1.0351e-05
1.0351e-05
1.0351e-05
1.0351e-05
1.0351e-05
1.0351e-05
1.0351e-05
1.0351e-05
1.0351e-05
1.0351e-05
1.0351e-05
1.0351e-05
1.0351e-05
1.0351e-05
1.0351e-05
1.0351e-05
1.0351e-05
1.0351e-05
1.0351e-05
1.0351e-05
1.0351e-05
1.0351e-05
1.0351e-05
1.0351e-05
1.0351e-05
1.0351e-05
1.0351e-05
1.0351e-05
1.0351e-05
1.0351e-05
1.0351e-05
1.0351e-05
1.0351e-05
1.0351e-05
1.0351e-05
1.0351e-05
1.0351e-05
1.0351e-05
1.0351e-05
1.0351e-05
1.0351e-05
1.0351e-05
1.0351e-05
1.0351e-05
1.0351e-05
1.0351e-05
1.0351e-05
1.0351e-05
1.0351e-05
1.0351e-05
1.0351e-05
1.0351e-05
1.0351e-05
1.0351e-05
1.0351e-05
1.0351e-05
1.0351e-05
1.0351e-05
1.0351e-05
1.0351e-05
1.0351e-05
1.0351e-05
1.0351e-05
1.0351e-05
1.0351e-05
1.0351e-05
1.0351e-05
1.0351e-05
1.0351e-05
1.0351e-05
1.0351e-05
1.0351e-05
1.0351e-05
1.0351e-05
1.0351e-05
1.0351e-05
1.0351e-05
1.0351e-05
1.0351e-05
1.0351e-05
1.0351e-05
1.0351e-05
1.0351e-05
1.0351e-05
1.0351e-05
1.0351e-05
1.0351e-05
1.0351e-05
1.0351e-05
1.0351e-05
1.0351e-05
1.0351e-05
1.0351e-05
1.0351e-05
1.0351e-05
1.0351e-05
1.0351e-05
1.0351e-05
1.0351e-05
1.0351e-05
1.0351e-05
1.0351e-05
1.0351e-05
1.0351e-05
1.0351e-05
1.0351e-05
1.0351e-05
1.0351e-05
1.0351e-05
1.0351e-05
1.0351e-05
1.0351e-05
1.0351e-05
1.0351e-05
1.0351e-05
1.0351e-05
1.0351e-05
1.0351e-05
1.0351e-05
1.0351e-05
1.0351e-05
1.0351e-05
1.0351e-05
1.0351e-05
1.0351e-05
1.0351e-05
1.0351e-05
1.0351e-05
1.0351e-05
1.0351e-05
1.0351e-05
1.0351e-05
1.0351e-05
1.0351e-05
1.0351e-05
1.0351e-05
1.0351e-05
1.0351e-05
1.0351e-05
1.0351e-05
1.0351e-05
1.0351e-05
1.0351e-05
1.0351e-05
1.0351e-05
1.0351e-05
1.0351e-05
1.0351e-05
1.0351e-05
1.0351e-05
1.0351e-05
1.0351e-05
1.0351e-05
1.0351e-05
1.0351e-05
1.0351e-05
1.0351e-05
1.0351e-05
1.0351e-05
1.0351e-05
1.0351e-05
1.0351e-05
1.0351e-05
1.0351e-05
1.0351e-05
1.0351e-05
1.0351e-05
1.0351e-05
1.0351e-05
1.0351e-05
1.0351e-05
1.0351e-05
1.0351e-05
1.0351e-05
1.0351e-05
1.0351e-05
1.0351e-05
1.0351e-05
1.0351e-05
1.0351e-05
1.0351e-05
1.0351e-05
1.0351e-05
1.0351e-05
1.0351e-05
1.0351e-05
1.0351e-05
1.0351e-05
1.0351e-05
1.0351e-05
1.0351e-05
1.0351e-05
1.0351e-05
1.0351e-05
1.0351e-05
1.0351e-05
1.0351e-05
1.0351e-05
1.0351e-05
1.0351e-05
1.0351e-05
1.0351e-05
1.0351e-05
1.0351e-05
1.0351e-05
1.0351e-05
1.0351e-05
1.0351e-05
1.0351e-05
1.0351e-05
1.0351e-05
1.0351e-05
1.0351e-05
1.0351e-05
1.0351e-05
1.03511e-05
1.03511e-05
1.0351e-05
1.0351e-05
1.0351e-05
1.0351e-05
1.0351e-05
1.0351e-05
1.0351e-05
1.0351e-05
1.0351e-05
1.0351e-05
1.0351e-05
1.0351e-05
1.0351e-05
1.0351e-05
1.0351e-05
1.0351e-05
1.0351e-05
1.0351e-05
1.0351e-05
1.0351e-05
1.0351e-05
1.0351e-05
1.0351e-05
1.0351e-05
1.0351e-05
1.0351e-05
1.0351e-05
1.0351e-05
1.0351e-05
1.0351e-05
1.0351e-05
1.0351e-05
1.0351e-05
1.0351e-05
1.03511e-05
1.03511e-05
1.03511e-05
1.03512e-05
1.03513e-05
1.0351e-05
1.0351e-05
1.0351e-05
1.0351e-05
1.0351e-05
1.0351e-05
1.0351e-05
1.0351e-05
1.0351e-05
1.0351e-05
1.0351e-05
1.0351e-05
1.0351e-05
1.0351e-05
1.0351e-05
1.0351e-05
1.0351e-05
1.0351e-05
1.0351e-05
1.0351e-05
1.0351e-05
1.0351e-05
1.0351e-05
1.0351e-05
1.0351e-05
1.0351e-05
1.0351e-05
1.0351e-05
1.0351e-05
1.0351e-05
1.0351e-05
1.0351e-05
1.03511e-05
1.03511e-05
1.03511e-05
1.03512e-05
1.03513e-05
1.03514e-05
1.03516e-05
1.03518e-05
1.0351e-05
1.0351e-05
1.0351e-05
1.0351e-05
1.0351e-05
1.0351e-05
1.0351e-05
1.0351e-05
1.0351e-05
1.0351e-05
1.0351e-05
1.0351e-05
1.0351e-05
1.0351e-05
1.0351e-05
1.0351e-05
1.0351e-05
1.0351e-05
1.0351e-05
1.0351e-05
1.0351e-05
1.0351e-05
1.0351e-05
1.0351e-05
1.0351e-05
1.0351e-05
1.0351e-05
1.0351e-05
1.0351e-05
1.03511e-05
1.03511e-05
1.03511e-05
1.03512e-05
1.03513e-05
1.03514e-05
1.03515e-05
1.03518e-05
1.03521e-05
1.03527e-05
1.03534e-05
1.0351e-05
1.0351e-05
1.0351e-05
1.0351e-05
1.0351e-05
1.0351e-05
1.0351e-05
1.0351e-05
1.0351e-05
1.0351e-05
1.0351e-05
1.0351e-05
1.0351e-05
1.0351e-05
1.0351e-05
1.0351e-05
1.0351e-05
1.0351e-05
1.0351e-05
1.0351e-05
1.0351e-05
1.0351e-05
1.0351e-05
1.0351e-05
1.0351e-05
1.0351e-05
1.03511e-05
1.03511e-05
1.03511e-05
1.03512e-05
1.03512e-05
1.03514e-05
1.03515e-05
1.03517e-05
1.03521e-05
1.03525e-05
1.03532e-05
1.03542e-05
1.03557e-05
1.03579e-05
1.0351e-05
1.0351e-05
1.0351e-05
1.0351e-05
1.0351e-05
1.0351e-05
1.0351e-05
1.0351e-05
1.0351e-05
1.0351e-05
1.0351e-05
1.0351e-05
1.0351e-05
1.0351e-05
1.0351e-05
1.0351e-05
1.0351e-05
1.0351e-05
1.0351e-05
1.0351e-05
1.0351e-05
1.0351e-05
1.0351e-05
1.03511e-05
1.03511e-05
1.03511e-05
1.03512e-05
1.03512e-05
1.03514e-05
1.03515e-05
1.03517e-05
1.0352e-05
1.03525e-05
1.03531e-05
1.0354e-05
1.03553e-05
1.03573e-05
1.03601e-05
1.03642e-05
1.03703e-05
1.0351e-05
1.0351e-05
1.0351e-05
1.0351e-05
1.0351e-05
1.0351e-05
1.0351e-05
1.0351e-05
1.0351e-05
1.0351e-05
1.0351e-05
1.0351e-05
1.0351e-05
1.0351e-05
1.0351e-05
1.0351e-05
1.0351e-05
1.0351e-05
1.0351e-05
1.0351e-05
1.03511e-05
1.03511e-05
1.03511e-05
1.03512e-05
1.03513e-05
1.03514e-05
1.03515e-05
1.03517e-05
1.0352e-05
1.03524e-05
1.0353e-05
1.03539e-05
1.03551e-05
1.03569e-05
1.03594e-05
1.03631e-05
1.03684e-05
1.03761e-05
1.03873e-05
1.04037e-05
1.0351e-05
1.0351e-05
1.0351e-05
1.0351e-05
1.0351e-05
1.0351e-05
1.0351e-05
1.0351e-05
1.0351e-05
1.0351e-05
1.0351e-05
1.0351e-05
1.0351e-05
1.0351e-05
1.0351e-05
1.0351e-05
1.03511e-05
1.03511e-05
1.03511e-05
1.03511e-05
1.03512e-05
1.03513e-05
1.03514e-05
1.03515e-05
1.03517e-05
1.0352e-05
1.03524e-05
1.0353e-05
1.03538e-05
1.0355e-05
1.03566e-05
1.0359e-05
1.03624e-05
1.03672e-05
1.03742e-05
1.03841e-05
1.03984e-05
1.0419e-05
1.04486e-05
1.04917e-05
1.0351e-05
1.0351e-05
1.0351e-05
1.0351e-05
1.0351e-05
1.0351e-05
1.0351e-05
1.0351e-05
1.0351e-05
1.0351e-05
1.0351e-05
1.0351e-05
1.0351e-05
1.03511e-05
1.03511e-05
1.03511e-05
1.03511e-05
1.03512e-05
1.03513e-05
1.03514e-05
1.03515e-05
1.03517e-05
1.0352e-05
1.03524e-05
1.0353e-05
1.03538e-05
1.03549e-05
1.03565e-05
1.03587e-05
1.03619e-05
1.03664e-05
1.03729e-05
1.0382e-05
1.03949e-05
1.04134e-05
1.04397e-05
1.04772e-05
1.05306e-05
1.06066e-05
1.07147e-05
1.0351e-05
1.0351e-05
1.0351e-05
1.0351e-05
1.0351e-05
1.0351e-05
1.0351e-05
1.0351e-05
1.0351e-05
1.0351e-05
1.0351e-05
1.03511e-05
1.03511e-05
1.03511e-05
1.03512e-05
1.03512e-05
1.03513e-05
1.03514e-05
1.03515e-05
1.03518e-05
1.0352e-05
1.03525e-05
1.0353e-05
1.03538e-05
1.03549e-05
1.03564e-05
1.03586e-05
1.03617e-05
1.03659e-05
1.0372e-05
1.03805e-05
1.03925e-05
1.04095e-05
1.04335e-05
1.04674e-05
1.05152e-05
1.05825e-05
1.06771e-05
1.08091e-05
1.0992e-05
1.12426e-05
1.0351e-05
1.0351e-05
1.0351e-05
1.0351e-05
1.0351e-05
1.0351e-05
1.0351e-05
1.03511e-05
1.03511e-05
1.03511e-05
1.03511e-05
1.03512e-05
1.03512e-05
1.03513e-05
1.03514e-05
1.03516e-05
1.03518e-05
1.03521e-05
1.03525e-05
1.03531e-05
1.03539e-05
1.0355e-05
1.03565e-05
1.03586e-05
1.03616e-05
1.03657e-05
1.03715e-05
1.03796e-05
1.03909e-05
1.04068e-05
1.0429e-05
1.04602e-05
1.0504e-05
1.05651e-05
1.06503e-05
1.07684e-05
1.0931e-05
1.11524e-05
1.145e-05
1.18421e-05
1.23461e-05
1.0351e-05
1.0351e-05
1.0351e-05
1.0351e-05
1.0351e-05
1.03511e-05
1.03511e-05
1.03511e-05
1.03511e-05
1.03512e-05
1.03513e-05
1.03513e-05
1.03515e-05
1.03516e-05
1.03519e-05
1.03522e-05
1.03526e-05
1.03532e-05
1.0354e-05
1.03551e-05
1.03566e-05
1.03587e-05
1.03617e-05
1.03657e-05
1.03713e-05
1.03791e-05
1.039e-05
1.04051e-05
1.04261e-05
1.04553e-05
1.04959e-05
1.05524e-05
1.06305e-05
1.07383e-05
1.08857e-05
1.10857e-05
1.13535e-05
1.17059e-05
1.21599e-05
1.27298e-05
1.34232e-05
1.42349e-05
1.0351e-05
1.0351e-05
1.03511e-05
1.03511e-05
1.03511e-05
1.03511e-05
1.03512e-05
1.03512e-05
1.03513e-05
1.03514e-05
1.03515e-05
1.03517e-05
1.03519e-05
1.03523e-05
1.03527e-05
1.03533e-05
1.03542e-05
1.03553e-05
1.03568e-05
1.0359e-05
1.03619e-05
1.03659e-05
1.03715e-05
1.03791e-05
1.03897e-05
1.04043e-05
1.04244e-05
1.04522e-05
1.04906e-05
1.05436e-05
1.06164e-05
1.07162e-05
1.0852e-05
1.10355e-05
1.12803e-05
1.16021e-05
1.20167e-05
1.25382e-05
1.31756e-05
1.39292e-05
1.47877e-05
1.57261e-05
1.67091e-05
1.03511e-05
1.03511e-05
1.03511e-05
1.03512e-05
1.03512e-05
1.03513e-05
1.03514e-05
1.03516e-05
1.03518e-05
1.0352e-05
1.03524e-05
1.03529e-05
1.03535e-05
1.03544e-05
1.03556e-05
1.03572e-05
1.03594e-05
1.03624e-05
1.03664e-05
1.0372e-05
1.03796e-05
1.03901e-05
1.04044e-05
1.0424e-05
1.04509e-05
1.04877e-05
1.05382e-05
1.06071e-05
1.07009e-05
1.08279e-05
1.09985e-05
1.12253e-05
1.15228e-05
1.19059e-05
1.23884e-05
1.29804e-05
1.36848e-05
1.44942e-05
1.53886e-05
1.6337e-05
1.72962e-05
1.82077e-05
1.90184e-05
1.03512e-05
1.03512e-05
1.03513e-05
1.03514e-05
1.03515e-05
1.03517e-05
1.03519e-05
1.03522e-05
1.03525e-05
1.03531e-05
1.03538e-05
1.03547e-05
1.03559e-05
1.03576e-05
1.03599e-05
1.0363e-05
1.03672e-05
1.03729e-05
1.03806e-05
1.0391e-05
1.04053e-05
1.04247e-05
1.04511e-05
1.0487e-05
1.05358e-05
1.0602e-05
1.06915e-05
1.08119e-05
1.09729e-05
1.11858e-05
1.14641e-05
1.18218e-05
1.22724e-05
1.28264e-05
1.34886e-05
1.4255e-05
1.51107e-05
1.60296e-05
1.69755e-05
1.78994e-05
1.87418e-05
1.94522e-05
2.00036e-05
2.04103e-05
1.03513e-05
1.03514e-05
1.03516e-05
1.03518e-05
1.0352e-05
1.03523e-05
1.03527e-05
1.03533e-05
1.03541e-05
1.03551e-05
1.03564e-05
1.03582e-05
1.03606e-05
1.03639e-05
1.03682e-05
1.03741e-05
1.0382e-05
1.03927e-05
1.04071e-05
1.04266e-05
1.04529e-05
1.04884e-05
1.05363e-05
1.06009e-05
1.06875e-05
1.08034e-05
1.09572e-05
1.11598e-05
1.14233e-05
1.17611e-05
1.2186e-05
1.27084e-05
1.33345e-05
1.40626e-05
1.48819e-05
1.57704e-05
1.66981e-05
1.76237e-05
1.84947e-05
1.92564e-05
1.98719e-05
2.03328e-05
2.06572e-05
2.08716e-05
2.10112e-05
1.03517e-05
1.03519e-05
1.03522e-05
1.03525e-05
1.0353e-05
1.03536e-05
1.03545e-05
1.03556e-05
1.0357e-05
1.0359e-05
1.03616e-05
1.0365e-05
1.03696e-05
1.03758e-05
1.0384e-05
1.03951e-05
1.04099e-05
1.04297e-05
1.04563e-05
1.04919e-05
1.05397e-05
1.06035e-05
1.06887e-05
1.08017e-05
1.09508e-05
1.1146e-05
1.13987e-05
1.17212e-05
1.21258e-05
1.26228e-05
1.32185e-05
1.39135e-05
1.46992e-05
1.55581e-05
1.64637e-05
1.73818e-05
1.8267e-05
1.90667e-05
1.97368e-05
2.02572e-05
2.06345e-05
2.08923e-05
2.10594e-05
2.11635e-05
2.12251e-05
2.1261e-05
1.03521e-05
1.03524e-05
1.03528e-05
1.03533e-05
1.0354e-05
1.0355e-05
1.03562e-05
1.03578e-05
1.03599e-05
1.03628e-05
1.03665e-05
1.03714e-05
1.0378e-05
1.03867e-05
1.03983e-05
1.04137e-05
1.04342e-05
1.04614e-05
1.04977e-05
1.0546e-05
1.06101e-05
1.06949e-05
1.08066e-05
1.09532e-05
1.11437e-05
1.13889e-05
1.17004e-05
1.20896e-05
1.25666e-05
1.31377e-05
1.38045e-05
1.45607e-05
1.53916e-05
1.6274e-05
1.71786e-05
1.80668e-05
1.88908e-05
1.96038e-05
2.01765e-05
2.06052e-05
2.09069e-05
2.11078e-05
2.12356e-05
2.13129e-05
2.13573e-05
2.13811e-05
2.13918e-05
2.13934e-05
1.03537e-05
1.03546e-05
1.03556e-05
1.0357e-05
1.03588e-05
1.03612e-05
1.03643e-05
1.03684e-05
1.03737e-05
1.03808e-05
1.03901e-05
1.04025e-05
1.04187e-05
1.04402e-05
1.04686e-05
1.0506e-05
1.05555e-05
1.06207e-05
1.07063e-05
1.08184e-05
1.09642e-05
1.11525e-05
1.13934e-05
1.16976e-05
1.2076e-05
1.25379e-05
1.30897e-05
1.37333e-05
1.44641e-05
1.52694e-05
1.61292e-05
1.70172e-05
1.79007e-05
1.87374e-05
1.94814e-05
2.00974e-05
2.05726e-05
2.09167e-05
2.11521e-05
2.13053e-05
2.14003e-05
2.14562e-05
2.14871e-05
2.15024e-05
2.15053e-05
2.15037e-05
2.14999e-05
2.14914e-05
1.03552e-05
1.03564e-05
1.0358e-05
1.03601e-05
1.03627e-05
1.03662e-05
1.03707e-05
1.03767e-05
1.03844e-05
1.03945e-05
1.04078e-05
1.04252e-05
1.0448e-05
1.04779e-05
1.05172e-05
1.05686e-05
1.06357e-05
1.07234e-05
1.08372e-05
1.09842e-05
1.11726e-05
1.1412e-05
1.17125e-05
1.20841e-05
1.25355e-05
1.30729e-05
1.36981e-05
1.44076e-05
1.51906e-05
1.6029e-05
1.68992e-05
1.77729e-05
1.86132e-05
1.93772e-05
2.00268e-05
2.05421e-05
2.09252e-05
2.11941e-05
2.13732e-05
2.14871e-05
2.15557e-05
2.15945e-05
2.16144e-05
2.16216e-05
2.16198e-05
2.16164e-05
2.16089e-05
2.15964e-05
2.15809e-05
2.15638e-05
1.03617e-05
1.03647e-05
1.03687e-05
1.03738e-05
1.03804e-05
1.03889e-05
1.04001e-05
1.04146e-05
1.04335e-05
1.0458e-05
1.049e-05
1.05316e-05
1.05857e-05
1.06559e-05
1.07467e-05
1.08637e-05
1.10137e-05
1.12046e-05
1.14453e-05
1.17452e-05
1.21137e-05
1.25589e-05
1.30863e-05
1.36977e-05
1.439e-05
1.51539e-05
1.59728e-05
1.68253e-05
1.76861e-05
1.85233e-05
1.9298e-05
1.99716e-05
2.05193e-05
2.09366e-05
2.12365e-05
2.1441e-05
2.15738e-05
2.16558e-05
2.17032e-05
2.17288e-05
2.17399e-05
2.17392e-05
2.17356e-05
2.17293e-05
2.17179e-05
2.17027e-05
2.16855e-05
2.16661e-05
2.16457e-05
2.16257e-05
1.03776e-05
1.0385e-05
1.03947e-05
1.04071e-05
1.04232e-05
1.04439e-05
1.04707e-05
1.05053e-05
1.055e-05
1.06076e-05
1.06819e-05
1.07772e-05
1.0899e-05
1.10539e-05
1.12494e-05
1.1494e-05
1.17965e-05
1.21654e-05
1.26082e-05
1.31298e-05
1.37316e-05
1.44106e-05
1.51585e-05
1.596e-05
1.67955e-05
1.76418e-05
1.84713e-05
1.9249e-05
1.99378e-05
2.05098e-05
2.09554e-05
2.12827e-05
2.15107e-05
2.16618e-05
2.17572e-05
2.18137e-05
2.18449e-05
2.18598e-05
2.1862e-05
2.1858e-05
2.1852e-05
2.18418e-05
2.18272e-05
2.18099e-05
2.17909e-05
2.17699e-05
2.17485e-05
2.17277e-05
2.17074e-05
2.16876e-05
1.0416e-05
1.0434e-05
1.0457e-05
1.04866e-05
1.05246e-05
1.05732e-05
1.06354e-05
1.07149e-05
1.0816e-05
1.09443e-05
1.11061e-05
1.13085e-05
1.15596e-05
1.18676e-05
1.22403e-05
1.26844e-05
1.3204e-05
1.38e-05
1.44693e-05
1.52041e-05
1.59904e-05
1.68098e-05
1.76409e-05
1.84595e-05
1.92341e-05
1.99302e-05
2.05187e-05
2.09861e-05
2.13361e-05
2.15847e-05
2.17527e-05
2.18608e-05
2.19265e-05
2.19635e-05
2.19822e-05
2.19873e-05
2.19837e-05
2.19771e-05
2.19681e-05
2.1954e-05
2.19369e-05
2.1918e-05
2.1897e-05
2.18748e-05
2.18527e-05
2.18313e-05
2.181e-05
2.17892e-05
2.1769e-05
2.17492e-05
1.05067e-05
1.05488e-05
1.06023e-05
1.06702e-05
1.07562e-05
1.08649e-05
1.10014e-05
1.11721e-05
1.13839e-05
1.16441e-05
1.19605e-05
1.23402e-05
1.27888e-05
1.33099e-05
1.39035e-05
1.45663e-05
1.52909e-05
1.6064e-05
1.68682e-05
1.76839e-05
1.84891e-05
1.92561e-05
1.99527e-05
2.05503e-05
2.10326e-05
2.14001e-05
2.16657e-05
2.18483e-05
2.19679e-05
2.20421e-05
2.20847e-05
2.21069e-05
2.21149e-05
2.21126e-05
2.21056e-05
2.20966e-05
2.20835e-05
2.20664e-05
2.20474e-05
2.20265e-05
2.20039e-05
2.19808e-05
2.19582e-05
2.19359e-05
2.1914e-05
2.18924e-05
2.18712e-05
2.18502e-05
2.18298e-05
2.18096e-05
1.07137e-05
1.08079e-05
1.09257e-05
1.10726e-05
1.12544e-05
1.14779e-05
1.17501e-05
1.20778e-05
1.24674e-05
1.29237e-05
1.34492e-05
1.40435e-05
1.47026e-05
1.54192e-05
1.61809e-05
1.69708e-05
1.77708e-05
1.85609e-05
1.93165e-05
2.00081e-05
2.06079e-05
2.10985e-05
2.14777e-05
2.1756e-05
2.19503e-05
2.20797e-05
2.21615e-05
2.22092e-05
2.22348e-05
2.22455e-05
2.22441e-05
2.22371e-05
2.22275e-05
2.22153e-05
2.21983e-05
2.21791e-05
2.21584e-05
2.21355e-05
2.21117e-05
2.20881e-05
2.20648e-05
2.20417e-05
2.2019e-05
2.19967e-05
2.19746e-05
2.19528e-05
2.19313e-05
2.191e-05
2.18891e-05
2.18686e-05
1.11606e-05
1.13561e-05
1.1594e-05
1.18807e-05
1.22225e-05
1.26248e-05
1.30916e-05
1.36244e-05
1.42217e-05
1.48794e-05
1.559e-05
1.63414e-05
1.71177e-05
1.79017e-05
1.86754e-05
1.94165e-05
2.00982e-05
2.0694e-05
2.11865e-05
2.15717e-05
2.1858e-05
2.20607e-05
2.21976e-05
2.22854e-05
2.23375e-05
2.23661e-05
2.23788e-05
2.23783e-05
2.23721e-05
2.23617e-05
2.23494e-05
2.23329e-05
2.23134e-05
2.22924e-05
2.22696e-05
2.22452e-05
2.22206e-05
2.21964e-05
2.21724e-05
2.21486e-05
2.21252e-05
2.2102e-05
2.2079e-05
2.20564e-05
2.20339e-05
2.20117e-05
2.19898e-05
2.19681e-05
2.19469e-05
2.1926e-05
1.20398e-05
1.23984e-05
1.28161e-05
1.32958e-05
1.3838e-05
1.44405e-05
1.50984e-05
1.58043e-05
1.65463e-05
1.7309e-05
1.80766e-05
1.88324e-05
1.95564e-05
2.02238e-05
2.08102e-05
2.12986e-05
2.16841e-05
2.19736e-05
2.21809e-05
2.23225e-05
2.24146e-05
2.24701e-05
2.2501e-05
2.25152e-05
2.25158e-05
2.25099e-05
2.24988e-05
2.24857e-05
2.247e-05
2.24502e-05
2.24288e-05
2.24061e-05
2.23813e-05
2.23558e-05
2.23307e-05
2.23057e-05
2.22808e-05
2.22564e-05
2.22322e-05
2.22083e-05
2.21845e-05
2.2161e-05
2.21377e-05
2.21146e-05
2.20917e-05
2.20691e-05
2.20467e-05
2.20247e-05
2.2003e-05
2.19817e-05
1.354e-05
1.40932e-05
1.47021e-05
1.53614e-05
1.60632e-05
1.6796e-05
1.75449e-05
1.82952e-05
1.90316e-05
1.97359e-05
2.03853e-05
2.09573e-05
2.14358e-05
2.18161e-05
2.21041e-05
2.23121e-05
2.24557e-05
2.255e-05
2.26076e-05
2.26399e-05
2.2655e-05
2.26564e-05
2.26505e-05
2.26389e-05
2.26251e-05
2.26094e-05
2.25894e-05
2.25675e-05
2.25445e-05
2.25196e-05
2.24935e-05
2.24674e-05
2.24416e-05
2.24158e-05
2.23903e-05
2.23652e-05
2.23402e-05
2.23154e-05
2.22909e-05
2.22665e-05
2.22424e-05
2.22184e-05
2.21946e-05
2.21711e-05
2.21478e-05
2.21247e-05
2.2102e-05
2.20795e-05
2.20575e-05
2.20359e-05
1.56702e-05
1.63679e-05
1.7091e-05
1.78252e-05
1.85569e-05
1.92722e-05
1.99543e-05
2.05821e-05
2.1135e-05
2.15986e-05
2.19685e-05
2.22502e-05
2.24552e-05
2.25978e-05
2.26922e-05
2.27503e-05
2.27831e-05
2.27986e-05
2.28002e-05
2.27941e-05
2.27823e-05
2.27674e-05
2.27511e-05
2.27313e-05
2.27087e-05
2.26853e-05
2.26602e-05
2.26335e-05
2.26066e-05
2.25799e-05
2.25533e-05
2.25268e-05
2.25007e-05
2.24748e-05
2.24491e-05
2.24235e-05
2.23982e-05
2.2373e-05
2.2348e-05
2.23231e-05
2.22985e-05
2.22741e-05
2.22498e-05
2.22259e-05
2.22021e-05
2.21787e-05
2.21556e-05
2.21327e-05
2.21104e-05
2.20884e-05
1.81496e-05
1.88611e-05
1.95531e-05
2.02102e-05
2.08128e-05
2.13424e-05
2.17863e-05
2.21411e-05
2.24123e-05
2.26105e-05
2.27492e-05
2.28415e-05
2.28985e-05
2.29308e-05
2.2946e-05
2.29471e-05
2.29409e-05
2.29286e-05
2.29125e-05
2.28953e-05
2.28756e-05
2.28523e-05
2.28283e-05
2.28031e-05
2.27758e-05
2.27481e-05
2.27207e-05
2.26932e-05
2.26658e-05
2.26387e-05
2.26119e-05
2.25852e-05
2.25587e-05
2.25324e-05
2.25063e-05
2.24803e-05
2.24544e-05
2.24288e-05
2.24033e-05
2.2378e-05
2.23528e-05
2.2328e-05
2.23033e-05
2.22789e-05
2.22548e-05
2.22309e-05
2.22075e-05
2.21843e-05
2.21616e-05
2.21393e-05
2.05017e-05
2.10756e-05
2.15777e-05
2.19975e-05
2.23329e-05
2.25896e-05
2.27779e-05
2.29099e-05
2.2998e-05
2.30524e-05
2.30832e-05
2.30972e-05
2.30972e-05
2.30906e-05
2.30775e-05
2.30603e-05
2.30423e-05
2.30221e-05
2.29982e-05
2.29735e-05
2.29479e-05
2.29203e-05
2.2892e-05
2.28636e-05
2.28354e-05
2.28072e-05
2.27792e-05
2.27515e-05
2.27239e-05
2.26964e-05
2.26692e-05
2.26421e-05
2.26151e-05
2.25883e-05
2.25617e-05
2.25352e-05
2.25089e-05
2.24827e-05
2.24567e-05
2.2431e-05
2.24054e-05
2.23801e-05
2.2355e-05
2.23302e-05
2.23057e-05
2.22815e-05
2.22577e-05
2.22342e-05
2.22112e-05
2.21886e-05
2.22302e-05
2.25425e-05
2.27813e-05
2.29565e-05
2.30795e-05
2.31614e-05
2.3212e-05
2.324e-05
2.3252e-05
2.32509e-05
2.32432e-05
2.32289e-05
2.32108e-05
2.31919e-05
2.31708e-05
2.31466e-05
2.3121e-05
2.30948e-05
2.30669e-05
2.30378e-05
2.30087e-05
2.29798e-05
2.29508e-05
2.29219e-05
2.28933e-05
2.28648e-05
2.28365e-05
2.28084e-05
2.27804e-05
2.27525e-05
2.27248e-05
2.26972e-05
2.26697e-05
2.26424e-05
2.26153e-05
2.25883e-05
2.25615e-05
2.25348e-05
2.25084e-05
2.24822e-05
2.24562e-05
2.24304e-05
2.24049e-05
2.23798e-05
2.23549e-05
2.23303e-05
2.23062e-05
2.22824e-05
2.22591e-05
2.22363e-05
2.31454e-05
2.32573e-05
2.33314e-05
2.33768e-05
2.34012e-05
2.34104e-05
2.34079e-05
2.33986e-05
2.3383e-05
2.33639e-05
2.33438e-05
2.33217e-05
2.32971e-05
2.32707e-05
2.32438e-05
2.32154e-05
2.31857e-05
2.31559e-05
2.31262e-05
2.30964e-05
2.30667e-05
2.30372e-05
2.3008e-05
2.29788e-05
2.29498e-05
2.2921e-05
2.28922e-05
2.28636e-05
2.28351e-05
2.28067e-05
2.27785e-05
2.27504e-05
2.27224e-05
2.26946e-05
2.2667e-05
2.26395e-05
2.26122e-05
2.25851e-05
2.25582e-05
2.25316e-05
2.25052e-05
2.2479e-05
2.24531e-05
2.24276e-05
2.24023e-05
2.23774e-05
2.2353e-05
2.23289e-05
2.23054e-05
2.22823e-05
2.35464e-05
2.35665e-05
2.35722e-05
2.35679e-05
2.35567e-05
2.35396e-05
2.35194e-05
2.34981e-05
2.34749e-05
2.34498e-05
2.34225e-05
2.33947e-05
2.33659e-05
2.33356e-05
2.33051e-05
2.32746e-05
2.32441e-05
2.32136e-05
2.31833e-05
2.31533e-05
2.31232e-05
2.30934e-05
2.30637e-05
2.30341e-05
2.30047e-05
2.29753e-05
2.29461e-05
2.29169e-05
2.28879e-05
2.28591e-05
2.28303e-05
2.28017e-05
2.27732e-05
2.27449e-05
2.27168e-05
2.26889e-05
2.26611e-05
2.26336e-05
2.26063e-05
2.25792e-05
2.25523e-05
2.25258e-05
2.24996e-05
2.24736e-05
2.24481e-05
2.24229e-05
2.23981e-05
2.23737e-05
2.23499e-05
2.23266e-05
2.3737e-05
2.37306e-05
2.37173e-05
2.36985e-05
2.36771e-05
2.36547e-05
2.36303e-05
2.3604e-05
2.35763e-05
2.35477e-05
2.35183e-05
2.34874e-05
2.3456e-05
2.34249e-05
2.33937e-05
2.33624e-05
2.33314e-05
2.33005e-05
2.32697e-05
2.3239e-05
2.32085e-05
2.31781e-05
2.31478e-05
2.31177e-05
2.30876e-05
2.30576e-05
2.30277e-05
2.2998e-05
2.29684e-05
2.29388e-05
2.29095e-05
2.28802e-05
2.28511e-05
2.28222e-05
2.27934e-05
2.27648e-05
2.27364e-05
2.27082e-05
2.26802e-05
2.26525e-05
2.2625e-05
2.25978e-05
2.25708e-05
2.25442e-05
2.25179e-05
2.2492e-05
2.24665e-05
2.24415e-05
2.24169e-05
2.23928e-05
2.23693e-05
2.38595e-05
2.38368e-05
2.38132e-05
2.37876e-05
2.37602e-05
2.37319e-05
2.37024e-05
2.36721e-05
2.36408e-05
2.36088e-05
2.35769e-05
2.3545e-05
2.35131e-05
2.34812e-05
2.34496e-05
2.34181e-05
2.33866e-05
2.33554e-05
2.33242e-05
2.3293e-05
2.32621e-05
2.32312e-05
2.32004e-05
2.31697e-05
2.31391e-05
2.31086e-05
2.30782e-05
2.3048e-05
2.30178e-05
2.29878e-05
2.2958e-05
2.29282e-05
2.28986e-05
2.28692e-05
2.284e-05
2.28109e-05
2.27821e-05
2.27534e-05
2.2725e-05
2.26969e-05
2.2669e-05
2.26414e-05
2.26141e-05
2.25871e-05
2.25605e-05
2.25343e-05
2.25085e-05
2.24832e-05
2.24583e-05
2.2434e-05
2.24103e-05
2.39735e-05
2.39466e-05
2.39182e-05
2.3889e-05
2.38588e-05
2.38277e-05
2.37958e-05
2.37631e-05
2.37305e-05
2.3698e-05
2.36654e-05
2.36328e-05
2.36005e-05
2.35682e-05
2.3536e-05
2.3504e-05
2.3472e-05
2.34402e-05
2.34084e-05
2.33767e-05
2.33452e-05
2.33137e-05
2.32823e-05
2.3251e-05
2.32198e-05
2.31887e-05
2.31577e-05
2.31268e-05
2.30961e-05
2.30654e-05
2.30349e-05
2.30046e-05
2.29744e-05
2.29443e-05
2.29144e-05
2.28847e-05
2.28552e-05
2.28259e-05
2.27969e-05
2.2768e-05
2.27395e-05
2.27112e-05
2.26832e-05
2.26556e-05
2.26282e-05
2.26013e-05
2.25748e-05
2.25487e-05
2.25231e-05
2.2498e-05
2.24735e-05
2.24495e-05
2.40477e-05
2.40167e-05
2.39847e-05
2.39521e-05
2.39189e-05
2.38856e-05
2.38525e-05
2.38193e-05
2.37859e-05
2.37529e-05
2.372e-05
2.36871e-05
2.36543e-05
2.36217e-05
2.3589e-05
2.35566e-05
2.35241e-05
2.34918e-05
2.34596e-05
2.34274e-05
2.33953e-05
2.33633e-05
2.33314e-05
2.32996e-05
2.32679e-05
2.32363e-05
2.32048e-05
2.31735e-05
2.31422e-05
2.31111e-05
2.30801e-05
2.30493e-05
2.30186e-05
2.29881e-05
2.29577e-05
2.29276e-05
2.28977e-05
2.28679e-05
2.28384e-05
2.28092e-05
2.27803e-05
2.27516e-05
2.27232e-05
2.26952e-05
2.26676e-05
2.26403e-05
2.26135e-05
2.25871e-05
2.25613e-05
2.25359e-05
2.25112e-05
2.2487e-05
2.41098e-05
2.40761e-05
2.40421e-05
2.40083e-05
2.39745e-05
2.39405e-05
2.39069e-05
2.38733e-05
2.38397e-05
2.38062e-05
2.37729e-05
2.37396e-05
2.37064e-05
2.36732e-05
2.36402e-05
2.36072e-05
2.35743e-05
2.35415e-05
2.35087e-05
2.34761e-05
2.34435e-05
2.3411e-05
2.33786e-05
2.33463e-05
2.33141e-05
2.3282e-05
2.32501e-05
2.32182e-05
2.31865e-05
2.31549e-05
2.31234e-05
2.30921e-05
2.3061e-05
2.303e-05
2.29992e-05
2.29686e-05
2.29382e-05
2.29081e-05
2.28782e-05
2.28486e-05
2.28192e-05
2.27902e-05
2.27614e-05
2.27331e-05
2.27051e-05
2.26775e-05
2.26504e-05
2.26238e-05
2.25976e-05
2.2572e-05
2.25471e-05
2.25227e-05
2.41654e-05
2.4131e-05
2.40965e-05
2.40621e-05
2.40279e-05
2.39937e-05
2.39595e-05
2.39256e-05
2.38916e-05
2.38577e-05
2.38239e-05
2.37902e-05
2.37565e-05
2.37229e-05
2.36893e-05
2.36559e-05
2.36225e-05
2.35892e-05
2.3556e-05
2.35228e-05
2.34897e-05
2.34568e-05
2.34239e-05
2.33911e-05
2.33584e-05
2.33258e-05
2.32934e-05
2.3261e-05
2.32288e-05
2.31968e-05
2.31648e-05
2.31331e-05
2.31015e-05
2.307e-05
2.30388e-05
2.30078e-05
2.2977e-05
2.29464e-05
2.29161e-05
2.28861e-05
2.28563e-05
2.28269e-05
2.27978e-05
2.27691e-05
2.27408e-05
2.27129e-05
2.26855e-05
2.26586e-05
2.26322e-05
2.26063e-05
2.25812e-05
2.25566e-05
2.42186e-05
2.41838e-05
2.41489e-05
2.41142e-05
2.40796e-05
2.4045e-05
2.40104e-05
2.3976e-05
2.39416e-05
2.39073e-05
2.3873e-05
2.38388e-05
2.38046e-05
2.37706e-05
2.37365e-05
2.37026e-05
2.36687e-05
2.36349e-05
2.36012e-05
2.35676e-05
2.3534e-05
2.35006e-05
2.34672e-05
2.34339e-05
2.34008e-05
2.33677e-05
2.33348e-05
2.3302e-05
2.32693e-05
2.32367e-05
2.32044e-05
2.31721e-05
2.31401e-05
2.31082e-05
2.30765e-05
2.30451e-05
2.30138e-05
2.29828e-05
2.29521e-05
2.29217e-05
2.28916e-05
2.28618e-05
2.28323e-05
2.28033e-05
2.27746e-05
2.27464e-05
2.27187e-05
2.26915e-05
2.26648e-05
2.26387e-05
2.26134e-05
2.25885e-05
2.42699e-05
2.42348e-05
2.41996e-05
2.41644e-05
2.41294e-05
2.40944e-05
2.40594e-05
2.40245e-05
2.39897e-05
2.39549e-05
2.39201e-05
2.38854e-05
2.38508e-05
2.38163e-05
2.37818e-05
2.37474e-05
2.3713e-05
2.36788e-05
2.36446e-05
2.36104e-05
2.35764e-05
2.35425e-05
2.35086e-05
2.34749e-05
2.34412e-05
2.34077e-05
2.33743e-05
2.3341e-05
2.33078e-05
2.32748e-05
2.3242e-05
2.32093e-05
2.31768e-05
2.31445e-05
2.31124e-05
2.30805e-05
2.30488e-05
2.30174e-05
2.29863e-05
2.29554e-05
2.29249e-05
2.28948e-05
2.2865e-05
2.28356e-05
2.28066e-05
2.27781e-05
2.275e-05
2.27225e-05
2.26956e-05
2.26692e-05
2.26436e-05
2.26185e-05
2.43195e-05
2.42839e-05
2.42483e-05
2.42127e-05
2.41772e-05
2.41418e-05
2.41064e-05
2.4071e-05
2.40357e-05
2.40005e-05
2.39653e-05
2.39302e-05
2.38951e-05
2.38601e-05
2.38251e-05
2.37902e-05
2.37554e-05
2.37206e-05
2.3686e-05
2.36514e-05
2.36169e-05
2.35824e-05
2.35481e-05
2.35139e-05
2.34798e-05
2.34458e-05
2.34119e-05
2.33781e-05
2.33445e-05
2.3311e-05
2.32777e-05
2.32446e-05
2.32116e-05
2.31788e-05
2.31463e-05
2.3114e-05
2.30819e-05
2.30501e-05
2.30185e-05
2.29873e-05
2.29564e-05
2.29258e-05
2.28957e-05
2.28659e-05
2.28366e-05
2.28077e-05
2.27794e-05
2.27516e-05
2.27244e-05
2.26977e-05
2.26718e-05
2.26465e-05
2.43311e-05
2.42951e-05
2.42591e-05
2.42231e-05
2.41873e-05
2.41514e-05
2.41156e-05
2.40799e-05
2.40442e-05
2.40085e-05
2.39729e-05
2.39374e-05
2.39019e-05
2.38665e-05
2.38311e-05
2.37958e-05
2.37606e-05
2.37255e-05
2.36904e-05
2.36554e-05
2.36205e-05
2.35857e-05
2.3551e-05
2.35164e-05
2.34819e-05
2.34476e-05
2.34133e-05
2.33792e-05
2.33453e-05
2.33115e-05
2.32779e-05
2.32445e-05
2.32113e-05
2.31783e-05
2.31455e-05
2.3113e-05
2.30808e-05
2.30488e-05
2.30172e-05
2.29859e-05
2.29549e-05
2.29244e-05
2.28943e-05
2.28646e-05
2.28354e-05
2.28067e-05
2.27786e-05
2.27511e-05
2.27242e-05
2.2698e-05
2.26725e-05
2.43763e-05
2.43399e-05
2.43035e-05
2.42671e-05
2.42308e-05
2.41945e-05
2.41583e-05
2.41221e-05
2.40859e-05
2.40498e-05
2.40138e-05
2.39778e-05
2.39418e-05
2.39059e-05
2.38701e-05
2.38343e-05
2.37986e-05
2.3763e-05
2.37275e-05
2.3692e-05
2.36566e-05
2.36214e-05
2.35862e-05
2.35511e-05
2.35161e-05
2.34813e-05
2.34466e-05
2.3412e-05
2.33776e-05
2.33434e-05
2.33093e-05
2.32754e-05
2.32418e-05
2.32083e-05
2.31751e-05
2.31422e-05
2.31095e-05
2.30771e-05
2.30451e-05
2.30134e-05
2.2982e-05
2.29511e-05
2.29206e-05
2.28906e-05
2.2861e-05
2.2832e-05
2.28036e-05
2.27757e-05
2.27485e-05
2.27221e-05
2.26962e-05
2.44196e-05
2.43828e-05
2.43459e-05
2.43091e-05
2.42724e-05
2.42357e-05
2.4199e-05
2.41623e-05
2.41257e-05
2.40892e-05
2.40527e-05
2.40162e-05
2.39798e-05
2.39435e-05
2.39072e-05
2.38709e-05
2.38348e-05
2.37987e-05
2.37626e-05
2.37267e-05
2.36908e-05
2.36551e-05
2.36194e-05
2.35839e-05
2.35484e-05
2.35131e-05
2.34779e-05
2.34429e-05
2.3408e-05
2.33733e-05
2.33388e-05
2.33044e-05
2.32703e-05
2.32364e-05
2.32027e-05