/*--------------------------------*- C++ -*----------------------------------*\
| =========                 |                                                 |
| \\      /  F ield         | OpenFOAM: The Open Source CFD Toolbox           |
|  \\    /   O peration     | Version:  v1706                                 |
|   \\  /    A nd           | Web:      www.OpenFOAM.com                      |
|    \\/     M anipulation  |                                                 |
\*---------------------------------------------------------------------------*/
FoamFile
{
    version     2.0;
    format      ascii;
    class       volScalarField;
    location    "3.5e-05";
    object      p;
}
// * * * * * * * * * * * * * * * * * * * * * * * * * * * * * * * * * * * * * //

dimensions      [1 -1 -2 0 0 0 0];


internalField   nonuniform List<scalar> 
30038
(
21.9139
21.9139
21.9139
21.9139
21.9139
21.9139
21.9139
21.9139
21.9139
21.9139
21.9139
21.9139
21.9139
21.9139
21.9139
21.9139
21.9139
21.9139
21.9139
21.9139
21.9139
21.9139
21.9139
21.9139
21.9139
21.9139
21.9139
21.9139
21.9139
21.9139
21.9139
21.9139
21.9139
21.9139
21.9139
21.9139
21.9139
21.9139
21.9139
21.9139
21.9139
21.9139
21.9139
21.9139
21.9139
21.9139
21.9139
21.9139
21.9139
21.9139
21.9139
21.9139
21.9139
21.9139
21.9139
21.9139
21.9139
21.9139
21.9139
21.9139
21.9139
21.9139
21.9139
21.9139
21.9139
21.9139
21.9139
21.9139
21.9139
21.9139
21.9139
21.9139
21.9139
21.9139
21.9139
21.9139
21.9139
21.9139
21.9139
21.9139
21.9139
21.9139
21.9139
21.9139
21.9139
21.9139
21.9139
21.9139
21.9139
21.9139
21.9139
21.9139
21.9139
21.9139
21.9139
21.9139
21.9139
21.9139
21.9139
21.9139
21.9139
21.9139
21.9139
21.9139
21.9139
21.9139
21.9139
21.9139
21.9139
21.9139
21.9139
21.9139
21.9139
21.9139
21.9139
21.9139
21.9139
21.9139
21.9139
21.9139
21.9139
21.9139
21.9139
21.9139
21.9139
21.9139
21.9139
21.9139
21.9139
21.9139
21.9139
21.9139
21.9139
21.9139
21.9139
21.9139
21.9139
21.9139
21.9139
21.9139
21.9139
21.9139
21.9139
21.9139
21.9139
21.9139
21.9139
21.9139
21.9139
21.9139
21.9139
21.9139
21.9139
21.9139
21.9139
21.9139
21.9139
21.9139
21.9139
21.9139
21.9139
21.9139
21.9139
21.9139
21.9139
21.9139
21.9139
21.9139
21.9139
21.9139
21.9139
21.9139
21.9139
21.9139
21.9139
21.9139
21.9139
21.9139
21.9139
21.9139
21.9139
21.9139
21.9139
21.9139
21.9139
21.9139
21.9139
21.9139
21.9139
21.9139
21.9139
21.9139
21.9139
21.9139
21.9139
21.9139
21.9139
21.9139
21.9139
21.9139
21.9139
21.9139
21.9139
21.9139
21.9139
21.9139
21.9139
21.9139
21.9139
21.9139
21.9139
21.9139
21.9139
21.9139
21.9139
21.9139
21.9139
21.9139
21.9139
21.9139
21.9139
21.9139
21.9139
21.9139
21.9139
21.9139
21.9139
21.9139
21.9139
21.9139
21.9139
21.9139
21.9139
21.9139
21.9139
21.9139
21.9139
21.9139
21.9139
21.9139
21.9139
21.9139
21.9139
21.9139
21.9139
21.9139
21.9139
21.9139
21.9139
21.9139
21.9139
21.9139
21.9139
21.9139
21.9139
21.9139
21.9139
21.9139
21.9139
21.9139
21.9139
21.9139
21.9139
21.9139
21.9139
21.9139
21.9139
21.9139
21.9139
21.9139
21.9139
21.9139
21.9139
21.9139
21.9139
21.9139
21.9139
21.9139
21.9139
21.9139
21.9139
21.9139
21.9139
21.9139
21.9139
21.9139
21.9139
21.9139
21.9139
21.9139
21.9139
21.9139
21.9139
21.9139
21.9139
21.9139
21.9139
21.9139
21.9139
21.9139
21.9139
21.9139
21.9139
21.9139
21.9139
21.9139
21.9139
21.9139
21.9139
21.9139
21.9139
21.9139
21.9139
21.9139
21.9139
21.9139
21.9139
21.9139
21.9139
21.9139
21.9139
21.9139
21.9139
21.9139
21.9139
21.9139
21.9139
21.9139
21.9139
21.9139
21.9139
21.9139
21.9139
21.9139
21.9139
21.9139
21.9139
21.9139
21.9139
21.9139
21.914
21.914
21.914
21.9139
21.9139
21.9139
21.9139
21.9139
21.9139
21.9139
21.9139
21.9139
21.9139
21.9139
21.9139
21.9139
21.9139
21.9139
21.9139
21.9139
21.9139
21.9139
21.9139
21.9139
21.9139
21.9139
21.9139
21.9139
21.9139
21.9139
21.9139
21.9139
21.9139
21.9139
21.9139
21.9139
21.9139
21.914
21.914
21.9141
21.9141
21.9143
21.9139
21.9139
21.9139
21.9139
21.9139
21.9139
21.9139
21.9139
21.9139
21.9139
21.9139
21.9139
21.9139
21.9139
21.9139
21.9139
21.9139
21.9139
21.9139
21.9139
21.9139
21.9139
21.9139
21.9139
21.9139
21.9139
21.9139
21.9139
21.9139
21.9139
21.9139
21.914
21.914
21.9141
21.9141
21.9142
21.9144
21.9146
21.915
21.9139
21.9139
21.9139
21.9139
21.9139
21.9139
21.9139
21.9139
21.9139
21.9139
21.9139
21.9139
21.9139
21.9139
21.9139
21.9139
21.9139
21.9139
21.9139
21.9139
21.9139
21.9139
21.9139
21.9139
21.9139
21.9139
21.9139
21.9139
21.9139
21.914
21.914
21.914
21.9141
21.9142
21.9144
21.9146
21.9149
21.9153
21.916
21.917
21.9139
21.9139
21.9139
21.9139
21.9139
21.9139
21.9139
21.9139
21.9139
21.9139
21.9139
21.9139
21.9139
21.9139
21.9139
21.9139
21.9139
21.9139
21.9139
21.9139
21.9139
21.9139
21.9139
21.9139
21.9139
21.914
21.914
21.914
21.914
21.9141
21.9142
21.9143
21.9145
21.9148
21.9152
21.9158
21.9167
21.918
21.92
21.9229
21.9139
21.9139
21.9139
21.9139
21.9139
21.9139
21.9139
21.9139
21.9139
21.9139
21.9139
21.9139
21.9139
21.9139
21.9139
21.9139
21.9139
21.9139
21.9139
21.9139
21.9139
21.9139
21.914
21.914
21.914
21.9141
21.9141
21.9142
21.9143
21.9145
21.9148
21.9152
21.9158
21.9166
21.9178
21.9195
21.922
21.9257
21.9312
21.9394
21.9139
21.9139
21.9139
21.9139
21.9139
21.9139
21.9139
21.9139
21.9139
21.9139
21.9139
21.9139
21.9139
21.9139
21.9139
21.9139
21.9139
21.9139
21.9139
21.914
21.914
21.914
21.9141
21.9141
21.9142
21.9143
21.9145
21.9148
21.9152
21.9157
21.9165
21.9176
21.9192
21.9216
21.9249
21.9298
21.9369
21.9472
21.9623
21.985
21.9139
21.9139
21.9139
21.9139
21.9139
21.9139
21.9139
21.9139
21.9139
21.9139
21.9139
21.9139
21.9139
21.9139
21.9139
21.9139
21.914
21.914
21.914
21.9141
21.9141
21.9142
21.9144
21.9145
21.9148
21.9152
21.9157
21.9165
21.9175
21.9191
21.9213
21.9244
21.929
21.9354
21.9448
21.9583
21.9777
22.006
22.0471
22.1084
21.9139
21.9139
21.9139
21.9139
21.9139
21.9139
21.9139
21.9139
21.9139
21.9139
21.9139
21.9139
21.9139
21.914
21.914
21.914
21.9141
21.9141
21.9142
21.9144
21.9146
21.9148
21.9152
21.9157
21.9165
21.9175
21.919
21.9211
21.9241
21.9284
21.9345
21.9431
21.9555
21.9733
21.9988
22.0353
22.0879
22.1639
22.2736
22.4359
21.9139
21.9139
21.9139
21.9139
21.9139
21.9139
21.9139
21.9139
21.9139
21.914
21.914
21.914
21.914
21.9141
21.9142
21.9143
21.9144
21.9146
21.9149
21.9153
21.9158
21.9165
21.9176
21.919
21.9211
21.924
21.9281
21.9339
21.9421
21.9537
21.9702
21.9937
22.0271
22.0748
22.1429
22.2402
22.3793
22.5789
22.8642
23.2812
21.9139
21.9139
21.9139
21.9139
21.9139
21.9139
21.9139
21.914
21.914
21.914
21.9141
21.9141
21.9142
21.9143
21.9144
21.9147
21.9149
21.9153
21.9159
21.9166
21.9177
21.9191
21.9212
21.924
21.928
21.9337
21.9415
21.9526
21.9683
21.9903
22.0214
22.0655
22.1279
22.2163
22.3416
22.5195
22.772
23.1298
23.637
24.3513
25.3753
21.9139
21.9139
21.9139
21.914
21.914
21.914
21.914
21.9141
21.9141
21.9142
21.9143
21.9145
21.9147
21.915
21.9154
21.916
21.9168
21.9178
21.9193
21.9214
21.9243
21.9282
21.9338
21.9415
21.9522
21.9672
21.9883
22.0178
22.0592
22.1173
22.1991
22.3142
22.4763
22.7044
23.0253
23.4759
24.107
24.9875
26.2117
27.8915
30.2329
21.9139
21.914
21.914
21.914
21.9141
21.9141
21.9142
21.9143
21.9144
21.9146
21.9148
21.9151
21.9156
21.9162
21.917
21.9181
21.9196
21.9217
21.9246
21.9286
21.9342
21.9418
21.9524
21.9671
21.9875
22.0159
22.0555
22.1106
22.1876
22.295
22.4452
22.655
22.948
23.3565
23.9246
24.7121
25.7982
27.2857
29.3046
32.027
35.6427
40.5435
21.914
21.914
21.9141
21.9141
21.9142
21.9143
21.9145
21.9147
21.9149
21.9153
21.9157
21.9164
21.9172
21.9184
21.92
21.9222
21.9252
21.9293
21.9349
21.9427
21.9533
21.9679
21.988
22.0158
22.0541
22.1073
22.1808
22.2828
22.4242
22.6203
22.8922
23.2687
23.7888
24.505
25.4871
26.8252
28.6329
31.0528
34.2671
38.4871
43.9779
51.0004
60.6956
21.9142
21.9143
21.9144
21.9146
21.9148
21.9151
21.9154
21.916
21.9167
21.9176
21.9189
21.9206
21.9229
21.926
21.9303
21.9361
21.944
21.9548
21.9695
21.9896
22.0172
22.0551
22.1071
22.1785
22.2768
22.4121
22.5984
22.8547
23.2072
23.6909
24.3525
25.2541
26.4761
28.1196
30.3094
33.2032
36.9951
41.9006
48.1794
56.2542
66.8449
80.4402
98.3635
21.9145
21.9147
21.9149
21.9152
21.9157
21.9162
21.917
21.918
21.9194
21.9213
21.9237
21.9271
21.9316
21.9376
21.9459
21.957
21.9721
21.9925
22.0204
22.0583
22.1099
22.1804
22.2767
22.4082
22.5878
22.8333
23.1684
23.6251
24.2456
25.0857
26.2177
27.7327
29.7421
32.3841
35.8316
40.2856
45.9633
53.179
62.4791
74.5754
89.9103
108.282
128.012
148.374
21.9151
21.9155
21.9159
21.9166
21.9175
21.9186
21.9201
21.9221
21.9248
21.9284
21.9332
21.9397
21.9484
21.96
21.9757
21.9968
22.0253
22.0638
22.116
22.1865
22.2822
22.412
22.5879
22.8266
23.15
23.5877
24.1784
24.9728
26.0365
27.4522
29.3211
31.7653
34.9384
39.0262
44.2273
50.7823
59.1099
69.8586
83.6483
100.577
119.834
139.671
158.225
173.602
185.806
21.9163
21.9171
21.918
21.9193
21.921
21.9233
21.9262
21.9302
21.9354
21.9424
21.9516
21.964
21.9805
22.0026
22.0323
22.072
22.1254
22.1971
22.2936
22.4236
22.5985
22.834
23.1508
23.5766
24.1472
24.9092
25.9229
27.2639
29.0249
31.316
34.2736
38.0662
42.8826
48.9233
56.5011
66.1641
78.5776
94.1107
112.384
132.087
151.333
168.333
181.958
191.967
198.7
202.862
21.9176
21.9188
21.9202
21.9222
21.9247
21.928
21.9324
21.9381
21.9457
21.9558
21.9691
21.9868
22.0103
22.0415
22.0831
22.1385
22.2125
22.3113
22.4434
22.6198
22.8556
23.1705
23.5906
24.1497
24.8912
25.8706
27.158
28.839
31.0144
33.8058
37.3656
41.8721
47.5069
54.5083
63.3151
74.5645
88.7848
105.939
125.124
144.683
162.771
177.96
189.633
197.843
203.225
206.268
207.91
208.309
21.9236
21.9265
21.9302
21.9352
21.9416
21.95
21.9611
21.9757
21.9948
22.0201
22.0535
22.0976
22.1561
22.2334
22.336
22.4721
22.6526
22.8921
23.2096
23.63
24.1854
24.9169
25.8763
27.1288
28.7539
30.8452
33.5123
36.893
41.153
46.4657
53.0229
61.1656
71.4641
84.5186
100.537
118.977
138.475
157.263
173.718
186.92
196.614
203.228
207.308
209.556
210.548
210.629
210.537
210.197
21.9288
21.9331
21.9387
21.946
21.9555
21.9678
21.9839
22.005
22.0326
22.0688
22.1163
22.1787
22.2608
22.3688
22.511
22.6983
22.9449
23.2694
23.6959
24.2553
24.9867
25.9389
27.1732
28.7642
30.7991
33.3786
36.6267
40.6967
45.7564
51.9711
59.6049
69.1458
81.2056
96.1575
113.745
132.917
152.046
169.466
183.962
195.084
202.92
208.098
211.05
212.629
213.031
212.978
212.786
212.288
211.474
210.398
21.9516
21.9624
21.9763
21.9944
22.0179
22.0484
22.0882
22.14
22.2076
22.2958
22.411
22.5617
22.7586
23.016
23.3522
23.7907
24.3616
25.1025
26.0598
27.2916
28.8683
30.8719
33.3957
36.552
40.4826
45.3482
51.301
58.5495
67.5
78.7402
92.7412
109.465
128.139
147.334
165.405
180.978
193.354
202.413
208.596
212.429
214.535
215.446
215.486
215.362
215.002
214.313
213.39
212.257
210.963
209.474
22.0077
22.0343
22.0685
22.1127
22.1699
22.2441
22.3401
22.4647
22.6265
22.8363
23.1085
23.4613
23.918
24.5082
25.2682
26.2428
27.4872
29.0684
31.0637
33.5607
36.6616
40.4979
45.222
50.9803
57.9419
66.4423
77.0263
90.2145
106.128
124.222
143.281
161.735
178.142
191.578
201.781
208.944
213.657
216.339
217.745
218.058
217.966
217.732
217.189
216.339
215.31
214.091
212.702
211.251
209.819
208.299
22.1437
22.2078
22.2901
22.3961
22.5326
22.7084
22.9349
23.2264
23.6013
24.083
24.7006
25.4897
26.4937
27.7656
29.3695
31.3789
33.8758
36.9549
40.7377
45.3687
50.991
57.7464
65.9137
75.9878
88.5069
103.701
121.203
139.995
158.62
175.623
189.936
201.126
209.236
214.731
218.11
219.939
220.663
220.617
220.466
220.044
219.305
218.361
217.226
215.917
214.483
213.032
211.566
210.091
208.657
207.158
22.4666
22.618
22.8115
23.0589
23.3749
23.7782
24.2924
24.9464
25.7753
26.8214
28.136
29.7807
31.8257
34.3482
37.4362
41.2032
45.7866
51.325
57.9422
65.8736
75.566
87.5566
102.143
119.091
137.548
156.186
173.574
188.571
200.585
209.552
215.788
219.825
222.093
223.203
223.358
223.221
222.92
222.298
221.411
220.369
219.143
217.748
216.296
214.834
213.354
211.884
210.427
208.969
207.549
206.065
23.2145
23.5611
24
24.5551
25.2556
26.1359
27.2376
28.6106
30.3147
32.4168
34.9898
38.1161
41.9026
46.4807
51.9835
58.5225
66.3001
75.723
87.3167
101.415
117.878
135.982
154.524
172.128
187.618
200.291
209.985
216.893
221.511
224.275
225.722
226.153
226.027
225.816
225.296
224.479
223.512
222.36
221.041
219.604
218.15
216.668
215.182
213.707
212.24
210.781
209.335
207.889
206.477
205.001
24.8829
25.641
26.5855
27.7574
29.2057
30.9884
33.1695
35.8178
39.011
42.8508
47.4639
52.9772
59.492
67.1873
76.4402
87.7588
101.492
117.557
135.324
153.704
171.385
187.194
200.364
210.638
218.131
223.257
226.49
228.219
228.955
228.931
228.737
228.319
227.6
226.67
225.592
224.346
222.94
221.49
220.021
218.53
217.046
215.566
214.092
212.626
211.168
209.716
208.276
206.834
205.426
203.956
28.4001
29.9418
31.8235
34.1063
36.8549
40.1432
44.0697
48.757
54.3251
60.8657
68.5428
77.7149
88.8715
102.359
118.12
135.593
153.773
171.427
187.401
200.906
211.607
219.57
225.135
228.755
230.794
231.776
231.907
231.701
231.39
230.745
229.838
228.841
227.657
226.309
224.87
223.415
221.925
220.429
218.941
217.455
215.977
214.505
213.038
211.577
210.122
208.673
207.235
205.797
204.392
202.929
35.2554
38.1297
41.5413
45.5878
50.3882
56.0545
62.6681
70.3868
79.5609
90.6623
104.019
119.574
136.802
154.77
172.313
188.322
202.003
212.986
221.292
227.193
231.125
233.452
234.645
234.933
234.756
234.491
233.919
233.074
232.101
230.978
229.699
228.281
226.833
225.355
223.856
222.364
220.871
219.381
217.896
216.416
214.942
213.472
212.006
210.547
209.093
207.646
206.211
204.775
203.374
201.918
47.4416
52.3945
58.2017
64.9335
72.7516
82.0081
93.1567
106.492
121.934
138.972
156.722
174.089
190.014
203.726
214.845
223.358
229.495
233.657
236.229
237.561
238.015
237.896
237.628
237.144
236.352
235.395
234.331
233.098
231.717
230.28
228.823
227.325
225.826
224.329
222.832
221.339
219.85
218.363
216.88
215.401
213.926
212.455
210.99
209.531
208.079
206.634
205.201
203.77
202.374
200.925
67.7066
75.6828
85.1031
96.3992
109.815
125.229
142.125
159.656
176.786
192.521
206.126
217.239
225.823
232.084
236.399
239.128
240.593
241.167
241.118
240.839
240.418
239.67
238.72
237.71
236.522
235.187
233.765
232.318
230.831
229.329
227.831
226.329
224.828
223.331
221.836
220.344
218.853
217.366
215.881
214.4
212.924
211.452
209.987
208.528
207.078
205.636
204.207
202.781
201.389
199.949
100.454
114.044
129.5
146.289
163.59
180.425
195.866
209.236
220.203
228.728
235.001
239.378
242.188
243.742
244.4
244.408
244.137
243.749
243.034
242.109
241.111
239.969
238.687
237.281
235.844
234.372
232.871
231.373
229.87
228.364
226.861
225.358
223.857
222.358
220.861
219.365
217.871
216.38
214.893
213.41
211.933
210.461
208.997
207.54
206.092
204.653
203.228
201.808
200.422
198.99
151.494
168.541
185.011
200.055
213.065
223.753
232.096
238.269
242.615
245.435
247.04
247.719
247.775
247.514
247.121
246.461
245.558
244.562
243.454
242.2
240.819
239.395
237.946
236.451
234.951
233.45
231.941
230.434
228.928
227.421
225.914
224.408
222.903
221.399
219.897
218.397
216.899
215.405
213.916
212.432
210.954
209.483
208.019
206.565
205.12
203.685
202.266
200.851
199.472
198.05
205.076
217.604
227.887
235.928
241.896
246.12
248.892
250.474
251.151
251.227
250.984
250.556
249.937
249.05
248.049
246.974
245.747
244.394
242.984
241.547
240.062
238.564
237.066
235.559
234.049
232.54
231.029
229.518
228.006
226.494
224.981
223.469
221.958
220.449
218.942
217.438
215.937
214.441
212.95
211.465
209.987
208.517
207.056
205.604
204.163
202.733
201.319
199.911
198.539
197.127
240.212
245.878
249.898
252.551
254.056
254.698
254.767
254.522
254.075
253.475
252.597
251.577
250.524
249.325
248.001
246.606
245.18
243.707
242.213
240.72
239.215
237.704
236.193
234.681
233.166
231.65
230.133
228.614
227.095
225.575
224.056
222.538
221.021
219.507
217.995
216.488
214.985
213.487
211.995
210.51
209.033
207.564
206.106
204.657
203.221
201.796
200.388
198.988
197.624
196.222
253.941
256.409
257.789
258.361
258.397
258.146
257.683
257.049
256.201
255.168
254.125
252.947
251.643
250.253
248.84
247.384
245.898
244.409
242.908
241.397
239.887
238.374
236.857
235.338
233.817
232.294
230.77
229.244
227.717
226.19
224.663
223.138
221.613
220.092
218.573
217.058
215.548
214.042
212.543
211.051
209.567
208.091
206.625
205.17
203.725
202.294
200.875
199.474
198.081
196.725
195.334
262.134
262.124
261.851
261.363
260.691
259.859
258.822
257.753
256.598
255.32
253.939
252.537
251.098
249.615
248.129
246.635
245.129
243.62
242.108
240.59
239.07
237.547
236.021
234.492
232.962
231.429
229.895
228.36
226.825
225.291
223.757
222.226
220.696
219.17
217.648
216.13
214.617
213.111
211.611
210.12
208.637
207.163
205.699
204.248
202.808
201.382
199.969
198.575
197.191
195.844
194.465
265.63
265.109
264.405
263.558
262.531
261.44
260.29
259.025
257.65
256.262
254.843
253.366
251.886
250.399
248.896
247.389
245.879
244.363
242.843
241.32
239.792
238.26
236.726
235.189
233.65
232.109
230.567
229.024
227.481
225.939
224.398
222.858
221.321
219.787
218.257
216.732
215.212
213.698
212.19
210.691
209.2
207.719
206.247
204.787
203.34
201.905
200.485
199.079
197.693
196.318
194.98
193.612
267.303
266.282
265.179
264.017
262.768
261.405
260.022
258.617
257.147
255.673
254.198
252.7
251.196
249.69
248.175
246.656
245.133
243.605
242.073
240.537
238.997
237.454
235.908
234.361
232.811
231.261
229.709
228.158
226.608
225.058
223.511
221.966
220.424
218.886
217.353
215.825
214.303
212.788
211.281
209.782
208.293
206.813
205.345
203.889
202.446
201.017
199.603
198.205
196.827
195.461
194.132
192.778
267.788
266.545
265.196
263.811
262.42
260.965
259.495
258.029
256.537
255.036
253.536
252.026
250.508
248.987
247.46
245.927
244.391
242.85
241.304
239.755
238.204
236.649
235.092
233.534
231.975
230.415
228.856
227.297
225.739
224.184
222.631
221.081
219.535
217.994
216.458
214.928
213.405
211.89
210.383
208.885
207.398
205.921
204.456
203.004
201.566
200.143
198.737
197.346
195.977
194.62
193.302
191.96
267.639
266.254
264.813
263.348
261.891
260.409
258.913
257.418
255.912
254.397
252.879
251.355
249.823
248.287
246.746
245.199
243.648
242.094
240.536
238.975
237.411
235.845
234.278
232.71
231.142
229.574
228.007
226.441
224.877
223.316
221.758
220.204
218.655
217.111
215.573
214.042
212.518
211.003
209.497
208
206.515
205.042
203.581
202.134
200.701
199.284
197.885
196.503
195.142
193.796
192.488
191.159
267.235
265.785
264.313
262.822
261.333
259.834
258.323
256.809
255.288
253.758
252.224
250.684
249.137
247.586
246.03
244.469
242.905
241.338
239.767
238.194
236.62
235.044
233.467
231.89
230.313
228.737
227.163
225.591
224.021
222.455
220.893
219.335
217.783
216.237
214.697
213.165
211.641
210.127
208.622
207.128
205.645
204.175
202.718
201.276
199.85
198.44
197.048
195.675
194.324
192.988
191.691
190.376
266.765
265.282
263.791
262.285
260.775
259.258
257.732
256.2
254.662
253.117
251.566
250.01
248.448
246.882
245.312
243.738
242.161
240.581
238.999
237.415
235.83
234.245
232.659
231.073
229.489
227.906
226.325
224.747
223.173
221.602
220.036
218.475
216.92
215.372
213.832
212.299
210.775
209.262
207.758
206.267
204.787
203.321
201.87
200.433
199.013
197.61
196.227
194.862
193.521
192.196
190.91
189.609
266.282
264.776
263.265
261.743
260.214
258.679
257.136
255.587
254.032
252.47
250.904
249.333
247.757
246.177
244.593
243.006
241.417
239.825
238.232
236.638
235.044
233.449
231.855
230.261
228.67
227.08
225.494
223.91
222.331
220.756
219.187
217.624
216.067
214.517
212.976
211.443
209.92
208.408
206.907
205.418
203.942
202.481
201.034
199.603
198.19
196.795
195.42
194.064
192.733
191.42
190.146
188.858
264.265
262.734
261.194
259.647
258.094
256.534
254.968
253.397
251.82
250.238
248.652
247.062
245.469
243.873
242.274
240.673
239.071
237.468
235.864
234.26
232.657
231.055
229.454
227.856
226.261
224.669
223.081
221.497
219.919
218.347
216.781
215.223
213.672
212.13
210.598
209.076
207.566
206.067
204.581
203.11
201.653
200.212
198.787
197.381
195.994
194.628
193.282
191.961
190.659
189.397
188.124
263.747
262.196
260.639
259.074
257.503
255.927
254.345
252.757
251.166
249.57
247.97
246.367
244.761
243.153
241.543
239.931
238.318
236.705
235.093
233.48
231.869
230.26
228.653
227.048
225.447
223.851
222.258
220.671
219.09
217.515
215.947
214.388
212.837
211.295
209.764
208.243
206.735
205.239
203.757
202.29
200.838
199.402
197.985
196.586
195.207
193.85
192.514
191.204
189.914
188.664
187.406
263.22
261.651
260.076
258.494
256.907
255.314
253.717
252.115
250.509
248.899
247.286
245.671
244.053
242.433
240.812
239.19
237.568
235.946
234.325
232.705
231.086
229.47
227.857
226.247
224.641
223.039
221.443
219.853
218.269
216.692
215.123
213.563
212.011
210.47
208.94
207.421
205.915
204.423
202.945
201.482
200.035
198.606
197.196
195.805
194.434
193.086
191.761
190.462
189.184
187.947
186.704
261.099
259.507
257.909
256.306
254.698
253.085
251.469
249.85
248.227
246.602
244.975
243.345
241.715
240.084
238.452
236.821
235.191
233.561
231.934
230.308
228.686
227.067
225.452
223.841
222.236
220.636
219.043
217.456
215.878
214.308
212.747
211.196
209.656
208.127
206.611
205.107
203.618
202.144
200.687
199.246
197.823
196.42
195.037
193.676
192.337
191.022
189.735
188.47
187.246
186.017
260.541
258.932
257.318
255.7
254.078
252.452
250.822
249.19
247.555
245.918
244.279
242.639
240.999
239.358
237.717
236.077
234.439
232.802
231.167
229.536
227.907
226.283
224.663
223.048
221.439
219.837
218.241
216.653
215.073
213.502
211.941
210.391
208.852
207.325
205.811
204.311
202.826
201.356
199.904
198.469
197.053
195.657
194.283
192.931
191.602
190.298
189.023
187.77
186.559
185.346
259.977
258.353
256.724
255.092
253.455
251.816
250.174
248.529
246.882
245.234
243.585
241.935
240.284
238.634
236.985
235.337
233.691
232.048
230.406
228.769
227.135
225.506
223.882
222.263
220.651
219.045
217.447
215.858
214.277
212.706
211.145
209.596
208.058
206.533
205.022
203.526
202.045
200.58
199.133
197.705
196.296
194.908
193.542
192.199
190.882
189.589
188.325
187.085
185.888
184.69
259.409
257.77
256.127
254.481
252.831
251.179
249.525
247.868
246.21
244.551
242.892
241.232
239.573
237.914
236.257
234.602
232.948
231.298
229.651
228.008
226.369
224.735
223.107
221.485
219.87
218.262
216.662
215.072
213.49
211.919
210.359
208.811
207.275
205.753
204.245
202.752
201.275
199.816
198.375
196.953
195.551
194.172
192.815
191.482
190.174
188.893
187.642
186.415
185.231
184.05
258.837
257.184
255.528
253.868
252.206
250.542
248.876
247.208
245.54
243.871
242.201
240.533
238.865
237.198
235.533
233.87
232.21
230.554
228.901
227.253
225.609
223.971
222.34
220.715
219.097
217.487
215.886
214.294
212.713
211.142
209.583
208.036
206.502
204.983
203.478
201.989
200.517
199.063
197.628
196.213
194.82
193.448
192.101
190.778
189.481
188.211
186.973
185.76
184.59
183.424
258.262
256.596
254.927
253.255
251.58
249.905
248.227
246.549
244.87
243.192
241.513
239.836
238.16
236.485
234.813
233.144
231.478
229.815
228.157
226.504
224.856
223.215
221.58
219.952
218.332
216.721
215.119
213.526
211.945
210.374
208.816
207.271
205.74
204.223
202.722
201.238
199.771
198.323
196.894
195.486
194.1
192.738
191.399
190.087
188.801
187.544
186.318
185.118
183.962
182.813
257.686
256.006
254.324
252.64
250.955
249.268
247.58
245.892
244.203
242.515
240.828
239.143
237.459
235.777
234.098
232.422
230.75
229.082
227.42
225.762
224.11
222.465
220.827
219.197
217.575
215.963
214.36
212.767
211.186
209.617
208.06
206.517
204.988
203.475
201.978
200.498
199.036
197.594
196.172
194.771
193.394
192.04
190.711
189.409
188.135
186.89
185.677
184.491
183.35
182.217
255.415
253.722
252.026
250.33
248.632
246.934
245.236
243.539
241.842
240.147
238.453
236.762
235.073
233.388
231.706
230.028
228.356
226.688
225.027
223.371
221.723
220.083
218.45
216.827
215.213
213.61
212.017
210.436
208.868
207.313
205.773
204.247
202.737
201.244
199.769
198.313
196.877
195.462
194.069
192.7
191.355
190.036
188.745
187.483
186.25
185.05
183.879
182.753
181.636
254.824
253.119
251.413
249.705
247.998
246.29
244.583
242.877
241.172
239.468
237.767
236.069
234.374
232.682
230.995
229.312
227.635
225.963
224.298
222.639
220.988
219.346
217.712
216.087
214.472
212.869
211.276
209.696
208.13
206.577
205.038
203.516
202.01
200.521
199.051
197.601
196.171
194.764
193.379
192.018
190.683
189.375
188.095
186.845
185.624
184.438
183.281
182.169
181.068
254.233
252.517
250.8
249.083
247.365
245.648
243.932
242.218
240.505
238.794
237.086
235.381
233.68
231.983
230.29
228.602
226.921
225.245
223.576
221.915
220.261
218.616
216.981
215.355
213.74
212.136
210.545
208.966
207.401
205.85
204.314
202.795
201.293
199.81
198.345
196.901
195.479
194.078
192.702
191.35
190.024
188.726
187.457
186.218
185.011
183.837
182.695
181.597
180.513
251.916
250.189
248.462
246.735
245.009
243.285
241.562
239.842
238.124
236.409
234.698
232.991
231.288
229.591
227.899
226.213
224.534
222.862
221.197
219.542
217.895
216.258
214.632
213.017
211.413
209.822
208.245
206.682
205.133
203.601
202.086
200.589
199.11
197.651
196.213
194.797
193.404
192.036
190.693
189.377
188.089
186.831
185.604
184.409
183.25
182.122
181.04
179.973
251.316
249.579
247.843
246.107
244.373
242.641
240.911
239.183
237.458
235.737
234.02
232.307
230.6
228.897
227.201
225.511
223.829
222.154
220.487
218.83
217.182
215.544
213.917
212.302
210.699
209.11
207.534
205.973
204.428
202.899
201.388
199.895
198.421
196.968
195.536
194.126
192.741
191.381
190.047
188.741
187.464
186.218
185.004
183.822
182.677
181.564
180.497
179.447
248.971
247.226
245.482
243.74
242
240.263
238.528
236.797
235.07
233.347
231.629
229.917
228.21
226.51
224.817
223.131
221.454
219.785
218.126
216.477
214.839
213.212
211.597
209.996
208.407
206.833
205.274
203.732
202.206
200.699
199.21
197.741
196.294
194.868
193.467
192.089
190.738
189.414
188.118
186.853
185.618
184.416
183.248
182.117
181.019
179.967
178.934
248.366
246.613
244.861
243.111
241.364
239.619
237.878
236.141
234.408
232.68
230.957
229.24
227.529
225.826
224.129
222.441
220.762
219.092
217.431
215.782
214.143
212.516
210.901
209.3
207.713
206.141
204.584
203.045
201.523
200.019
198.536
197.073
195.631
194.213
192.819
191.45
190.108
188.793
187.508
186.253
185.031
183.842
182.687
181.57
180.487
179.451
178.435
246.002
244.242
242.485
240.731
238.98
237.233
235.49
233.751
232.018
230.291
228.57
226.856
225.149
223.45
221.76
220.078
218.406
216.744
215.094
213.454
211.827
210.213
208.613
207.027
205.458
203.904
202.368
200.85
199.351
197.873
196.415
194.981
193.569
192.183
190.822
189.489
188.184
186.91
185.666
184.456
183.28
182.138
181.035
179.968
178.948
177.948
245.395
243.628
241.864
240.103
238.345
236.592
234.844
233.101
231.364
229.632
227.907
226.19
224.48
222.778
221.085
219.401
217.727
216.064
214.413
212.773
211.147
209.534
207.935
206.352
204.784
203.234
201.701
200.187
198.694
197.22
195.769
194.341
192.937
191.558
190.206
188.882
187.588
186.324
185.092
183.893
182.73
181.603
180.514
179.461
178.457
177.475
244.791
243.017
241.247
239.48
237.717
235.959
234.205
232.457
230.715
228.979
227.251
225.529
223.816
222.111
220.416
218.731
217.056
215.392
213.74
212.101
210.476
208.864
207.267
205.686
204.121
202.574
201.045
199.536
198.046
196.579
195.134
193.712
192.315
190.945
189.602
188.287
187.003
185.75
184.529
183.343
182.193
181.079
180.005
178.968
177.98
177.014
244.193
242.412
240.635
238.862
237.093
235.329
233.571
231.818
230.071
228.331
226.599
224.875
223.159
221.452
219.755
218.069
216.393
214.729
213.077
211.439
209.814
208.203
206.608
205.029
203.468
201.924
200.399
198.894
197.41
195.948
194.509
193.094
191.705
190.343
189.009
187.704
186.43
185.187
183.979
182.805
181.668
180.569
179.509
178.487
177.515
176.566
243.598
241.811
240.028
238.249
236.474
234.705
232.941
231.184
229.434
227.69
225.955
224.228
222.51
220.801
219.103
217.415
215.739
214.074
212.423
210.785
209.161
207.552
205.959
204.383
202.824
201.284
199.763
198.263
196.784
195.328
193.895
192.488
191.106
189.753
188.427
187.132
185.868
184.637
183.441
182.28
181.156
180.07
179.026
178.019
177.062
176.13
243.007
241.213
239.424
237.639
235.86
234.086
232.318
230.557
228.803
227.056
225.318
223.589
221.868
220.158
218.458
216.77
215.093
213.428
211.777
210.14
208.517
206.91
205.319
203.746
202.19
200.654
199.137
197.642
196.169
194.718
193.293
191.892
190.519
189.173
187.857
186.572
185.319
184.099
182.914
181.766
180.656
179.584
178.554
177.563
176.622
175.707
242.42
240.62
238.826
237.036
235.252
233.473
231.701
229.936
228.179
226.43
224.689
222.957
221.235
219.523
217.822
216.132
214.455
212.791
211.14
209.504
207.883
206.278
204.689
203.118
201.566
200.034
198.522
197.031
195.564
194.12
192.701
191.308
189.942
188.605
187.299
186.023
184.781
183.573
182.4
181.264
180.167
179.11
178.095
177.119
176.194
175.295
240.033
238.233
236.438
234.65
232.867
231.091
229.323
227.562
225.81
224.066
222.332
220.608
218.895
217.193
215.503
213.826
212.162
210.512
208.877
207.257
205.654
204.069
202.501
200.952
199.424
197.917
196.431
194.969
193.532
192.12
190.734
189.377
188.049
186.752
185.486
184.255
183.058
181.897
180.775
179.691
178.648
177.647
176.687
175.777
174.895
239.451
237.646
235.847
234.054
232.267
230.488
228.716
226.952
225.197
223.451
221.716
219.99
218.276
216.573
214.883
213.206
211.542
209.893
208.259
206.642
205.041
203.458
201.893
200.348
198.824
197.322
195.842
194.386
192.954
191.549
190.172
188.823
187.504
186.216
184.961
183.74
182.555
181.406
180.296
179.226
178.197
177.211
176.266
175.373
174.508
238.875
237.065
235.261
233.464
231.674
229.891
228.116
226.349
224.592
222.844
221.106
219.38
217.664
215.961
214.271
212.594
210.931
209.283
207.651
206.035
204.437
202.856
201.295
199.755
198.235
196.737
195.263
193.813
192.388
190.99
189.62
188.28
186.97
185.691
184.447
183.237
182.063
180.927
179.83
178.773
177.758
176.787
175.858
174.983
174.138
236.49
234.682
232.881
231.087
229.301
227.523
225.754
223.994
222.244
220.505
218.777
217.061
215.358
213.667
211.991
210.329
208.682
207.052
205.438
203.842
202.265
200.708
199.171
197.656
196.163
194.694
193.25
191.832
190.442
189.08
187.748
186.447
185.178
183.944
182.745
181.583