/*--------------------------------*- C++ -*----------------------------------*\
| =========                 |                                                 |
| \\      /  F ield         | OpenFOAM: The Open Source CFD Toolbox           |
|  \\    /   O peration     | Version:  v1706                                 |
|   \\  /    A nd           | Web:      www.OpenFOAM.com                      |
|    \\/     M anipulation  |                                                 |
\*---------------------------------------------------------------------------*/
FoamFile
{
    version     2.0;
    format      ascii;
    class       volScalarField;
    location    "3.5e-05";
    object      rho;
}
// * * * * * * * * * * * * * * * * * * * * * * * * * * * * * * * * * * * * * //

dimensions      [1 -3 0 0 0 0 0];


internalField   nonuniform List<scalar> 
30038
(
0.000511309
0.000511309
0.000511309
0.000511309
0.000511309
0.000511309
0.000511309
0.000511309
0.000511309
0.000511309
0.000511309
0.000511309
0.000511309
0.000511309
0.000511309
0.000511309
0.000511309
0.000511309
0.000511309
0.000511309
0.000511309
0.000511309
0.000511309
0.000511309
0.000511309
0.000511309
0.000511309
0.000511309
0.000511309
0.000511309
0.000511309
0.000511309
0.000511309
0.000511309
0.000511309
0.000511309
0.000511309
0.000511309
0.000511309
0.000511309
0.000511309
0.000511309
0.000511309
0.000511309
0.000511309
0.000511309
0.000511309
0.000511309
0.000511309
0.000511309
0.000511309
0.000511309
0.000511309
0.000511309
0.000511309
0.000511309
0.000511309
0.000511309
0.000511309
0.000511309
0.000511309
0.000511309
0.000511309
0.000511309
0.000511309
0.000511309
0.000511309
0.000511309
0.000511309
0.000511309
0.000511309
0.000511309
0.000511309
0.000511309
0.000511309
0.000511309
0.000511309
0.000511309
0.000511309
0.000511309
0.000511309
0.000511309
0.000511309
0.000511309
0.000511309
0.000511309
0.000511309
0.000511309
0.000511309
0.000511309
0.000511309
0.000511309
0.000511309
0.000511309
0.000511309
0.000511309
0.000511309
0.000511309
0.000511309
0.000511309
0.000511309
0.000511309
0.000511309
0.000511309
0.000511309
0.000511309
0.000511309
0.000511309
0.000511309
0.000511309
0.000511309
0.000511309
0.000511309
0.000511309
0.000511309
0.000511309
0.000511309
0.000511309
0.000511309
0.000511309
0.000511309
0.000511309
0.000511309
0.000511309
0.000511309
0.000511309
0.000511309
0.000511309
0.000511309
0.000511309
0.000511309
0.000511309
0.000511309
0.000511309
0.000511309
0.000511309
0.000511309
0.000511309
0.000511309
0.000511309
0.000511309
0.000511309
0.000511309
0.000511309
0.000511309
0.000511309
0.000511309
0.000511309
0.000511309
0.000511309
0.000511309
0.000511309
0.000511309
0.000511309
0.000511309
0.000511309
0.000511309
0.000511309
0.000511309
0.000511309
0.000511309
0.000511309
0.000511309
0.000511309
0.000511309
0.000511309
0.000511309
0.000511309
0.000511309
0.000511309
0.000511309
0.000511309
0.000511309
0.000511309
0.000511309
0.000511309
0.000511309
0.000511309
0.000511309
0.000511309
0.000511309
0.000511309
0.000511309
0.000511309
0.000511309
0.000511309
0.000511309
0.000511309
0.000511309
0.000511309
0.000511309
0.000511309
0.000511309
0.000511309
0.000511309
0.000511309
0.000511309
0.000511309
0.000511309
0.000511309
0.000511309
0.000511309
0.000511309
0.000511309
0.000511309
0.000511309
0.000511309
0.000511309
0.000511309
0.000511309
0.000511309
0.000511309
0.000511309
0.000511309
0.000511309
0.000511309
0.000511309
0.000511309
0.000511309
0.000511309
0.000511309
0.000511309
0.000511309
0.000511309
0.000511309
0.000511309
0.000511309
0.000511309
0.000511309
0.000511309
0.000511309
0.000511309
0.000511309
0.000511309
0.000511309
0.000511309
0.000511309
0.000511309
0.000511309
0.000511309
0.000511309
0.000511309
0.000511309
0.000511309
0.000511309
0.000511309
0.000511309
0.000511309
0.000511309
0.000511309
0.000511309
0.000511309
0.000511309
0.000511309
0.000511309
0.000511309
0.000511309
0.000511309
0.000511309
0.000511309
0.000511309
0.000511309
0.000511309
0.000511309
0.000511309
0.000511309
0.000511309
0.000511309
0.000511309
0.000511309
0.000511309
0.000511309
0.000511309
0.000511309
0.000511309
0.000511309
0.000511309
0.000511309
0.000511309
0.000511309
0.000511309
0.000511309
0.000511309
0.000511309
0.000511309
0.000511309
0.000511309
0.000511309
0.000511309
0.000511309
0.000511309
0.000511309
0.000511309
0.000511309
0.000511309
0.000511309
0.000511309
0.000511309
0.000511309
0.000511309
0.000511309
0.000511309
0.000511309
0.00051131
0.000511309
0.000511309
0.000511309
0.000511309
0.000511309
0.000511309
0.000511309
0.000511309
0.000511309
0.000511309
0.000511309
0.000511309
0.000511309
0.000511309
0.000511309
0.000511309
0.000511309
0.000511309
0.000511309
0.000511309
0.000511309
0.000511309
0.000511309
0.000511309
0.000511309
0.000511309
0.000511309
0.000511309
0.000511309
0.000511309
0.000511309
0.000511309
0.000511309
0.000511309
0.000511309
0.00051131
0.00051131
0.00051131
0.00051131
0.000511309
0.000511309
0.000511309
0.000511309
0.000511309
0.000511309
0.000511309
0.000511309
0.000511309
0.000511309
0.000511309
0.000511309
0.000511309
0.000511309
0.000511309
0.000511309
0.000511309
0.000511309
0.000511309
0.000511309
0.000511309
0.000511309
0.000511309
0.000511309
0.000511309
0.000511309
0.000511309
0.000511309
0.000511309
0.000511309
0.000511309
0.000511309
0.00051131
0.00051131
0.00051131
0.00051131
0.00051131
0.000511311
0.000511311
0.000511309
0.000511309
0.000511309
0.000511309
0.000511309
0.000511309
0.000511309
0.000511309
0.000511309
0.000511309
0.000511309
0.000511309
0.000511309
0.000511309
0.000511309
0.000511309
0.000511309
0.000511309
0.000511309
0.000511309
0.000511309
0.000511309
0.000511309
0.000511309
0.000511309
0.000511309
0.000511309
0.000511309
0.000511309
0.00051131
0.00051131
0.00051131
0.00051131
0.00051131
0.00051131
0.000511311
0.000511312
0.000511313
0.000511315
0.000511309
0.000511309
0.000511309
0.000511309
0.000511309
0.000511309
0.000511309
0.000511309
0.000511309
0.000511309
0.000511309
0.000511309
0.000511309
0.000511309
0.000511309
0.000511309
0.000511309
0.000511309
0.000511309
0.000511309
0.000511309
0.000511309
0.000511309
0.000511309
0.000511309
0.000511309
0.000511309
0.00051131
0.00051131
0.00051131
0.00051131
0.00051131
0.00051131
0.000511311
0.000511312
0.000511313
0.000511314
0.000511317
0.00051132
0.000511326
0.000511309
0.000511309
0.000511309
0.000511309
0.000511309
0.000511309
0.000511309
0.000511309
0.000511309
0.000511309
0.000511309
0.000511309
0.000511309
0.000511309
0.000511309
0.000511309
0.000511309
0.000511309
0.000511309
0.000511309
0.000511309
0.000511309
0.000511309
0.000511309
0.00051131
0.00051131
0.00051131
0.00051131
0.00051131
0.00051131
0.000511311
0.000511312
0.000511313
0.000511314
0.000511316
0.000511319
0.000511324
0.000511331
0.00051134
0.000511356
0.000511309
0.000511309
0.000511309
0.000511309
0.000511309
0.000511309
0.000511309
0.000511309
0.000511309
0.000511309
0.000511309
0.000511309
0.000511309
0.000511309
0.000511309
0.000511309
0.000511309
0.000511309
0.000511309
0.000511309
0.000511309
0.00051131
0.00051131
0.00051131
0.00051131
0.00051131
0.00051131
0.000511311
0.000511312
0.000511313
0.000511314
0.000511316
0.000511319
0.000511323
0.000511329
0.000511338
0.000511351
0.00051137
0.000511398
0.000511443
0.000511309
0.000511309
0.000511309
0.000511309
0.000511309
0.000511309
0.000511309
0.000511309
0.000511309
0.000511309
0.000511309
0.000511309
0.000511309
0.000511309
0.000511309
0.000511309
0.000511309
0.000511309
0.00051131
0.00051131
0.00051131
0.00051131
0.00051131
0.00051131
0.000511311
0.000511312
0.000511313
0.000511314
0.000511316
0.000511319
0.000511323
0.000511328
0.000511337
0.000511348
0.000511366
0.000511391
0.000511427
0.000511481
0.000511558
0.00051168
0.000511309
0.000511309
0.000511309
0.000511309
0.000511309
0.000511309
0.000511309
0.000511309
0.000511309
0.000511309
0.000511309
0.000511309
0.000511309
0.000511309
0.000511309
0.00051131
0.00051131
0.00051131
0.00051131
0.00051131
0.00051131
0.000511311
0.000511312
0.000511313
0.000511314
0.000511316
0.000511318
0.000511322
0.000511328
0.000511335
0.000511347
0.000511363
0.000511386
0.000511419
0.000511467
0.000511536
0.000511637
0.000511783
0.000511993
0.000512324
0.000511309
0.000511309
0.000511309
0.000511309
0.000511309
0.000511309
0.000511309
0.000511309
0.000511309
0.000511309
0.000511309
0.00051131
0.00051131
0.00051131
0.00051131
0.00051131
0.00051131
0.000511311
0.000511311
0.000511312
0.000511313
0.000511314
0.000511316
0.000511318
0.000511322
0.000511327
0.000511335
0.000511345
0.000511361
0.000511382
0.000511413
0.000511457
0.000511521
0.000511611
0.000511742
0.00051193
0.000512201
0.000512594
0.000513156
0.000514033
0.000511309
0.000511309
0.000511309
0.000511309
0.000511309
0.000511309
0.000511309
0.000511309
0.00051131
0.00051131
0.00051131
0.00051131
0.00051131
0.00051131
0.000511311
0.000511311
0.000511312
0.000511313
0.000511314
0.000511316
0.000511319
0.000511322
0.000511327
0.000511335
0.000511345
0.00051136
0.00051138
0.000511409
0.000511451
0.000511509
0.000511593
0.000511713
0.000511883
0.000512127
0.000512476
0.000512976
0.000513692
0.000514726
0.000516194
0.000518461
0.000511309
0.000511309
0.000511309
0.000511309
0.000511309
0.00051131
0.00051131
0.00051131
0.00051131
0.00051131
0.00051131
0.00051131
0.000511311
0.000511311
0.000511312
0.000511313
0.000511314
0.000511316
0.000511319
0.000511323
0.000511328
0.000511335
0.000511345
0.000511359
0.000511379
0.000511407
0.000511447
0.000511502
0.000511581
0.000511692
0.000511849
0.000512072
0.000512389
0.00051284
0.00051348
0.000514393
0.000515694
0.000517544
0.000520188
0.0005239
0.000529558
0.000511309
0.000511309
0.00051131
0.00051131
0.00051131
0.00051131
0.00051131
0.00051131
0.00051131
0.000511311
0.000511311
0.000511312
0.000511313
0.000511315
0.000511317
0.000511319
0.000511323
0.000511328
0.000511336
0.000511346
0.00051136
0.000511379
0.000511407
0.000511445
0.000511498
0.000511573
0.000511678
0.000511826
0.000512033
0.000512326
0.000512739
0.000513322
0.000514146
0.00051531
0.000516956
0.000519279
0.000522557
0.000527168
0.000533677
0.000542626
0.000555982
0.00051131
0.00051131
0.00051131
0.00051131
0.00051131
0.00051131
0.000511311
0.000511311
0.000511312
0.000511312
0.000511314
0.000511315
0.000511317
0.00051132
0.000511324
0.000511329
0.000511337
0.000511347
0.000511361
0.000511381
0.000511408
0.000511445
0.000511497
0.00051157
0.000511671
0.000511812
0.000512008
0.000512283
0.000512668
0.000513207
0.000513963
0.000515023
0.000516512
0.000518598
0.000521518
0.0005256
0.000531297
0.000539202
0.000550084
0.000565117
0.000585433
0.000615142
0.00051131
0.00051131
0.00051131
0.00051131
0.000511311
0.000511311
0.000511312
0.000511313
0.000511314
0.000511316
0.000511318
0.000511321
0.000511325
0.000511331
0.000511338
0.000511349
0.000511363
0.000511383
0.000511411
0.000511448
0.0005115
0.000511571
0.000511669
0.000511806
0.000511995
0.000512257
0.000512622
0.000513129
0.000513834
0.000514815
0.000516183
0.000518087
0.000520733
0.000524405
0.000529493
0.00053652
0.000546146
0.000559271
0.000577172
0.000601323
0.000633769
0.000676336
0.000741579
0.000511311
0.000511311
0.000511312
0.000511312
0.000511313
0.000511315
0.000511316
0.000511319
0.000511322
0.000511327
0.000511333
0.000511341
0.000511352
0.000511367
0.000511387
0.000511415
0.000511453
0.000511505
0.000511576
0.000511674
0.000511808
0.000511993
0.000512247
0.000512598
0.000513082
0.00051375
0.000514673
0.00051595
0.000517715
0.000520151
0.000523507
0.000528124
0.000534463
0.00054311
0.000554817
0.000570642
0.000591999
0.000620408
0.00065793
0.000708557
0.000779469
0.000875087
0.00100887
0.000511312
0.000511313
0.000511314
0.000511315
0.000511317
0.00051132
0.000511324
0.000511328
0.000511335
0.000511344
0.000511355
0.000511371
0.000511392
0.000511421
0.00051146
0.000511514
0.000511586
0.000511684
0.000511818
0.000512002
0.000512252
0.000512594
0.000513064
0.000513707
0.000514589
0.000515799
0.00051746
0.000519738
0.000522854
0.000527108
0.000532911
0.000540788
0.000551392
0.00056561
0.000584676
0.000610059
0.000643316
0.000687238
0.00074722
0.000830238
0.000940621
0.00107724
0.00122629
0.00138318
0.000511315
0.000511316
0.000511319
0.000511322
0.000511326
0.000511331
0.000511338
0.000511347
0.00051136
0.000511377
0.000511399
0.00051143
0.000511471
0.000511526
0.0005116
0.000511701
0.000511837
0.000512021
0.000512271
0.000512611
0.000513073
0.000513702
0.000514557
0.000515722
0.00051731
0.000519472
0.000522408
0.000526389
0.000531779
0.000539054
0.000548802
0.000561772
0.000579025
0.000601936
0.000631916
0.000670882
0.000722848
0.000794212
0.000890951
0.00101437
0.00115826
0.00130877
0.00145122
0.00157017
0.00166547
0.00051132
0.000511324
0.000511328
0.000511334
0.000511342
0.000511352
0.000511366
0.000511384
0.000511408
0.000511441
0.000511484
0.000511542
0.00051162
0.000511724
0.000511864
0.000512052
0.000512306
0.000512648
0.00051311
0.000513733
0.000514576
0.000515714
0.000517254
0.000519336
0.000522145
0.000525925
0.000531005
0.000537818
0.000546902
0.000558909
0.000574746
0.000595652
0.000623012
0.000658273
0.000704272
0.000766398
0.000851081
0.00096195
0.00109632
0.00124396
0.00139008
0.00152048
0.00162594
0.00170397
0.00175682
0.00178952
0.000511326
0.000511331
0.000511338
0.000511347
0.000511358
0.000511373
0.000511393
0.00051142
0.000511455
0.000511502
0.000511563
0.000511646
0.000511755
0.000511902
0.000512097
0.000512358
0.000512707
0.000513175
0.000513802
0.000514644
0.000515773
0.000517289
0.000519323
0.000522049
0.000525691
0.000530548
0.000537017
0.000545594
0.000556869
0.000571614
0.000590932
0.000616162
0.000648575
0.000690156
0.000745142
0.000819734
0.000918957
0.00104294
0.00118476
0.00133157
0.00146888
0.00158529
0.00167555
0.00173952
0.0017818
0.00180577
0.0018189
0.00182221
0.000511353
0.000511366
0.000511383
0.000511405
0.000511434
0.000511473
0.000511524
0.000511591
0.000511679
0.000511796
0.000511951
0.000512156
0.000512428
0.00051279
0.000513271
0.000513911
0.000514765
0.0005159
0.000517413
0.000519429
0.000522112
0.000525671
0.00053038
0.000536608
0.000544813
0.000555541
0.000569462
0.000587547
0.000611051
0.000641224
0.000679505
0.000729088
0.000795522
0.000884502
0.000998185
0.00113257
0.00127717
0.00141828
0.00154314
0.00164428
0.00171918
0.00177075
0.00180277
0.00182058
0.00182885
0.00182974
0.00182938
0.00182741
0.000511375
0.000511395
0.00051142
0.000511453
0.000511496
0.000511552
0.000511625
0.000511721
0.000511848
0.000512014
0.000512232
0.00051252
0.0005129
0.000513402
0.000514065
0.000514941
0.0005161
0.000517631
0.000519657
0.000522334
0.00052586
0.00053049
0.000536565
0.000544517
0.000554854
0.000568175
0.000585331
0.000607477
0.00063587
0.000671658
0.000717196
0.000777203
0.000857506
0.000961649
0.00108793
0.00122837
0.00137049
0.00150134
0.00161132
0.0016965
0.00175705
0.0017975
0.00182073
0.00183352
0.00183719
0.00183712
0.00183633
0.00183346
0.0018282
0.00182085
0.000511476
0.000511525
0.000511587
0.000511669
0.000511775
0.000511913
0.000512094
0.00051233
0.000512639
0.000513043
0.000513573
0.000514269
0.000515182
0.000516379
0.000517951
0.000520014
0.000522722
0.000526261
0.000530873
0.000536878
0.000544684
0.000554767
0.000567677
0.000584158
0.000605278
0.000632258
0.000666151
0.000708683
0.000763738
0.000836927
0.000932634
0.00105092
0.001186
0.00132704
0.00146142
0.00157842
0.00167233
0.00174172
0.00178962
0.0018196
0.00183636
0.00184424
0.00184501
0.00184466
0.00184288
0.00183871
0.00183276
0.00182522
0.00181641
0.00180584
0.000511724
0.000511843
0.000511996
0.000512195
0.000512454
0.000512789
0.000513225
0.000513792
0.000514532
0.000515496
0.00051675
0.000518384
0.000520514
0.000523287
0.000526886
0.00053154
0.000537551
0.00054531
0.000555265
0.000567927
0.000583956
0.000604336
0.00063024
0.000662703
0.000703012
0.000754325
0.000821828
0.000910349
0.00102122
0.00115047
0.00128897
0.00142481
0.00154689
0.00164788
0.00172536
0.00178034
0.00181698
0.0018381
0.00184978
0.0018529
0.00185282
0.00185198
0.00184904
0.00184377
0.00183717
0.00182915
0.0018197
0.00180962
0.00179962
0.00178879
0.000512323
0.000512609
0.000512978
0.000513454
0.00051407
0.000514867
0.000515897
0.000517228
0.000518948
0.000521174
0.000524052
0.000527757
0.000532511
0.000538603
0.000546407
0.000556352
0.000568914
0.000584689
0.000604585
0.00062972
0.000661138
0.000699833
0.000748373
0.00081145
0.000894052
0.000998378
0.00112186
0.00125693
0.00139265
0.00151796
0.00162454
0.00170875
0.00177046
0.00181282
0.00183922
0.00185406
0.00186057
0.00186093
0.00186068
0.00185873
0.00185444
0.00184862
0.00184139
0.00183281
0.00182311
0.00181319
0.00180308
0.00179282
0.00178282
0.00177219
0.000513743
0.000514419
0.000515289
0.000516404
0.000517833
0.000519667
0.000522022
0.000525045
0.000528906
0.000533819
0.000540066
0.000548008
0.000558055
0.000570654
0.000586352
0.000605993
0.00063065
0.000661348
0.000698919
0.000745463
0.000805199
0.000883092
0.000981879
0.00110003
0.00123127
0.00136574
0.00149268
0.00160335
0.00169294
0.00176057
0.00180824
0.00183955
0.00185762
0.00186717
0.00186927
0.00186916
0.00186812
0.00186486
0.00185959
0.0018532
0.00184546
0.00183631
0.0018266
0.00181674
0.00180668
0.00179661
0.0017866
0.00177652
0.00176669
0.00175625
0.000517039
0.000518592
0.00052057
0.000523093
0.000526305
0.000530374
0.00053551
0.000541987
0.00055016
0.000560421
0.000573189
0.000588974
0.000608572
0.000633018
0.000663302
0.000700156
0.000745334
0.000802656
0.000876949
0.000971246
0.00108472
0.00121213
0.00134462
0.00147195
0.00158523
0.0016789
0.00175138
0.00180374
0.00183928
0.00186102
0.00187318
0.00187755
0.0018776
0.00187724
0.00187485
0.00187024
0.00186453
0.00185751
0.00184918
0.00183982
0.00183024
0.00182039
0.00181042
0.00180048
0.00179055
0.00178062
0.00177076
0.00176083
0.00175112
0.00174081
0.000524434
0.000527886
0.000532219
0.000537642
0.00054443
0.000552931
0.000563519
0.000576586
0.000592614
0.00061237
0.000636858
0.000667022
0.000703514
0.00074785
0.000803554
0.000875259
0.000966099
0.00107568
0.0011995
0.00132961
0.00145637
0.00157096
0.00166748
0.00174364
0.00179997
0.00183909
0.00186427
0.00187856
0.00188533
0.00188632
0.00188612
0.00188455
0.00188083
0.00187552
0.0018692
0.00186163
0.00185274
0.00184339
0.00183385
0.00182407
0.00181427
0.00180446
0.00179463
0.00178482
0.00177502
0.00176522
0.00175545
0.00174563
0.00173601
0.00172582
0.000540294
0.000547479
0.000556411
0.000567442
0.000580939
0.000597364
0.000617476
0.00064225
0.000672574
0.000709027
0.000752979
0.000807761
0.0008778
0.000966177
0.00107269
0.00119334
0.00132091
0.00144638
0.0015612
0.00165935
0.00173804
0.00179741
0.00183955
0.00186753
0.0018841
0.00189279
0.00189511
0.00189493
0.00189416
0.00189114
0.00188614
0.00188052
0.0018736
0.00186537
0.00185633
0.00184711
0.00183756
0.00182788
0.00181821
0.00180851
0.00179881
0.00178911
0.00177941
0.0017697
0.00175999
0.00175027
0.00174059
0.00173085
0.00172132
0.00171124
0.000572315
0.000586371
0.000603348
0.000624014
0.000649319
0.000680079
0.000716789
0.000760776
0.00081527
0.000884495
0.000971347
0.0010756
0.00119357
0.0013186
0.00144227
0.00155641
0.00165506
0.00173518
0.00179664
0.00184099
0.00187115
0.00188983
0.00190016
0.0019038
0.00190394
0.00190357
0.00190121
0.00189683
0.0018915
0.00188517
0.00187768
0.00186901
0.00186004
0.00185079
0.00184131
0.00183181
0.00182227
0.00181269
0.0018031
0.0017935
0.0017839
0.00177428
0.00176465
0.00175502
0.00174538
0.00173574
0.00172614
0.00171648
0.00170704
0.00169706
0.000632154
0.000658241
0.000689704
0.000726957
0.00077138
0.000826194
0.000895412
0.000981611
0.00108439
0.00120017
0.00132273
0.00144421
0.00155689
0.00165501
0.00173552
0.00179806
0.00184386
0.00187557
0.00189604
0.00190741
0.00191239
0.00191313
0.00191282
0.00191118
0.00190735
0.00190228
0.00189652
0.00188954
0.00188137
0.00187268
0.0018638
0.00185455
0.00184521
0.00183583
0.00182641
0.00181697
0.0018075
0.00179801
0.0017885
0.00177897
0.00176943
0.00175987
0.00175031
0.00174074
0.00173117
0.0017216
0.00171208
0.00170251
0.00169315
0.00168329
0.000739748
0.000785021
0.000840768
0.000910754
0.000997104
0.00109909
0.00121313
0.00133332
0.00145228
0.0015628
0.00165946
0.00173938
0.00180202
0.00184844
0.00188113
0.00190272
0.00191507
0.00192104
0.00192247
0.00192219
0.00192106
0.00191772
0.00191283
0.00190759
0.00190113
0.0018935
0.00188513
0.00187653
0.00186756
0.00185841
0.00184923
0.00183997
0.00183068
0.00182136
0.00181201
0.00180263
0.00179322
0.00178378
0.00177433
0.00176485
0.00175535
0.00174585
0.00173634
0.00172684
0.00171734
0.00170785
0.00169841
0.00168892
0.00167965
0.00166991
0.000930864
0.00101808
0.00111984
0.0012325
0.00135034
0.00146646
0.00157419
0.00166855
0.00174692
0.00180875
0.00185501
0.001888
0.00191016
0.00192316
0.00192983
0.00193183
0.00193173
0.00193094
0.00192799
0.00192344
0.0019184
0.00191241
0.00190539
0.00189734
0.001889
0.00188034
0.00187141
0.00186243
0.00185337
0.00184424
0.00183507
0.00182587
0.00181663
0.00180736
0.00179805
0.00178871
0.00177934
0.00176994
0.00176053
0.00175109
0.00174165
0.0017322
0.00172276
0.00171331
0.00170389
0.00169448
0.00168512
0.00167573
0.00166655
0.00165692
0.00125833
0.00137375
0.00148666
0.00159097
0.00168223
0.00175817
0.00181836
0.00186367
0.00189634
0.0019185
0.00193191
0.00193883
0.00194131
0.0019414
0.0019407
0.00193826
0.00193404
0.00192915
0.00192355
0.00191691
0.00190923
0.00190118
0.00189289
0.00188421
0.00187542
0.00186657
0.00185762
0.00184862
0.00183959
0.00183051
0.00182138
0.00181221
0.001803
0.00179375
0.00178447
0.00177516
0.00176582
0.00175646
0.00174709
0.0017377
0.00172831
0.00171892
0.00170954
0.00170016
0.00169082
0.00168148
0.00167221
0.00166291
0.00165383
0.00164431
0.00161294
0.00170034
0.00177305
0.00183079
0.00187444
0.00190616
0.0019279
0.0019412
0.00194821
0.00195094
0.00195132
0.0019505
0.00194845
0.00194451
0.00193973
0.00193451
0.00192823
0.00192095
0.00191319
0.00190519
0.00189677
0.00188819
0.00187956
0.00187081
0.001862
0.00185315
0.00184423
0.00183526
0.00182625
0.00181719
0.00180808
0.00179892
0.00178973
0.00178051
0.00177125
0.00176196
0.00175266
0.00174334
0.00173401
0.00172467
0.00171533
0.001706
0.00169668
0.00168738
0.00167811
0.00166886
0.00165967
0.00165047
0.00164148
0.00163209
0.00184591
0.00188726
0.00191749
0.00193832
0.00195113
0.00195797
0.00196078
0.00196129
0.00196046
0.00195866
0.00195496
0.00195019
0.00194526
0.00193934
0.00193246
0.00192499
0.00191725
0.00190913
0.00190077
0.00189236
0.00188383
0.00187521
0.00186653
0.0018578
0.001849
0.00184015
0.00183125
0.00182229
0.00181328
0.00180422
0.00179512
0.00178598
0.0017768
0.0017676
0.00175836
0.00174911
0.00173984
0.00173056
0.00172128
0.00171199
0.00170271
0.00169344
0.00168419
0.00167496
0.00166577
0.0016566
0.00164751
0.0016384
0.00162951
0.00162023
0.00193025
0.00194972
0.0019617
0.00196816
0.00197084
0.00197145
0.00197065
0.00196876
0.00196539
0.00196068
0.00195596
0.00195035
0.00194381
0.00193655
0.00192908
0.00192126
0.00191316
0.00190497
0.00189666
0.00188823
0.00187975
0.00187121
0.00186259
0.00185391
0.00184517
0.00183638
0.00182752
0.00181861
0.00180965
0.00180064
0.00179159
0.00178249
0.00177337
0.00176421
0.00175502
0.00174582
0.0017366
0.00172737
0.00171813
0.00170889
0.00169966
0.00169044
0.00168124
0.00167206
0.0016629
0.00165379
0.00164471
0.0016357
0.00162669
0.0016179
0.00160875
0.00197871
0.00198119
0.00198178
0.00198096
0.00197894
0.00197581
0.00197123
0.00196648
0.00196118
0.00195499
0.00194797
0.00194076
0.00193324
0.00192535
0.00191737
0.00190929
0.00190108
0.0018928
0.00188446
0.00187602
0.00186752
0.00185896
0.00185033
0.00184164
0.00183289
0.00182408
0.00181521
0.00180629
0.00179733
0.00178832
0.00177927
0.00177019
0.00176107
0.00175194
0.00174278
0.0017336
0.00172442
0.00171523
0.00170604
0.00169685
0.00168768
0.00167852
0.00166938
0.00166027
0.0016512
0.00164216
0.00163317
0.00162426
0.00161535
0.00160666
0.00159763
0.00199223
0.00199134
0.00198923
0.00198614
0.00198179
0.00197704
0.00197191
0.00196597
0.00195917
0.00195222
0.00194503
0.00193737
0.00192961
0.00192177
0.00191377
0.00190568
0.00189754
0.0018893
0.00188099
0.00187261
0.00186416
0.00185564
0.00184705
0.0018384
0.00182968
0.00182091
0.00181208
0.00180321
0.00179428
0.00178531
0.00177631
0.00176727
0.0017582
0.00174911
0.00173999
0.00173086
0.00172172
0.00171257
0.00170343
0.00169428
0.00168515
0.00167603
0.00166694
0.00165787
0.00164883
0.00163984
0.00163089
0.00162199
0.00161317
0.00160436
0.00159578
0.00158687
0.00199642
0.00199226
0.00198758
0.00198252
0.00197684
0.00197029
0.00196354
0.00195662
0.00194919
0.00194165
0.00193407
0.00192629
0.00191841
0.00191047
0.00190243
0.00189431
0.00188612
0.00187785
0.0018695
0.00186109
0.0018526
0.00184405
0.00183543
0.00182675
0.00181802
0.00180923
0.00180039
0.0017915
0.00178257
0.00177361
0.00176461
0.00175558
0.00174653
0.00173745
0.00172837
0.00171927
0.00171016
0.00170105
0.00169195
0.00168286
0.00167378
0.00166473
0.0016557
0.0016467
0.00163774
0.00162882
0.00161996
0.00161115
0.00160243
0.00159373
0.00158525
0.00157647
0.00199308
0.00198758
0.0019813
0.00197471
0.00196804
0.00196088
0.00195355
0.0019462
0.00193864
0.00193096
0.00192324
0.00191541
0.00190748
0.00189948
0.0018914
0.00188324
0.001875
0.00186669
0.0018583
0.00184985
0.00184132
0.00183274
0.00182409
0.00181539
0.00180663
0.00179783
0.00178898
0.00178009
0.00177116
0.0017622
0.00175321
0.0017442
0.00173517
0.00172612
0.00171706
0.00170799
0.00169892
0.00168986
0.00168081
0.00167177
0.00166275
0.00165375
0.00164479
0.00163586
0.00162698
0.00161815
0.00160938
0.00160066
0.00159204
0.00158344
0.00157507
0.00156642
0.00198578
0.00197931
0.00197242
0.00196528
0.00195817
0.00195085
0.00194337
0.00193586
0.00192824
0.00192051
0.00191271
0.00190482
0.00189684
0.00188879
0.00188065
0.00187244
0.00186415
0.00185579
0.00184737
0.00183887
0.00183032
0.0018217
0.00181303
0.00180431
0.00179554
0.00178672
0.00177787
0.00176898
0.00176005
0.0017511
0.00174212
0.00173313
0.00172412
0.00171509
0.00170606
0.00169703
0.00168801
0.00167899
0.00166999
0.001661
0.00165204
0.00164311
0.00163421
0.00162536
0.00161656
0.00160781
0.00159913
0.00159051
0.00158199
0.0015735
0.00156524
0.00155673
0.0019769
0.00197
0.00196291
0.00195564
0.00194834
0.00194093
0.0019334
0.0019258
0.0019181
0.00191032
0.00190245
0.0018945
0.00188646
0.00187835
0.00187016
0.0018619
0.00185356
0.00184516
0.00183669
0.00182816
0.00181958
0.00181094
0.00180224
0.00179351
0.00178472
0.0017759
0.00176704
0.00175815
0.00174924
0.0017403
0.00173133
0.00172236
0.00171337
0.00170438
0.00169538
0.00168639
0.00167741
0.00166844
0.00165948
0.00165055
0.00164166
0.00163279
0.00162397
0.00161519
0.00160647
0.00159781
0.00158923
0.00158071
0.00157229
0.00156391
0.00155576
0.00154738
0.00196779
0.00196069
0.0019535
0.00194616
0.00193876
0.00193127
0.00192367
0.00191599
0.00190823
0.00190037
0.00189244
0.00188442
0.00187633
0.00186815
0.00185991
0.0018516
0.00184322
0.00183478
0.00182627
0.00181772
0.0018091
0.00180044
0.00179173
0.00178298
0.00177419
0.00176536
0.00175651
0.00174762
0.00173872
0.00172979
0.00172084
0.00171189
0.00170293
0.00169397
0.00168501
0.00167606
0.00166712
0.0016582
0.0016493
0.00164043
0.00163159
0.0016228
0.00161405
0.00160536
0.00159672
0.00158815
0.00157966
0.00157124
0.00156292
0.00155466
0.00154663
0.00153838
0.00195881
0.0019516
0.00194431
0.00193691
0.00192941
0.00192184
0.00191417
0.00190641
0.00189857
0.00189065
0.00188265
0.00187457
0.00186642
0.0018582
0.0018499
0.00184155
0.00183313
0.00182465
0.00181612
0.00180753
0.0017989
0.00179021
0.00178149
0.00177273
0.00176394
0.00175511
0.00174626
0.00173738
0.00172848
0.00171957
0.00171065
0.00170172
0.00169279
0.00168386
0.00167494
0.00166603
0.00165714
0.00164827
0.00163943
0.00163062
0.00162185
0.00161313
0.00160446
0.00159584
0.00158729
0.00157882
0.00157042
0.0015621
0.0015539
0.00154576
0.00153784
0.00152973
0.00194273
0.00193534
0.00192786
0.00192028
0.00191262
0.00190488
0.00189705
0.00188914
0.00188115
0.00187309
0.00186495
0.00185675
0.00184847
0.00184014
0.00183174
0.00182329
0.00181478
0.00180622
0.00179761
0.00178895
0.00178026
0.00177153
0.00176276
0.00175396
0.00174514
0.00173629
0.00172743
0.00171854
0.00170965
0.00170075
0.00169185
0.00168295
0.00167406
0.00166518
0.00165632
0.00164748
0.00163866
0.00162988
0.00162113
0.00161243
0.00160378
0.00159519
0.00158666
0.0015782
0.00156982
0.00156152
0.00155331
0.00154522
0.00153719
0.0015294
0.00152143
0.00193406
0.00192658
0.00191901
0.00191135
0.00190361
0.00189579
0.0018879
0.00187992
0.00187187
0.00186375
0.00185556
0.00184731
0.00183899
0.00183061
0.00182218
0.00181369
0.00180516
0.00179657
0.00178794
0.00177928
0.00177057
0.00176183
0.00175306
0.00174426
0.00173545
0.00172661
0.00171776
0.00170889
0.00170002
0.00169115
0.00168228
0.00167342
0.00166456
0.00165573
0.00164691
0.00163812
0.00162936
0.00162064
0.00161196
0.00160333
0.00159476
0.00158624
0.0015778
0.00156943
0.00156115
0.00155295
0.00154485
0.00153688
0.00152897
0.0015213
0.00151348
0.00192557
0.001918
0.00191035
0.00190262
0.00189481
0.00188692
0.00187895
0.00187092
0.00186281
0.00185464
0.0018464
0.0018381
0.00182975
0.00182133
0.00181287
0.00180435
0.00179579
0.00178719
0.00177854
0.00176986
0.00176115
0.0017524
0.00174364
0.00173484
0.00172603
0.00171721
0.00170837
0.00169953
0.00169068
0.00168184
0.001673
0.00166417
0.00165536
0.00164657
0.0016378
0.00162907
0.00162037
0.00161171
0.0016031
0.00159455
0.00158605
0.00157762
0.00156927
0.00156099
0.00155281
0.00154472
0.00153673
0.00152887
0.0015211
0.00151355
0.00150588
0.00190962
0.00190189
0.00189409
0.0018862
0.00187825
0.00187023
0.00186213
0.00185397
0.00184575
0.00183747
0.00182913
0.00182074
0.00181229
0.0018038
0.00179526
0.00178668
0.00177806
0.0017694
0.00176071
0.00175199
0.00174325
0.00173448
0.0017257
0.0017169
0.00170809
0.00169927
0.00169045
0.00168163
0.00167282
0.00166402
0.00165523
0.00164646
0.00163772
0.00162901
0.00162033
0.00161169
0.0016031
0.00159456
0.00158608
0.00157766
0.00156932
0.00156106
0.00155288
0.0015448