/*--------------------------------*- C++ -*----------------------------------*\
| =========                 |                                                 |
| \\      /  F ield         | OpenFOAM: The Open Source CFD Toolbox           |
|  \\    /   O peration     | Version:  v1706                                 |
|   \\  /    A nd           | Web:      www.OpenFOAM.com                      |
|    \\/     M anipulation  |                                                 |
\*---------------------------------------------------------------------------*/
FoamFile
{
    version     2.0;
    format      ascii;
    class       volScalarField;
    location    "3.5e-05";
    object      Tv;
}
// * * * * * * * * * * * * * * * * * * * * * * * * * * * * * * * * * * * * * //

dimensions      [0 0 0 1 0 0 0];


internalField   nonuniform List<scalar> 
30038
(
144.4
144.4
144.4
144.4
144.4
144.4
144.4
144.4
144.4
144.4
144.4
144.4
144.4
144.4
144.4
144.4
144.4
144.4
144.4
144.4
144.4
144.4
144.4
144.4
144.4
144.4
144.4
144.4
144.4
144.4
144.4
144.4
144.4
144.4
144.4
144.4
144.4
144.4
144.4
144.4
144.4
144.4
144.4
144.4
144.4
144.4
144.4
144.4
144.4
144.4
144.4
144.4
144.4
144.4
144.4
144.4
144.4
144.4
144.4
144.4
144.4
144.4
144.4
144.4
144.4
144.4
144.4
144.4
144.4
144.4
144.4
144.4
144.4
144.4
144.4
144.4
144.4
144.4
144.4
144.4
144.4
144.4
144.4
144.4
144.4
144.4
144.4
144.4
144.4
144.4
144.4
144.4
144.4
144.4
144.4
144.4
144.4
144.4
144.4
144.4
144.4
144.4
144.4
144.4
144.4
144.4
144.4
144.4
144.4
144.4
144.4
144.4
144.4
144.4
144.4
144.4
144.4
144.4
144.4
144.4
144.4
144.4
144.4
144.4
144.4
144.4
144.4
144.4
144.4
144.4
144.4
144.4
144.4
144.4
144.4
144.4
144.4
144.4
144.4
144.4
144.4
144.4
144.4
144.4
144.4
144.4
144.4
144.4
144.4
144.4
144.4
144.4
144.4
144.4
144.4
144.4
144.4
144.4
144.4
144.4
144.4
144.4
144.4
144.4
144.4
144.4
144.4
144.4
144.4
144.4
144.4
144.4
144.4
144.4
144.4
144.4
144.4
144.4
144.4
144.4
144.4
144.4
144.4
144.4
144.4
144.4
144.4
144.4
144.4
144.4
144.4
144.4
144.4
144.4
144.4
144.4
144.4
144.4
144.4
144.4
144.4
144.4
144.4
144.4
144.4
144.4
144.4
144.4
144.4
144.4
144.4
144.4
144.4
144.4
144.4
144.4
144.4
144.4
144.4
144.4
144.4
144.4
144.4
144.4
144.4
144.4
144.4
144.4
144.4
144.4
144.4
144.4
144.4
144.4
144.4
144.4
144.4
144.4
144.4
144.4
144.4
144.4
144.4
144.4
144.4
144.4
144.4
144.4
144.4
144.4
144.4
144.4
144.4
144.4
144.4
144.4
144.4
144.4
144.4
144.4
144.4
144.4
144.4
144.4
144.4
144.4
144.4
144.4
144.4
144.4
144.4
144.4
144.4
144.4
144.4
144.4
144.4
144.4
144.4
144.4
144.4
144.4
144.4
144.4
144.4
144.4
144.4
144.4
144.4
144.4
144.4
144.4
144.4
144.4
144.4
144.4
144.4
144.4
144.4
144.4
144.4
144.4
144.4
144.4
144.4
144.4
144.4
144.4
144.4
144.4
144.4
144.4
144.4
144.4
144.4
144.4
144.4
144.4
144.4
144.4
144.4
144.4
144.4
144.4
144.4
144.4
144.4
144.4
144.4
144.4
144.4
144.4
144.4
144.4
144.4
144.4
144.4
144.4
144.4
144.4
144.4
144.4
144.4
144.4
144.4
144.4
144.4
144.4
144.4
144.4
144.4
144.4
144.4
144.4
144.4
144.4
144.4
144.4
144.4
144.4
144.4
144.4
144.4
144.4
144.4
144.4
144.4
144.4
144.4
144.4
144.4
144.4
144.4
144.4
144.4
144.4
144.4
144.4
144.4
144.4
144.4
144.4
144.4
144.4
144.4
144.4
144.4
144.4
144.4
144.4
144.4
144.4
144.4
144.4
144.4
144.4
144.4
144.4
144.4
144.4
144.4
144.4
144.4
144.4
144.4
144.4
144.4
144.4
144.4
144.4
144.4
144.4
144.4
144.4
144.4
144.4
144.4
144.4
144.4
144.4
144.4
144.4
144.4
144.4
144.4
144.4
144.4
144.4
144.4
144.4
144.4
144.4
144.4
144.4
144.4
144.4
144.4
144.4
144.4
144.4
144.4
144.4
144.4
144.4
144.4
144.4
144.4
144.4
144.4
144.4
144.4
144.4
144.4
144.4
144.4
144.4
144.4
144.4
144.4
144.4
144.4
144.4
144.4
144.4
144.4
144.4
144.4
144.4
144.4
144.4
144.4
144.4
144.4
144.4
144.4
144.4
144.4
144.4
144.4
144.4
144.4
144.4
144.4
144.4
144.4
144.4
144.4
144.4
144.4
144.4
144.4
144.4
144.4
144.4
144.4
144.4
144.4
144.4
144.4
144.4
144.4
144.4
144.4
144.4
144.4
144.4
144.4
144.4
144.4
144.4
144.4
144.4
144.4
144.4
144.4
144.4
144.4
144.4
144.4
144.4
144.4
144.4
144.4
144.4
144.4
144.4
144.4
144.4
144.4
144.4
144.4
144.4
144.4
144.4
144.4
144.4
144.4
144.4
144.4
144.4
144.4
144.4
144.4
144.4
144.4
144.4
144.4
144.4
144.4
144.4
144.4
144.4
144.4
144.4
144.4
144.4
144.4
144.4
144.4
144.4
144.4
144.4
144.4
144.4
144.4
144.4
144.4
144.4
144.4
144.4
144.4
144.4
144.4
144.4
144.4
144.4
144.4
144.4
144.4
144.4
144.4
144.4
144.4
144.4
144.4
144.4
144.4
144.4
144.4
144.4
144.4
144.4
144.4
144.4
144.4
144.4
144.4
144.4
144.4
144.4
144.4
144.4
144.4
144.4
144.4
144.4
144.4
144.4
144.4
144.4
144.4
144.4
144.4
144.4
144.4
144.4
144.4
144.4
144.4
144.4
144.4
144.4
144.4
144.4
144.4
144.4
144.4
144.4
144.4
144.4
144.4
144.4
144.4
144.4
144.4
144.4
144.4
144.4
144.4
144.4
144.4
144.4
144.4
144.4
144.4
144.4
144.4
144.4
144.4
144.4
144.4
144.4
144.4
144.4
144.4
144.4
144.4
144.4
144.4
144.4
144.4
144.4
144.4
144.4
144.4
144.4
144.4
144.4
144.4
144.4
144.4
144.4
144.4
144.4
144.4
144.4
144.4
144.4
144.4
144.4
144.4
144.4
144.4
144.4
144.4
144.4
144.4
144.4
144.4
144.4
144.4
144.4
144.4
144.4
144.4
144.4
144.4
144.4
144.4
144.4
144.4
144.4
144.4
144.4
144.4
144.4
144.4
144.4
144.4
144.4
144.4
144.4
144.4
144.4
144.4
144.4
144.4
144.4
144.4
144.4
144.4
144.4
144.4
144.4
144.4
144.4
144.4
144.4
144.4
144.4
144.4
144.4
144.4
144.4
144.4
144.4
144.4
144.4
144.4
144.4
144.4
144.4
144.4
144.4
144.4
144.4
144.4
144.4
144.4
144.4
144.4
144.4
144.4
144.4
144.4
144.4
144.4
144.4
144.4
144.4
144.4
144.4
144.4
144.4
144.4
144.4
144.4
144.4
144.4
144.4
144.4
144.4
144.4
144.4
144.4
144.4
144.4
144.4
144.4
144.4
144.4
144.4
144.401
144.4
144.4
144.4
144.4
144.4
144.4
144.4
144.4
144.4
144.4
144.4
144.4
144.4
144.4
144.4
144.4
144.4
144.4
144.4
144.4
144.4
144.4
144.4
144.4
144.4
144.4
144.4
144.4
144.4
144.4
144.4
144.4
144.4
144.4
144.4
144.4
144.4
144.4
144.401
144.401
144.402
144.402
144.4
144.4
144.4
144.4
144.4
144.4
144.4
144.4
144.4
144.4
144.4
144.4
144.4
144.4
144.4
144.4
144.4
144.4
144.4
144.4
144.4
144.4
144.4
144.4
144.4
144.4
144.4
144.4
144.4
144.4
144.4
144.4
144.4
144.4
144.4
144.4
144.401
144.401
144.402
144.402
144.403
144.405
144.407
144.4
144.4
144.4
144.4
144.4
144.4
144.4
144.4
144.4
144.4
144.4
144.4
144.4
144.4
144.4
144.4
144.4
144.4
144.4
144.4
144.4
144.4
144.4
144.4
144.4
144.4
144.4
144.4
144.4
144.4
144.4
144.4
144.4
144.401
144.401
144.402
144.402
144.403
144.405
144.407
144.41
144.413
144.418
144.4
144.4
144.4
144.4
144.4
144.4
144.4
144.4
144.4
144.4
144.4
144.4
144.4
144.4
144.4
144.4
144.4
144.4
144.4
144.4
144.4
144.4
144.4
144.4
144.4
144.4
144.4
144.4
144.4
144.4
144.4
144.401
144.401
144.402
144.402
144.404
144.405
144.407
144.41
144.413
144.417
144.423
144.43
144.439
144.4
144.4
144.4
144.4
144.4
144.4
144.4
144.4
144.4
144.4
144.4
144.4
144.4
144.4
144.4
144.4
144.4
144.4
144.4
144.4
144.4
144.4
144.4
144.4
144.4
144.4
144.4
144.4
144.401
144.401
144.401
144.402
144.403
144.404
144.405
144.407
144.41
144.413
144.418
144.423
144.43
144.439
144.45
144.464
144.482
144.4
144.4
144.4
144.4
144.4
144.4
144.4
144.4
144.4
144.4
144.4
144.4
144.4
144.4
144.4
144.4
144.4
144.4
144.4
144.4
144.4
144.4
144.4
144.4
144.4
144.4
144.401
144.401
144.401
144.402
144.403
144.404
144.405
144.407
144.41
144.414
144.418
144.424
144.431
144.44
144.451
144.464
144.481
144.502
144.528
144.561
144.4
144.4
144.4
144.4
144.4
144.4
144.4
144.4
144.4
144.4
144.4
144.4
144.4
144.4
144.4
144.4
144.4
144.4
144.4
144.4
144.4
144.4
144.4
144.4
144.4
144.401
144.401
144.401
144.402
144.403
144.404
144.406
144.408
144.411
144.414
144.419
144.425
144.432
144.441
144.452
144.466
144.483
144.504
144.529
144.56
144.598
144.645
144.704
144.4
144.4
144.4
144.4
144.4
144.4
144.4
144.4
144.4
144.4
144.4
144.4
144.4
144.4
144.4
144.4
144.4
144.4
144.4
144.4
144.4
144.4
144.401
144.401
144.402
144.402
144.403
144.404
144.406
144.408
144.411
144.415
144.42
144.426
144.433
144.443
144.454
144.468
144.485
144.506
144.532
144.563
144.601
144.646
144.702
144.769
144.849
144.949
144.4
144.4
144.4
144.4
144.4
144.4
144.4
144.4
144.4
144.4
144.4
144.4
144.4
144.4
144.4
144.4
144.4
144.4
144.4
144.4
144.401
144.401
144.401
144.402
144.402
144.403
144.405
144.407
144.409
144.412
144.416
144.421
144.428
144.435
144.445
144.457
144.471
144.489
144.51
144.536
144.567
144.605
144.651
144.706
144.772
144.851
144.945
145.056
145.19
145.352
144.4
144.4
144.4
144.4
144.4
144.4
144.4
144.4
144.4
144.4
144.4
144.4
144.4
144.4
144.4
144.4
144.4
144.401
144.401
144.401
144.402
144.403
144.404
144.405
144.407
144.41
144.413
144.418
144.423
144.43
144.438
144.448
144.46
144.475
144.493
144.515
144.541
144.573
144.612
144.658
144.713
144.779
144.857
144.95
145.06
145.19
145.343
145.521
145.729
145.978
144.4
144.4
144.4
144.4
144.4
144.4
144.4
144.4
144.4
144.4
144.4
144.4
144.4
144.401
144.401
144.401
144.402
144.402
144.403
144.404
144.406
144.408
144.411
144.415
144.419
144.425
144.432
144.441
144.452
144.465
144.48
144.499
144.522
144.549
144.581
144.621
144.667
144.723
144.789
144.868
144.961
145.071
145.199
145.35
145.525
145.728
145.961
146.23
146.537
146.896
144.4
144.4
144.4
144.4
144.4
144.4
144.4
144.4
144.4
144.401
144.401
144.401
144.401
144.402
144.403
144.404
144.405
144.407
144.41
144.413
144.417
144.422
144.428
144.436
144.445
144.457
144.47
144.487
144.506
144.53
144.558
144.592
144.632
144.68
144.737
144.804
144.884
144.977
145.087
145.216
145.365
145.539
145.739
145.969
146.232
146.53
146.867
147.246
147.67
148.152
144.4
144.4
144.4
144.4
144.4
144.4
144.401
144.401
144.401
144.402
144.402
144.403
144.405
144.406
144.408
144.411
144.415
144.419
144.425
144.432
144.44
144.45
144.462
144.477
144.494
144.515
144.54
144.57
144.605
144.647
144.696
144.754
144.823
144.904
144.999
145.11
145.239
145.389
145.562
145.761
145.989
146.249
146.543
146.873
147.243
147.655
148.109
148.607
149.154
149.762
144.4
144.4
144.401
144.401
144.401
144.402
144.402
144.403
144.404
144.406
144.407
144.41
144.413
144.417
144.422
144.428
144.436
144.445
144.456
144.469
144.485
144.504
144.526
144.553
144.584
144.621
144.664
144.716
144.776
144.847
144.93
145.027
145.14
145.271
145.422
145.596
145.795
146.022
146.28
146.571
146.898
147.262
147.666
148.11
148.597
149.127
149.7
150.315
150.976
151.697
144.401
144.402
144.402
144.403
144.404
144.405
144.407
144.409
144.412
144.416
144.42
144.426
144.433
144.441
144.451
144.464
144.478
144.495
144.516
144.54
144.568
144.601
144.64
144.686
144.74
144.803
144.877
144.962
145.062
145.178
145.311
145.464
145.64
145.841
146.069
146.326
146.616
146.94
147.3
147.699
148.136
148.614
149.133
149.693
150.294
150.935
151.614
152.333
153.091
153.903
144.404
144.405
144.406
144.409
144.411
144.415
144.419
144.424
144.431
144.438
144.448
144.459
144.473
144.489
144.508
144.53
144.556
144.586
144.622
144.663
144.712
144.769
144.835
144.912
145.001
145.105
145.224
145.36
145.517
145.696
145.899
146.129
146.387
146.677
147.001
147.359
147.754
148.186
148.658
149.168
149.718
150.307
150.933
151.598
152.298
153.033
153.8
154.6
155.434
156.316
144.411
144.414
144.418
144.423
144.429
144.437
144.446
144.456
144.469
144.484
144.502
144.523
144.547
144.575
144.608
144.647
144.692
144.743
144.804
144.874
144.955
145.048
145.156
145.279
145.42
145.581
145.764
145.971
146.204
146.465
146.756
147.08
147.438
147.831
148.26
148.727
149.231
149.772
150.351
150.966
151.617
152.302
153.021
153.771
154.55
155.359
156.193
157.054
157.943
158.875
144.428
144.436
144.444
144.455
144.467
144.482
144.499
144.518
144.541
144.568
144.599
144.635
144.677
144.725
144.781
144.845
144.92
145.005
145.104
145.216
145.345
145.491
145.658
145.845
146.057
146.294
146.559
146.854
147.18
147.539
147.931
148.359
148.822
149.321
149.856
150.427
151.032
151.672
152.344
153.048
153.782
154.544
155.334
156.149
156.989
157.851
158.734
159.638
160.566
161.531
144.466
144.48
144.497
144.516
144.538
144.564
144.594
144.628
144.667
144.713
144.765
144.826
144.895
144.975
145.066
145.17
145.288
145.423
145.576
145.748
145.942
146.16
146.403
146.673
146.971
147.301
147.662
148.055
148.483
148.944
149.44
149.97
150.534
151.131
151.761
152.422
153.113
153.833
154.58
155.353
156.15
156.971
157.813
158.675
159.557
160.456
161.373
162.307
163.26
164.248
144.538
144.563
144.592
144.625
144.663
144.706
144.756
144.814
144.879
144.954
145.04
145.137
145.248
145.373
145.515
145.675
145.855
146.056
146.28
146.53
146.806
147.11
147.444
147.808
148.205
148.633
149.094
149.588
150.115
150.673
151.264
151.885
152.536
153.216
153.923
154.656
155.414
156.195
156.997
157.821
158.664
159.526
160.404
161.299
162.21
163.135
164.073
165.026
165.996
166.997
144.663
144.705
144.754
144.809
144.871
144.943
145.024
145.116
145.221
145.339
145.473
145.623
145.791
145.979
146.188
146.421
146.678
146.961
147.272
147.612
147.981
148.38
148.811
149.273
149.766
150.29
150.845
151.43
152.044
152.687
153.356
154.052
154.772
155.515
156.281
157.068
157.874
158.699
159.542
160.401
161.276
162.165
163.068
163.985
164.914
165.855
166.807
167.772
168.752
169.76
144.871
144.941
145.019
145.108
145.208
145.32
145.447
145.589
145.748
145.926
146.123
146.342
146.584
146.85
147.141
147.459
147.805
148.18
148.584
149.018
149.482
149.975
150.498
151.05
151.631
152.239
152.874
153.534
154.219
154.927
155.658
156.409
157.181
157.971
158.779
159.604
160.445
161.3
162.17
163.052
163.948
164.855
165.774
166.704
167.644
168.595
169.556
170.527
171.511
172.523
145.207
145.315
145.437
145.574
145.726
145.895
146.083
146.29
146.519
146.771
147.047
147.348
147.674
148.028
148.409
148.819
149.256
149.722
150.217
150.739
151.289
151.866
152.469
153.097
153.749
154.425
155.122
155.841
156.579
157.336
158.111
158.903
159.711
160.534
161.371
162.222
163.085
163.961
164.848
165.745
166.654
167.572
168.501
169.438
170.385
171.34
172.304
173.278
174.264
175.276
145.575
145.722
145.885
146.065
146.265
146.484
146.724
146.987
147.273
147.583
147.919
148.281
148.67
149.085
149.527
149.997
150.493
151.016
151.564
152.138
152.736
153.358
154.003
154.67
155.357
156.064
156.79
157.534
158.294
159.071
159.863
160.669
161.489
162.321
163.166
164.022
164.889
165.767
166.655
167.552
168.459
169.375
170.299
171.232
172.173
173.122
174.079
175.043
176.017
177.002
178.011
146.263
146.475
146.706
146.958
147.233
147.53
147.851
148.197
148.568
148.964
149.386
149.833
150.306
150.805
151.328
151.875
152.447
153.041
153.658
154.295
154.954
155.632
156.328
157.042
157.773
158.52
159.282
160.058
160.848
161.651
162.466
163.293
164.13
164.979
165.837
166.705
167.582
168.468
169.363
170.266
171.177
172.096
173.023
173.957
174.898
175.847
176.802
177.765
178.736
179.718
180.723
146.961
147.226
147.513
147.823
148.155
148.511
148.891
149.295
149.723
150.176
150.653
151.154
151.678
152.225
152.794
153.385
153.996
154.627
155.278
155.946
156.633
157.335
158.054
158.787
159.535
160.297
161.071
161.858
162.656
163.465
164.285
165.115
165.955
166.803
167.661
168.528
169.402
170.285
171.175
172.073
172.978
173.89
174.809
175.735
176.668
177.607
178.553
179.505
180.465
181.431
182.408
183.408
148.153
148.497
148.863
149.253
149.665
150.1
150.558
151.039
151.542
152.067
152.614
153.181
153.768
154.374
154.999
155.642
156.302
156.978
157.67
158.377
159.097
159.831
160.579
161.338
162.109
162.89
163.683
164.485
165.298
166.119
166.949
167.788
168.635
169.49
170.353
171.223
172.1
172.984
173.875
174.773
175.677
176.588
177.505
178.428
179.358
180.294
181.235
182.183
183.137
184.099
185.07
186.062
149.656
150.076
150.518
150.982
151.466
151.972
152.498
153.043
153.608
154.192
154.793
155.412
156.047
156.698
157.365
158.046
158.741
159.449
160.17
160.903
161.648
162.403
163.169
163.945
164.731
165.525
166.329
167.141
167.962
168.79
169.626
170.469
171.319
172.177
173.041
173.911
174.789
175.672
176.561
177.457
178.359
179.266
180.179
181.098
182.023
182.954
183.89
184.832
185.78
186.735
187.699
188.683
151.448
151.936
152.444
152.97
153.515
154.077
154.657
155.254
155.866
156.494
157.137
157.794
158.464
159.148
159.844
160.551
161.27
162
162.741
163.491
164.251
165.02
165.798
166.585
167.379
168.181
168.991
169.809
170.633
171.464
172.302
173.147
173.997
174.854
175.717
176.586
177.461
178.342
179.228
180.119
181.017
181.919
182.828
183.741
184.66
185.584
186.514
187.449
188.39
189.337
190.293
191.269
153.487
154.03
154.59
155.166
155.757
156.363
156.983
157.617
158.265
158.924
159.596
160.28
160.975
161.68
162.396
163.122
163.857
164.601
165.354
166.115
166.884
167.662
168.446
169.238
170.037
170.843
171.656
172.475
173.3
174.131
174.969
175.812
176.661
177.515
178.376
179.241
180.112
180.988
181.869
182.756
183.648
184.544
185.446
186.353
187.265
188.182
189.105
190.032
190.965
191.904
192.852
193.818
155.718
156.303
156.903
157.515
158.14
158.778
159.427
160.088
160.759
161.441
162.133
162.835
163.546
164.266
164.994
165.731
166.476
167.229
167.989
168.756
169.53
170.312
171.099
171.893
172.694
173.5
174.313
175.131
175.955
176.784
177.619
178.459
179.305
180.155
181.011
181.871
182.737
183.608
184.483
185.363
186.248
187.138
188.033
188.933
189.837
190.746
191.66
192.579
193.503
194.433
195.372
196.329
158.09
158.707
159.334
159.973
160.622
161.281
161.95
162.629
163.316
164.013
164.718
165.431
166.152
166.88
167.616
168.36
169.11
169.867
170.631
171.4
172.177
172.959
173.747
174.54
175.34
176.145
176.955
177.771
178.591
179.417
180.248
181.083
181.924
182.769
183.619
184.474
185.333
186.197
187.066
187.939
188.817
189.699
190.586
191.477
192.373
193.273
194.179
195.089
196.003
196.924
197.853
198.799
161.198
161.845
162.502
163.167
163.84
164.522
165.212
165.91
166.615
167.328
168.048
168.774
169.508
170.247
170.994
171.746
172.504
173.268
174.038
174.814
175.595
176.381
177.172
177.969
178.771
179.577
180.389
181.205
182.026
182.851
183.681
184.516
185.355
186.198
187.046
187.898
188.755
189.616
190.481
191.35
192.224
193.102
193.985
194.872
195.763
196.659
197.559
198.464
199.375
200.294
201.229
163.747
164.407
165.074
165.749
166.432
167.122
167.818
168.522
169.232
169.949
170.671
171.4
172.135
172.876
173.622
174.374
175.132
175.895
176.662
177.435
178.213
178.996
179.784
180.576
181.373
182.175
182.981
183.792
184.606
185.426
186.249
187.077
187.909
188.745
189.585
190.43
191.278
192.131
192.987
193.848
194.713
195.582
196.455
197.332
198.214
199.1
199.99
200.885
201.785
202.693
203.617
166.329
166.996
167.67
168.351
169.039
169.732
170.432
171.138
171.85
172.568
173.291
174.02
174.755
175.494
176.239
176.989
177.743
178.503
179.267
180.036
180.81
181.588
182.371
183.158
183.949
184.745
185.545
186.349
187.157
187.969
188.785
189.606
190.43
191.258
192.09
192.926
193.765
194.609
195.456
196.308
197.163
198.023
198.886
199.753
200.625
201.5
202.38
203.264
204.154
205.051
205.963
169.598
170.275
170.959
171.648
172.343
173.044
173.75
174.461
175.178
175.9
176.627
177.359
178.095
178.837
179.583
180.334
181.089
181.849
182.613
183.381
184.154
184.93
185.711
186.496
187.285
188.078
188.875
189.675
190.48
191.288
192.1
192.915
193.735
194.558
195.385
196.215
197.05
197.887
198.729
199.575
200.424
201.277
202.134
202.994
203.859
204.728
205.601
206.48
207.366
208.266
172.2
172.878
173.562
174.251
174.945
175.644
176.349
177.058
177.772
178.491
179.215
179.943
180.675
181.413
182.154
182.9
183.65
184.404
185.162
185.924
186.69
187.46
188.234
189.011
189.793
190.578
191.367
192.159
192.955
193.755
194.558
195.365
196.175
196.989
197.806
198.627
199.451
200.279
201.111
201.946
202.784
203.627
204.473
205.323
206.177
207.034
207.896
208.763
209.637
210.525
174.794
175.471
176.153
176.84
177.532
178.229
178.93
179.636
180.346
181.061
181.78
182.503
183.231
183.962
184.698
185.438
186.181
186.929
187.68
188.436
189.195
189.957
190.723
191.493
192.266
193.043
193.824
194.607
195.395
196.185
196.979
197.776
198.577
199.381
200.189
200.999
201.813
202.631
203.452
204.276
205.104
205.935
206.77
207.609
208.451
209.298
210.148
211.003
211.865
212.741
177.374
178.048
178.727
179.411
180.099
180.792
181.489
182.19
182.895
183.605
184.319
185.036
185.758
186.483
187.213
187.946
188.683
189.423
190.167
190.915
191.666
192.42
193.178
193.94
194.705
195.473
196.244
197.019
197.797
198.578
199.362
200.15
200.94
201.734
202.531
203.331
204.135
204.942
205.752
206.565
207.382
208.202
209.026
209.853
210.683
211.518
212.356
213.2
214.049
214.912
179.934
180.604
181.279
181.959
182.642
183.33
184.022
184.718
185.417
186.121
186.829
187.54
188.255
188.974
189.696
190.422
191.151
191.884
192.62
193.359
194.102
194.848
195.598
196.35
197.106
197.865
198.627
199.392
200.16
200.932
201.706
202.483
203.263
204.047
204.833
205.623
206.416
207.211
208.01
208.812
209.618
210.426
211.238
212.053
212.872
213.695
214.521
215.352
216.19
217.04
182.471
183.137
183.807
184.481
185.159
185.841
186.527
187.217
187.91
188.607
189.308
190.012
190.72
191.431
192.146
192.864
193.585
194.31
195.038
195.769
196.503
197.24
197.98
198.724
199.47
200.219
200.971
201.727
202.485
203.246
204.01
204.777
205.546
206.319
207.095
207.873
208.655
209.439
210.226
211.017
211.811
212.608
213.408
214.211
215.018
215.828
216.642
217.461
218.286
219.123
184.982
185.642
186.307
186.975
187.647
188.323
189.002
189.685
190.371
191.061
191.755
192.451
193.152
193.855
194.561
195.271
195.984
196.7
197.419
198.141
198.866
199.594
200.325
201.059
201.795
202.534
203.277
204.022
204.769
205.52
206.273
207.029
207.788
208.55
209.314
210.081
210.852
211.624
212.4
213.179
213.961
214.746
215.534
216.325
217.12
217.918
218.72
219.526
220.338
221.162
188.118
188.777
189.438
190.104
190.773
191.445
192.121
192.8
193.482
194.167
194.856
195.548
196.243
196.941
197.642
198.346
199.053
199.763
200.476
201.191
201.91
202.631
203.355
204.081
204.81
205.542
206.277
207.014
207.754
208.496
209.241
209.989
210.739
211.492
212.248
213.006
213.768
214.532
215.299
216.068
216.841
217.617
218.396
219.178
219.964
220.753
221.547
222.346
223.157
190.564
191.215
191.87
192.528
193.189
193.854
194.522
195.193
195.868
196.545
197.225
197.909
198.595
199.284
199.976
200.671
201.369
202.069
202.772
203.478
204.186
204.897
205.611
206.327
207.046
207.767
208.491
209.217
209.946
210.677
211.411
212.148
212.887
213.628
214.372
215.119
215.868
216.62
217.375
218.133
218.894
219.657
220.424
221.193
221.967
222.743
223.524
224.31
225.108
192.976
193.62
194.268
194.918
195.572
196.229
196.889
197.551
198.217
198.886
199.558
200.232
200.91
201.59
202.272
202.958
203.646
204.336
205.029
205.725
206.423
207.124
207.827
208.533
209.241
209.951
210.664
211.379
212.097
212.817
213.54
214.265
214.992
215.722
216.454
217.189
217.926
218.666
219.409
220.154
220.903
221.654
222.408
223.165
223.926
224.689
225.457
226.231
227.015
195.991
196.631
197.273
197.919
198.567
199.219
199.873
200.53
201.19
201.853
202.518
203.186
203.857
204.53
205.205
205.884
206.564
207.247
207.933
208.62
209.311
210.003
210.698
211.395
212.095
212.796
213.5
214.207
214.915
215.626
216.34
217.055
217.773
218.494
219.216
219.942
220.669
221.4
222.133
222.869
223.608
224.349
225.094
225.841
226.592
227.348
228.108
228.879
198.327
198.958
199.592
200.23
200.869
201.512
202.158
202.806
203.456
204.11
204.766
205.424
206.085
206.748
207.414
208.082
208.752
209.425
210.1
210.777
211.457
212.138
212.822
213.508
214.197
214.887
215.58
216.275
216.972
217.671
218.373
219.076
219.782
220.491
221.201
221.915
222.63
223.348
224.069
224.792
225.518
226.247
226.979
227.714
228.452
229.195
229.942
230.7
201.249
201.875
202.503
203.134
203.768
204.404
205.043
205.684
206.328
206.974
207.623
208.274
208.927
209.582
210.24
210.9
211.562
212.227
212.893
213.562
214.232
214.905
215.58
216.257
216.936
217.618
218.301
218.986
219.674
220.363
221.055
221.749
222.446
223.144
223.845
224.548
225.254
225.962
226.673
227.387
228.103
228.822
229.544
230.27
230.999
231.734
232.478
203.503
204.119
204.739
205.361
205.985
206.612
207.241
207.873
208.507
209.143
209.782
210.423
211.066
211.711
212.358
213.008
213.659
214.313
214.968
215.626
216.286
216.947
217.611
218.277
218.944
219.614
220.285
220.959
221.635
222.313
222.992
223.674
224.358
225.045
225.733
226.424
227.118
227.813
228.512
229.213
229.916
230.623
231.332
232.045
232.761
233.483
234.213
206.326
206.936
207.549
208.164
208.781
209.401
210.022
210.647
211.273
211.901
212.532
213.165
213.799
214.436
215.075
215.715
216.358
217.003
217.649
218.298
218.948
219.6
220.254
220.911
221.568
222.228
222.89
223.554
224.22
224.888
225.557
226.229
226.904
227.58
228.258
228.939
229.622
230.308
230.997
231.688
232.381
233.078
233.778
234.481
235.19
235.907
208.494
209.095
209.698
210.303
210.911
211.52
212.132
212.746
213.363
213.981
214.601
215.223
215.847
216.473
217.101
217.731
218.363
218.996
219.631
220.269
220.908
221.548
222.191
222.836
223.482
224.13
224.78
225.432
226.086
226.741
227.399
228.059
228.721
229.385
230.051
230.719
231.39
232.063
232.739
233.417
234.098
234.782
235.469
236.16
236.855
237.56
210.623
211.214
211.808
212.403
213.001
213.601
214.203
214.806
215.412
216.02
216.63
217.241
217.855
218.47
219.087
219.706
220.326
220.949
221.573
222.199
222.826
223.455
224.087
224.719
225.354
225.99
226.628
227.268
227.91
228.554
229.199
229.847
230.497
231.148
231.802
232.458
233.116
233.777
234.44
235.106
235.775
236.446
237.12
237.798
238.48
239.171
212.713
213.294
213.878
214.464
215.051
215.641
216.233
216.826
217.422
218.019
218.618
219.219
219.822
220.426
221.032
221.64
222.249
222.86
223.473
224.088
224.704
225.322
225.941
226.562
227.185
227.81
228.436
229.064
229.694
230.325
230.959
231.594
232.232
232.871
233.513
234.156
234.802
235.45
236.101
236.754
237.41
238.069
238.73
239.395
240.065
240.743
214.763
215.335
215.909
216.485
217.062
217.642
218.223
218.806
219.391
219.978
220.566
221.156
221.748
222.342
222.937
223.533
224.132
224.732
225.333
225.936
226.541
227.147
227.755
228.365
228.976
229.588
230.203
230.819
231.437
232.056
232.678
233.301
233.926
234.554
235.183
235.814
236.448
237.084
237.722
238.362
239.006
239.652
240.301
240.953
241.61
242.275
216.774
217.336
217.9
218.466
219.033
219.602
220.173
220.746
221.321
221.897
222.474
223.054
223.635
224.217
224.801
225.387
225.974
226.563
227.153
227.745
228.338
228.933
229.529
230.127
230.726
231.327
231.93
232.534
233.14
233.747
234.357
234.968
235.581
236.196
236.813
237.432
238.054
238.677
239.303
239.931
240.562
241.195
241.832
242.471
243.116
243.767
218.746
219.298
219.852
220.407
220.964
221.523
222.084
222.646
223.21
223.775
224.342
224.911
225.481
226.053
226.626
227.2
227.776
228.354
228.932
229.513
230.095
230.678
231.263
231.849
232.437
233.026
233.617
234.209
234.803
235.399
235.996
236.595
237.196
237.799
238.404
239.011
239.62
240.231
240.845
241.461
242.079
242.7
243.324
243.951
244.583
245.222
221.22
221.764
222.309
222.856
223.404
223.955
224.506
225.06
225.614
226.171
226.728
227.288
227.848
228.41
228.974
229.539
230.105
230.672
231.241
231.812
232.384
232.957
233.532
234.108
234.685
235.264
235.845
236.427
237.011
237.597
238.184
238.773
239.364
239.957
240.551
241.148
241.747
242.349
242.952
243.558
244.167
244.779
245.393
246.012
246.639
223.103
223.636
224.171
224.708
225.246
225.786
226.327
226.87
227.414
227.96
228.506
229.055
229.604
230.156
230.708
231.262
231.817
232.373
232.931
233.49
234.05
234.612
235.175
235.74
236.306
236.873
237.442
238.013
238.585
239.158
239.734
240.311
240.89
241.471
242.053
242.638
243.225
243.814
244.406
245
245.596
246.196
246.798
247.405
248.018
224.946
225.469
225.994
226.521
227.049
227.578
228.109
228.641
229.174
229.709
230.245
230.783
231.322
231.862
232.403
232.946
233.49
234.035
234.581
235.129
235.678
236.228
236.78
237.333
237.888
238.444
239.001
239.56
240.12
240.682
241.246
241.811
242.378
242.947
243.518
244.091
244.666
245.243
245.823
246.404
246.989
247.576
248.166
248.76
249.361
227.264
227.778
228.295
228.812
229.331
229.851
230.373
230.896
231.42
231.945
232.472
233
233.529
234.06
234.591
235.124
235.658
236.193
236.73
237.268
237.807
238.347
238.889
239.432
239.976
240.522
241.069
241.618
242.169
242.72
243.274
243.83
244.387
244.946
245.507
246.07
246.635
247.203
247.773
248.345
248.92
249.498
250.08
250.669
229.019
229.524
230.03
230.537
231.046
231.555
232.067
232.579
233.092
233.607
234.123
234.64
235.159
235.678
236.199
236.721
237.244
237.768
238.293
238.82
239.348
239.877
240.407
240.939
241.472
242.006
242.542
243.079
243.618
244.159
244.701
245.244
245.79
246.337
246.887
247.438
247.992
248.547
249.105
249.666
250.229
250.795
251.365
251.941
230.737
231.231
231.727
232.224
232.722
233.221
233.722
234.224
234.727
235.231
235.736
236.243
236.75
237.259
237.769
238.28
238.792
239.305
239.819
240.335
240.851
241.369
241.888
242.409
242.931
243.454
243.978
244.504
245.032
245.56
246.091
246.623
247.157
247.693
248.231
248.771
249.313
249.857
250.403
250.952
251.503
252.057
252.615
253.179
232.416
232.9
233.386
233.872
234.36
234.849
235.34
235.831
236.324
236.817
237.312
237.808
238.304
238.802
239.301
239.802
240.303
240.805
241.308
241.813
242.319
242.825
243.334
243.843
244.353
244.865
245.379
245.893
246.409
246.927
247.446
247.967
248.49
249.014
249.541
250.069
250.599
251.132
251.666
252.203
252.743
253.285
253.832
254.384
234.532
235.007
235.484
235.961
236.44
236.92
237.401
237.883
238.366
238.851
239.336
239.822
240.309
240.798
241.287
241.777
242.269
242.762
243.255
243.75
244.246
244.743
245.241
245.741
246.242
246.744
247.247
247.752
248.259
248.767
249.276
249.788
250.301
250.816
251.333
251.852
252.373
252.896
253.422
253.95
254.481
255.015
255.555
236.126
236.592
237.058
237.526
237.994
238.464
238.935
239.406
239.879
240.353
240.828
241.303
241.78
242.258
242.737
243.217
243.697
244.179
244.662
245.146
245.631
246.117
246.605
247.093
247.583
248.074
248.567
249.061
249.556
250.053
250.552
251.052
251.554
252.058
252.563
253.071
253.581
254.093
254.607
255.124
255.643
256.166
256.695
237.684
238.139
238.596
239.053
239.512
239.972
240.432
240.894
241.356
241.82
242.284
242.749
243.216
243.683
244.151
244.62
245.091
245.562
246.034
246.507
246.982
247.457
247.934
248.412
248.891
249.371
249.853
250.336
250.82
251.306
251.794
252.283
252.774
253.267
253.761
254.258
254.757