/*--------------------------------*- C++ -*----------------------------------*\
| =========                 |                                                 |
| \\      /  F ield         | OpenFOAM: The Open Source CFD Toolbox           |
|  \\    /   O peration     | Version:  v1706                                 |
|   \\  /    A nd           | Web:      www.OpenFOAM.com                      |
|    \\/     M anipulation  |                                                 |
\*---------------------------------------------------------------------------*/
FoamFile
{
    version     2.0;
    format      ascii;
    class       volVectorField;
    location    "3.5e-05";
    object      U;
}
// * * * * * * * * * * * * * * * * * * * * * * * * * * * * * * * * * * * * * //

dimensions      [0 1 -1 0 0 0 0];


internalField   nonuniform List<vector> 
30038
(
(978.58 -1.13648e-10 5.40485e-15)
(978.58 -1.14958e-10 4.02384e-15)
(978.58 -1.16176e-10 7.51177e-15)
(978.58 -1.1847e-10 3.22053e-15)
(978.58 -1.20754e-10 5.25148e-15)
(978.58 -1.22787e-10 5.60633e-15)
(978.58 -1.25097e-10 8.9362e-15)
(978.58 -1.28137e-10 8.24993e-15)
(978.58 -1.30014e-10 4.83569e-15)
(978.58 -1.32429e-10 6.34599e-15)
(978.58 -1.35142e-10 1.01481e-14)
(978.58 -1.37817e-10 6.64484e-15)
(978.58 -1.40226e-10 4.62233e-15)
(978.58 -1.42103e-10 3.32716e-15)
(978.58 -1.44354e-10 6.66188e-15)
(978.58 -1.46597e-10 8.47558e-15)
(978.58 -1.48006e-10 5.97009e-15)
(978.58 -1.49587e-10 2.62706e-15)
(978.58 -1.49618e-10 5.35262e-15)
(978.58 -1.48655e-10 7.84348e-15)
(978.58 -1.42612e-10 7.86296e-15)
(978.58 -1.33045e-10 4.19027e-15)
(978.58 -1.21707e-10 3.49182e-15)
(978.58 -1.0546e-10 7.16803e-15)
(978.58 -7.66893e-11 5.09257e-15)
(978.58 -2.96382e-11 2.97275e-15)
(978.58 4.95335e-11 4.44627e-15)
(978.58 1.89491e-10 8.01007e-15)
(978.58 4.24537e-10 9.88945e-15)
(978.58 7.90072e-10 8.265e-15)
(978.58 1.30807e-09 8.24912e-15)
(978.58 2.04611e-09 9.96359e-15)
(978.58 3.13615e-09 8.18353e-15)
(978.58 4.78333e-09 8.27875e-15)
(978.58 7.30758e-09 1.00994e-14)
(978.58 1.12059e-08 6.07934e-15)
(978.58 1.77217e-08 3.819e-15)
(978.58 2.78761e-08 8.32667e-15)
(978.58 -3.28074e-10 1.76582e-14)
(978.58 -3.34194e-10 2.04425e-14)
(978.58 -3.3933e-10 1.89614e-14)
(978.58 -3.44013e-10 1.83192e-14)
(978.58 -3.48887e-10 2.20625e-14)
(978.58 -3.54608e-10 2.10675e-14)
(978.58 -3.60243e-10 2.27606e-14)
(978.58 -3.66284e-10 2.08678e-14)
(978.58 -3.72488e-10 1.6593e-14)
(978.58 -3.78867e-10 2.09398e-14)
(978.58 -3.84038e-10 1.9145e-14)
(978.58 -3.89257e-10 1.55016e-14)
(978.58 -3.95962e-10 1.83846e-14)
(978.58 -4.02041e-10 1.92881e-14)
(978.58 -4.06527e-10 2.06225e-14)
(978.58 -4.09775e-10 2.03267e-14)
(978.58 -4.09465e-10 2.01057e-14)
(978.58 -4.02966e-10 1.89526e-14)
(978.58 -3.94032e-10 1.7998e-14)
(978.58 -3.83186e-10 1.95155e-14)
(978.58 -3.5728e-10 1.90031e-14)
(978.58 -3.24611e-10 1.94044e-14)
(978.58 -2.68152e-10 1.97207e-14)
(978.58 -1.6656e-10 1.84126e-14)
(978.58 7.07508e-12 1.75852e-14)
(978.58 3.23917e-10 1.89471e-14)
(978.58 8.47851e-10 2.01974e-14)
(978.58 1.67921e-09 2.00218e-14)
(978.58 2.893e-09 2.31472e-14)
(978.58 4.60326e-09 2.10006e-14)
(978.58 7.11176e-09 2.01331e-14)
(978.58 1.08864e-08 2.72198e-14)
(978.58 1.66105e-08 2.5903e-14)
(978.58 2.53132e-08 2.42275e-14)
(978.58 3.86277e-08 2.41744e-14)
(978.58 5.89113e-08 2.05911e-14)
(978.58 9.18891e-08 2.12551e-14)
(978.58 1.44504e-07 2.38983e-14)
(978.58 -5.34435e-10 3.21083e-14)
(978.58 -5.41221e-10 3.40148e-14)
(978.58 -5.48823e-10 3.09706e-14)
(978.58 -5.56175e-10 2.88906e-14)
(978.58 -5.63346e-10 3.16454e-14)
(978.58 -5.71132e-10 3.29849e-14)
(978.58 -5.78339e-10 3.23854e-14)
(978.58 -5.87035e-10 2.68239e-14)
(978.58 -5.96596e-10 2.7976e-14)
(978.58 -6.05751e-10 2.7831e-14)
(978.58 -6.13997e-10 2.67649e-14)
(978.58 -6.19977e-10 2.92613e-14)
(978.58 -6.24484e-10 3.14387e-14)
(978.58 -6.23442e-10 3.23693e-14)
(978.58 -6.20557e-10 3.07851e-14)
(978.58 -6.15252e-10 3.39926e-14)
(978.58 -6.05529e-10 3.24903e-14)
(978.58 -5.79127e-10 3.19127e-14)
(978.58 -5.39286e-10 3.118e-14)
(978.58 -4.76784e-10 3.05279e-14)
(978.58 -3.61081e-10 3.04603e-14)
(978.58 -1.51567e-10 3.19141e-14)
(978.58 2.11834e-10 3.03347e-14)
(978.58 8.01004e-10 3.28072e-14)
(978.58 1.7154e-09 3.63275e-14)
(978.58 3.00777e-09 3.49641e-14)
(978.58 4.79099e-09 3.26074e-14)
(978.58 7.3399e-09 3.13425e-14)
(978.58 1.11372e-08 3.49164e-14)
(978.58 1.68702e-08 3.5449e-14)
(978.58 2.55298e-08 3.56343e-14)
(978.58 3.86068e-08 3.70671e-14)
(978.58 5.83779e-08 3.5957e-14)
(978.58 8.82853e-08 3.64567e-14)
(978.58 1.33907e-07 3.72205e-14)
(978.58 2.02803e-07 3.63066e-14)
(978.58 3.15104e-07 3.39336e-14)
(978.58 4.8909e-07 3.6525e-14)
(978.58 -7.30152e-10 4.56117e-14)
(978.58 -7.39921e-10 4.48312e-14)
(978.58 -7.49705e-10 4.28062e-14)
(978.58 -7.60033e-10 4.24912e-14)
(978.58 -7.69268e-10 4.5612e-14)
(978.58 -7.77917e-10 4.24924e-14)
(978.58 -7.86985e-10 4.15769e-14)
(978.58 -7.94414e-10 4.14703e-14)
(978.58 -8.01532e-10 4.3196e-14)
(978.58 -8.06595e-10 4.14663e-14)
(978.58 -8.06249e-10 4.46499e-14)
(978.58 -8.06367e-10 4.43777e-14)
(978.58 -8.00835e-10 4.45408e-14)
(978.58 -7.89618e-10 3.90352e-14)
(978.58 -7.5595e-10 4.13957e-14)
(978.58 -7.11373e-10 4.20453e-14)
(978.58 -6.32874e-10 4.18149e-14)
(978.58 -4.91043e-10 4.60293e-14)
(978.58 -2.39366e-10 4.69393e-14)
(978.58 1.81111e-10 4.51864e-14)
(978.58 8.46407e-10 4.51364e-14)
(978.58 1.83117e-09 4.51722e-14)
(978.58 3.16795e-09 4.90656e-14)
(978.58 5.01952e-09 4.93571e-14)
(978.58 7.7011e-09 4.79342e-14)
(978.58 1.17143e-08 4.80265e-14)
(978.58 1.77111e-08 4.65995e-14)
(978.58 2.66506e-08 4.55377e-14)
(978.58 4.00001e-08 4.76859e-14)
(978.58 5.99827e-08 4.82377e-14)
(978.58 8.99346e-08 4.7156e-14)
(978.58 1.34896e-07 4.86398e-14)
(978.58 2.02573e-07 4.7975e-14)
(978.58 3.04536e-07 4.78954e-14)
(978.58 4.59494e-07 5.03908e-14)
(978.58 6.9255e-07 5.13457e-14)
(978.58 1.0705e-06 5.04281e-14)
(978.58 1.65291e-06 5.06709e-14)
(978.58 -9.1467e-10 5.43968e-14)
(978.58 -9.25824e-10 5.67301e-14)
(978.58 -9.36293e-10 5.65835e-14)
(978.58 -9.46012e-10 5.55032e-14)
(978.58 -9.55657e-10 5.36596e-14)
(978.58 -9.61197e-10 5.5027e-14)
(978.58 -9.61708e-10 5.64921e-14)
(978.58 -9.63024e-10 5.70313e-14)
(978.58 -9.61567e-10 5.78548e-14)
(978.58 -9.56566e-10 5.77102e-14)
(978.58 -9.36484e-10 5.63454e-14)
(978.58 -9.04847e-10 5.51434e-14)
(978.58 -8.5093e-10 5.32763e-14)
(978.58 -7.52922e-10 5.46241e-14)
(978.58 -5.70788e-10 5.80877e-14)
(978.58 -2.63531e-10 6.06853e-14)
(978.58 2.28727e-10 6.31872e-14)
(978.58 9.8777e-10 6.03383e-14)
(978.58 2.04262e-09 5.89561e-14)
(978.58 3.46867e-09 6.12519e-14)
(978.58 5.45101e-09 5.75936e-14)
(978.58 8.3469e-09 5.75791e-14)
(978.58 1.26614e-08 6.28889e-14)
(978.58 1.90467e-08 6.13529e-14)
(978.58 2.84664e-08 6.15736e-14)
(978.58 4.23958e-08 6.26623e-14)
(978.58 6.30479e-08 6.1517e-14)
(978.58 9.37266e-08 5.55175e-14)
(978.58 1.3938e-07 5.51273e-14)
(978.58 2.07429e-07 5.68365e-14)
(978.58 3.09037e-07 6.19464e-14)
(978.58 4.61046e-07 6.51311e-14)
(978.58 6.89071e-07 6.15185e-14)
(978.58 1.0314e-06 6.06674e-14)
(978.58 1.54966e-06 6.15374e-14)
(978.58 2.32635e-06 6.30304e-14)
(978.58 3.57866e-06 6.40788e-14)
(978.58 5.49734e-06 6.40523e-14)
(978.58 -1.08449e-09 7.04171e-14)
(978.58 -1.09265e-09 6.96416e-14)
(978.58 -1.09603e-09 6.52183e-14)
(978.58 -1.09982e-09 6.17026e-14)
(978.58 -1.10215e-09 6.52432e-14)
(978.58 -1.0992e-09 6.59189e-14)
(978.58 -1.09095e-09 6.45238e-14)
(978.58 -1.05702e-09 7.35481e-14)
(978.58 -1.01688e-09 7.27801e-14)
(978.58 -9.43946e-10 6.98868e-14)
(978.58 -8.11615e-10 6.97302e-14)
(978.58 -5.81558e-10 6.91729e-14)
(978.58 -2.08016e-10 6.94335e-14)
(978.58 3.74868e-10 7.11888e-14)
(978.58 1.22292e-09 7.11087e-14)
(978.58 2.36161e-09 7.3107e-14)
(978.58 3.9108e-09 7.52703e-14)
(978.58 6.0962e-09 7.16359e-14)
(978.58 9.30362e-09 7.03493e-14)
(978.58 1.4021e-08 7.34475e-14)
(978.58 2.0922e-08 7.3152e-14)
(978.58 3.10188e-08 7.45605e-14)
(978.58 4.58288e-08 7.30745e-14)
(978.58 6.7586e-08 7.10694e-14)
(978.58 9.96079e-08 7.14138e-14)
(978.58 1.46838e-07 7.68367e-14)
(978.58 2.16635e-07 7.70626e-14)
(978.58 3.19948e-07 7.07868e-14)
(978.58 4.73127e-07 7.31235e-14)
(978.58 7.00653e-07 7.34223e-14)
(978.58 1.03929e-06 7.18844e-14)
(978.58 1.54423e-06 7.31318e-14)
(978.58 2.29907e-06 7.46397e-14)
(978.58 3.42834e-06 7.80328e-14)
(978.58 5.1314e-06 7.63729e-14)
(978.58 7.6747e-06 7.3497e-14)
(978.58 1.17511e-05 7.40145e-14)
(978.58 1.79615e-05 7.49203e-14)
(978.58 -1.21846e-09 7.89541e-14)
(978.58 -1.21921e-09 7.88023e-14)
(978.58 -1.21593e-09 8.17827e-14)
(978.58 -1.19174e-09 8.25697e-14)
(978.58 -1.15767e-09 7.96631e-14)
(978.58 -1.1017e-09 7.79821e-14)
(978.58 -1.00191e-09 8.09206e-14)
(978.58 -8.20327e-10 8.40083e-14)
(978.58 -5.23375e-10 8.03754e-14)
(978.58 -6.0384e-11 8.51398e-14)
(978.58 6.3551e-10 8.44616e-14)
(978.58 1.57349e-09 8.27511e-14)
(978.58 2.82148e-09 8.1987e-14)
(978.58 4.54581e-09 8.13407e-14)
(978.58 7.02715e-09 8.18756e-14)
(978.58 1.06363e-08 8.5368e-14)
(978.58 1.58672e-08 8.62923e-14)
(978.58 2.34423e-08 8.71757e-14)
(978.58 3.44458e-08 8.49982e-14)
(978.58 5.04562e-08 8.67885e-14)
(978.58 7.37743e-08 8.51863e-14)
(978.58 1.07797e-07 8.43633e-14)
(978.58 1.57541e-07 8.38677e-14)
(978.58 2.30412e-07 8.53723e-14)
(978.58 3.37349e-07 8.415e-14)
(978.58 4.94544e-07 8.76837e-14)
(978.58 7.26023e-07 8.67511e-14)
(978.58 1.06749e-06 8.09277e-14)
(978.58 1.57213e-06 8.25695e-14)
(978.58 2.31929e-06 8.55129e-14)
(978.58 3.42764e-06 8.59636e-14)
(978.58 5.07471e-06 8.64469e-14)
(978.58 7.52839e-06 8.94124e-14)
(978.58 1.11866e-05 9.13173e-14)
(978.58 1.66825e-05 9.12646e-14)
(978.58 2.48614e-05 8.84005e-14)
(978.58 3.78943e-05 8.83654e-14)
(978.58 5.76422e-05 8.9018e-14)
(978.58 -1.27181e-09 9.29361e-14)
(978.58 -1.22736e-09 9.40408e-14)
(978.58 -1.14953e-09 9.58586e-14)
(978.58 -1.00395e-09 9.79378e-14)
(978.58 -7.62807e-10 9.56812e-14)
(978.58 -3.83431e-10 9.37805e-14)
(978.58 1.94678e-10 9.62888e-14)
(978.58 9.95509e-10 9.80796e-14)
(978.58 2.04811e-09 9.92101e-14)
(978.58 3.45903e-09 9.64377e-14)
(978.58 5.43551e-09 9.47226e-14)
(978.58 8.29639e-09 9.45665e-14)
(978.58 1.2418e-08 9.41209e-14)
(978.58 1.83223e-08 9.56385e-14)
(978.58 2.67886e-08 9.63184e-14)
(978.58 3.89721e-08 9.92655e-14)
(978.58 5.65518e-08 1.00453e-13)
(978.58 8.19562e-08 9.79798e-14)
(978.58 1.18728e-07 9.74195e-14)
(978.58 1.72034e-07 9.7504e-14)
(978.58 2.49435e-07 9.61585e-14)
(978.58 3.62033e-07 9.75514e-14)
(978.58 5.26142e-07 9.46243e-14)
(978.58 7.65757e-07 9.5037e-14)
(978.58 1.11622e-06 9.56203e-14)
(978.58 1.6297e-06 1.00138e-13)
(978.58 2.38338e-06 9.72974e-14)
(978.58 3.49165e-06 9.70638e-14)
(978.58 5.1243e-06 1.00198e-13)
(978.58 7.53378e-06 1.01571e-13)
(978.58 1.10963e-05 1.01823e-13)
(978.58 1.63727e-05 1.01142e-13)
(978.58 2.42062e-05 1.01831e-13)
(978.58 3.58448e-05 1.00511e-13)
(978.58 5.32643e-05 1.02839e-13)
(978.58 7.90972e-05 1.0432e-13)
(978.58 0.000120024 9.98138e-14)
(978.58 0.000181703 9.68212e-14)
(978.58 -1.14572e-09 1.08349e-13)
(978.58 -9.39964e-10 1.09562e-13)
(978.58 -6.16939e-10 1.1207e-13)
(978.58 -1.26472e-10 1.11569e-13)
(978.58 5.68568e-10 1.111e-13)
(978.58 1.47756e-09 1.11649e-13)
(978.58 2.68089e-09 1.12622e-13)
(978.58 4.32644e-09 1.0948e-13)
(978.58 6.66546e-09 1.09243e-13)
(978.58 1.00142e-08 1.07028e-13)
(978.58 1.47747e-08 1.05921e-13)
(978.58 2.15312e-08 1.08524e-13)
(978.58 3.11536e-08 1.04485e-13)
(978.58 4.48848e-08 1.09803e-13)
(978.58 6.45143e-08 1.09793e-13)
(978.58 9.26393e-08 1.10691e-13)
(978.58 1.33015e-07 1.09147e-13)
(978.58 1.91071e-07 1.07651e-13)
(978.58 2.74664e-07 1.07816e-13)
(978.58 3.95237e-07 1.09294e-13)
(978.58 5.6947e-07 1.08913e-13)
(978.58 8.21712e-07 1.08839e-13)
(978.58 1.18755e-06 1.0688e-13)
(978.58 1.71907e-06 1.06952e-13)
(978.58 2.49268e-06 1.09247e-13)
(978.58 3.62062e-06 1.11217e-13)
(978.58 5.26812e-06 1.11998e-13)
(978.58 7.67876e-06 1.09147e-13)
(978.58 1.12122e-05 1.09579e-13)
(978.58 1.64006e-05 1.11e-13)
(978.58 2.40324e-05 1.13012e-13)
(978.58 3.52785e-05 1.13306e-13)
(978.58 5.18792e-05 1.13462e-13)
(978.58 7.64409e-05 1.13232e-13)
(978.58 0.000112809 1.16548e-13)
(978.58 0.000167037 1.15095e-13)
(978.58 0.000247174 1.11778e-13)
(978.58 0.000373413 1.10594e-13)
(978.579 0.000562663 1.1063e-13)
(978.58 2.62083e-10 1.22375e-13)
(978.58 1.07477e-09 1.21626e-13)
(978.58 2.13364e-09 1.23492e-13)
(978.58 3.55253e-09 1.25938e-13)
(978.58 5.5353e-09 1.2378e-13)
(978.58 8.34947e-09 1.2419e-13)
(978.58 1.23144e-08 1.22433e-13)
(978.58 1.78809e-08 1.18583e-13)
(978.58 2.57322e-08 1.17942e-13)
(978.58 3.68357e-08 1.18392e-13)
(978.58 5.25518e-08 1.20891e-13)
(978.58 7.48305e-08 1.17393e-13)
(978.58 1.0648e-07 1.18152e-13)
(978.58 1.5153e-07 1.22926e-13)
(978.58 2.15759e-07 1.22356e-13)
(978.58 3.07489e-07 1.21654e-13)
(978.58 4.38717e-07 1.19849e-13)
(978.58 6.2678e-07 1.22985e-13)
(978.58 8.96774e-07 1.21918e-13)
(978.58 1.28509e-06 1.21542e-13)
(978.58 1.8446e-06 1.19948e-13)
(978.58 2.65216e-06 1.19949e-13)
(978.58 3.81977e-06 1.20117e-13)
(978.58 5.51091e-06 1.2268e-13)
(978.58 7.96456e-06 1.24216e-13)
(978.58 1.15308e-05 1.23899e-13)
(978.58 1.67231e-05 1.23233e-13)
(978.58 2.42962e-05 1.19831e-13)
(978.58 3.53608e-05 1.21351e-13)
(978.58 5.1555e-05 1.25557e-13)
(978.58 7.52982e-05 1.26371e-13)
(978.58 0.000110172 1.26004e-13)
(978.58 0.000161479 1.25454e-13)
(978.58 0.000237132 1.25677e-13)
(978.58 0.000348765 1.26453e-13)
(978.579 0.000514589 1.24382e-13)
(978.579 0.000758789 1.22766e-13)
(978.579 0.0011413 1.25816e-13)
(978.578 0.00171176 1.26307e-13)
(978.58 4.75431e-09 1.38958e-13)
(978.58 7.19732e-09 1.36895e-13)
(978.58 1.06121e-08 1.35726e-13)
(978.58 1.53655e-08 1.35801e-13)
(978.58 2.19931e-08 1.33472e-13)
(978.58 3.12673e-08 1.35165e-13)
(978.58 4.42647e-08 1.36325e-13)
(978.58 6.25117e-08 1.33693e-13)
(978.58 8.81842e-08 1.31031e-13)
(978.58 1.24363e-07 1.3288e-13)
(978.58 1.75425e-07 1.32322e-13)
(978.58 2.4762e-07 1.32117e-13)
(978.58 3.49886e-07 1.30615e-13)
(978.58 4.9501e-07 1.31313e-13)
(978.58 7.01299e-07 1.37338e-13)
(978.58 9.95027e-07 1.38009e-13)
(978.58 1.41399e-06 1.38006e-13)
(978.58 2.01264e-06 1.33852e-13)
(978.58 2.86956e-06 1.31117e-13)
(978.58 4.09827e-06 1.31966e-13)
(978.58 5.86317e-06 1.33753e-13)
(978.58 8.40266e-06 1.3331e-13)
(978.58 1.20631e-05 1.31772e-13)
(978.58 1.73484e-05 1.32976e-13)
(978.58 2.49931e-05 1.35287e-13)
(978.58 3.60697e-05 1.36303e-13)
(978.58 5.21463e-05 1.31733e-13)
(978.58 7.55202e-05 1.33282e-13)
(978.58 0.000109561 1.37695e-13)
(978.58 0.000159223 1.39422e-13)
(978.58 0.000231795 1.37891e-13)
(978.58 0.000338033 1.35784e-13)
(978.579 0.000493807 1.35984e-13)
(978.579 0.000722709 1.3703e-13)
(978.579 0.00105931 1.37684e-13)
(978.578 0.00155746 1.37682e-13)
(978.577 0.00228848 1.38941e-13)
(978.576 0.00342714 1.3893e-13)
(978.574 0.00511651 1.36794e-13)
(978.58 1.36587e-08 1.51823e-13)
(978.58 1.94353e-08 1.49152e-13)
(978.58 2.74409e-08 1.4875e-13)
(978.58 3.8559e-08 1.50097e-13)
(978.58 5.40138e-08 1.49577e-13)
(978.58 7.55363e-08 1.49913e-13)
(978.58 1.05566e-07 1.49933e-13)
(978.58 1.47542e-07 1.49479e-13)
(978.58 2.0631e-07 1.47153e-13)
(978.58 2.88734e-07 1.48451e-13)
(978.58 4.04544e-07 1.46294e-13)
(978.58 5.6755e-07 1.45737e-13)
(978.58 7.97375e-07 1.42825e-13)
(978.58 1.12197e-06 1.41893e-13)
(978.58 1.58117e-06 1.46731e-13)
(978.58 2.23196e-06 1.47704e-13)
(978.58 3.15586e-06 1.4585e-13)
(978.58 4.46984e-06 1.45461e-13)
(978.58 6.34185e-06 1.44922e-13)
(978.58 9.01356e-06 1.43066e-13)
(978.58 1.28332e-05 1.41231e-13)
(978.58 1.83033e-05 1.43359e-13)
(978.58 2.61505e-05 1.43924e-13)
(978.58 3.7427e-05 1.43007e-13)
(978.58 5.36589e-05 1.46508e-13)
(978.58 7.70637e-05 1.49445e-13)
(978.58 0.000110868 1.45149e-13)
(978.58 0.000159777 1.43802e-13)
(978.58 0.000230655 1.47433e-13)
(978.58 0.000333548 1.48631e-13)
(978.579 0.000483165 1.49726e-13)
(978.579 0.000701091 1.47456e-13)
(978.579 0.00101906 1.48243e-13)
(978.578 0.00148373 1.50108e-13)
(978.577 0.0021642 1.52391e-13)
(978.576 0.00316138 1.51014e-13)
(978.574 0.00463156 1.49601e-13)
(978.572 0.00678138 1.49952e-13)
(978.567 0.0101113 1.4845e-13)
(978.562 0.0150262 1.4894e-13)
(978.58 4.82388e-08 1.65339e-13)
(978.58 6.68789e-08 1.64546e-13)
(978.58 9.26406e-08 1.63341e-13)
(978.58 1.283e-07 1.61323e-13)
(978.58 1.77731e-07 1.62085e-13)
(978.58 2.4638e-07 1.63265e-13)
(978.58 3.41898e-07 1.63609e-13)
(978.58 4.75033e-07 1.61611e-13)
(978.58 6.60906e-07 1.614e-13)
(978.58 9.20859e-07 1.61918e-13)
(978.58 1.28506e-06 1.5653e-13)
(978.58 1.79618e-06 1.57587e-13)
(978.58 2.51475e-06 1.56918e-13)
(978.58 3.52671e-06 1.56981e-13)
(978.58 4.95436e-06 1.58363e-13)
(978.58 6.97197e-06 1.57696e-13)
(978.58 9.82829e-06 1.54796e-13)
(978.58 1.38789e-05 1.53744e-13)
(978.58 1.96327e-05 1.55908e-13)
(978.58 2.78197e-05 1.54824e-13)
(978.58 3.94887e-05 1.5787e-13)
(978.58 5.61488e-05 1.59425e-13)
(978.58 7.99752e-05 1.59902e-13)
(978.58 0.000114109 1.57496e-13)
(978.58 0.00016309 1.56964e-13)
(978.58 0.000233498 1.57915e-13)
(978.58 0.000334871 1.57092e-13)
(978.579 0.000481072 1.56919e-13)
(978.579 0.000692275 1.58271e-13)
(978.579 0.000997883 1.6072e-13)
(978.578 0.00144082 1.60725e-13)
(978.577 0.00208386 1.60194e-13)
(978.576 0.00301893 1.60039e-13)
(978.574 0.00438078 1.62068e-13)
(978.572 0.00636818 1.62817e-13)
(978.568 0.0092704 1.58814e-13)
(978.563 0.013533 1.6035e-13)
(978.555 0.0197439 1.61646e-13)
(978.544 0.0293102 1.61736e-13)
(978.527 0.0433557 1.61244e-13)
(978.58 1.58204e-07 1.77088e-13)
(978.58 2.17261e-07 1.75099e-13)
(978.58 2.98634e-07 1.7575e-13)
(978.58 4.10955e-07 1.76334e-13)
(978.58 5.66263e-07 1.76923e-13)
(978.58 7.81384e-07 1.77548e-13)
(978.58 1.07987e-06 1.73361e-13)
(978.58 1.49474e-06 1.71409e-13)
(978.58 2.07239e-06 1.75239e-13)
(978.58 2.87807e-06 1.7417e-13)
(978.58 4.00373e-06 1.70827e-13)
(978.58 5.57915e-06 1.74417e-13)
(978.58 7.78778e-06 1.727e-13)
(978.58 1.08894e-05 1.69993e-13)
(978.58 1.52525e-05 1.69504e-13)
(978.58 2.14006e-05 1.65946e-13)
(978.58 3.00784e-05 1.6526e-13)
(978.58 4.23475e-05 1.68117e-13)
(978.58 5.97241e-05 1.68979e-13)
(978.58 8.4376e-05 1.71283e-13)
(978.58 0.000119409 1.75675e-13)
(978.58 0.000169277 1.71667e-13)
(978.58 0.000240381 1.70185e-13)
(978.58 0.000341931 1.70008e-13)
(978.579 0.000487202 1.69785e-13)
(978.579 0.000695359 1.70003e-13)
(978.579 0.000994117 1.6872e-13)
(978.578 0.00142361 1.68583e-13)
(978.577 0.00204206 1.75409e-13)
(978.576 0.00293402 1.72322e-13)
(978.575 0.00422254 1.69136e-13)
(978.572 0.00608689 1.68815e-13)
(978.569 0.00878877 1.69422e-13)
(978.564 0.0127104 1.7265e-13)
(978.557 0.0184132 1.74732e-13)
(978.547 0.0267114 1.73678e-13)
(978.532 0.0388523 1.72199e-13)
(978.51 0.0564767 1.73642e-13)
(978.477 0.0834666 1.77423e-13)
(978.431 0.122875 1.74886e-13)
(978.58 5.01275e-07 1.901e-13)
(978.58 6.85103e-07 1.90705e-13)
(978.58 9.37732e-07 1.89771e-13)
(978.58 1.28553e-06 1.8731e-13)
(978.58 1.76517e-06 1.87886e-13)
(978.58 2.42777e-06 1.89084e-13)
(978.58 3.34466e-06 1.86579e-13)
(978.58 4.61557e-06 1.82355e-13)
(978.58 6.38022e-06 1.8629e-13)
(978.58 8.83458e-06 1.86893e-13)
(978.58 1.2254e-05 1.84446e-13)
(978.58 1.70261e-05 1.87042e-13)
(978.58 2.36973e-05 1.82427e-13)
(978.58 3.30393e-05 1.80138e-13)
(978.58 4.61436e-05 1.81772e-13)
(978.58 6.45562e-05 1.80226e-13)
(978.58 9.0471e-05 1.78538e-13)
(978.58 0.000127006 1.81859e-13)
(978.58 0.000178597 1.83494e-13)
(978.58 0.000251571 1.85871e-13)
(978.58 0.000354958 1.8545e-13)
(978.579 0.000501674 1.81845e-13)
(978.579 0.000710219 1.83867e-13)
(978.579 0.00100714 1.82847e-13)
(978.578 0.00143057 1.80924e-13)
(978.577 0.0020354 1.83157e-13)
(978.576 0.00290073 1.79221e-13)
(978.575 0.00414073 1.8216e-13)
(978.572 0.00592044 1.82668e-13)
(978.569 0.00847877 1.80673e-13)
(978.564 0.0121622 1.83031e-13)
(978.558 0.0174735 1.84432e-13)
(978.548 0.0251442 1.82443e-13)
(978.534 0.0362383 1.81886e-13)
(978.514 0.0523125 1.85943e-13)
(978.486 0.0756156 1.86211e-13)
(978.444 0.109572 1.86702e-13)
(978.384 0.158668 1.87188e-13)
(978.294 0.233401 1.86266e-13)
(978.166 0.34186 1.85692e-13)
(978.58 1.55289e-06 2.03176e-13)
(978.58 2.11536e-06 2.03051e-13)
(978.58 2.88636e-06 2.01474e-13)
(978.58 3.94496e-06 2.00241e-13)
(978.58 5.4009e-06 1.98884e-13)
(978.58 7.40669e-06 1.98417e-13)
(978.58 1.01747e-05 1.99383e-13)
(978.58 1.40013e-05 1.98287e-13)
(978.58 1.93001e-05 1.9934e-13)
(978.58 2.66501e-05 1.98416e-13)
(978.58 3.68624e-05 1.98118e-13)
(978.58 5.10755e-05 1.98218e-13)
(978.58 7.08894e-05 1.93887e-13)
(978.58 9.85567e-05 1.94068e-13)
(978.58 0.000137254 1.96115e-13)
(978.58 0.000191468 1.94754e-13)
(978.58 0.000267545 1.93973e-13)
(978.579 0.000374479 1.94681e-13)
(978.579 0.00052503 1.94553e-13)
(978.579 0.000737341 1.95879e-13)
(978.579 0.00103723 1.95396e-13)
(978.578 0.00146153 1.93629e-13)
(978.577 0.0020628 1.93832e-13)
(978.576 0.0029162 1.93583e-13)
(978.575 0.0041294 1.93677e-13)
(978.572 0.00585678 1.934e-13)
(978.569 0.00832013 1.94309e-13)
(978.565 0.0118385 1.94713e-13)
(978.558 0.0168714 1.92346e-13)
(978.549 0.024082 1.95172e-13)
(978.536 0.0344276 1.959e-13)
(978.517 0.0492931 1.9783e-13)
(978.491 0.0706844 1.93514e-13)
(978.452 0.101507 1.94175e-13)
(978.397 0.145993 1.97456e-13)
(978.318 0.210222 1.9952e-13)
(978.204 0.303403 1.98704e-13)
(978.04 0.437539 1.96807e-13)
(977.795 0.640336 1.96897e-13)
(977.452 0.932505 1.99746e-13)
(978.58 4.72144e-06 2.17026e-13)
(978.58 6.41348e-06 2.15582e-13)
(978.58 8.72673e-06 2.14771e-13)
(978.58 1.18946e-05 2.11862e-13)
(978.58 1.62402e-05 2.11964e-13)
(978.58 2.22114e-05 2.15143e-13)
(978.58 3.043e-05 2.14036e-13)
(978.58 4.17607e-05 2.10359e-13)
(978.58 5.74076e-05 2.12047e-13)
(978.58 7.90501e-05 2.12408e-13)
(978.58 0.000109035 2.11249e-13)
(978.58 0.000150648 2.10769e-13)
(978.58 0.000208493 2.07076e-13)
(978.58 0.000289036 2.08683e-13)
(978.579 0.000401368 2.10619e-13)
(978.579 0.00055829 2.07395e-13)
(978.579 0.000777859 2.08974e-13)
(978.579 0.00108558 2.10968e-13)
(978.578 0.00151755 2.08699e-13)
(978.577 0.00212488 2.0761e-13)
(978.576 0.00298012 2.06581e-13)
(978.574 0.00418638 2.04765e-13)
(978.572 0.00589039 2.08714e-13)
(978.569 0.00830131 2.09401e-13)
(978.565 0.0117177 2.09684e-13)
(978.558 0.0165664 2.07439e-13)
(978.549 0.0234582 2.04913e-13)
(978.537 0.0332687 2.04799e-13)
(978.519 0.047254 2.04485e-13)
(978.494 0.0672194 2.06913e-13)
(978.458 0.0957621 2.06181e-13)
(978.407 0.136621 2.0576e-13)
(978.334 0.195183 2.07359e-13)
(978.229 0.279218 2.07459e-13)
(978.08 0.399975 2.05526e-13)
(977.866 0.573516 2.0793e-13)
(977.559 0.823932 2.08429e-13)
(977.12 1.18241 2.07161e-13)
(976.471 1.72 2.0882e-13)
(975.567 2.48702 2.10631e-13)
(978.58 1.41091e-05 2.33265e-13)
(978.58 1.91147e-05 2.30678e-13)
(978.58 2.594e-05 2.28025e-13)
(978.58 3.52623e-05 2.26561e-13)
(978.58 4.80158e-05 2.26587e-13)
(978.58 6.54924e-05 2.25693e-13)
(978.58 8.94807e-05 2.26141e-13)
(978.58 0.000122462 2.25063e-13)
(978.58 0.000167882 2.26157e-13)
(978.58 0.000230538 2.22635e-13)
(978.58 0.000317111 2.20816e-13)
(978.579 0.000436924 2.21726e-13)
(978.579 0.000603006 2.20985e-13)
(978.579 0.000833594 2.22903e-13)
(978.578 0.00115425 2.2282e-13)
(978.578 0.00160088 2.24804e-13)
(978.577 0.00222396 2.24359e-13)
(978.576 0.00309457 2.21482e-13)
(978.574 0.00431299 2.22164e-13)
(978.572 0.00602083 2.22356e-13)
(978.569 0.00841844 2.17725e-13)
(978.564 0.0117896 2.1834e-13)
(978.558 0.0165367 2.19408e-13)
(978.549 0.0232318 2.18135e-13)
(978.537 0.0326879 2.19584e-13)
(978.52 0.0460631 2.17481e-13)
(978.495 0.0650084 2.181e-13)
(978.461 0.0918815 2.17651e-13)
(978.413 0.130051 2.16266e-13)
(978.344 0.184334 2.19029e-13)
(978.247 0.261624 2.20239e-13)
(978.109 0.371797 2.20804e-13)
(977.913 0.529005 2.21487e-13)
(977.634 0.753464 2.18108e-13)
(977.237 1.07423 2.18862e-13)
(976.672 1.53241 2.21829e-13)
(975.863 2.18906 2.22658e-13)
(974.717 3.12146 2.21723e-13)
(973.042 4.50365 2.22512e-13)
(970.743 6.44714 2.24457e-13)
(978.58 3.07321e-05 2.47453e-13)
(978.58 4.1456e-05 2.4782e-13)
(978.58 5.60167e-05 2.4338e-13)
(978.58 7.58194e-05 2.42642e-13)
(978.58 0.000102796 2.42889e-13)
(978.58 0.000139606 2.39047e-13)
(978.58 0.000189915 2.41309e-13)
(978.58 0.000258787 2.37933e-13)
(978.579 0.000353224 2.36257e-13)
(978.579 0.00048292 2.38145e-13)
(978.579 0.000661324 2.3539e-13)
(978.579 0.000907121 2.33107e-13)
(978.578 0.00124631 2.33914e-13)
(978.578 0.00171515 2.35398e-13)
(978.577 0.0023642 2.3436e-13)
(978.575 0.00326418 2.3467e-13)
(978.574 0.00451405 2.36787e-13)
(978.571 0.00625256 2.32887e-13)
(978.568 0.00867448 2.31039e-13)
(978.564 0.0120536 2.32038e-13)
(978.557 0.0167753 2.31589e-13)
(978.549 0.0233832 2.30124e-13)
(978.536 0.0326443 2.3114e-13)
(978.519 0.0456427 2.28784e-13)
(978.496 0.0639124 2.28351e-13)
(978.462 0.0896273 2.32927e-13)
(978.416 0.125871 2.30938e-13)
(978.35 0.177019 2.29495e-13)
(978.258 0.249286 2.29753e-13)
(978.128 0.351508 2.32319e-13)
(977.946 0.496253 2.31924e-13)
(977.688 0.701373 2.2774e-13)
(977.323 0.992209 2.32989e-13)
(976.808 1.40476 2.34974e-13)
(976.079 1.99005 2.31284e-13)
(975.048 2.82004 2.33207e-13)
(973.591 3.99476 2.35657e-13)
(971.533 5.65957 2.35108e-13)
(968.657 7.99417 2.34079e-13)
(964.537 11.3897 2.35323e-13)
(959.024 16.0432 2.34445e-13)
(978.58 8.90514e-05 2.63742e-13)
(978.58 0.000119819 2.6059e-13)
(978.58 0.000161486 2.54667e-13)
(978.58 0.000218005 2.56151e-13)
(978.58 0.000294793 2.55132e-13)
(978.579 0.000399287 2.5227e-13)
(978.579 0.000541713 2.51916e-13)
(978.579 0.00073615 2.50665e-13)
(978.579 0.00100202 2.52605e-13)
(978.578 0.00136615 2.5297e-13)
(978.577 0.00186567 2.48201e-13)
(978.576 0.00255199 2.47626e-13)
(978.575 0.00349645 2.49063e-13)
(978.573 0.00479813 2.48525e-13)
(978.571 0.00659494 2.46875e-13)
(978.567 0.00907902 2.48184e-13)
(978.563 0.0125185 2.48043e-13)
(978.556 0.0172879 2.45209e-13)
(978.547 0.0239116 2.44284e-13)
(978.535 0.0331243 2.44106e-13)
(978.518 0.0459563 2.43693e-13)
(978.494 0.0638547 2.44955e-13)
(978.462 0.0888549 2.40137e-13)
(978.416 0.123823 2.37219e-13)
(978.352 0.172795 2.43866e-13)
(978.264 0.241461 2.45475e-13)
(978.14 0.33785 2.41398e-13)
(977.966 0.473303 2.41368e-13)
(977.723 0.663815 2.41682e-13)
(977.383 0.931924 2.43016e-13)
(976.905 1.30941 2.4179e-13)
(976.235 1.84103 2.43832e-13)
(975.294 2.58948 2.46933e-13)
(973.974 3.64202 2.45771e-13)
(972.127 5.11951 2.47314e-13)
(969.546 7.1897 2.45808e-13)
(965.962 10.0753 2.44598e-13)
(961.006 14.0847 2.47575e-13)
(954.276 19.5646 2.50331e-13)
(944.975 27.2829 2.46477e-13)
(933.062 37.411 2.46251e-13)
(978.58 0.000189453 2.76468e-13)
(978.58 0.000253828 2.74693e-13)
(978.579 0.000340641 2.66982e-13)
(978.579 0.000457902 2.68638e-13)
(978.579 0.000616544 2.70638e-13)
(978.579 0.000831514 2.67001e-13)
(978.578 0.00112328 2.66832e-13)
(978.578 0.00151991 2.68017e-13)
(978.577 0.00205993 2.65952e-13)
(978.576 0.00279635 2.67825e-13)
(978.575 0.00380211 2.66615e-13)
(978.573 0.00517785 2.60899e-13)
(978.57 0.00706259 2.6137e-13)
(978.566 0.00964865 2.61279e-13)
(978.561 0.0132024 2.60738e-13)
(978.555 0.0180933 2.61924e-13)
(978.546 0.0248346 2.62269e-13)
(978.533 0.0341402 2.57285e-13)
(978.516 0.0470041 2.54065e-13)
(978.492 0.0648116 2.54518e-13)
(978.459 0.0894968 2.56028e-13)
(978.413 0.123763 2.56582e-13)
(978.351 0.171392 2.54494e-13)
(978.264 0.237671 2.53995e-13)
(978.143 0.330008 2.56573e-13)
(977.976 0.45879 2.57559e-13)
(977.744 0.63857 2.56051e-13)
(977.42 0.889708 2.5493e-13)
(976.97 1.24067 2.53907e-13)
(976.343 1.73132 2.53461e-13)
(975.47 2.41719 2.56497e-13)
(974.254 3.37507 2.58852e-13)
(972.563 4.71071 2.53746e-13)
(970.219 6.56922 2.51267e-13)
(966.979 9.14708 2.54127e-13)
(962.532 12.7016 2.55992e-13)
(956.485 17.5644 2.56328e-13)
(948.351 24.1531 2.56906e-13)
(937.54 32.9875 2.60972e-13)
(923.552 44.5266 2.60341e-13)
(905.378 59.8232 2.57614e-13)
(883.519 78.6699 2.57813e-13)
(978.579 0.00039922 2.87486e-13)
(978.579 0.000532648 2.85846e-13)
(978.579 0.000711839 2.83529e-13)
(978.579 0.000952865 2.83858e-13)
(978.578 0.00127757 2.84444e-13)
(978.577 0.00171571 2.82489e-13)
(978.577 0.00230783 2.8127e-13)
(978.575 0.00310928 2.82305e-13)
(978.574 0.00419571 2.81183e-13)
(978.572 0.00567076 2.80274e-13)
(978.569 0.0076766 2.80386e-13)
(978.565 0.0104085 2.76068e-13)
(978.56 0.0141347 2.73599e-13)
(978.553 0.0192249 2.74617e-13)
(978.543 0.0261888 2.74441e-13)
(978.53 0.0357299 2.73674e-13)
(978.512 0.0488209 2.73551e-13)
(978.488 0.0668073 2.703e-13)
(978.454 0.0915538 2.68128e-13)
(978.408 0.125648 2.67103e-13)
(978.345 0.172685 2.69762e-13)
(978.259 0.237652 2.70987e-13)
(978.14 0.327486 2.6822e-13)
(977.976 0.45184 2.66272e-13)
(977.75 0.624155 2.68901e-13)
(977.438 0.863095 2.68332e-13)
(977.007 1.19456 2.66652e-13)
(976.412 1.65453 2.65448e-13)
(975.588 2.29291 2.65679e-13)
(974.449 3.17833 2.64597e-13)
(972.876 4.40449 2.66386e-13)
(970.711 6.09926 2.68934e-13)
(967.738 8.43548 2.66212e-13)
(963.677 11.6405 2.63563e-13)
(958.179 16.0048 2.66241e-13)
(950.813 21.8947 2.67198e-13)
(941.061 29.7586 2.68141e-13)
(928.365 40.0911 2.7041e-13)
(912.224 53.3562 2.70094e-13)
(892.092 70.0973 2.70906e-13)
(867.721 90.6222 2.70986e-13)
(838.033 116.086 2.68379e-13)
(805.096 144.623 2.69883e-13)
(978.578 0.0011073 3.00458e-13)
(978.578 0.00147361 3.01482e-13)
(978.577 0.00196426 3.0115e-13)
(978.576 0.00262249 2.98377e-13)
(978.575 0.00350692 2.95684e-13)
(978.573 0.00469709 2.94676e-13)
(978.571 0.0063012 2.95324e-13)
(978.568 0.00846661 2.94207e-13)
(978.563 0.0113942 2.92058e-13)
(978.558 0.0153581 2.91874e-13)
(978.55 0.020733 2.90243e-13)
(978.54 0.0280318 2.87529e-13)
(978.526 0.037958 2.88746e-13)
(978.507 0.0514768 2.87598e-13)
(978.482 0.0699136 2.868e-13)
(978.447 0.0950921 2.86657e-13)
(978.4 0.129526 2.84275e-13)
(978.336 0.176679 2.85816e-13)
(978.249 0.241328 2.8445e-13)
(978.129 0.330059 2.82788e-13)
(977.967 0.451976 2.85854e-13)
(977.743 0.619669 2.84407e-13)
(977.438 0.850496 2.80585e-13)
(977.019 1.16838 2.79768e-13)
(976.443 1.60626 2.81517e-13)
(975.654 2.2096 2.8134e-13)
(974.57 3.04057 2.78388e-13)
(973.085 4.18351 2.76551e-13)