/*--------------------------------*- C++ -*----------------------------------*\
| =========                 |                                                 |
| \\      /  F ield         | OpenFOAM: The Open Source CFD Toolbox           |
|  \\    /   O peration     | Version:  v1706                                 |
|   \\  /    A nd           | Web:      www.OpenFOAM.com                      |
|    \\/     M anipulation  |                                                 |
\*---------------------------------------------------------------------------*/
FoamFile
{
    version     2.0;
    format      ascii;
    class       volVectorField;
    location    "2e-05";
    object      U;
}
// * * * * * * * * * * * * * * * * * * * * * * * * * * * * * * * * * * * * * //

dimensions      [0 1 -1 0 0 0 0];


internalField   nonuniform List<vector> 
120000
(
(978.58 -2.1758e-08 3.79615e-11)
(978.58 -8.57158e-09 1.42638e-11)
(978.58 -3.87811e-09 6.45796e-12)
(978.58 -2.16676e-09 3.64954e-12)
(978.58 -1.41536e-09 2.39202e-12)
(978.58 -1.01799e-09 1.72313e-12)
(978.58 -7.76083e-10 1.30727e-12)
(978.58 -6.15196e-10 1.02147e-12)
(978.58 -5.01591e-10 8.26826e-13)
(978.58 -4.1758e-10 6.89633e-13)
(978.58 -3.54501e-10 5.23609e-13)
(978.58 -3.06648e-10 4.58012e-13)
(978.58 -2.69096e-10 4.11434e-13)
(978.58 -2.38375e-10 3.50872e-13)
(978.58 -2.13143e-10 3.01995e-13)
(978.58 -1.93059e-10 2.63897e-13)
(978.58 -1.76027e-10 2.21561e-13)
(978.58 -1.62146e-10 1.97397e-13)
(978.58 -1.49827e-10 1.85121e-13)
(978.58 -1.38985e-10 1.7205e-13)
(978.58 -1.30116e-10 1.62014e-13)
(978.58 -1.22984e-10 1.37837e-13)
(978.58 -1.15928e-10 1.30242e-13)
(978.58 -1.09664e-10 1.13286e-13)
(978.58 -1.04359e-10 1.17302e-13)
(978.58 -9.93958e-11 1.12296e-13)
(978.58 -9.55889e-11 9.12998e-14)
(978.58 -9.19577e-11 8.305e-14)
(978.58 -8.89845e-11 8.98882e-14)
(978.58 -8.53984e-11 8.1728e-14)
(978.58 -8.22853e-11 8.1637e-14)
(978.58 -8.11903e-11 7.42113e-14)
(978.58 -7.83588e-11 6.47205e-14)
(978.58 -7.59748e-11 5.95342e-14)
(978.58 -7.42221e-11 6.00219e-14)
(978.58 -7.21259e-11 5.69567e-14)
(978.58 -7.02474e-11 5.38418e-14)
(978.58 -6.95194e-11 4.43609e-14)
(978.58 -6.76505e-11 4.12204e-14)
(978.58 -6.74692e-11 4.39454e-14)
(978.58 -6.59323e-11 3.54059e-14)
(978.58 -6.43878e-11 3.9351e-14)
(978.58 -6.35376e-11 4.50096e-14)
(978.58 -6.28398e-11 3.7629e-14)
(978.58 -6.19549e-11 3.34401e-14)
(978.58 -6.19362e-11 3.28502e-14)
(978.58 -6.07746e-11 4.18679e-14)
(978.58 -6.01304e-11 2.97925e-14)
(978.58 -5.94607e-11 2.92705e-14)
(978.58 -5.90857e-11 3.34003e-14)
(978.58 -5.84428e-11 3.23641e-14)
(978.58 -5.86308e-11 2.893e-14)
(978.58 -5.77512e-11 2.7046e-14)
(978.58 -5.78496e-11 2.2879e-14)
(978.58 -5.73041e-11 2.42574e-14)
(978.58 -5.66512e-11 2.03516e-14)
(978.58 -5.63749e-11 1.82336e-14)
(978.58 -5.6572e-11 2.00285e-14)
(978.58 -5.60851e-11 2.21103e-14)
(978.58 -5.628e-11 2.55587e-14)
(978.58 -5.55864e-11 2.32254e-14)
(978.58 -5.59458e-11 1.39946e-14)
(978.58 -5.52843e-11 1.96703e-14)
(978.58 -5.49896e-11 2.07181e-14)
(978.58 -5.48481e-11 1.66847e-14)
(978.58 -5.48724e-11 1.49581e-14)
(978.58 -5.51141e-11 1.58651e-14)
(978.58 -5.47607e-11 1.83364e-14)
(978.58 -5.52839e-11 1.79976e-14)
(978.58 -5.48962e-11 1.5799e-14)
(978.58 -5.48375e-11 1.4535e-14)
(978.58 -5.52909e-11 1.53233e-14)
(978.58 -5.59425e-11 1.40253e-14)
(978.58 -5.56735e-11 1.47668e-14)
(978.58 -5.56449e-11 1.82359e-14)
(978.58 -5.62803e-11 1.68941e-14)
(978.58 -5.5867e-11 1.56876e-14)
(978.58 -5.61504e-11 1.59664e-14)
(978.58 -5.60997e-11 1.01832e-14)
(978.58 -5.65407e-11 6.68255e-15)
(978.58 -5.68527e-11 1.00189e-14)
(978.58 -5.67972e-11 1.04669e-14)
(978.58 -5.72902e-11 8.06252e-15)
(978.58 -5.69939e-11 1.13224e-14)
(978.58 -5.73611e-11 1.28869e-14)
(978.58 -5.7499e-11 1.17072e-14)
(978.58 -5.79456e-11 1.02498e-14)
(978.58 -5.76797e-11 1.07789e-14)
(978.58 -5.77062e-11 1.1139e-14)
(978.58 -5.80892e-11 7.88541e-15)
(978.58 -5.85648e-11 7.57596e-15)
(978.58 -5.88835e-11 7.99642e-15)
(978.58 -5.97212e-11 1.11631e-14)
(978.58 -5.92986e-11 1.23292e-14)
(978.58 -5.92419e-11 1.27637e-14)
(978.58 -5.94509e-11 1.10971e-14)
(978.58 -5.98537e-11 7.91855e-15)
(978.58 -6.02271e-11 1.05616e-14)
(978.58 -6.05864e-11 9.87653e-15)
(978.58 -6.10396e-11 7.08758e-15)
(978.58 -6.12404e-11 7.05078e-15)
(978.58 -6.20562e-11 1.26834e-14)
(978.58 -6.22313e-11 1.17914e-14)
(978.58 -6.25414e-11 8.3568e-15)
(978.58 -6.29561e-11 8.45755e-15)
(978.58 -6.3446e-11 6.84871e-15)
(978.58 -6.41057e-11 5.43442e-15)
(978.58 -6.46542e-11 6.00596e-15)
(978.58 -6.53136e-11 8.56824e-15)
(978.58 -6.58597e-11 6.49853e-15)
(978.58 -6.67243e-11 7.09961e-15)
(978.58 -6.70992e-11 7.6786e-15)
(978.58 -6.76074e-11 9.40276e-15)
(978.58 -6.83658e-11 8.23306e-15)
(978.58 -6.90522e-11 9.89875e-15)
(978.58 -6.99056e-11 7.90039e-15)
(978.58 -7.02608e-11 9.4649e-15)
(978.58 -7.0907e-11 1.12829e-14)
(978.58 -7.12932e-11 9.87307e-15)
(978.58 -7.20014e-11 5.77721e-15)
(978.58 -7.26448e-11 7.11911e-15)
(978.58 -7.31953e-11 7.81948e-15)
(978.58 -7.35801e-11 6.53694e-15)
(978.58 -7.42925e-11 8.65426e-15)
(978.58 -7.52337e-11 8.75692e-15)
(978.58 -7.55106e-11 7.93188e-15)
(978.58 -7.69488e-11 9.2376e-15)
(978.58 -7.76953e-11 8.50734e-15)
(978.58 -7.84505e-11 8.70031e-15)
(978.58 -7.90751e-11 7.97578e-15)
(978.58 -8.01558e-11 1.06923e-14)
(978.58 -8.09952e-11 1.17676e-14)
(978.58 -8.1889e-11 4.78151e-15)
(978.58 -8.28161e-11 5.02932e-15)
(978.58 -8.35188e-11 5.93055e-15)
(978.58 -8.46421e-11 4.70857e-15)
(978.58 -8.54843e-11 8.7957e-15)
(978.58 -8.69701e-11 7.96651e-15)
(978.58 -8.80297e-11 6.15388e-15)
(978.58 -8.90099e-11 8.74364e-15)
(978.58 -9.04574e-11 1.45829e-15)
(978.58 -9.10674e-11 4.64943e-15)
(978.58 -9.24213e-11 7.27581e-15)
(978.58 -9.36763e-11 6.39893e-15)
(978.58 -9.51534e-11 7.894e-15)
(978.58 -9.68345e-11 8.00414e-15)
(978.58 -9.85703e-11 8.52529e-15)
(978.58 -9.93417e-11 7.94392e-15)
(978.58 -1.0102e-10 6.08959e-15)
(978.58 -1.0251e-10 5.01653e-15)
(978.58 -1.04104e-10 4.24215e-15)
(978.58 -1.05223e-10 4.12276e-15)
(978.58 -1.06509e-10 5.64994e-15)
(978.58 -1.08289e-10 7.32637e-15)
(978.58 -1.098e-10 6.35951e-15)
(978.58 -1.11838e-10 7.97949e-15)
(978.58 -1.13777e-10 5.37681e-15)
(978.58 -1.1577e-10 4.01147e-15)
(978.58 -1.17346e-10 7.80688e-15)
(978.58 -1.2042e-10 3.35917e-15)
(978.58 -1.21959e-10 4.81589e-15)
(978.58 -1.23694e-10 5.34808e-15)
(978.58 -1.25705e-10 8.93732e-15)
(978.58 -1.27891e-10 8.97718e-15)
(978.58 -1.29863e-10 4.75925e-15)
(978.58 -1.31524e-10 5.57092e-15)
(978.58 -1.33335e-10 1.01509e-14)
(978.58 -1.35712e-10 6.58434e-15)
(978.58 -1.37398e-10 5.16902e-15)
(978.58 -1.37502e-10 3.56078e-15)
(978.58 -1.3675e-10 6.89525e-15)
(978.58 -1.32127e-10 8.15341e-15)
(978.58 -1.25025e-10 5.81262e-15)
(978.58 -1.16843e-10 3.37815e-15)
(978.58 -1.05692e-10 5.77523e-15)
(978.58 -9.25804e-11 7.40275e-15)
(978.58 -7.15309e-11 7.35164e-15)
(978.58 -3.57916e-11 4.25741e-15)
(978.58 1.90615e-11 3.06715e-15)
(978.58 1.10287e-10 8.19602e-15)
(978.58 2.60984e-10 6.00754e-15)
(978.58 4.8478e-10 4.39094e-15)
(978.58 7.99725e-10 5.67406e-15)
(978.58 1.23117e-09 9.30721e-15)
(978.58 1.81301e-09 1.05697e-14)
(978.58 2.60716e-09 8.59167e-15)
(978.58 3.71e-09 8.376e-15)
(978.58 5.25904e-09 1.00949e-14)
(978.58 7.44694e-09 8.24699e-15)
(978.58 1.05522e-08 8.48543e-15)
(978.58 1.49918e-08 1.05067e-14)
(978.58 2.13457e-08 6.41382e-15)
(978.58 3.12768e-08 4.1721e-15)
(978.58 4.63912e-08 8.316e-15)
(978.58 -5.20916e-08 8.68432e-11)
(978.58 -2.79326e-08 4.30685e-11)
(978.58 -1.50576e-08 2.16728e-11)
(978.58 -8.80039e-09 1.2334e-11)
(978.58 -5.64951e-09 7.86004e-12)
(978.58 -3.93349e-09 5.49536e-12)
(978.58 -2.91786e-09 4.08154e-12)
(978.58 -2.26841e-09 3.12881e-12)
(978.58 -1.82577e-09 2.50969e-12)
(978.58 -1.50972e-09 2.03021e-12)
(978.58 -1.27406e-09 1.66358e-12)
(978.58 -1.09328e-09 1.427e-12)
(978.58 -9.52631e-10 1.20264e-12)
(978.58 -8.39944e-10 1.04503e-12)
(978.58 -7.48699e-10 9.04144e-13)
(978.58 -6.7556e-10 8.17256e-13)
(978.58 -6.13707e-10 7.06006e-13)
(978.58 -5.6094e-10 6.41287e-13)
(978.58 -5.16832e-10 5.84846e-13)
(978.58 -4.78184e-10 5.33416e-13)
(978.58 -4.45009e-10 4.78497e-13)
(978.58 -4.17056e-10 4.16195e-13)
(978.58 -3.93319e-10 3.94166e-13)
(978.58 -3.71302e-10 3.60943e-13)
(978.58 -3.51699e-10 3.48931e-13)
(978.58 -3.34786e-10 3.30237e-13)
(978.58 -3.19221e-10 3.06335e-13)
(978.58 -3.05863e-10 2.83985e-13)
(978.58 -2.94184e-10 2.66469e-13)
(978.58 -2.83118e-10 2.43829e-13)
(978.58 -2.7209e-10 2.15028e-13)
(978.58 -2.63803e-10 2.10697e-13)
(978.58 -2.56446e-10 1.81408e-13)
(978.58 -2.49631e-10 1.72e-13)
(978.58 -2.44484e-10 1.72962e-13)
(978.58 -2.37461e-10 1.65814e-13)
(978.58 -2.29699e-10 1.54614e-13)
(978.58 -2.24317e-10 1.53966e-13)
(978.58 -2.19637e-10 1.46427e-13)
(978.58 -2.15034e-10 1.31333e-13)
(978.58 -2.13273e-10 1.20616e-13)
(978.58 -2.09483e-10 1.22585e-13)
(978.58 -2.03973e-10 1.24806e-13)
(978.58 -1.99694e-10 1.09796e-13)
(978.58 -1.97474e-10 9.43011e-14)
(978.58 -1.97102e-10 1.04956e-13)
(978.58 -1.94407e-10 1.00475e-13)
(978.58 -1.91125e-10 9.24155e-14)
(978.58 -1.881e-10 9.2119e-14)
(978.58 -1.86305e-10 9.90186e-14)
(978.58 -1.83482e-10 9.43454e-14)
(978.58 -1.83437e-10 8.15265e-14)
(978.58 -1.81769e-10 7.7298e-14)
(978.58 -1.80691e-10 6.67007e-14)
(978.58 -1.79826e-10 6.78867e-14)
(978.58 -1.77329e-10 6.4516e-14)
(978.58 -1.77141e-10 6.49711e-14)
(978.58 -1.75859e-10 6.36953e-14)
(978.58 -1.75401e-10 7.16339e-14)
(978.58 -1.74766e-10 6.86044e-14)
(978.58 -1.74282e-10 5.96354e-14)
(978.58 -1.73301e-10 5.68653e-14)
(978.58 -1.727e-10 6.37586e-14)
(978.58 -1.71894e-10 5.58336e-14)
(978.58 -1.70824e-10 5.42674e-14)
(978.58 -1.6979e-10 5.40074e-14)
(978.58 -1.69519e-10 4.81949e-14)
(978.58 -1.71063e-10 5.1474e-14)
(978.58 -1.70604e-10 4.90186e-14)
(978.58 -1.69438e-10 4.5731e-14)
(978.58 -1.68234e-10 4.90028e-14)
(978.58 -1.68765e-10 4.89748e-14)
(978.58 -1.69965e-10 4.44507e-14)
(978.58 -1.69962e-10 4.56057e-14)
(978.58 -1.68822e-10 4.89705e-14)
(978.58 -1.69922e-10 5.03123e-14)
(978.58 -1.71183e-10 4.52126e-14)
(978.58 -1.70882e-10 4.17579e-14)
(978.58 -1.69931e-10 3.45841e-14)
(978.58 -1.69768e-10 3.4348e-14)
(978.58 -1.71535e-10 3.73831e-14)
(978.58 -1.72287e-10 3.46666e-14)
(978.58 -1.7281e-10 3.24152e-14)
(978.58 -1.73292e-10 3.68932e-14)
(978.58 -1.7398e-10 3.92762e-14)
(978.58 -1.7455e-10 3.74111e-14)
(978.58 -1.75119e-10 3.41097e-14)
(978.58 -1.75633e-10 3.63296e-14)
(978.58 -1.75924e-10 3.37545e-14)
(978.58 -1.75993e-10 3.15734e-14)
(978.58 -1.76064e-10 3.30125e-14)
(978.58 -1.76402e-10 2.99585e-14)
(978.58 -1.7861e-10 3.65848e-14)
(978.58 -1.80111e-10 3.69941e-14)
(978.58 -1.81828e-10 3.82271e-14)
(978.58 -1.8124e-10 2.95083e-14)
(978.58 -1.8181e-10 2.38854e-14)
(978.58 -1.82259e-10 2.52277e-14)
(978.58 -1.82916e-10 2.51892e-14)
(978.58 -1.84458e-10 2.5287e-14)
(978.58 -1.84716e-10 2.56689e-14)
(978.58 -1.86217e-10 2.70594e-14)
(978.58 -1.87291e-10 2.79187e-14)
(978.58 -1.88933e-10 2.19242e-14)
(978.58 -1.89785e-10 2.33236e-14)
(978.58 -1.91249e-10 2.20307e-14)
(978.58 -1.92443e-10 2.19669e-14)
(978.58 -1.93882e-10 2.04835e-14)
(978.58 -1.95652e-10 1.8236e-14)
(978.58 -1.96258e-10 2.07252e-14)
(978.58 -1.98283e-10 2.25406e-14)
(978.58 -2.00179e-10 2.25841e-14)
(978.58 -2.01573e-10 2.2954e-14)
(978.58 -2.0322e-10 2.36593e-14)
(978.58 -2.04793e-10 2.57935e-14)
(978.58 -2.06994e-10 2.50749e-14)
(978.58 -2.08367e-10 2.63692e-14)
(978.58 -2.10344e-10 2.50733e-14)
(978.58 -2.12444e-10 2.13721e-14)
(978.58 -2.14271e-10 1.81673e-14)
(978.58 -2.16177e-10 2.02584e-14)
(978.58 -2.18093e-10 2.09845e-14)
(978.58 -2.19856e-10 2.15848e-14)
(978.58 -2.21571e-10 2.20801e-14)
(978.58 -2.2483e-10 2.26011e-14)
(978.58 -2.26274e-10 2.0839e-14)
(978.58 -2.28768e-10 2.03151e-14)
(978.58 -2.31273e-10 1.96041e-14)
(978.58 -2.32668e-10 2.02712e-14)
(978.58 -2.34663e-10 2.40013e-14)
(978.58 -2.37187e-10 2.42698e-14)
(978.58 -2.40743e-10 1.86185e-14)
(978.58 -2.42983e-10 1.80369e-14)
(978.58 -2.45046e-10 2.07586e-14)
(978.58 -2.47509e-10 2.03681e-14)
(978.58 -2.50321e-10 2.09023e-14)
(978.58 -2.5304e-10 2.09867e-14)
(978.58 -2.55357e-10 1.77287e-14)
(978.58 -2.58538e-10 2.19919e-14)
(978.58 -2.61093e-10 2.18009e-14)
(978.58 -2.65893e-10 1.7706e-14)
(978.58 -2.68821e-10 1.97536e-14)
(978.58 -2.72269e-10 1.73834e-14)
(978.58 -2.75633e-10 1.81203e-14)
(978.58 -2.78529e-10 1.6644e-14)
(978.58 -2.80915e-10 2.04617e-14)
(978.58 -2.85763e-10 1.94842e-14)
(978.58 -2.90889e-10 2.09611e-14)
(978.58 -2.94667e-10 2.05529e-14)
(978.58 -2.97986e-10 1.69794e-14)
(978.58 -3.02487e-10 1.5994e-14)
(978.58 -3.07545e-10 1.33518e-14)
(978.58 -3.12934e-10 1.77174e-14)
(978.58 -3.14856e-10 1.69696e-14)
(978.58 -3.18684e-10 1.6941e-14)
(978.58 -3.22625e-10 1.93659e-14)
(978.58 -3.281e-10 1.79061e-14)
(978.58 -3.32829e-10 2.01844e-14)
(978.58 -3.36975e-10 1.88993e-14)
(978.58 -3.42747e-10 1.86981e-14)
(978.58 -3.48737e-10 2.15954e-14)
(978.58 -3.54977e-10 2.00548e-14)
(978.58 -3.59952e-10 2.22197e-14)
(978.58 -3.64411e-10 2.14415e-14)
(978.58 -3.68692e-10 1.67898e-14)
(978.58 -3.72247e-10 2.11227e-14)
(978.58 -3.71783e-10 1.93114e-14)
(978.58 -3.65031e-10 1.56548e-14)
(978.58 -3.61494e-10 1.81141e-14)
(978.58 -3.52552e-10 1.94152e-14)
(978.58 -3.42491e-10 2.09271e-14)
(978.58 -3.27476e-10 2.01045e-14)
(978.58 -3.04197e-10 1.96007e-14)
(978.58 -2.63421e-10 1.83158e-14)
(978.58 -1.94076e-10 1.82874e-14)
(978.58 -7.46794e-11 1.94861e-14)
(978.58 1.18735e-10 1.98176e-14)
(978.58 4.14141e-10 2.12501e-14)
(978.58 8.57173e-10 2.15451e-14)
(978.58 1.50079e-09 2.08514e-14)
(978.58 2.40619e-09 1.99338e-14)
(978.58 3.64092e-09 2.09425e-14)
(978.58 5.30449e-09 2.10145e-14)
(978.58 7.59378e-09 2.04976e-14)
(978.58 1.08014e-08 2.32876e-14)
(978.58 1.53192e-08 2.07931e-14)
(978.58 2.16904e-08 2.01948e-14)
(978.58 3.06815e-08 2.75022e-14)
(978.58 4.3385e-08 2.62006e-14)
(978.58 6.13661e-08 2.42892e-14)
(978.58 8.69522e-08 2.43321e-14)
(978.58 1.23231e-07 2.07437e-14)
(978.58 1.77999e-07 2.11208e-14)
(978.58 2.63427e-07 2.36513e-14)
(978.58 -7.11546e-08 1.17586e-10)
(978.58 -4.52388e-08 6.7819e-11)
(978.58 -2.73582e-08 3.74292e-11)
(978.58 -1.69414e-08 2.17718e-11)
(978.58 -1.10806e-08 1.37154e-11)
(978.58 -7.69601e-09 9.37777e-12)
(978.58 -5.6478e-09 6.92993e-12)
(978.58 -4.3393e-09 5.30706e-12)
(978.58 -3.4585e-09 4.2225e-12)
(978.58 -2.83785e-09 3.41487e-12)
(978.58 -2.38106e-09 2.83974e-12)
(978.58 -2.0344e-09 2.42173e-12)
(978.58 -1.76528e-09 2.06433e-12)
(978.58 -1.55186e-09 1.77418e-12)
(978.58 -1.38006e-09 1.56201e-12)
(978.58 -1.23999e-09 1.36474e-12)
(978.58 -1.12351e-09 1.19001e-12)
(978.58 -1.02487e-09 1.07211e-12)
(978.58 -9.41253e-10 9.52203e-13)
(978.58 -8.68844e-10 8.86106e-13)
(978.58 -8.07597e-10 7.93657e-13)
(978.58 -7.55309e-10 7.1476e-13)
(978.58 -7.09047e-10 6.74914e-13)
(978.58 -6.67018e-10 6.17079e-13)
(978.58 -6.30873e-10 5.88976e-13)
(978.58 -5.99042e-10 5.44233e-13)
(978.58 -5.71026e-10 5.1079e-13)
(978.58 -5.45819e-10 4.70244e-13)
(978.58 -5.23568e-10 4.32454e-13)
(978.58 -5.02785e-10 4.0337e-13)
(978.58 -4.83414e-10 3.75268e-13)
(978.58 -4.66623e-10 3.59512e-13)
(978.58 -4.52546e-10 3.32395e-13)
(978.58 -4.39817e-10 3.23301e-13)
(978.58 -4.28622e-10 3.05995e-13)
(978.58 -4.17311e-10 2.72195e-13)
(978.58 -4.045e-10 2.59978e-13)
(978.58 -3.93576e-10 2.53881e-13)
(978.58 -3.84697e-10 2.49832e-13)
(978.58 -3.76801e-10 2.29121e-13)
(978.58 -3.7044e-10 2.21266e-13)
(978.58 -3.62911e-10 2.12732e-13)
(978.58 -3.55569e-10 2.06325e-13)
(978.58 -3.49893e-10 1.90134e-13)
(978.58 -3.43754e-10 1.81207e-13)
(978.58 -3.39945e-10 1.77723e-13)
(978.58 -3.35435e-10 1.70946e-13)
(978.58 -3.29255e-10 1.69638e-13)
(978.58 -3.24075e-10 1.67963e-13)
(978.58 -3.21526e-10 1.69014e-13)
(978.58 -3.17714e-10 1.54824e-13)
(978.58 -3.15961e-10 1.44553e-13)
(978.58 -3.11649e-10 1.34013e-13)
(978.58 -3.08313e-10 1.29355e-13)
(978.58 -3.07429e-10 1.21785e-13)
(978.58 -3.03903e-10 1.2064e-13)
(978.58 -3.03126e-10 1.14349e-13)
(978.58 -3.00231e-10 1.13292e-13)
(978.58 -2.99004e-10 1.18619e-13)
(978.58 -2.98169e-10 1.15539e-13)
(978.58 -2.97096e-10 1.09149e-13)
(978.58 -2.95198e-10 1.10196e-13)
(978.58 -2.93793e-10 9.98223e-14)
(978.58 -2.92573e-10 8.85386e-14)
(978.58 -2.90688e-10 9.73543e-14)
(978.58 -2.88799e-10 9.23859e-14)
(978.58 -2.87627e-10 8.62698e-14)
(978.58 -2.88483e-10 8.98855e-14)
(978.58 -2.88335e-10 7.95745e-14)
(978.58 -2.87451e-10 7.6573e-14)
(978.58 -2.8501e-10 7.57374e-14)
(978.58 -2.84604e-10 7.59375e-14)
(978.58 -2.85125e-10 7.45587e-14)
(978.58 -2.8572e-10 7.72885e-14)
(978.58 -2.84579e-10 7.95459e-14)
(978.58 -2.86478e-10 7.49991e-14)
(978.58 -2.86392e-10 6.95399e-14)
(978.58 -2.86304e-10 6.95062e-14)
(978.58 -2.85318e-10 7.04072e-14)
(978.58 -2.85266e-10 6.84771e-14)
(978.58 -2.87559e-10 6.36708e-14)
(978.58 -2.89199e-10 6.16372e-14)
(978.58 -2.89434e-10 5.94726e-14)
(978.58 -2.90046e-10 5.8714e-14)
(978.58 -2.9164e-10 5.61148e-14)
(978.58 -2.91964e-10 5.695e-14)
(978.58 -2.9234e-10 6.21965e-14)
(978.58 -2.92855e-10 6.17115e-14)
(978.58 -2.94714e-10 5.76866e-14)
(978.58 -2.95267e-10 5.63258e-14)
(978.58 -2.95515e-10 5.32784e-14)
(978.58 -2.9665e-10 5.51698e-14)
(978.58 -2.98864e-10 6.23675e-14)
(978.58 -2.99719e-10 6.49909e-14)
(978.58 -3.02009e-10 5.96603e-14)
(978.58 -3.03205e-10 4.72832e-14)
(978.58 -3.04702e-10 4.52356e-14)
(978.58 -3.04969e-10 4.82171e-14)
(978.58 -3.05e-10 4.83368e-14)
(978.58 -3.06256e-10 4.70655e-14)
(978.58 -3.08472e-10 4.30334e-14)
(978.58 -3.107e-10 4.66076e-14)
(978.58 -3.12368e-10 4.39037e-14)
(978.58 -3.13781e-10 4.40178e-14)
(978.58 -3.15011e-10 4.75046e-14)
(978.58 -3.17812e-10 4.38942e-14)
(978.58 -3.19026e-10 4.03829e-14)
(978.58 -3.20549e-10 3.87153e-14)
(978.58 -3.22665e-10 3.9701e-14)
(978.58 -3.24771e-10 3.94495e-14)
(978.58 -3.27316e-10 3.55176e-14)
(978.58 -3.30002e-10 3.52076e-14)
(978.58 -3.32089e-10 3.72321e-14)
(978.58 -3.34819e-10 4.00027e-14)
(978.58 -3.38208e-10 4.15793e-14)
(978.58 -3.42065e-10 4.61359e-14)
(978.58 -3.44292e-10 4.66029e-14)
(978.58 -3.4693e-10 4.33063e-14)
(978.58 -3.50099e-10 3.76597e-14)
(978.58 -3.53018e-10 3.71184e-14)
(978.58 -3.56352e-10 3.80458e-14)
(978.58 -3.59955e-10 3.77107e-14)
(978.58 -3.62902e-10 3.59137e-14)
(978.58 -3.65899e-10 3.49275e-14)
(978.58 -3.69281e-10 3.61537e-14)
(978.58 -3.72607e-10 3.634e-14)
(978.58 -3.75663e-10 3.58117e-14)
(978.58 -3.80373e-10 3.7358e-14)
(978.58 -3.8299e-10 4.06831e-14)
(978.58 -3.86344e-10 3.80455e-14)
(978.58 -3.90674e-10 3.33436e-14)
(978.58 -3.96607e-10 3.79032e-14)
(978.58 -3.99431e-10 3.84456e-14)
(978.58 -4.02994e-10 3.31019e-14)
(978.58 -4.06961e-10 3.57094e-14)
(978.58 -4.11382e-10 2.91334e-14)
(978.58 -4.15996e-10 3.02431e-14)
(978.58 -4.20195e-10 3.6194e-14)
(978.58 -4.2443e-10 3.94729e-14)
(978.58 -4.2849e-10 3.23229e-14)
(978.58 -4.34058e-10 2.766e-14)
(978.58 -4.39372e-10 2.85099e-14)
(978.58 -4.44682e-10 3.10276e-14)
(978.58 -4.50128e-10 3.06442e-14)
(978.58 -4.54707e-10 3.24477e-14)
(978.58 -4.59646e-10 2.90521e-14)
(978.58 -4.64616e-10 3.10078e-14)
(978.58 -4.71094e-10 3.33184e-14)
(978.58 -4.77629e-10 3.40598e-14)
(978.58 -4.83461e-10 3.08767e-14)
(978.58 -4.90928e-10 3.01239e-14)
(978.58 -4.98043e-10 2.99443e-14)
(978.58 -5.0681e-10 3.00892e-14)
(978.58 -5.12341e-10 2.8403e-14)
(978.58 -5.1829e-10 3.3667e-14)
(978.58 -5.23735e-10 3.25095e-14)
(978.58 -5.30949e-10 3.21271e-14)
(978.58 -5.38275e-10 3.39331e-14)
(978.58 -5.45109e-10 3.10603e-14)
(978.58 -5.50639e-10 2.88885e-14)
(978.58 -5.56846e-10 3.13089e-14)
(978.58 -5.60977e-10 3.26405e-14)
(978.58 -5.59513e-10 3.24155e-14)
(978.58 -5.57621e-10 2.67652e-14)
(978.58 -5.547e-10 2.78191e-14)
(978.58 -5.50433e-10 2.84001e-14)
(978.58 -5.41662e-10 2.70877e-14)
(978.58 -5.25149e-10 2.95857e-14)
(978.58 -4.95881e-10 3.10978e-14)
(978.58 -4.46966e-10 3.10967e-14)
(978.58 -3.62661e-10 3.12828e-14)
(978.58 -2.19445e-10 3.35384e-14)
(978.58 2.60015e-12 3.28311e-14)
(978.58 3.40229e-10 3.29718e-14)
(978.58 8.38177e-10 3.33244e-14)
(978.58 1.55671e-09 3.28253e-14)
(978.58 2.5386e-09 3.27789e-14)
(978.58 3.84837e-09 3.34796e-14)
(978.58 5.60766e-09 3.15126e-14)
(978.58 7.99359e-09 3.3144e-14)
(978.58 1.12989e-08 3.61254e-14)
(978.58 1.59417e-08 3.46161e-14)
(978.58 2.24782e-08 3.20599e-14)
(978.58 3.16669e-08 3.06502e-14)
(978.58 4.45786e-08 3.48748e-14)
(978.58 6.27241e-08 3.50631e-14)
(978.58 8.82371e-08 3.52284e-14)
(978.58 1.24136e-07 3.71383e-14)
(978.58 1.74753e-07 3.5835e-14)
(978.58 2.46074e-07 3.64114e-14)
(978.58 3.47514e-07 3.73967e-14)
(978.58 4.90026e-07 3.6252e-14)
(978.58 7.06677e-07 3.36831e-14)
(978.58 1.03463e-06 3.65456e-14)
(978.58 -8.35628e-08 1.3773e-10)
(978.58 -5.95588e-08 8.79254e-11)
(978.58 -3.94984e-08 5.23969e-11)
(978.58 -2.59389e-08 3.15291e-11)
(978.58 -1.74898e-08 2.00728e-11)
(978.58 -1.2279e-08 1.36786e-11)
(978.58 -9.00045e-09 9.93706e-12)
(978.58 -6.87163e-09 7.58736e-12)
(978.58 -5.43417e-09 6.00834e-12)
(978.58 -4.42696e-09 4.89761e-12)
(978.58 -3.69359e-09 4.03088e-12)
(978.58 -3.14093e-09 3.41247e-12)
(978.58 -2.7146e-09 2.91319e-12)
(978.58 -2.37864e-09 2.53349e-12)
(978.58 -2.10902e-09 2.24415e-12)
(978.58 -1.88924e-09 1.94118e-12)
(978.58 -1.70832e-09 1.71095e-12)
(978.58 -1.55494e-09 1.52384e-12)
(978.58 -1.424e-09 1.36486e-12)
(978.58 -1.31205e-09 1.25516e-12)
(978.58 -1.21665e-09 1.12743e-12)
(978.58 -1.13524e-09 1.05097e-12)
(978.58 -1.06354e-09 9.60717e-13)
(978.58 -9.9958e-10 8.88589e-13)
(978.58 -9.42979e-10 8.10085e-13)
(978.58 -8.94098e-10 7.56379e-13)
(978.58 -8.50684e-10 6.99234e-13)
(978.58 -8.11363e-10 6.58775e-13)
(978.58 -7.75953e-10 6.28749e-13)
(978.58 -7.44223e-10 5.81297e-13)
(978.58 -7.15361e-10 5.4699e-13)
(978.58 -6.89392e-10 5.11372e-13)
(978.58 -6.66743e-10 4.88977e-13)
(978.58 -6.46674e-10 4.55247e-13)
(978.58 -6.28253e-10 4.26878e-13)
(978.58 -6.10942e-10 4.02051e-13)
(978.58 -5.93385e-10 3.79516e-13)
(978.58 -5.77042e-10 3.54245e-13)
(978.58 -5.62017e-10 3.43234e-13)
(978.58 -5.49647e-10 3.21117e-13)
(978.58 -5.38976e-10 3.13552e-13)
(978.58 -5.27377e-10 2.95606e-13)
(978.58 -5.16778e-10 2.84867e-13)
(978.58 -5.08164e-10 2.70142e-13)
(978.58 -4.99311e-10 2.691e-13)
(978.58 -4.91384e-10 2.51433e-13)
(978.58 -4.85062e-10 2.44453e-13)
(978.58 -4.76099e-10 2.37241e-13)
(978.58 -4.68899e-10 2.32405e-13)
(978.58 -4.63178e-10 2.17625e-13)
(978.58 -4.57668e-10 2.06663e-13)
(978.58 -4.54291e-10 2.02883e-13)
(978.58 -4.49058e-10 1.9142e-13)
(978.58 -4.43852e-10 1.83418e-13)
(978.58 -4.40079e-10 1.74855e-13)
(978.58 -4.35957e-10 1.75853e-13)
(978.58 -4.33517e-10 1.67644e-13)
(978.58 -4.30302e-10 1.64005e-13)
(978.58 -4.28097e-10 1.67587e-13)
(978.58 -4.25654e-10 1.61173e-13)
(978.58 -4.24079e-10 1.50434e-13)
(978.58 -4.21119e-10 1.40516e-13)
(978.58 -4.18721e-10 1.35914e-13)
(978.58 -4.16969e-10 1.42581e-13)
(978.58 -4.14692e-10 1.45339e-13)
(978.58 -4.11683e-10 1.35997e-13)
(978.58 -4.09818e-10 1.30743e-13)
(978.58 -4.0889e-10 1.25308e-13)
(978.58 -4.08591e-10 1.14605e-13)
(978.58 -4.08267e-10 1.13753e-13)
(978.58 -4.06385e-10 1.14627e-13)
(978.58 -4.04724e-10 1.15614e-13)
(978.58 -4.04471e-10 1.1173e-13)
(978.58 -4.05118e-10 1.10934e-13)
(978.58 -4.04178e-10 1.0765e-13)
(978.58 -4.04426e-10 1.04558e-13)
(978.58 -4.04708e-10 1.07583e-13)
(978.58 -4.03925e-10 1.07563e-13)
(978.58 -4.02772e-10 9.82537e-14)
(978.58 -4.02937e-10 9.12479e-14)
(978.58 -4.0412e-10 9.06877e-14)
(978.58 -4.06825e-10 9.62988e-14)
(978.58 -4.07773e-10 9.2062e-14)
(978.58 -4.08107e-10 9.25171e-14)
(978.58 -4.08833e-10 8.89759e-14)
(978.58 -4.09481e-10 8.86984e-14)
(978.58 -4.10206e-10 8.48374e-14)
(978.58 -4.11326e-10 7.92399e-14)
(978.58 -4.13529e-10 7.96312e-14)
(978.58 -4.13749e-10 8.31195e-14)
(978.58 -4.13865e-10 8.10135e-14)
(978.58 -4.15124e-10 8.20833e-14)
(978.58 -4.17645e-10 8.4246e-14)
(978.58 -4.19159e-10 8.35132e-14)
(978.58 -4.20939e-10 7.41046e-14)
(978.58 -4.23338e-10 7.33818e-14)
(978.58 -4.26034e-10 7.35014e-14)
(978.58 -4.27748e-10 6.84983e-14)
(978.58 -4.2972e-10 6.74651e-14)
(978.58 -4.30046e-10 6.38857e-14)
(978.58 -4.3122e-10 6.05283e-14)
(978.58 -4.32667e-10 6.15771e-14)
(978.58 -4.35489e-10 6.28917e-14)
(978.58 -4.3778e-10 6.54602e-14)
(978.58 -4.40649e-10 6.41432e-14)
(978.58 -4.4378e-10 6.24973e-14)
(978.58 -4.46607e-10 6.02875e-14)
(978.58 -4.48995e-10 5.95883e-14)
(978.58 -4.50862e-10 5.61379e-14)
(978.58 -4.52926e-10 5.18139e-14)
(978.58 -4.55615e-10 5.33285e-14)
(978.58 -4.59159e-10 5.44479e-14)
(978.58 -4.61723e-10 5.89177e-14)
(978.58 -4.65011e-10 5.89837e-14)
(978.58 -4.68945e-10 6.02083e-14)
(978.58 -4.73886e-10 5.8723e-14)
(978.58 -4.77877e-10 5.64421e-14)
(978.58 -4.81752e-10 5.15658e-14)
(978.58 -4.85478e-10 5.04272e-14)
(978.58 -4.89303e-10 5.35478e-14)
(978.58 -4.93375e-10 5.33415e-14)
(978.58 -4.97908e-10 5.02754e-14)
(978.58 -5.02516e-10 4.89253e-14)
(978.58 -5.06921e-10 5.21353e-14)
(978.58 -5.10876e-10 5.26261e-14)
(978.58 -5.15127e-10 5.21547e-14)
(978.58 -5.20029e-10 5.49145e-14)
(978.58 -5.24834e-10 5.37934e-14)
(978.58 -5.28454e-10 5.02233e-14)
(978.58 -5.32782e-10 4.85214e-14)
(978.58 -5.38253e-10 4.8466e-14)
(978.58 -5.46119e-10 5.0311e-14)
(978.58 -5.51284e-10 4.78861e-14)
(978.58 -5.55108e-10 4.74617e-14)
(978.58 -5.60457e-10 4.92898e-14)
(978.58 -5.667e-10 4.87604e-14)
(978.58 -5.73482e-10 5.38803e-14)
(978.58 -5.79941e-10 5.17633e-14)
(978.58 -5.85391e-10 5.02635e-14)
(978.58 -5.91089e-10 4.53107e-14)
(978.58 -5.97582e-10 4.57481e-14)
(978.58 -6.0432e-10 4.55788e-14)
(978.58 -6.10986e-10 4.46601e-14)
(978.58 -6.18451e-10 4.69157e-14)
(978.58 -6.2542e-10 4.81777e-14)
(978.58 -6.32017e-10 4.79943e-14)
(978.58 -6.39097e-10 4.73213e-14)
(978.58 -6.46143e-10 4.57115e-14)
(978.58 -6.54035e-10 4.31622e-14)
(978.58 -6.61537e-10 4.31068e-14)
(978.58 -6.69299e-10 4.29054e-14)
(978.58 -6.77518e-10 4.5897e-14)
(978.58 -6.8865e-10 4.38012e-14)
(978.58 -6.97766e-10 4.07812e-14)
(978.58 -7.05234e-10 4.39073e-14)
(978.58 -7.11092e-10 4.42951e-14)
(978.58 -7.1546e-10 4.57756e-14)
(978.58 -7.15689e-10 4.48146e-14)
(978.58 -7.16362e-10 4.29686e-14)
(978.58 -7.15977e-10 4.23898e-14)
(978.58 -7.14746e-10 4.53692e-14)
(978.58 -7.10143e-10 4.21334e-14)
(978.58 -7.02676e-10 4.12622e-14)
(978.58 -6.79454e-10 4.15485e-14)
(978.58 -6.41797e-10 4.27063e-14)
(978.58 -5.79302e-10 4.16839e-14)
(978.58 -4.72554e-10 4.46264e-14)
(978.58 -3.02792e-10 4.55375e-14)
(978.58 -4.30135e-11 4.57531e-14)
(978.58 3.42855e-10 4.11365e-14)
(978.58 9.07911e-10 4.41635e-14)
(978.58 1.69266e-09 4.51382e-14)
(978.58 2.74917e-09 4.50841e-14)
(978.58 4.13738e-09 4.80111e-14)
(978.58 5.98338e-09 4.77059e-14)
(978.58 8.50699e-09 4.50878e-14)
(978.58 1.20407e-08 4.42092e-14)
(978.58 1.69853e-08 4.40987e-14)
(978.58 2.38731e-08 4.76144e-14)
(978.58 3.34756e-08 4.86736e-14)
(978.58 4.68769e-08 4.73819e-14)
(978.58 6.55867e-08 4.76604e-14)
(978.58 9.17333e-08 4.65022e-14)
(978.58 1.2832e-07 4.52775e-14)
(978.58 1.79562e-07 4.74009e-14)
(978.58 2.5138e-07 4.818e-14)
(978.58 3.52131e-07 4.70315e-14)
(978.58 4.93592e-07 4.85565e-14)
(978.58 6.92605e-07 4.81852e-14)
(978.58 9.72282e-07 4.80982e-14)
(978.58 1.36905e-06 5.05284e-14)
(978.58 1.92506e-06 5.14551e-14)
(978.58 2.76662e-06 5.03801e-14)
(978.58 4.03173e-06 5.0785e-14)
(978.58 -9.21839e-08 1.51875e-10)
(978.58 -7.10974e-08 1.04314e-10)
(978.58 -5.07594e-08 6.59978e-11)
(978.58 -3.52036e-08 4.13023e-11)
(978.58 -2.45705e-08 2.67924e-11)
(978.58 -1.75672e-08 1.83023e-11)
(978.58 -1.29576e-08 1.321e-11)
(978.58 -9.8808e-09 1.00161e-11)
(978.58 -7.7786e-09 7.90101e-12)
(978.58 -6.29966e-09 6.4217e-12)
(978.58 -5.22625e-09 5.31823e-12)
(978.58 -4.42447e-09 4.45648e-12)
(978.58 -3.80941e-09 3.78488e-12)
(978.58 -3.32683e-09 3.28607e-12)
(978.58 -2.9406e-09 2.86862e-12)
(978.58 -2.62709e-09 2.5175e-12)
(978.58 -2.3687e-09 2.23106e-12)
(978.58 -2.15259e-09 2.00602e-12)
(978.58 -1.96818e-09 1.81942e-12)
(978.58 -1.8087e-09 1.6267e-12)
(978.58 -1.67356e-09 1.48624e-12)
(978.58 -1.5579e-09 1.36809e-12)
(978.58 -1.45596e-09 1.23951e-12)
(978.58 -1.36763e-09 1.14118e-12)
(978.58 -1.28991e-09 1.05219e-12)
(978.58 -1.22046e-09 1.00065e-12)
(978.58 -1.15829e-09 9.23682e-13)
(978.58 -1.103e-09 8.77193e-13)
(978.58 -1.05363e-09 8.22638e-13)
(978.58 -1.00859e-09 7.62014e-13)
(978.58 -9.6824e-10 7.07917e-13)
(978.58 -9.31067e-10 6.64574e-13)
(978.58 -8.99136e-10 6.14523e-13)
(978.58 -8.70887e-10 5.78156e-13)
(978.58 -8.44821e-10 5.50549e-13)
(978.58 -8.19926e-10 5.2013e-13)
(978.58 -7.96089e-10 4.94348e-13)
(978.58 -7.74232e-10 4.68955e-13)
(978.58 -7.53367e-10 4.37309e-13)
(978.58 -7.36277e-10 4.23087e-13)
(978.58 -7.1895e-10 4.10899e-13)
(978.58 -7.02414e-10 3.92713e-13)
(978.58 -6.88281e-10 3.74986e-13)
(978.58 -6.76216e-10 3.64326e-13)
(978.58 -6.6442e-10 3.48008e-13)
(978.58 -6.52327e-10 3.39858e-13)
(978.58 -6.4263e-10 3.18346e-13)
(978.58 -6.31319e-10 3.06068e-13)
(978.58 -6.21566e-10 2.92622e-13)
(978.58 -6.13179e-10 2.7208e-13)
(978.58 -6.05579e-10 2.72494e-13)
(978.58 -5.98437e-10 2.60854e-13)
(978.58 -5.91473e-10 2.5214e-13)
(978.58 -5.85172e-10 2.44308e-13)
(978.58 -5.78755e-10 2.39526e-13)
(978.58 -5.73298e-10 2.27989e-13)
(978.58 -5.69297e-10 2.14336e-13)
(978.58 -5.65356e-10 2.12641e-13)
(978.58 -5.62455e-10 2.09891e-13)
(978.58 -5.57574e-10 1.94082e-13)
(978.58 -5.551e-10 1.88514e-13)
(978.58 -5.51372e-10 1.84429e-13)
(978.58 -5.48448e-10 1.84119e-13)
(978.58 -5.45286e-10 1.86079e-13)
(978.58 -5.41815e-10 1.75053e-13)
(978.58 -5.3785e-10 1.76283e-13)
(978.58 -5.34627e-10 1.69794e-13)
(978.58 -5.3387e-10 1.5651e-13)
(978.58 -5.32302e-10 1.63261e-13)
(978.58 -5.30517e-10 1.58807e-13)
(978.58 -5.28451e-10 1.52456e-13)
(978.58 -5.26666e-10 1.49615e-13)
(978.58 -5.26057e-10 1.43583e-13)
(978.58 -5.26978e-10 1.38426e-13)
(978.58 -5.26049e-10 1.40964e-13)
(978.58 -5.24887e-10 1.3807e-13)
(978.58 -5.24651e-10 1.36398e-13)
(978.58 -5.23145e-10 1.27736e-13)
(978.58 -5.21691e-10 1.23523e-13)
(978.58 -5.21789e-10 1.25141e-13)
(978.58 -5.234e-10 1.30193e-13)
(978.58 -5.25806e-10 1.19584e-13)
(978.58 -5.26351e-10 1.162e-13)
(978.58 -5.26791e-10 1.14858e-13)
(978.58 -5.28623e-10 1.12948e-13)
(978.58 -5.29417e-10 1.08077e-13)
(978.58 -5.29711e-10 1.07735e-13)
(978.58 -5.30932e-10 1.10272e-13)
(978.58 -5.31947e-10 1.12018e-13)