/*--------------------------------*- C++ -*----------------------------------*\
| =========                 |                                                 |
| \\      /  F ield         | OpenFOAM: The Open Source CFD Toolbox           |
|  \\    /   O peration     | Version:  v1706                                 |
|   \\  /    A nd           | Web:      www.OpenFOAM.com                      |
|    \\/     M anipulation  |                                                 |
\*---------------------------------------------------------------------------*/
FoamFile
{
    version     2.0;
    format      ascii;
    class       volVectorField;
    location    "3.1e-05";
    object      U;
}
// * * * * * * * * * * * * * * * * * * * * * * * * * * * * * * * * * * * * * //

dimensions      [0 1 -1 0 0 0 0];


internalField   nonuniform List<vector> 
29987
(
(1760 -2.25031e-08 4.1382e-11)
(1760 -7.40963e-09 1.30689e-11)
(1760 -3.30951e-09 5.93855e-12)
(1760 -1.97169e-09 3.51274e-12)
(1760 -1.34164e-09 2.33713e-12)
(1760 -9.75267e-10 1.69845e-12)
(1760 -7.40861e-10 1.29736e-12)
(1760 -5.84062e-10 1.0136e-12)
(1760 -4.7409e-10 8.12251e-13)
(1760 -3.91969e-10 6.88708e-13)
(1760 -3.26862e-10 5.22309e-13)
(1760 -2.79426e-10 4.58156e-13)
(1760 -2.46638e-10 4.17201e-13)
(1760 -2.17096e-10 3.52331e-13)
(1760 -1.90824e-10 3.09189e-13)
(1760 -1.70757e-10 2.65523e-13)
(1760 -1.54935e-10 2.20803e-13)
(1760 -1.41026e-10 1.93161e-13)
(1760 -1.29527e-10 1.82505e-13)
(1760 -1.19506e-10 1.71779e-13)
(1760 -1.12222e-10 1.66075e-13)
(1760 -1.02075e-10 1.39938e-13)
(1760 -9.47458e-11 1.32112e-13)
(1760 -8.85919e-11 1.13632e-13)
(1760 -8.5686e-11 1.15299e-13)
(1760 -8.06463e-11 1.12679e-13)
(1760 -7.4818e-11 9.07344e-14)
(1760 -7.22805e-11 8.09551e-14)
(1760 -7.00111e-11 8.77294e-14)
(1760 -6.55143e-11 8.07234e-14)
(1760 -6.30145e-11 8.43073e-14)
(1760 -6.20756e-11 7.48644e-14)
(1760 -5.87974e-11 6.55164e-14)
(1760 -5.57867e-11 5.94899e-14)
(1760 -5.5424e-11 6.0559e-14)
(1760 -5.2672e-11 5.44849e-14)
(1760 -5.26745e-11 5.30404e-14)
(1760 -4.88759e-11 4.49696e-14)
(1760 -4.97652e-11 4.26213e-14)
(1760 -4.80328e-11 4.61924e-14)
(1760 -4.64318e-11 3.79838e-14)
(1760 -4.59239e-11 3.85516e-14)
(1760 -4.38354e-11 4.48222e-14)
(1760 -4.39957e-11 3.81298e-14)
(1760 -4.26726e-11 3.57304e-14)
(1760 -4.12416e-11 3.24702e-14)
(1760 -4.07091e-11 4.32747e-14)
(1760 -4.10361e-11 2.96217e-14)
(1760 -4.05978e-11 2.8562e-14)
(1760 -3.93875e-11 3.33818e-14)
(1760 -3.84166e-11 3.21754e-14)
(1760 -3.89914e-11 2.97972e-14)
(1760 -3.77884e-11 2.85818e-14)
(1760 -3.70513e-11 2.5594e-14)
(1760 -3.65901e-11 2.72488e-14)
(1760 -3.66864e-11 2.15681e-14)
(1760 -3.63742e-11 1.94703e-14)
(1760 -3.67856e-11 1.9782e-14)
(1760 -3.60561e-11 2.18062e-14)
(1760 -3.47369e-11 2.61889e-14)
(1760 -3.54903e-11 2.53284e-14)
(1760 -3.50122e-11 1.39025e-14)
(1760 -3.55513e-11 1.90423e-14)
(1760 -3.46698e-11 2.12537e-14)
(1760 -3.32958e-11 1.68167e-14)
(1760 -3.39133e-11 1.46007e-14)
(1760 -3.37514e-11 1.47353e-14)
(1760 -3.40905e-11 1.88183e-14)
(1760 -3.4583e-11 1.79018e-14)
(1760 -3.37157e-11 1.56146e-14)
(1760 -3.381e-11 1.41526e-14)
(1760 -3.38372e-11 1.65557e-14)
(1760 -3.39703e-11 1.40078e-14)
(1760 -3.32692e-11 1.50652e-14)
(1760 -3.37059e-11 1.83513e-14)
(1760 -3.49859e-11 1.58327e-14)
(1760 -3.34196e-11 1.48814e-14)
(1760 -3.31514e-11 1.67343e-14)
(1760 -3.33201e-11 1.06866e-14)
(1760 -3.33276e-11 6.9423e-15)
(1760 -3.31246e-11 1.037e-14)
(1760 -3.44023e-11 1.06231e-14)
(1760 -3.49587e-11 7.80086e-15)
(1760 -3.43631e-11 1.07627e-14)
(1760 -3.4263e-11 1.17449e-14)
(1760 -3.4044e-11 1.07004e-14)
(1760 -3.31552e-11 9.5101e-15)
(1760 -3.29634e-11 9.83348e-15)
(1760 -3.24089e-11 1.22562e-14)
(1760 -3.26001e-11 8.58942e-15)
(1760 -3.33138e-11 6.78478e-15)
(1760 -3.3673e-11 7.14895e-15)
(1760 -3.22637e-11 1.10264e-14)
(1760 -3.28783e-11 1.20598e-14)
(1760 -3.35891e-11 1.25066e-14)
(1760 -3.34391e-11 1.17651e-14)
(1760 -3.3837e-11 7.71677e-15)
(1760 -3.46339e-11 1.07632e-14)
(1760 -3.52544e-11 1.11497e-14)
(1760 -3.5707e-11 7.92271e-15)
(1760 -3.54194e-11 6.94761e-15)
(1760 -3.53829e-11 1.27544e-14)
(1760 -3.57926e-11 1.25686e-14)
(1760 -3.69989e-11 9.16808e-15)
(1760 -3.6722e-11 9.36482e-15)
(1760 -3.71981e-11 7.62943e-15)
(1760 -3.68466e-11 6.28171e-15)
(1760 -3.66543e-11 7.31884e-15)
(1760 -3.60109e-11 9.89584e-15)
(1760 -3.65082e-11 7.17544e-15)
(1760 -3.66203e-11 7.56404e-15)
(1760 -3.6982e-11 7.37186e-15)
(1760 -3.71885e-11 9.28568e-15)
(1760 -3.77301e-11 7.97142e-15)
(1760 -3.87926e-11 9.467e-15)
(1760 -3.93126e-11 7.36032e-15)
(1760 -4.05804e-11 8.95426e-15)
(1760 -3.94375e-11 1.1675e-14)
(1760 -3.90008e-11 1.09391e-14)
(1760 -3.87827e-11 6.48611e-15)
(1760 -3.88233e-11 6.73151e-15)
(1760 -3.94251e-11 9.13122e-15)
(1760 -4.01571e-11 7.36628e-15)
(1760 -4.02307e-11 8.64815e-15)
(1760 -4.09379e-11 9.07261e-15)
(1760 -4.17408e-11 8.17333e-15)
(1760 -4.2273e-11 8.97014e-15)
(1760 -4.20645e-11 7.52406e-15)
(1760 -4.32976e-11 1.04274e-14)
(1760 -4.30405e-11 7.81086e-15)
(1760 -4.3333e-11 1.02435e-14)
(1760 -4.37049e-11 9.97104e-15)
(1760 -4.47817e-11 7.36086e-15)
(1760 -4.33365e-11 4.02287e-15)
(1760 -4.39728e-11 5.97903e-15)
(1760 -4.44869e-11 4.81189e-15)
(1760 -4.40791e-11 9.28301e-15)
(1760 -4.51606e-11 7.33313e-15)
(1760 -4.59215e-11 5.10209e-15)
(1760 -4.82002e-11 1.00719e-14)
(1760 -4.64238e-11 1.48441e-15)
(1760 -4.6186e-11 1.56261e-15)
(1760 -4.67507e-11 9.97918e-15)
(1760 -4.81834e-11 4.80966e-15)
(1760 -4.9428e-11 8.09923e-15)
(1760 -5.0511e-11 7.29952e-15)
(1760 -5.23204e-11 8.94582e-15)
(1760 -5.25462e-11 8.67294e-15)
(1760 -5.30307e-11 6.75235e-15)
(1760 -5.3302e-11 5.03672e-15)
(1760 -5.3984e-11 3.39167e-15)
(1760 -5.54122e-11 5.44495e-15)
(1760 -5.51446e-11 3.74478e-15)
(1760 -5.53387e-11 9.27361e-15)
(1760 -5.63378e-11 4.93654e-15)
(1760 -5.83267e-11 7.84633e-15)
(1760 -6.29902e-08 1.07788e-10)
(1760 -2.70639e-08 4.3735e-11)
(1760 -1.27639e-08 1.99872e-11)
(1760 -7.20619e-09 1.14516e-11)
(1760 -4.68162e-09 7.50662e-12)
(1760 -3.3306e-09 5.36443e-12)
(1760 -2.50681e-09 4.00422e-12)
(1760 -1.96071e-09 3.09557e-12)
(1760 -1.58296e-09 2.49046e-12)
(1760 -1.3085e-09 2.02556e-12)
(1760 -1.09494e-09 1.63435e-12)
(1760 -9.31654e-10 1.41934e-12)
(1760 -8.13206e-10 1.19228e-12)
(1760 -7.17392e-10 1.04317e-12)
(1760 -6.30172e-10 8.94977e-13)
(1760 -5.62376e-10 8.21084e-13)
(1760 -5.07831e-10 7.05426e-13)
(1760 -4.61646e-10 6.41633e-13)
(1760 -4.23656e-10 5.91371e-13)
(1760 -3.91419e-10 5.32406e-13)
(1760 -3.64843e-10 4.84061e-13)
(1760 -3.37945e-10 4.15707e-13)
(1760 -3.11672e-10 3.89398e-13)
(1760 -2.89871e-10 3.53355e-13)
(1760 -2.75023e-10 3.47205e-13)
(1760 -2.58963e-10 3.33315e-13)
(1760 -2.43013e-10 3.02404e-13)
(1760 -2.32194e-10 2.76761e-13)
(1760 -2.25288e-10 2.66555e-13)
(1760 -2.139e-10 2.49645e-13)
(1760 -2.00988e-10 2.15767e-13)
(1760 -1.96355e-10 2.13479e-13)
(1760 -1.87312e-10 1.77728e-13)
(1760 -1.78859e-10 1.67035e-13)
(1760 -1.75881e-10 1.72818e-13)
(1760 -1.68782e-10 1.72285e-13)
(1760 -1.65154e-10 1.57682e-13)
(1760 -1.56671e-10 1.54622e-13)
(1760 -1.51562e-10 1.42261e-13)
(1760 -1.5174e-10 1.29906e-13)
(1760 -1.45268e-10 1.14968e-13)
(1760 -1.42523e-10 1.19012e-13)
(1760 -1.41671e-10 1.26412e-13)
(1760 -1.39786e-10 1.13113e-13)
(1760 -1.36183e-10 9.01195e-14)
(1760 -1.30817e-10 1.04336e-13)
(1760 -1.27573e-10 1.01878e-13)
(1760 -1.24792e-10 8.78764e-14)
(1760 -1.26997e-10 8.81829e-14)
(1760 -1.22865e-10 9.54013e-14)
(1760 -1.21435e-10 9.4116e-14)
(1760 -1.21485e-10 8.22355e-14)
(1760 -1.19072e-10 8.00764e-14)
(1760 -1.16249e-10 6.58645e-14)
(1760 -1.13355e-10 6.93477e-14)
(1760 -1.12084e-10 6.32224e-14)
(1760 -1.11643e-10 6.31462e-14)
(1760 -1.1209e-10 6.32418e-14)
(1760 -1.12145e-10 7.22027e-14)
(1760 -1.08101e-10 7.09645e-14)
(1760 -1.07813e-10 6.02178e-14)
(1760 -1.05065e-10 4.99298e-14)
(1760 -1.0774e-10 6.2611e-14)
(1760 -1.08349e-10 5.66232e-14)
(1760 -1.05273e-10 5.36621e-14)
(1760 -1.03719e-10 5.31203e-14)
(1760 -1.00587e-10 4.62044e-14)
(1760 -1.00093e-10 5.10036e-14)
(1760 -1.03895e-10 5.09947e-14)
(1760 -1.02108e-10 4.72043e-14)
(1760 -1.02944e-10 4.88166e-14)
(1760 -1.02568e-10 4.93e-14)
(1760 -1.03174e-10 4.40387e-14)
(1760 -1.00349e-10 4.53228e-14)
(1760 -9.98402e-11 4.80384e-14)
(1760 -1.02953e-10 5.07118e-14)
(1760 -1.01754e-10 4.51628e-14)
(1760 -1.03617e-10 4.33799e-14)
(1760 -1.01944e-10 3.14376e-14)
(1760 -1.00382e-10 3.06093e-14)
(1760 -9.77897e-11 3.58907e-14)
(1760 -9.73727e-11 3.32499e-14)
(1760 -1.01081e-10 3.17216e-14)
(1760 -1.01372e-10 3.80861e-14)
(1760 -1.02121e-10 4.30973e-14)
(1760 -1.03997e-10 3.96515e-14)
(1760 -1.04824e-10 3.41453e-14)
(1760 -1.03768e-10 3.89298e-14)
(1760 -1.02656e-10 3.45497e-14)
(1760 -1.00631e-10 2.8619e-14)
(1760 -9.78613e-11 3.20621e-14)
(1760 -1.02225e-10 2.66793e-14)
(1760 -1.03098e-10 3.43288e-14)
(1760 -1.03608e-10 3.55053e-14)
(1760 -1.02975e-10 4.00819e-14)
(1760 -1.04138e-10 3.10083e-14)
(1760 -1.03779e-10 2.42941e-14)
(1760 -1.02135e-10 2.61896e-14)
(1760 -1.02286e-10 2.43602e-14)
(1760 -1.05343e-10 2.43932e-14)
(1760 -1.05722e-10 2.52309e-14)
(1760 -1.05023e-10 2.69971e-14)
(1760 -1.04898e-10 2.99808e-14)
(1760 -1.06417e-10 2.15683e-14)
(1760 -1.06516e-10 2.26581e-14)
(1760 -1.08239e-10 2.1515e-14)
(1760 -1.09598e-10 2.27195e-14)
(1760 -1.12004e-10 2.19572e-14)
(1760 -1.10769e-10 1.88002e-14)
(1760 -1.10333e-10 2.09789e-14)
(1760 -1.10198e-10 2.38042e-14)
(1760 -1.10586e-10 2.27193e-14)
(1760 -1.11907e-10 2.28562e-14)
(1760 -1.11379e-10 2.47328e-14)
(1760 -1.11117e-10 2.68749e-14)
(1760 -1.12645e-10 2.60576e-14)
(1760 -1.15443e-10 2.65397e-14)
(1760 -1.17898e-10 2.61147e-14)
(1760 -1.18087e-10 2.21009e-14)
(1760 -1.18941e-10 1.75302e-14)
(1760 -1.18561e-10 1.9767e-14)
(1760 -1.19146e-10 2.08745e-14)
(1760 -1.19567e-10 2.15622e-14)
(1760 -1.20507e-10 2.2878e-14)
(1760 -1.20999e-10 2.32928e-14)
(1760 -1.22096e-10 2.17971e-14)
(1760 -1.2317e-10 2.17537e-14)
(1760 -1.24782e-10 2.06719e-14)
(1760 -1.27034e-10 1.98159e-14)
(1760 -1.27537e-10 2.51924e-14)
(1760 -1.30164e-10 2.39251e-14)
(1760 -1.3019e-10 1.8409e-14)
(1760 -1.32694e-10 1.86542e-14)
(1760 -1.33493e-10 2.05407e-14)
(1760 -1.32048e-10 1.70119e-14)
(1760 -1.3348e-10 2.03945e-14)
(1760 -1.35958e-10 2.17268e-14)
(1760 -1.3589e-10 1.61058e-14)
(1760 -1.37509e-10 2.10998e-14)
(1760 -1.3926e-10 2.22566e-14)
(1760 -1.45531e-10 1.75229e-14)
(1760 -1.45428e-10 2.07987e-14)
(1760 -1.44108e-10 2.04228e-14)
(1760 -1.4473e-10 2.1082e-14)
(1760 -1.46596e-10 1.74942e-14)
(1760 -1.48201e-10 2.17006e-14)
(1760 -1.46975e-10 2.02096e-14)
(1760 -1.48882e-10 2.11604e-14)
(1760 -1.531e-10 2.2794e-14)
(1760 -1.54702e-10 1.85114e-14)
(1760 -1.56875e-10 1.57594e-14)
(1760 -1.61181e-10 1.31523e-14)
(1760 -1.65883e-10 1.58055e-14)
(1760 -1.66454e-10 1.81827e-14)
(1760 -1.68956e-10 1.53106e-14)
(1760 -1.68501e-10 1.92905e-14)
(1760 -9.30502e-08 1.56652e-10)
(1760 -4.73905e-08 7.42194e-11)
(1760 -2.41427e-08 3.58157e-11)
(1760 -1.36833e-08 2.00842e-11)
(1760 -8.72868e-09 1.28104e-11)
(1760 -6.10216e-09 8.97233e-12)
(1760 -4.54404e-09 6.74179e-12)
(1760 -3.53543e-09 5.18985e-12)
(1760 -2.84116e-09 4.16206e-12)
(1760 -2.34348e-09 3.37217e-12)
(1760 -1.96204e-09 2.8008e-12)
(1760 -1.66607e-09 2.40822e-12)
(1760 -1.4466e-09 2.04027e-12)
(1760 -1.27158e-09 1.7592e-12)
(1760 -1.12079e-09 1.55833e-12)
(1760 -9.98173e-10 1.36602e-12)
(1760 -8.99707e-10 1.17911e-12)
(1760 -8.17542e-10 1.07079e-12)
(1760 -7.49075e-10 9.53518e-13)
(1760 -6.91871e-10 8.91443e-13)
(1760 -6.42293e-10 7.93878e-13)
(1760 -5.94216e-10 6.9687e-13)
(1760 -5.47015e-10 6.70159e-13)
(1760 -5.09037e-10 6.10201e-13)
(1760 -4.87293e-10 5.92611e-13)
(1760 -4.55075e-10 5.45174e-13)
(1760 -4.26111e-10 5.18248e-13)
(1760 -4.05168e-10 4.71436e-13)
(1760 -3.89519e-10 4.28342e-13)
(1760 -3.7504e-10 4.04578e-13)
(1760 -3.53456e-10 3.69341e-13)
(1760 -3.42664e-10 3.63568e-13)
(1760 -3.28085e-10 3.23587e-13)
(1760 -3.11746e-10 3.1859e-13)
(1760 -3.02912e-10 3.09249e-13)
(1760 -2.93091e-10 2.76878e-13)
(1760 -2.83223e-10 2.59781e-13)
(1760 -2.74837e-10 2.57738e-13)
(1760 -2.66332e-10 2.54682e-13)
(1760 -2.60577e-10 2.27005e-13)
(1760 -2.50947e-10 2.14511e-13)
(1760 -2.43928e-10 2.0797e-13)
(1760 -2.41545e-10 2.06766e-13)
(1760 -2.41239e-10 1.91165e-13)
(1760 -2.34632e-10 1.72592e-13)
(1760 -2.25574e-10 1.74047e-13)
(1760 -2.18117e-10 1.69341e-13)
(1760 -2.16559e-10 1.66693e-13)
(1760 -2.14358e-10 1.63852e-13)
(1760 -2.0943e-10 1.7128e-13)
(1760 -2.07205e-10 1.5324e-13)
(1760 -2.07364e-10 1.44549e-13)
(1760 -2.03701e-10 1.34975e-13)
(1760 -2.00472e-10 1.3079e-13)
(1760 -1.95624e-10 1.21851e-13)
(1760 -1.92184e-10 1.19022e-13)
(1760 -1.88968e-10 1.12524e-13)
(1760 -1.92302e-10 1.09324e-13)
(1760 -1.9151e-10 1.20183e-13)
(1760 -1.86448e-10 1.14899e-13)
(1760 -1.84551e-10 1.09034e-13)
(1760 -1.80061e-10 1.10623e-13)
(1760 -1.8082e-10 1.03297e-13)
(1760 -1.81487e-10 8.52168e-14)
(1760 -1.80084e-10 9.43161e-14)
(1760 -1.7835e-10 8.91662e-14)
(1760 -1.74986e-10 8.18999e-14)
(1760 -1.71822e-10 9.05303e-14)
(1760 -1.73276e-10 8.06964e-14)
(1760 -1.71379e-10 7.67559e-14)
(1760 -1.72114e-10 7.60161e-14)
(1760 -1.70775e-10 7.93295e-14)
(1760 -1.72744e-10 7.47295e-14)
(1760 -1.70042e-10 7.67582e-14)
(1760 -1.69465e-10 7.99882e-14)
(1760 -1.71224e-10 7.75335e-14)
(1760 -1.70845e-10 6.8941e-14)
(1760 -1.71722e-10 6.9239e-14)
(1760 -1.72878e-10 6.97987e-14)
(1760 -1.71011e-10 6.74247e-14)
(1760 -1.68333e-10 6.27001e-14)
(1760 -1.6569e-10 5.80303e-14)
(1760 -1.66507e-10 5.51066e-14)
(1760 -1.67725e-10 5.57116e-14)
(1760 -1.67477e-10 5.48469e-14)
(1760 -1.70066e-10 5.49937e-14)
(1760 -1.7382e-10 6.0379e-14)
(1760 -1.75896e-10 6.43419e-14)
(1760 -1.7366e-10 5.79528e-14)
(1760 -1.71844e-10 5.66762e-14)
(1760 -1.68485e-10 5.15128e-14)
(1760 -1.68044e-10 5.08195e-14)
(1760 -1.69091e-10 5.81663e-14)
(1760 -1.72507e-10 6.33477e-14)
(1760 -1.70772e-10 6.11403e-14)
(1760 -1.72125e-10 4.60997e-14)
(1760 -1.72732e-10 4.31396e-14)
(1760 -1.7166e-10 4.63629e-14)
(1760 -1.71171e-10 4.71185e-14)
(1760 -1.74755e-10 4.64469e-14)
(1760 -1.74946e-10 4.08548e-14)
(1760 -1.75948e-10 4.69208e-14)
(1760 -1.76811e-10 4.46739e-14)
(1760 -1.76261e-10 4.17576e-14)
(1760 -1.75863e-10 4.6936e-14)
(1760 -1.77189e-10 4.37204e-14)
(1760 -1.81404e-10 4.01306e-14)
(1760 -1.83454e-10 3.70395e-14)
(1760 -1.86322e-10 3.91473e-14)
(1760 -1.86434e-10 4.10715e-14)
(1760 -1.85003e-10 3.56028e-14)
(1760 -1.85119e-10 3.51121e-14)
(1760 -1.86212e-10 3.60201e-14)
(1760 -1.87392e-10 3.84929e-14)
(1760 -1.86018e-10 3.92594e-14)
(1760 -1.87349e-10 4.60148e-14)
(1760 -1.89772e-10 4.77665e-14)
(1760 -1.94146e-10 4.62356e-14)
(1760 -1.95949e-10 3.90645e-14)
(1760 -1.96841e-10 3.79139e-14)
(1760 -1.96599e-10 3.88022e-14)
(1760 -1.97348e-10 3.81311e-14)
(1760 -1.97806e-10 3.6276e-14)
(1760 -1.9833e-10 3.40395e-14)
(1760 -1.99971e-10 3.52951e-14)
(1760 -2.0144e-10 3.63677e-14)
(1760 -2.02116e-10 3.57817e-14)
(1760 -2.03842e-10 3.69795e-14)
(1760 -2.06696e-10 4.05578e-14)
(1760 -2.09271e-10 3.84921e-14)
(1760 -2.12349e-10 3.49417e-14)
(1760 -2.15387e-10 3.73029e-14)
(1760 -2.17943e-10 3.77574e-14)
(1760 -2.2002e-10 3.42157e-14)
(1760 -2.21313e-10 3.8209e-14)
(1760 -2.21488e-10 2.81405e-14)
(1760 -2.23585e-10 2.94091e-14)
(1760 -2.2349e-10 3.36786e-14)
(1760 -2.25883e-10 3.61664e-14)
(1760 -2.26683e-10 3.29145e-14)
(1760 -2.30709e-10 2.95112e-14)
(1760 -2.35523e-10 2.72027e-14)
(1760 -2.39121e-10 3.12711e-14)
(1760 -2.40706e-10 2.96082e-14)
(1760 -2.41604e-10 3.46386e-14)
(1760 -2.46457e-10 2.99202e-14)
(1760 -2.47457e-10 3.05702e-14)
(1760 -2.49023e-10 3.30356e-14)
(1760 -2.51522e-10 3.64986e-14)
(1760 -2.53604e-10 3.2091e-14)
(1760 -2.52927e-10 3.12496e-14)
(1760 -2.57575e-10 3.11374e-14)
(1760 -2.64424e-10 3.08296e-14)
(1760 -2.69059e-10 2.63628e-14)
(1760 -2.74116e-10 3.25855e-14)
(1760 -2.75471e-10 3.27666e-14)
(1760 -1.14835e-07 1.92226e-10)
(1760 -6.64994e-08 1.02177e-10)
(1760 -3.66239e-08 5.24462e-11)
(1760 -2.12845e-08 2.93754e-11)
(1760 -1.35264e-08 1.85033e-11)
(1760 -9.34371e-09 1.28145e-11)
(1760 -6.88742e-09 9.51463e-12)
(1760 -5.32207e-09 7.36139e-12)
(1760 -4.25566e-09 5.8747e-12)
(1760 -3.4975e-09 4.81541e-12)
(1760 -2.92882e-09 3.9454e-12)
(1760 -2.48779e-09 3.37303e-12)
(1760 -2.15185e-09 2.89163e-12)
(1760 -1.88403e-09 2.50966e-12)
(1760 -1.66053e-09 2.25429e-12)
(1760 -1.47851e-09 1.93804e-12)
(1760 -1.32967e-09 1.69506e-12)
(1760 -1.20903e-09 1.50634e-12)
(1760 -1.10631e-09 1.34105e-12)
(1760 -1.02128e-09 1.25988e-12)
(1760 -9.44526e-10 1.1192e-12)
(1760 -8.73607e-10 1.03925e-12)
(1760 -8.05287e-10 9.52515e-13)
(1760 -7.50538e-10 8.82275e-13)
(1760 -7.13164e-10 8.0565e-13)
(1760 -6.6957e-10 7.48775e-13)
(1760 -6.26867e-10 6.99321e-13)
(1760 -5.92889e-10 6.4745e-13)
(1760 -5.68159e-10 6.22791e-13)
(1760 -5.45643e-10 5.72652e-13)
(1760 -5.17685e-10 5.41629e-13)
(1760 -4.96702e-10 5.11023e-13)
(1760 -4.7732e-10 4.92589e-13)
(1760 -4.55066e-10 4.58744e-13)
(1760 -4.40833e-10 4.29083e-13)
(1760 -4.28178e-10 4.00882e-13)
(1760 -4.11378e-10 3.79664e-13)
(1760 -3.97207e-10 3.48182e-13)
(1760 -3.86299e-10 3.49933e-13)
(1760 -3.75407e-10 3.16652e-13)
(1760 -3.636e-10 3.1022e-13)
(1760 -3.53699e-10 2.90341e-13)
(1760 -3.4797e-10 2.83997e-13)
(1760 -3.44678e-10 2.66837e-13)
(1760 -3.36818e-10 2.71213e-13)
(1760 -3.279e-10 2.45835e-13)
(1760 -3.19012e-10 2.42314e-13)
(1760 -3.10872e-10 2.33991e-13)
(1760 -3.04911e-10 2.35486e-13)
(1760 -3.01173e-10 2.23583e-13)
(1760 -2.96158e-10 2.05414e-13)
(1760 -2.93977e-10 2.02697e-13)
(1760 -2.90127e-10 1.94016e-13)
(1760 -2.86233e-10 1.85722e-13)
(1760 -2.80045e-10 1.71219e-13)
(1760 -2.76185e-10 1.74671e-13)
(1760 -2.72474e-10 1.67792e-13)
(1760 -2.72464e-10 1.63565e-13)
(1760 -2.7151e-10 1.69612e-13)
(1760 -2.67002e-10 1.62696e-13)
(1760 -2.63085e-10 1.49804e-13)
(1760 -2.59248e-10 1.40444e-13)
(1760 -2.57659e-10 1.33879e-13)
(1760 -2.57119e-10 1.3691e-13)
(1760 -2.55352e-10 1.45094e-13)
(1760 -2.53413e-10 1.33638e-13)
(1760 -2.49852e-10 1.26941e-13)
(1760 -2.45783e-10 1.27986e-13)
(1760 -2.45402e-10 1.11491e-13)
(1760 -2.45011e-10 1.09379e-13)
(1760 -2.43863e-10 1.10504e-13)
(1760 -2.41988e-10 1.15918e-13)
(1760 -2.42978e-10 1.12322e-13)
(1760 -2.40889e-10 1.12832e-13)
(1760 -2.38979e-10 1.07702e-13)
(1760 -2.4162e-10 1.03741e-13)
(1760 -2.41963e-10 1.06963e-13)
(1760 -2.4075e-10 1.08081e-13)
(1760 -2.40747e-10 1.00285e-13)
(1760 -2.40144e-10 9.24223e-14)
(1760 -2.37919e-10 8.66127e-14)
(1760 -2.36308e-10 9.40886e-14)
(1760 -2.34687e-10 8.85252e-14)
(1760 -2.38108e-10 8.83073e-14)
(1760 -2.37207e-10 8.58532e-14)
(1760 -2.37529e-10 8.88125e-14)
(1760 -2.39822e-10 8.59687e-14)
(1760 -2.44894e-10 8.17691e-14)
(1760 -2.43959e-10 7.82016e-14)
(1760 -2.41873e-10 8.13718e-14)
(1760 -2.39328e-10 7.97183e-14)
(1760 -2.37296e-10 7.9198e-14)
(1760 -2.37831e-10 8.13114e-14)
(1760 -2.40264e-10 8.58161e-14)
(1760 -2.39839e-10 7.50708e-14)
(1760 -2.40103e-10 7.39416e-14)
(1760 -2.43926e-10 7.50959e-14)
(1760 -2.42471e-10 6.87023e-14)
(1760 -2.39596e-10 6.69532e-14)
(1760 -2.42994e-10 6.39629e-14)
(1760 -2.44259e-10 5.95277e-14)
(1760 -2.4451e-10 5.98612e-14)
(1760 -2.44851e-10 6.08941e-14)
(1760 -2.46062e-10 6.60579e-14)
(1760 -2.46598e-10 6.48095e-14)
(1760 -2.46553e-10 6.29331e-14)
(1760 -2.48979e-10 6.07104e-14)
(1760 -2.51201e-10 5.99767e-14)
(1760 -2.55562e-10 5.67833e-14)
(1760 -2.6041e-10 5.0408e-14)
(1760 -2.59799e-10 5.27984e-14)
(1760 -2.59232e-10 5.28169e-14)
(1760 -2.59341e-10 5.77199e-14)
(1760 -2.61016e-10 5.8066e-14)
(1760 -2.61118e-10 6.15473e-14)
(1760 -2.60522e-10 6.03424e-14)
(1760 -2.61957e-10 5.89546e-14)
(1760 -2.64844e-10 5.37072e-14)
(1760 -2.68516e-10 5.06457e-14)
(1760 -2.71527e-10 5.34067e-14)
(1760 -2.74346e-10 5.40045e-14)
(1760 -2.74735e-10 5.04794e-14)
(1760 -2.75548e-10 4.81084e-14)
(1760 -2.76077e-10 5.09959e-14)
(1760 -2.76934e-10 5.25354e-14)
(1760 -2.78803e-10 5.07911e-14)
(1760 -2.8195e-10 5.57972e-14)
(1760 -2.83193e-10 5.63989e-14)
(1760 -2.85117e-10 5.11259e-14)
(1760 -2.88069e-10 4.92039e-14)
(1760 -2.90692e-10 4.94592e-14)
(1760 -2.93865e-10 5.06326e-14)
(1760 -2.98235e-10 4.78406e-14)
(1760 -3.01413e-10 4.79785e-14)
(1760 -3.04576e-10 4.99926e-14)
(1760 -3.06335e-10 4.72724e-14)
(1760 -3.1055e-10 5.46253e-14)
(1760 -3.12616e-10 5.18248e-14)
(1760 -3.14901e-10 5.00296e-14)
(1760 -3.1681e-10 4.42709e-14)
(1760 -3.19677e-10 4.50048e-14)
(1760 -3.23989e-10 4.4268e-14)
(1760 -3.26939e-10 4.28583e-14)
(1760 -3.31446e-10 4.57517e-14)
(1760 -3.33462e-10 4.81408e-14)
(1760 -3.36601e-10 5.07286e-14)
(1760 -3.39512e-10 4.97065e-14)
(1760 -3.43492e-10 4.78867e-14)
(1760 -3.47682e-10 4.39962e-14)
(1760 -3.51654e-10 4.43704e-14)
(1760 -3.51624e-10 4.457e-14)
(1760 -3.53142e-10 4.74167e-14)
(1760 -3.58245e-10 4.75979e-14)
(1760 -3.65326e-10 4.10951e-14)
(1760 -3.72702e-10 4.285e-14)
(1760 -3.7743e-10 4.24776e-14)
(1760 -1.31026e-07 2.18799e-10)
(1760 -8.36467e-08 1.27306e-10)
(1760 -4.94937e-08 6.90753e-11)
(1760 -2.9766e-08 3.92683e-11)
(1760 -1.90545e-08 2.46973e-11)
(1760 -1.30895e-08 1.69732e-11)
(1760 -9.56303e-09 1.24394e-11)
(1760 -7.33793e-09 9.60573e-12)
(1760 -5.84145e-09 7.67339e-12)
(1760 -4.78068e-09 6.28963e-12)
(1760 -3.99811e-09 5.19591e-12)
(1760 -3.39549e-09 4.38297e-12)
(1760 -2.92629e-09 3.73322e-12)
(1760 -2.55527e-09 3.24759e-12)
(1760 -2.25124e-09 2.86526e-12)
(1760 -2.0047e-09 2.51654e-12)
(1760 -1.80092e-09 2.20739e-12)
(1760 -1.63308e-09 1.99256e-12)
(1760 -1.49413e-09 1.81162e-12)
(1760 -1.37631e-09 1.6268e-12)
(1760 -1.27266e-09 1.48564e-12)
(1760 -1.17636e-09 1.36658e-12)
(1760 -1.08683e-09 1.22972e-12)
(1760 -1.01221e-09 1.146e-12)
(1760 -9.55402e-10 1.0443e-12)
(1760 -8.9892e-10 1.00259e-12)
(1760 -8.43652e-10 9.17315e-13)
(1760 -7.96819e-10 8.71584e-13)
(1760 -7.59824e-10 8.24141e-13)
(1760 -7.2656e-10 7.58744e-13)
(1760 -6.93554e-10 7.01935e-13)
(1760 -6.62864e-10 6.64267e-13)
(1760 -6.36827e-10 6.11112e-13)
(1760 -6.08757e-10 5.71389e-13)
(1760 -5.86963e-10 5.50881e-13)
(1760 -5.67231e-10 5.25788e-13)
(1760 -5.48058e-10 4.92745e-13)
(1760 -5.28279e-10 4.69319e-13)
(1760 -5.1265e-10 4.32522e-13)
(1760 -4.98489e-10 4.13847e-13)
(1760 -4.82205e-10 4.12089e-13)
(1760 -4.69182e-10 3.9435e-13)
(1760 -4.60431e-10 3.75086e-13)
(1760 -4.51955e-10 3.64334e-13)
(1760 -4.42812e-10 3.4933e-13)
(1760 -4.31975e-10 3.3579e-13)
(1760 -4.24289e-10 3.13707e-13)
(1760 -4.13706e-10 3.02009e-13)
(1760 -4.02681e-10 2.88748e-13)
(1760 -3.95659e-10 2.67989e-13)
(1760 -3.9083e-10 2.73193e-13)
(1760 -3.83437e-10 2.61702e-13)
(1760 -3.80141e-10 2.5513e-13)
(1760 -3.7371e-10 2.44863e-13)
(1760 -3.66262e-10 2.41766e-13)
(1760 -3.6263e-10 2.32982e-13)
(1760 -3.60565e-10 2.1235e-13)
(1760 -3.56733e-10 2.08902e-13)
(1760 -3.51991e-10 2.1261e-13)
(1760 -3.49591e-10 1.94377e-13)
(1760 -3.44155e-10 1.86612e-13)
(1760 -3.38489e-10 1.81964e-13)
(1760 -3.35289e-10 1.82384e-13)
(1760 -3.37236e-10 1.88992e-13)
(1760 -3.33428e-10 1.73034e-13)
(1760 -3.2943e-10 1.75013e-13)
(1760 -3.27561e-10 1.70865e-13)
(1760 -3.24545e-10 1.55518e-13)
(1760 -3.20341e-10 1.62494e-13)
(1760 -3.18338e-10 1.58242e-13)
(1760 -3.17392e-10 1.49766e-13)
(1760 -3.1389e-10 1.48678e-13)
(1760 -3.13129e-10 1.42995e-13)
(1760 -3.14366e-10 1.39333e-13)
(1760 -3.11274e-10 1.42497e-13)
(1760 -3.11497e-10 1.3941e-13)
(1760 -3.13231e-10 1.385e-13)
(1760 -3.12452e-10 1.29303e-13)
(1760 -3.10694e-10 1.21028e-13)
(1760 -3.09933e-10 1.2297e-13)
(1760 -3.0773e-10 1.30431e-13)
(1760 -3.05434e-10 1.20342e-13)
(1760 -3.0265e-10 1.14723e-13)
(1760 -3.05321e-10 1.13071e-13)
(1760 -3.06081e-10 1.13938e-13)
(1760 -3.06458e-10 1.07457e-13)
(1760 -3.07669e-10 1.04335e-13)
(1760 -3.12579e-10 1.09672e-13)
(1760 -3.14489e-10 1.13641e-13)
(1760 -3.12889e-10 1.11103e-13)
(1760 -3.09393e-10 1.03483e-13)
(1760 -3.05901e-10 1.02102e-13)
(1760 -3.06667e-10 9.97576e-14)
(1760 -3.07364e-10 9.70265e-14)
(1760 -3.07205e-10 9.62561e-14)
(1760 -3.08181e-10 9.7507e-14)
(1760 -3.11993e-10 8.96849e-14)
(1760 -3.1356e-10 8.95495e-14)
(1760 -3.10813e-10 9.09992e-14)
(1760 -3.12311e-10 8.49895e-14)
(1760 -3.14021e-10 8.014e-14)
(1760 -3.15063e-10 8.22269e-14)
(1760 -3.15351e-10 8.59828e-14)
(1760 -3.14979e-10 7.88995e-14)
(1760 -3.16286e-10 7.95679e-14)
(1760 -3.16702e-10 8.23165e-14)
(1760 -3.17429e-10 8.04736e-14)
(1760 -3.18835e-10 7.89118e-14)
(1760 -3.20903e-10 7.54147e-14)
(1760 -3.25442e-10 7.71911e-14)
(1760 -3.27868e-10 7.77299e-14)
(1760 -3.30347e-10 7.61377e-14)
(1760 -3.32395e-10 7.64306e-14)
(1760 -3.32671e-10 6.63153e-14)
(1760 -3.33389e-10 6.76406e-14)
(1760 -3.3543e-10 7.12759e-14)
(1760 -3.36869e-10 7.36236e-14)
(1760 -3.38695e-10 7.07866e-14)
(1760 -3.42676e-10 7.40969e-14)
(1760 -3.45537e-10 7.44307e-14)
(1760 -3.49118e-10 6.66043e-14)
(1760 -3.51682e-10 6.40209e-14)
(1760 -3.53023e-10 6.96517e-14)
(1760 -3.55364e-10 6.85901e-14)
(1760 -3.56242e-10 6.40146e-14)
(1760 -3.57141e-10 6.97729e-14)
(1760 -3.60241e-10 7.03708e-14)
(1760 -3.62475e-10 6.33687e-14)
(1760 -3.65288e-10 6.17406e-14)
(1760 -3.68664e-10 6.11875e-14)
(1760 -3.71917e-10 6.23381e-14)
(1760 -3.74481e-10 6.55134e-14)
(1760 -3.77894e-10 6.42999e-14)
(1760 -3.81109e-10 6.66286e-14)
(1760 -3.8435e-10 6.65863e-14)
(1760 -3.87173e-10 6.58313e-14)
(1760 -3.92322e-10 6.49426e-14)
(1760 -3.94253e-10 6.01253e-14)
(1760 -3.98275e-10 6.16578e-14)
(1760 -4.00523e-10 5.65845e-14)
(1760 -4.05183e-10 5.98915e-14)
(1760 -4.10797e-10 5.78871e-14)
(1760 -4.13702e-10 6.01362e-14)
(1760 -4.17854e-10 6.24e-14)
(1760 -4.23026e-10 6.09729e-14)
(1760 -4.25732e-10 6.08469e-14)
(1760 -4.29269e-10 5.82042e-14)
(1760 -4.33214e-10 5.44856e-14)
(1760 -4.37969e-10 5.56027e-14)
(1760 -4.43297e-10 5.71613e-14)
(1760 -4.46024e-10 5.3622e-14)
(1760 -4.49657e-10 6.22296e-14)
(1760 -4.54678e-10 5.48918e-14)
(1760 -4.60016e-10 5.43553e-14)
(1760 -4.68553e-10 5.95043e-14)
(1760 -4.74768e-10 5.81321e-14)
(1760 -1.43498e-07 2.39679e-10)
(1760 -9.87027e-08 1.4919e-10)
(1760 -6.22152e-08 8.51393e-11)
(1760 -3.88491e-08 4.96729e-11)
(1760 -2.52316e-08 3.12616e-11)
(1760 -1.73388e-08 2.13161e-11)
(1760 -1.25987e-08 1.56493e-11)
(1760 -9.60493e-09 1.194e-11)
(1760 -7.60657e-09 9.4488e-12)
(1760 -6.20063e-09 7.70309e-12)
(1760 -5.17012e-09 6.4054e-12)
(1760 -4.38831e-09 5.39897e-12)
(1760 -3.77559e-09 4.6277e-12)
(1760 -3.28935e-09 4.02907e-12)
(1760 -2.89682e-09 3.4799e-12)
(1760 -2.57659e-09 3.06288e-12)
(1760 -2.31256e-09 2.74405e-12)
(1760 -2.09298e-09 2.43755e-12)
(1760 -1.91105e-09 2.2133e-12)
(1760 -1.75749e-09 1.98369e-12)
(1760 -1.62332e-09 1.82022e-12)
(1760 -1.50194e-09 1.66136e-12)
(1760 -1.39069e-09 1.51637e-12)
(1760 -1.2949e-09 1.37146e-12)
(1760 -1.21617e-09 1.29758e-12)
(1760 -1.14313e-09 1.21885e-12)
(1760 -1.07647e-09 1.13129e-12)
(1760 -1.01457e-09 1.0643e-12)
(1760 -9.65475e-10 9.73528e-13)
(1760 -9.19547e-10 8.94404e-13)
(1760 -8.79606e-10 8.57599e-13)
(1760 -8.41633e-10 7.98684e-13)
(1760 -8.05541e-10 7.53321e-13)
(1760 -7.7217e-10 7.22222e-13)
(1760 -7.42642e-10 6.77572e-13)
(1760 -7.15923e-10 6.18374e-13)
(1760 -6.90677e-10 6.1857e-13)
(1760 -6.6691e-10 5.79316e-13)
(1760 -6.46488e-10 5.5297e-13)
(1760 -6.28635e-10 5.32409e-13)
(1760 -6.09083e-10 4.91808e-13)
(1760 -5.91913e-10 4.70989e-13)
(1760 -5.77769e-10 4.56338e-13)
(1760 -5.64522e-10 4.41543e-13)
(1760 -5.539e-10 4.23529e-13)
(1760 -5.41889e-10 4.16671e-13)
(1760 -5.31492e-10 3.82968e-13)
(1760 -5.19454e-10 3.71749e-13)
(1760 -5.06428e-10 3.60891e-13)
(1760 -4.94999e-10 3.3869e-13)
(1760 -4.89341e-10 3.28998e-13)
(1760 -4.79147e-10 3.18778e-13)
(1760 -4.73997e-10 3.069e-13)
(1760 -4.65185e-10 3.01414e-13)
(1760 -4.5841e-10 2.85619e-13)
(1760 -4.50946e-10 2.72996e-13)
(1760 -4.47741e-10 2.65505e-13)
(1760 -4.45397e-10 2.66409e-13)
(1760 -4.38459e-10 2.52578e-13)
(1760 -4.34747e-10 2.4073e-13)
(1760 -4.28893e-10 2.38953e-13)
(1760 -4.22138e-10 2.28437e-13)
(1760 -4.15522e-10 2.23651e-13)
(1760 -4.16609e-10 2.15785e-13)
(1760 -4.13481e-10 2.1375e-13)
(1760 -4.08225e-10 2.15102e-13)
(1760 -4.04156e-10 2.02356e-13)
(1760 -4.02381e-10 1.906e-13)
(1760 -3.99214e-10 1.98337e-13)
(1760 -3.95705e-10 1.89372e-13)
(1760 -3.92008e-10 1.80703e-13)
(1760 -3.88214e-10 1.77685e-13)
(1760 -3.87613e-10 1.766e-13)
(1760 -3.86599e-10 1.6684e-13)
(1760 -3.85457e-10 1.70959e-13)
(1760 -3.84303e-10 1.64664e-13)
(1760 -3.8499e-10 1.59296e-13)
(1760 -3.85144e-10 1.55312e-13)
(1760 -3.83199e-10 1.67923e-13)
(1760 -3.81333e-10 1.6e-13)
(1760 -3.79627e-10 1.54263e-13)
(1760 -3.78273e-10 1.43461e-13)
(1760 -3.74132e-10 1.42122e-13)
(1760 -3.73598e-10 1.33204e-13)
(1760 -3.74866e-10 1.36445e-13)
(1760 -3.76363e-10 1.29045e-13)
(1760 -3.76766e-10 1.34716e-13)
(1760 -3.7984e-10 1.30148e-13)
(1760 -3.8378e-10 1.30545e-13)
(1760 -3.84701e-10 1.21406e-13)
(1760 -3.81568e-10 1.20839e-13)
(1760 -3.77595e-10 1.23852e-13)
(1760 -3.76106e-10 1.18479e-13)
(1760 -3.77784e-10 1.14914e-13)
(1760 -3.78124e-10 1.17276e-13)
(1760 -3.7755e-10 1.16199e-13)
(1760 -3.78787e-10 1.08551e-13)
(1760 -3.81128e-10 1.11699e-13)
(1760 -3.8121e-10 1.1099e-13)
(1760 -3.81955e-10 1.09792e-13)
(1760 -3.8473e-10 1.06221e-13)
(1760 -3.86077e-10 1.06857e-13)
(1760 -3.87009e-10 9.84256e-14)
(1760 -3.86353e-10 9.71708e-14)
(1760 -3.87831e-10 1.02266e-13)
(1760 -3.88783e-10 1.00491e-13)
(1760 -3.89295e-10 9.86533e-14)
(1760 -3.91574e-10 9.62494e-14)
(1760 -3.92145e-10 9.86425e-14)
(1760 -3.93769e-10 1.00388e-13)
(1760 -3.97479e-10 9.34137e-14)
(1760 -3.99214e-10 9.02706e-14)
(1760 -4.01802e-10 8.72966e-14)
(1760 -4.0515e-10 8.76559e-14)
(1760 -4.0611e-10 9.07644e-14)
(1760 -4.07653e-10 9.07767e-14)
(1760 -4.10503e-10 9.32046e-14)
(1760 -4.12424e-10 9.43414e-14)
(1760 -4.16237e-10 9.39965e-14)
(1760 -4.20011e-10 8.86814e-14)
(1760 -4.23854e-10 7.81271e-14)
(1760 -4.27588e-10 8.58827e-14)
(1760 -4.28974e-10 9.00441e-14)
(1760 -4.31399e-10 8.33935e-14)
(1760 -4.33554e-10 7.98104e-14)
(1760 -4.3563e-10 8.09634e-14)
(1760 -4.3805e-10 8.11649e-14)
(1760 -4.40564e-10 8.11891e-14)
(1760 -4.44539e-10 8.22409e-14)
(1760 -4.48352e-10 8.04184e-14)
(1760 -4.51967e-10 8.16954e-14)
(1760 -4.55604e-10 8.21977e-14)
(1760 -4.58971e-10 8.09751e-14)
(1760 -4.62253e-10 8.17603e-14)
(1760 -4.65198e-10 8.02986e-14)
(1760 -4.68929e-10 8.0115e-14)