/*--------------------------------*- C++ -*----------------------------------*\
| =========                 |                                                 |
| \\      /  F ield         | OpenFOAM: The Open Source CFD Toolbox           |
|  \\    /   O peration     | Version:  v1706                                 |
|   \\  /    A nd           | Web:      www.OpenFOAM.com                      |
|    \\/     M anipulation  |                                                 |
\*---------------------------------------------------------------------------*/
FoamFile
{
    version     2.0;
    format      ascii;
    class       volScalarField;
    location    "3.1e-05";
    object      wallHeatFlux;
}
// * * * * * * * * * * * * * * * * * * * * * * * * * * * * * * * * * * * * * //

dimensions      [1 0 -3 0 0 0 0];


internalField   uniform 0;

boundaryField
{
    cone
    {
        type            calculated;
        value           nonuniform List<scalar> 
147
(
242642
242590
242517
242454
242367
242275
242163
242039
241899
241744
241573
241387
241186
240970
240739
240492
240231
239954
239662
239354
239032
238693
238340
237971
237587
237187
236773
236343
235898
235438
234963
234474
233969
233450
232917
232369
231807
231230
230639
230035
229416
228784
228139
227480
226808
226122
225424
224712
223988
223251
222501
221739
220965
220179
219380
218570
217749
216917
216075
215222
214359
213484
212599
211704
210798
209882
208956
208020
207074
206119
205154
204180
203197
202204
201203
200193
199175
198148
197114
196071
195020
193962
192896
191823
190743
189656
188562
187461
186354
185241
184121
182996
181865
180729
179587
178440
177288
176132
174970
173805
172635
171461
170283
169102
167917
166729
165537
164343
163147
161948
160746
159543
158337
157130
155921
154711
153500
152288
151075
149861
148647
147433
146218
145004
143790
142577
141364
140152
138940
137730
136522
135314
134109
132905
131703
130503
129306
128111
126918
125729
124543
123361
122186
121016
119848
118681
242906
)
;
    }
    inlet
    {
        type            calculated;
        value           uniform 0;
    }
    rWedge
    {
        type            wedge;
    }
    lWedge
    {
        type            wedge;
    }
    outlet
    {
        type            calculated;
        value           nonuniform 0();
    }
    procBoundary3to2
    {
        type            processor;
        value           uniform 0;
    }
}


// ************************************************************************* //
