/*--------------------------------*- C++ -*----------------------------------*\
| =========                 |                                                 |
| \\      /  F ield         | OpenFOAM: The Open Source CFD Toolbox           |
|  \\    /   O peration     | Version:  v1706                                 |
|   \\  /    A nd           | Web:      www.OpenFOAM.com                      |
|    \\/     M anipulation  |                                                 |
\*---------------------------------------------------------------------------*/
FoamFile
{
    version     2.0;
    format      ascii;
    class       volScalarField;
    location    "3.4e-05";
    object      kappatr;
}
// * * * * * * * * * * * * * * * * * * * * * * * * * * * * * * * * * * * * * //

dimensions      [1 1 -3 -1 0 0 0];


internalField   nonuniform List<scalar> 
29871
(
0.014593
0.014593
0.014593
0.014593
0.014593
0.014593
0.014593
0.014593
0.014593
0.014593
0.014593
0.014593
0.014593
0.014593
0.014593
0.014593
0.014593
0.014593
0.014593
0.014593
0.014593
0.014593
0.014593
0.014593
0.014593
0.014593
0.014593
0.014593
0.014593
0.014593
0.014593
0.014593
0.014593
0.014593
0.014593
0.014593
0.014593
0.014593
0.014593
0.014593
0.014593
0.014593
0.014593
0.014593
0.014593
0.014593
0.014593
0.014593
0.014593
0.014593
0.014593
0.014593
0.014593
0.014593
0.014593
0.014593
0.014593
0.014593
0.014593
0.014593
0.014593
0.014593
0.014593
0.014593
0.014593
0.014593
0.014593
0.014593
0.014593
0.014593
0.014593
0.014593
0.014593
0.014593
0.014593
0.014593
0.014593
0.014593
0.014593
0.014593
0.014593
0.014593
0.014593
0.014593
0.014593
0.014593
0.014593
0.014593
0.014593
0.014593
0.014593
0.014593
0.014593
0.014593
0.014593
0.014593
0.014593
0.014593
0.014593
0.014593
0.014593
0.014593
0.014593
0.014593
0.014593
0.014593
0.014593
0.014593
0.014593
0.014593
0.014593
0.014593
0.014593
0.014593
0.014593
0.014593
0.014593
0.014593
0.014593
0.014593
0.014593
0.014593
0.014593
0.014593
0.014593
0.014593
0.014593
0.014593
0.014593
0.014593
0.014593
0.014593
0.014593
0.014593
0.014593
0.014593
0.014593
0.014593
0.014593
0.014593
0.014593
0.014593
0.014593
0.014593
0.014593
0.014593
0.014593
0.014593
0.014593
0.014593
0.014593
0.014593
0.014593
0.014593
0.014593
0.014593
0.014593
0.014593
0.014593
0.014593
0.014593
0.014593
0.014593
0.014593
0.014593
0.014593
0.014593
0.014593
0.014593
0.014593
0.014593
0.014593
0.014593
0.014593
0.014593
0.014593
0.014593
0.014593
0.014593
0.014593
0.014593
0.014593
0.014593
0.014593
0.014593
0.014593
0.014593
0.014593
0.014593
0.014593
0.014593
0.014593
0.014593
0.014593
0.014593
0.014593
0.014593
0.014593
0.014593
0.014593
0.014593
0.014593
0.014593
0.014593
0.014593
0.014593
0.014593
0.014593
0.014593
0.014593
0.014593
0.014593
0.014593
0.014593
0.014593
0.014593
0.014593
0.014593
0.014593
0.014593
0.014593
0.014593
0.014593
0.014593
0.014593
0.014593
0.014593
0.014593
0.014593
0.014593
0.014593
0.014593
0.014593
0.014593
0.014593
0.014593
0.014593
0.014593
0.014593
0.014593
0.014593
0.014593
0.014593
0.014593
0.014593
0.014593
0.014593
0.014593
0.014593
0.014593
0.014593
0.014593
0.014593
0.014593
0.014593
0.014593
0.014593
0.014593
0.014593
0.014593
0.014593
0.014593
0.014593
0.014593
0.014593
0.014593
0.014593
0.014593
0.014593
0.014593
0.014593
0.014593
0.014593
0.014593
0.014593
0.014593
0.014593
0.014593
0.014593
0.014593
0.014593
0.014593
0.014593
0.014593
0.014593
0.014593
0.014593
0.014593
0.014593
0.014593
0.014593
0.014593
0.014593
0.014593
0.014593
0.014593
0.014593
0.014593
0.014593
0.014593
0.014593
0.014593
0.014593
0.014593
0.014593
0.014593
0.014593
0.014593
0.014593
0.014593
0.014593
0.014593
0.014593
0.014593
0.014593
0.014593
0.014593
0.014593
0.014593
0.014593
0.014593
0.014593
0.014593
0.014593
0.014593
0.014593
0.014593
0.014593
0.014593
0.014593
0.014593
0.014593
0.014593
0.014593
0.014593
0.014593
0.014593
0.014593
0.014593
0.014593
0.014593
0.014593
0.014593
0.014593
0.014593
0.014593
0.014593
0.014593
0.014593
0.014593
0.014593
0.014593
0.014593
0.014593
0.014593
0.014593
0.014593
0.014593
0.014593
0.014593
0.014593
0.014593
0.014593
0.014593
0.014593
0.014593
0.014593
0.014593
0.014593
0.014593
0.014593
0.014593
0.014593
0.014593
0.014593
0.014593
0.014593
0.014593
0.014593
0.014593
0.014593
0.014593
0.014593
0.014593
0.014593
0.014593
0.014593
0.014593
0.014593
0.014593
0.014593
0.014593
0.014593
0.014593
0.014593
0.014593
0.014593
0.014593
0.014593
0.014593
0.014593
0.014593
0.014593
0.014593
0.014593
0.014593
0.014593
0.014593
0.014593
0.014593
0.014593
0.014593
0.014593
0.014593
0.014593
0.014593
0.014593
0.014593
0.014593
0.014593
0.014593
0.014593
0.014593
0.014593
0.014593
0.014593
0.014593
0.014593
0.014593
0.014593
0.014593
0.014593
0.014593
0.014593
0.014593
0.014593
0.014593
0.014593
0.014593
0.014593
0.014593
0.014593
0.014593
0.014593
0.014593
0.014593
0.014593
0.014593
0.014593
0.014593
0.014593
0.014593
0.014593
0.014593
0.014593
0.014593
0.014593
0.014593
0.014593
0.014593
0.014593
0.014593
0.014593
0.014593
0.014593
0.014593
0.014593
0.014593
0.014593
0.014593
0.014593
0.014593
0.014593
0.014593
0.014593
0.014593
0.014593
0.014593
0.014593
0.014593
0.014593
0.014593
0.014593
0.014593
0.014593
0.014593
0.014593
0.014593
0.014593
0.014593
0.014593
0.014593
0.014593
0.014593
0.014593
0.014593
0.014593
0.014593
0.014593
0.014593
0.014593
0.014593
0.014593
0.014593
0.014593
0.014593
0.014593
0.014593
0.014593
0.014593
0.014593
0.014593
0.014593
0.014593
0.014593
0.014593
0.014593
0.014593
0.014593
0.014593
0.014593
0.014593
0.014593
0.014593
0.014593
0.014593
0.014593
0.014593
0.014593
0.014593
0.014593
0.014593
0.014593
0.014593
0.014593
0.014593
0.014593
0.014593
0.014593
0.014593
0.014593
0.014593
0.014593
0.014593
0.014593
0.014593
0.014593
0.014593
0.014593
0.014593
0.014593
0.014593
0.014593
0.014593
0.014593
0.014593
0.014593
0.014593
0.014593
0.014593
0.014593
0.014593
0.014593
0.014593
0.014593
0.014593
0.014593
0.014593
0.014593
0.014593
0.014593
0.014593
0.014593
0.014593
0.014593
0.014593
0.014593
0.014593
0.014593
0.014593
0.014593
0.014593
0.014593
0.014593
0.014593
0.014593
0.014593
0.014593
0.014593
0.014593
0.014593
0.014593
0.014593
0.014593
0.014593
0.014593
0.014593
0.014593
0.014593
0.014593
0.014593
0.014593
0.014593
0.014593
0.014593
0.014593
0.014593
0.014593
0.014593
0.014593
0.014593
0.014593
0.014593
0.014593
0.014593
0.014593
0.014593
0.014593
0.014593
0.014593
0.014593
0.014593
0.014593
0.014593
0.014593
0.014593
0.014593
0.014593
0.014593
0.014593
0.014593
0.014593
0.014593
0.014593
0.014593
0.014593
0.014593
0.014593
0.014593
0.014593
0.014593
0.014593
0.014593
0.014593
0.014593
0.014593
0.014593
0.014593
0.014593
0.014593
0.014593
0.014593
0.014593
0.014593
0.014593
0.014593
0.014593
0.014593
0.014593
0.014593
0.014593
0.014593
0.014593
0.014593
0.014593
0.014593
0.014593
0.014593
0.014593
0.014593
0.014593
0.014593
0.014593
0.014593
0.014593
0.014593
0.014593
0.014593
0.014593
0.014593
0.014593
0.014593
0.014593
0.014593
0.014593
0.014593
0.014593
0.014593
0.014593
0.014593
0.014593
0.014593
0.014593
0.014593
0.014593
0.014593
0.014593
0.014593
0.014593
0.014593
0.014593
0.014593
0.014593
0.014593
0.014593
0.014593
0.014593
0.014593
0.014593
0.014593
0.014593
0.014593
0.014593
0.014593
0.014593
0.014593
0.014593
0.014593
0.014593
0.014593
0.014593
0.014593
0.014593
0.014593
0.014593
0.014593
0.014593
0.014593
0.014593
0.014593
0.014593
0.014593
0.014593
0.014593
0.014593
0.014593
0.014593
0.014593
0.014593
0.014593
0.014593
0.014593
0.014593
0.014593
0.014593
0.014593
0.014593
0.014593
0.014593
0.014593
0.014593
0.014593
0.014593
0.014593
0.014593
0.014593
0.014593
0.014593
0.014593
0.014593
0.014593
0.014593
0.014593
0.014593
0.014593
0.014593
0.014593
0.014593
0.014593
0.014593
0.014593
0.014593
0.014593
0.014593
0.014593
0.014593
0.014593
0.014593
0.014593
0.014593
0.014593
0.014593
0.014593
0.014593
0.014593
0.014593
0.014593
0.014593
0.014593
0.014593
0.014593
0.014593
0.014593
0.014593
0.014593
0.014593
0.014593
0.014593
0.014593
0.014593
0.014593
0.014593
0.014593
0.014593
0.014593
0.014593
0.014593
0.014593
0.014593
0.014593
0.014593
0.014593
0.014593
0.014593
0.014593
0.014593
0.014593
0.014593
0.014593
0.014593
0.014593
0.014593
0.014593
0.014593
0.014593
0.014593
0.014593
0.014593
0.014593
0.014593
0.014593
0.014593
0.014593
0.014593
0.014593
0.014593
0.014593
0.014593
0.014593
0.014593
0.014593
0.014593
0.014593
0.014593
0.014593
0.014593
0.014593
0.014593
0.014593
0.014593
0.014593
0.014593
0.014593
0.014593
0.014593
0.014593
0.014593
0.014593
0.014593
0.014593
0.014593
0.014593
0.014593
0.014593
0.014593
0.014593
0.014593
0.014593
0.014593
0.014593
0.014593
0.014593
0.014593
0.014593
0.014593
0.014593
0.014593
0.014593
0.014593
0.014593
0.014593
0.014593
0.014593
0.014593
0.014593
0.014593
0.014593
0.014593
0.014593
0.014593
0.014593
0.014593
0.014593
0.014593
0.014593
0.014593
0.014593
0.014593
0.014593
0.014593
0.014593
0.014593
0.014593
0.014593
0.014593
0.014593
0.014593
0.014593
0.014593
0.014593
0.014593
0.014593
0.014593
0.014593
0.014593
0.014593
0.014593
0.014593
0.014593
0.014593
0.014593
0.014593
0.014593
0.014593
0.014593
0.014593
0.014593
0.014593
0.014593
0.014593
0.014593
0.014593
0.014593
0.014593
0.014593
0.014593
0.014593
0.014593
0.014593
0.014593
0.014593
0.014593
0.014593
0.014593
0.014593
0.014593
0.014593
0.014593
0.014593
0.014593
0.014593
0.014593
0.014593
0.014593
0.014593
0.014593
0.014593
0.014593
0.014593
0.014593
0.014593
0.014593
0.014593
0.014593
0.014593
0.014593
0.014593
0.014593
0.014593
0.014593
0.014593
0.014593
0.014593
0.014593
0.014593
0.014593
0.014593
0.014593
0.014593
0.014593
0.014593
0.014593
0.014593
0.014593
0.014593
0.014593
0.014593
0.014593
0.014593
0.014593
0.014593
0.014593
0.014593
0.014593
0.014593
0.014593
0.014593
0.014593
0.014593
0.014593
0.014593
0.014593
0.014593
0.014593
0.014593
0.014593
0.014593
0.014593
0.014593
0.014593
0.014593
0.014593
0.014593
0.014593
0.014593
0.014593
0.014593
0.014593
0.014593
0.014593
0.014593
0.014593
0.014593
0.014593
0.014593
0.014593
0.014593
0.014593
0.014593
0.014593
0.014593
0.014593
0.014593
0.014593
0.014593
0.014593
0.014593
0.014593
0.014593
0.014593
0.014593
0.014593
0.014593
0.014593
0.014593
0.014593
0.014593
0.014593
0.014593
0.014593
0.014593
0.014593
0.014593
0.014593
0.014593
0.014593
0.014593
0.014593
0.014593
0.014593
0.014593
0.014593
0.014593
0.014593
0.014593
0.014593
0.014593
0.014593
0.014593
0.014593
0.014593
0.014593
0.014593
0.014593
0.014593
0.014593
0.014593
0.014593
0.014593
0.014593
0.014593
0.014593
0.014593
0.014593
0.014593
0.014593
0.014593
0.014593
0.014593
0.014593
0.014593
0.014593
0.014593
0.014593
0.014593
0.014593
0.014593
0.014593
0.014593
0.014593
0.014593
0.014593
0.014593
0.014593
0.014593
0.014593
0.014593
0.014593
0.014593
0.014593
0.014593
0.014593
0.014593
0.014593
0.014593
0.014593
0.014593
0.014593
0.014593
0.014593
0.014593
0.014593
0.014593
0.014593
0.014593
0.014593
0.014593
0.014593
0.014593
0.014593
0.014593
0.014593
0.014593
0.014593
0.014593
0.014593
0.014593
0.014593
0.014593
0.014593
0.014593
0.014593
0.014593
0.014593
0.014593
0.014593
0.014593
0.014593
0.014593
0.014593
0.014593
0.014593
0.014593
0.014593
0.014593
0.014593
0.014593
0.014593
0.014593
0.014593
0.014593
0.014593
0.014593
0.014593
0.014593
0.014593
0.014593
0.014593
0.014593
0.014593
0.014593
0.014593
0.014593
0.014593
0.014593
0.014593
0.014593
0.014593
0.014593
0.014593
0.014593
0.014593
0.014593
0.014593
0.014593
0.014593
0.014593
0.014593
0.014593
0.014593
0.014593
0.014593
0.014593
0.014593
0.014593
0.014593
0.014593
0.014593
0.014593
0.014593
0.014593
0.014593
0.014593
0.014593
0.014593
0.014593
0.014593
0.014593
0.014593
0.014593
0.014593
0.014593
0.014593
0.014593
0.014593
0.014593
0.014593
0.014593
0.014593
0.014593
0.014593
0.014593
0.014593
0.014593
0.014593
0.014593
0.014593
0.014593
0.014593
0.014593
0.014593
0.014593
0.014593
0.014593
0.014593
0.014593
0.014593
0.014593
0.014593
0.014593
0.014593
0.014593
0.014593
0.014593
0.014593
0.014593
0.014593
0.014593
0.014593
0.014593
0.014593
0.014593
0.014593
0.014593
0.014593
0.014593
0.014593
0.014593
0.014593
0.014593
0.014593
0.014593
0.014593
0.014593
0.014593
0.014593
0.014593
0.014593
0.014593
0.014593
0.014593
0.014593
0.014593
0.014593
0.014593
0.014593
0.014593
0.014593
0.014593
0.014593
0.014593
0.014593
0.0145931
0.0145931
0.0145931
0.0145931
0.0145931
0.0145931
0.0145931
0.0145931
0.0145931
0.0145931
0.0145932
0.0145932
0.0145932
0.0145932
0.0145932
0.014593
0.014593
0.014593
0.014593
0.014593
0.014593
0.014593
0.014593
0.014593
0.014593
0.014593
0.014593
0.014593
0.014593
0.014593
0.014593
0.014593
0.014593
0.014593
0.014593
0.014593
0.014593
0.014593
0.014593
0.014593
0.014593
0.014593
0.014593
0.014593
0.014593
0.014593
0.014593
0.014593
0.014593
0.014593
0.014593
0.014593
0.014593
0.014593
0.014593
0.014593
0.014593
0.014593
0.014593
0.014593
0.014593
0.014593
0.014593
0.014593
0.014593
0.014593
0.014593
0.014593
0.014593
0.014593
0.014593
0.014593
0.014593
0.014593
0.014593
0.014593
0.014593
0.014593
0.014593
0.014593
0.014593
0.014593
0.014593
0.014593
0.014593
0.014593
0.014593
0.014593
0.014593
0.014593
0.014593
0.014593
0.014593
0.014593
0.0145931
0.0145931
0.0145931
0.0145931
0.0145931
0.0145931
0.0145931
0.0145931
0.0145931
0.0145931
0.0145931
0.0145931
0.0145932
0.0145932
0.0145932
0.0145932
0.0145932
0.0145933
0.0145933
0.0145933
0.0145934
0.0145934
0.0145935
0.0145935
0.0145936
0.0145936
0.0145937
0.0145938
0.0145939
0.014594
0.0145942
0.0145943
0.0145945
0.0145946
0.014593
0.014593
0.014593
0.014593
0.014593
0.014593
0.014593
0.014593
0.014593
0.014593
0.014593
0.014593
0.014593
0.014593
0.014593
0.014593
0.014593
0.014593
0.014593
0.014593
0.014593
0.014593
0.014593
0.014593
0.014593
0.014593
0.014593
0.014593
0.014593
0.014593
0.014593
0.014593
0.014593
0.014593
0.014593
0.014593
0.014593
0.014593
0.014593
0.014593
0.014593
0.014593
0.014593
0.014593
0.014593
0.014593
0.014593
0.014593
0.014593
0.014593
0.014593
0.014593
0.014593
0.014593
0.014593
0.014593
0.014593
0.0145931
0.0145931
0.0145931
0.0145931
0.0145931
0.0145931
0.0145931
0.0145931
0.0145931
0.0145931
0.0145931
0.0145931
0.0145931
0.0145931
0.0145931
0.0145931
0.0145931
0.0145932
0.0145932
0.0145932
0.0145932
0.0145932
0.0145932
0.0145933
0.0145933
0.0145933
0.0145933
0.0145934
0.0145934
0.0145935
0.0145935
0.0145936
0.0145936
0.0145937
0.0145938
0.0145939
0.014594
0.0145941
0.0145942
0.0145943
0.0145945
0.0145947
0.0145949
0.0145951
0.0145953
0.0145956
0.0145959
0.0145963
0.0145968
0.0145973
0.0145978
0.0145984
0.0145991
0.0145999
0.0146007
0.0146017
0.014593
0.014593
0.014593
0.014593
0.014593
0.014593
0.014593
0.014593
0.014593
0.014593
0.014593
0.014593
0.014593
0.014593
0.014593
0.014593
0.014593
0.014593
0.014593
0.014593
0.014593
0.014593
0.014593
0.014593
0.014593
0.014593
0.014593
0.014593
0.014593
0.0145931
0.0145931
0.0145931
0.0145931
0.0145931
0.0145931
0.0145931
0.0145931
0.0145931
0.0145931
0.0145931
0.0145931
0.0145931
0.0145931
0.0145931
0.0145931
0.0145931
0.0145931
0.0145931
0.0145931
0.0145931
0.0145931
0.0145931
0.0145931
0.0145932
0.0145932
0.0145932
0.0145932
0.0145932
0.0145932
0.0145932
0.0145932
0.0145932
0.0145933
0.0145933
0.0145933
0.0145933
0.0145933
0.0145934
0.0145934
0.0145934
0.0145934
0.0145935
0.0145935
0.0145936
0.0145936
0.0145937
0.0145937
0.0145938
0.0145939
0.0145939
0.014594
0.0145941
0.0145942
0.0145943
0.0145945
0.0145946
0.0145948
0.014595
0.0145952
0.0145955
0.0145957
0.014596
0.0145964
0.0145968
0.0145972
0.0145977
0.0145983
0.014599
0.0145997
0.0146005
0.0146014
0.0146024
0.0146035
0.0146048
0.0146063
0.014608
0.01461
0.0146123
0.0146149
0.0146178
0.014621
0.0146245
0.0146284
0.0146328
0.0146379
0.014593
0.014593
0.014593
0.014593
0.014593
0.0145931
0.0145931
0.0145931
0.0145931
0.0145931
0.0145931
0.0145931
0.0145931
0.0145931
0.0145931
0.0145931
0.0145931
0.0145931
0.0145931
0.0145931
0.0145931
0.0145931
0.0145931
0.0145932
0.0145932
0.0145932
0.0145932
0.0145932
0.0145932
0.0145932
0.0145932
0.0145932
0.0145932
0.0145932
0.0145933
0.0145933
0.0145933
0.0145933
0.0145933
0.0145933
0.0145933
0.0145934
0.0145934
0.0145934
0.0145934
0.0145934
0.0145935
0.0145935
0.0145935
0.0145935
0.0145936
0.0145936
0.0145936
0.0145937
0.0145937
0.0145937
0.0145938
0.0145938
0.0145939
0.0145939
0.014594
0.0145941
0.0145941
0.0145942
0.0145943
0.0145944
0.0145945
0.0145946
0.0145947
0.0145949
0.014595
0.0145952
0.0145954
0.0145956
0.0145958
0.0145961
0.0145963
0.0145966
0.014597
0.0145973
0.0145978
0.0145982
0.0145988
0.0145994
0.0146001
0.0146009
0.0146018
0.0146027
0.0146038
0.014605
0.0146063
0.0146077
0.0146094
0.0146114
0.0146136
0.0146162
0.0146191
0.0146224
0.014626
0.01463
0.0146344
0.0146393
0.0146449
0.0146513
0.0146588
0.0146677
0.014678
0.0146898
0.0147031
0.0147178
0.014734
0.0147516
0.014771
0.014793
0.0148189
0.0148499
0.0145931
0.0145931
0.0145931
0.0145931
0.0145931
0.0145931
0.0145931
0.0145931
0.0145932
0.0145932
0.0145932
0.0145932
0.0145932
0.0145932
0.0145932
0.0145933
0.0145933
0.0145933
0.0145933
0.0145933
0.0145934
0.0145934
0.0145934
0.0145934
0.0145934
0.0145935
0.0145935
0.0145935
0.0145936
0.0145936
0.0145936
0.0145937
0.0145937
0.0145937
0.0145938
0.0145938
0.0145938
0.0145939
0.0145939
0.014594
0.014594
0.0145941
0.0145941
0.0145942
0.0145942
0.0145943
0.0145944
0.0145944
0.0145945
0.0145946
0.0145947
0.0145948
0.0145949
0.014595
0.0145951
0.0145952
0.0145953
0.0145954
0.0145955
0.0145957
0.0145958
0.014596
0.0145962
0.0145964
0.0145966
0.0145968
0.0145971
0.0145974
0.0145977
0.014598
0.0145983
0.0145987
0.0145991
0.0145996
0.0146001
0.0146007
0.0146013
0.014602
0.0146029
0.0146038
0.0146048
0.0146058
0.014607
0.0146083
0.0146098
0.0146113
0.0146131
0.0146151
0.0146173
0.0146199
0.0146229
0.0146263
0.01463
0.0146342
0.0146389
0.0146439
0.0146495
0.0146557
0.0146627
0.0146708
0.0146803
0.0146913
0.0147039
0.0147182
0.0147343
0.014752
0.0147714
0.0147926
0.014816
0.0148425
0.0148736
0.0149104
0.0149536
0.0150036
0.0150604
0.0151237
0.0151932
0.0152686
0.0153499
0.0154384
0.0155391
0.0156592
0.0158041
0.0145933
0.0145934
0.0145934
0.0145934
0.0145935
0.0145935
0.0145935
0.0145936
0.0145936
0.0145937
0.0145937
0.0145938
0.0145939
0.0145939
0.014594
0.0145941
0.0145941
0.0145942
0.0145943
0.0145944
0.0145945
0.0145945
0.0145946
0.0145947
0.0145948
0.014595
0.0145951
0.0145952
0.0145953
0.0145954
0.0145956
0.0145957
0.0145959
0.014596
0.0145962
0.0145963
0.0145965
0.0145967
0.0145969
0.014597
0.0145972
0.0145975
0.0145977
0.0145979
0.0145982
0.0145984
0.0145987
0.014599
0.0145993
0.0145997
0.0146
0.0146004
0.0146008
0.0146012
0.0146016
0.0146021
0.0146026
0.0146031
0.0146037
0.0146043
0.014605
0.0146057
0.0146065
0.0146075
0.0146084
0.0146095
0.0146107
0.0146119
0.0146133
0.0146147
0.0146163
0.014618
0.0146198
0.0146219
0.0146242
0.0146268
0.0146298
0.0146331
0.0146368
0.0146409
0.0146454
0.0146504
0.0146558
0.0146617
0.0146682
0.0146753
0.0146834
0.0146926
0.0147032
0.0147154
0.0147294
0.0147452
0.0147629
0.0147824
0.0148038
0.0148271
0.0148526
0.0148809
0.0149132
0.0149508
0.0149948
0.0150457
0.0151039
0.0151693
0.0152418
0.0153211
0.015407
0.0154997
0.0156011
0.0157164
0.0158527
0.0160143
0.0162025
0.0164159
0.0166521
0.016908
0.0171808
0.0174678
0.0177679
0.0180853
0.0184392
0.0188596
0.0193537
0.0145944
0.0145945
0.0145946
0.0145947
0.0145949
0.0145951
0.0145952
0.0145954
0.0145956
0.0145958
0.014596
0.0145962
0.0145965
0.0145967
0.014597
0.0145973
0.0145976
0.0145979
0.0145982
0.0145985
0.0145989
0.0145993
0.0145996
0.0146
0.0146005
0.0146009
0.0146014
0.0146019
0.0146024
0.0146029
0.0146034
0.014604
0.0146046
0.0146052
0.0146058
0.0146065
0.0146071
0.0146079
0.0146086
0.0146094
0.0146102
0.0146111
0.014612
0.014613
0.0146141
0.0146152
0.0146164
0.0146177
0.014619
0.0146204
0.0146219
0.0146234
0.0146251
0.0146268
0.0146286
0.0146305
0.0146326
0.0146348
0.0146372
0.0146399
0.0146429
0.0146461
0.0146497
0.0146536
0.0146579
0.0146625
0.0146675
0.0146729
0.0146787
0.014685
0.0146918
0.0146991
0.0147072
0.0147162
0.0147265
0.0147382
0.0147514
0.0147662
0.0147828
0.0148012
0.0148213
0.0148433
0.0148671
0.0148929
0.0149211
0.0149522
0.0149875
0.0150282
0.0150752
0.0151291
0.0151904
0.015259
0.0153349
0.015418
0.0155082
0.0156053
0.0157103
0.0158263
0.0159595
0.0161153
0.0162966
0.0165035
0.0167348
0.016988
0.0172607
0.0175502
0.0178543
0.0181724
0.0185104
0.0188893
0.0193318
0.0198407
0.0204063
0.0210147
0.0216526
0.0223082
0.0229715
0.0236351
0.0242956
0.0249581
0.0256725
0.0265577
0.0275581
0.0145984
0.0145989
0.0145995
0.0146
0.0146006
0.0146013
0.0146019
0.0146026
0.0146034
0.0146042
0.0146051
0.014606
0.0146069
0.0146079
0.014609
0.01461
0.0146112
0.0146124
0.0146136
0.0146149
0.0146163
0.0146178
0.0146193
0.0146209
0.0146226
0.0146244
0.0146262
0.0146282
0.0146302
0.0146322
0.0146344
0.0146367
0.014639
0.0146414
0.0146438
0.0146464
0.0146491
0.0146519
0.0146548
0.014658
0.0146614
0.0146649
0.0146687
0.0146728
0.014677
0.0146816
0.0146864
0.0146915
0.0146969
0.0147026
0.0147085
0.0147148
0.0147214
0.0147283
0.0147357
0.0147435
0.014752
0.0147613
0.0147715
0.0147828
0.0147953
0.0148091
0.0148242
0.0148406
0.0148585
0.0148779
0.0148988
0.0149213
0.0149455
0.0149714
0.0149993
0.0150296
0.0150632
0.015101
0.015144
0.0151928
0.0152478
0.0153092
0.0153771
0.0154517
0.0155328
0.0156205
0.0157148
0.015816
0.0159252
0.0160456
0.0161826
0.0163409
0.0165229
0.0167289
0.0169578
0.017208
0.0174774
0.0177641
0.0180659
0.0183816
0.0187131
0.0190705
0.019477
0.0199426
0.0204638
0.021031
0.0216335
0.0222605
0.0229025
0.0235511
0.0242002
0.024848
0.0255019
0.0262288
0.0270953
0.0280491
0.0290319
0.0300032
0.0309378
0.0318195
0.0326383
0.0333905
0.0340751
0.0346911
0.0352388
0.0357095
0.0361171
0.0364749
0.0367889
0.0146145
0.0146164
0.0146184
0.0146206
0.0146229
0.0146254
0.014628
0.0146308
0.0146337
0.0146369
0.0146402
0.0146437
0.0146473
0.0146512
0.0146552
0.0146593
0.0146637
0.0146683
0.0146731
0.0146782
0.0146835
0.0146891
0.0146949
0.0147011
0.0147076
0.0147143
0.0147214
0.0147288
0.0147364
0.0147444
0.0147526
0.0147611
0.0147699
0.0147789
0.0147883
0.0147981
0.0148083
0.0148191
0.0148306
0.0148429
0.014856
0.01487
0.014885
0.0149008
0.0149176
0.0149355
0.0149543
0.0149742
0.0149951
0.0150171
0.0150402
0.0150644
0.0150898
0.0151165
0.0151447
0.0151749
0.0152078
0.0152441
0.0152841
0.0153283
0.0153769
0.0154301
0.0154881
0.015551
0.015619
0.0156921
0.0157705
0.0158542
0.0159435
0.0160384
0.0161397
0.0162492
0.0163708
0.0165084
0.0166645
0.0168401
0.0170351
0.0172487
0.0174798
0.0177274
0.0179902
0.0182673
0.0185576
0.0188608
0.0191799
0.019525
0.0199142
0.0203539
0.0208412
0.0213688
0.0219285
0.0225123
0.0231126
0.0237227
0.0243368
0.0249515
0.0255686
0.0262053
0.0269532
0.0277983
0.0286924
0.0295965
0.030484
0.0313374
0.0321439
0.032895
0.0335884
0.0342229
0.0347973
0.0353088
0.0357546
0.0361442
0.036487
0.0367914
0.0370596
0.0372933
0.0374973
0.0376739
0.037823
0.0379454
0.038042
0.0381174
0.0381795
0.0382318
0.0382769
0.0146759
0.0146831
0.0146908
0.014699
0.0147077
0.014717
0.0147269
0.0147373
0.0147484
0.0147601
0.0147724
0.0147853
0.0147988
0.0148129
0.0148276
0.0148429
0.0148589
0.0148757
0.0148934
0.0149121
0.0149317
0.0149523
0.014974
0.0149968
0.0150206
0.0150454
0.0150713
0.0150982
0.015126
0.0151548
0.0151844
0.0152149
0.0152463
0.0152785
0.0153117
0.0153465
0.0153831
0.0154219
0.0154633
0.0155073
0.0155542
0.015604
0.0156569
0.0157128
0.0157719
0.0158341
0.0158996
0.0159682
0.0160401
0.0161152
0.0161936
0.0162753
0.0163605
0.0164493
0.0165428
0.0166431
0.0167528
0.0168739
0.0170075
0.0171539
0.0173131
0.0174849
0.017669
0.0178653
0.0180734
0.0182931
0.018524
0.0187659
0.0190185
0.0192815
0.0195563
0.0198481
0.0201696
0.0205286
0.0209252
0.0213556
0.0218154
0.0222996
0.0228036
0.023323
0.0238537
0.0243923
0.0249358
0.0254828
0.0260364
0.0266172
0.0272945
0.028046
0.0288381
0.0296428
0.0304391
0.0312121
0.0319514
0.0326495
0.033302
0.0339083
0.0344664
0.0349761
0.0354286
0.0358297
0.0361863
0.036504
0.0367885
0.0370421
0.0372651
0.0374603
0.0376313
0.0377771
0.0378982
0.0379969
0.0380767
0.0381437
0.0382028
0.0382548
0.0383016
0.0383454
0.0383836
0.0384175
0.038451
0.0384814
0.0385069
0.038527
0.0385417
0.0385534
0.0385647
0.0148774
0.0149018
0.0149278
0.0149554
0.0149849
0.0150163
0.0150496
0.0150849
0.0151222
0.0151615
0.0152027
0.0152458
0.0152908
0.0153375
0.015386
0.0154362
0.0154884
0.0155428
0.0155998
0.0156596
0.0157222
0.0157877
0.0158562
0.0159276
0.0160019
0.0160791
0.016159
0.0162415
0.0163265
0.0164138
0.0165032
0.0165946
0.0166878
0.0167827
0.0168795
0.0169791
0.0170832
0.0171932
0.01731
0.0174341
0.0175656
0.0177045
0.0178506
0.0180038
0.0181637
0.0183302
0.0185031
0.0186821
0.0188672
0.019058
0.0192544
0.0194562
0.0196634
0.0198759
0.0200941
0.0203209
0.0205628
0.0208261
0.0211125
0.0214208
0.0217492
0.0220961
0.02246
0.0228393
0.0232325
0.0236379
0.0240541
0.0244793
0.0249123
0.0253515
0.025796
0.0262469
0.026711
0.0272331
0.0278205
0.0284509
0.029104
0.0297646
0.0304214
0.0310657
0.031691
0.0322929
0.0328677
0.033413
0.0339283
0.0344119
0.0348623
0.0352701
0.0356397
0.0359765
0.0362825
0.0365585
0.0368089
0.0370355
0.0372367
0.0374132
0.037567
0.0376992
0.0378112
0.0379047
0.0379835
0.0380522
0.0381145
0.0381706
0.0382204
0.0382673
0.038312
0.0383517
0.0383887
0.0384245
0.0384552
0.0384801
0.0385009
0.0385189
0.0385359
0.0385531
0.0385699
0.0385867
0.0386052
0.0386217
0.0386365
0.0386518
0.0386642
0.0386739
0.0386811
0.0386867
0.0155987
0.0156797
0.0157654
0.0158561
0.0159519
0.0160527
0.0161585
0.0162692
0.0163847
0.0165047
0.0166291
0.0167574
0.0168893
0.0170245
0.0171628
0.0173046
0.0174507
0.0176023
0.0177599
0.0179237
0.0180939
0.01827
0.0184518
0.0186387
0.0188303
0.019026
0.0192253
0.0194275
0.0196321
0.0198386
0.0200464
0.020255
0.020464
0.0206732
0.0208836
0.0210982
0.0213217
0.0215562
0.0218015
0.0220569
0.0223216
0.0225949
0.0228762
0.0231648
0.02346
0.0237611
0.0240674
0.0243782
0.0246928
0.0250107
0.0253315
0.0256546
0.0259797
0.0263066
0.0266358
0.0269707
0.0273313
0.027734
0.0281691
0.0286256
0.0290955
0.029573
0.0300539
0.0305346
0.0310121
0.031484
0.0319477
0.032401
0.032842
0.033269
0.0336809
0.0340766
0.0344546
0.0348085
0.0351374
0.0354434
0.035728
0.0359933
0.0362391
0.0364658
0.0366747
0.0368655
0.0370382
0.0371946
0.037335
0.0374598
0.0375698
0.0376656
0.0377505
0.0378273
0.0378963
0.0379605
0.0380201
0.0380733
0.0381261
0.038179
0.0382276
0.0382717
0.0383131
0.0383488
0.038379
0.038406
0.0384305
0.0384533
0.0384761
0.0384995
0.0385207
0.0385412
0.038564
0.0385856
0.0386046
0.0386223
0.0386372
0.0386503
0.0386615
0.0386724
0.0386832
0.0386949
0.0387085
0.0387222
0.0387356
0.0387493
0.0387621
0.038773
0.0387817
0.0387885
0.0387942
0.0387994
0.0177422
0.0179588
0.0181848
0.0184201
0.0186645
0.0189172
0.0191776
0.0194447
0.0197174
0.0199947
0.0202753
0.0205582
0.0208421
0.0211262
0.02141
0.0216953
0.0219855
0.0222818
0.0225836
0.0228899
0.0231997
0.023512
0.023826
0.024141
0.0244561
0.0247705
0.0250834
0.0253939
0.0257013
0.0260049
0.026304
0.0265981
0.0268868
0.0271703
0.0274502
0.0277336
0.0280389
0.0283622
0.0286978
0.0290412
0.029389
0.0297385
0.0300878
0.0304353
0.0307798
0.0311203
0.031456
0.0317859
0.0321096
0.0324264
0.0327358
0.0330376
0.0333312
0.0336165
0.0338936
0.0341621
0.0344194
0.0346633
0.0348953
0.0351167
0.0353283
0.0355305
0.0357236
0.0359079
0.0360831
0.0362493
0.0364064
0.0365544
0.0366933
0.0368229
0.0369439
0.037056
0.0371591
0.0372539
0.0373412
0.037422
0.0374988
0.0375714
0.0376404
0.0377101
0.0377774
0.0378408
0.0379047
0.037965
0.03802
0.0380731
0.0381214
0.0381646
0.038204
0.0382388
0.0382716
0.0383033
0.0383321
0.0383589
0.0383885
0.038415
0.0384389
0.0384654
0.0384933
0.0385169
0.0385378
0.0385573
0.0385753
0.0385918
0.0386074
0.0386241
0.0386408
0.0386572
0.0386762
0.038695
0.0387129
0.0387301
0.0387462
0.0387606
0.0387729
0.038784
0.0387946
0.0388053
0.0388172
0.0388298
0.0388424
0.038855
0.0388673
0.0388788
0.0388888
0.0388971
0.0389041
0.03891
0.0225275
0.0229332
0.0233447
0.0237598
0.0241764
0.0245927
0.0250071
0.0254181
0.0258246
0.0262253
0.026619
0.0270046
0.027381
0.0277475
0.028104
0.0284554
0.028818
0.0291884
0.0295619
0.0299346
0.0303032
0.0306653
0.0310188
0.0313622
0.0316944
0.0320145
0.032322
0.0326165
0.0328979
0.033166
0.0334206
0.033662
0.0338903
0.0341067
0.0343121
0.0345069
0.034689
0.0348603
0.0350222
0.0351757
0.0353214
0.0354599
0.0355915
0.0357165
0.0358352
0.0359478
0.0360547
0.0361563
0.0362529
0.0363447
0.0364321
0.0365154
0.0365947
0.0366705
0.036743
0.0368126
0.0368796
0.0369451
0.0370102
0.0370756
0.0371414
0.0372074
0.0372733
0.0373387
0.0374032
0.0374665
0.0375283
0.0375885
0.0376466
0.0377027
0.0377567
0.0378078
0.0378568
0.0379032
0.0379455
0.0379857
0.0380244
0.0380591
0.0380934
0.0381286
0.0381606
0.038195
0.0382311
0.0382627
0.0382958
0.0383289
0.0383576
0.0383873
0.0384146
0.0384382
0.0384626
0.0384854
0.0385056
0.0385273
0.0385514
0.0385724
0.0385911
0.038611
0.0386344
0.0386555
0.0386751
0.0386938
0.0387115
0.0387278
0.0387423
0.0387573
0.0387729
0.0387883
0.0388047
0.0388215
0.0388383
0.0388548
0.0388709
0.0388862
0.0389
0.0389122
0.0389236
0.0389344
0.0389454
0.0389571
0.0389693
0.0389817
0.0389941
0.039006
0.039017
0.0390267
0.0390349
0.039042
0.0295404
0.0300225
0.0305034
0.0309781
0.031442
0.0318916
0.0323241
0.0327371
0.0331293
0.0334997
0.0338478
0.0341733
0.0344761
0.0347566
0.035015
0.0352514
0.0354641
0.0356562
0.0358307
0.0359894
0.036134
0.0362654
0.0363845
0.0364921
0.0365888
0.0366752
0.0367519
0.0368197
0.036879
0.0369304
0.0369744
0.0370116
0.037044
0.0370738
0.0371025
0.037131
0.0371594
0.0371881
0.0372173
0.037247
0.0372771
0.0373075
0.0373379
0.0373683
0.0373984
0.0374282
0.0374575
0.0374864
0.0375149
0.037543
0.0375707
0.037598
0.0376249
0.0376512
0.0376769
0.037702
0.0377263
0.0377501
0.0377737
0.0377981
0.037824
0.0378517
0.0378807
0.0379111
0.0379423
0.0379743
0.038007
0.0380399