/*--------------------------------*- C++ -*----------------------------------*\
| =========                 |                                                 |
| \\      /  F ield         | OpenFOAM: The Open Source CFD Toolbox           |
|  \\    /   O peration     | Version:  v1706                                 |
|   \\  /    A nd           | Web:      www.OpenFOAM.com                      |
|    \\/     M anipulation  |                                                 |
\*---------------------------------------------------------------------------*/
FoamFile
{
    version     2.0;
    format      ascii;
    class       volScalarField;
    location    "3.4e-05";
    object      Mach;
}
// * * * * * * * * * * * * * * * * * * * * * * * * * * * * * * * * * * * * * //

dimensions      [0 0 0 0 0 0 0];


internalField   nonuniform List<scalar> 
29871
(
7.18506
7.18506
7.18506
7.18506
7.18506
7.18506
7.18506
7.18506
7.18506
7.18506
7.18506
7.18506
7.18506
7.18506
7.18506
7.18506
7.18506
7.18506
7.18506
7.18506
7.18506
7.18506
7.18506
7.18506
7.18506
7.18506
7.18506
7.18506
7.18506
7.18506
7.18506
7.18506
7.18506
7.18506
7.18506
7.18506
7.18506
7.18506
7.18506
7.18506
7.18506
7.18506
7.18506
7.18506
7.18506
7.18506
7.18506
7.18506
7.18506
7.18506
7.18506
7.18506
7.18506
7.18506
7.18506
7.18506
7.18506
7.18506
7.18506
7.18506
7.18506
7.18506
7.18506
7.18506
7.18506
7.18506
7.18506
7.18506
7.18506
7.18506
7.18506
7.18506
7.18506
7.18506
7.18506
7.18506
7.18506
7.18506
7.18506
7.18506
7.18506
7.18506
7.18506
7.18506
7.18506
7.18506
7.18506
7.18506
7.18506
7.18506
7.18506
7.18506
7.18506
7.18506
7.18506
7.18506
7.18506
7.18506
7.18506
7.18506
7.18506
7.18506
7.18506
7.18506
7.18506
7.18506
7.18506
7.18506
7.18506
7.18506
7.18506
7.18506
7.18506
7.18506
7.18506
7.18506
7.18506
7.18506
7.18506
7.18506
7.18506
7.18506
7.18506
7.18506
7.18506
7.18506
7.18506
7.18506
7.18506
7.18506
7.18506
7.18506
7.18506
7.18506
7.18506
7.18506
7.18506
7.18506
7.18506
7.18506
7.18506
7.18506
7.18506
7.18506
7.18506
7.18506
7.18506
7.18506
7.18506
7.18506
7.18506
7.18506
7.18506
7.18506
7.18506
7.18506
7.18506
7.18506
7.18506
7.18506
7.18506
7.18506
7.18506
7.18506
7.18506
7.18506
7.18506
7.18506
7.18506
7.18506
7.18506
7.18506
7.18506
7.18506
7.18506
7.18506
7.18506
7.18506
7.18506
7.18506
7.18506
7.18506
7.18506
7.18506
7.18506
7.18506
7.18506
7.18506
7.18506
7.18506
7.18506
7.18506
7.18506
7.18506
7.18506
7.18506
7.18506
7.18506
7.18506
7.18506
7.18506
7.18506
7.18506
7.18506
7.18506
7.18506
7.18506
7.18506
7.18506
7.18506
7.18506
7.18506
7.18506
7.18506
7.18506
7.18506
7.18506
7.18506
7.18506
7.18506
7.18506
7.18506
7.18506
7.18506
7.18506
7.18506
7.18506
7.18506
7.18506
7.18506
7.18506
7.18506
7.18506
7.18506
7.18506
7.18506
7.18506
7.18506
7.18506
7.18506
7.18506
7.18506
7.18506
7.18506
7.18506
7.18506
7.18506
7.18506
7.18506
7.18506
7.18506
7.18506
7.18506
7.18506
7.18506
7.18506
7.18506
7.18506
7.18506
7.18506
7.18506
7.18506
7.18506
7.18506
7.18506
7.18506
7.18506
7.18506
7.18506
7.18506
7.18506
7.18506
7.18506
7.18506
7.18506
7.18506
7.18506
7.18506
7.18506
7.18506
7.18506
7.18506
7.18506
7.18506
7.18506
7.18506
7.18506
7.18506
7.18506
7.18506
7.18506
7.18506
7.18506
7.18506
7.18506
7.18506
7.18506
7.18506
7.18506
7.18506
7.18506
7.18506
7.18506
7.18506
7.18506
7.18506
7.18506
7.18506
7.18506
7.18506
7.18506
7.18506
7.18506
7.18506
7.18506
7.18506
7.18506
7.18506
7.18506
7.18506
7.18506
7.18506
7.18506
7.18506
7.18506
7.18506
7.18506
7.18506
7.18506
7.18506
7.18506
7.18506
7.18506
7.18506
7.18506
7.18506
7.18506
7.18506
7.18506
7.18506
7.18506
7.18506
7.18506
7.18506
7.18506
7.18506
7.18506
7.18506
7.18506
7.18506
7.18506
7.18506
7.18506
7.18506
7.18506
7.18506
7.18506
7.18506
7.18506
7.18506
7.18506
7.18506
7.18506
7.18506
7.18506
7.18506
7.18506
7.18506
7.18506
7.18506
7.18506
7.18506
7.18506
7.18506
7.18506
7.18506
7.18506
7.18506
7.18506
7.18506
7.18506
7.18506
7.18506
7.18506
7.18506
7.18506
7.18506
7.18506
7.18506
7.18506
7.18506
7.18506
7.18506
7.18506
7.18506
7.18506
7.18506
7.18506
7.18506
7.18506
7.18506
7.18506
7.18506
7.18506
7.18506
7.18506
7.18506
7.18506
7.18506
7.18506
7.18506
7.18506
7.18506
7.18506
7.18506
7.18506
7.18506
7.18506
7.18506
7.18506
7.18506
7.18506
7.18506
7.18506
7.18506
7.18506
7.18506
7.18506
7.18506
7.18506
7.18506
7.18506
7.18506
7.18506
7.18506
7.18506
7.18506
7.18506
7.18506
7.18506
7.18506
7.18506
7.18506
7.18506
7.18506
7.18506
7.18506
7.18506
7.18506
7.18506
7.18506
7.18506
7.18506
7.18506
7.18506
7.18506
7.18506
7.18506
7.18506
7.18506
7.18506
7.18506
7.18506
7.18506
7.18506
7.18506
7.18506
7.18506
7.18506
7.18506
7.18506
7.18506
7.18506
7.18506
7.18506
7.18506
7.18506
7.18506
7.18506
7.18506
7.18506
7.18506
7.18506
7.18506
7.18506
7.18506
7.18506
7.18506
7.18506
7.18506
7.18506
7.18506
7.18506
7.18506
7.18506
7.18506
7.18506
7.18506
7.18506
7.18506
7.18506
7.18506
7.18506
7.18506
7.18506
7.18506
7.18506
7.18506
7.18506
7.18506
7.18506
7.18506
7.18506
7.18506
7.18506
7.18506
7.18506
7.18506
7.18506
7.18506
7.18506
7.18506
7.18506
7.18506
7.18506
7.18506
7.18506
7.18506
7.18506
7.18506
7.18506
7.18506
7.18506
7.18506
7.18506
7.18506
7.18506
7.18506
7.18506
7.18506
7.18506
7.18506
7.18506
7.18506
7.18506
7.18506
7.18506
7.18506
7.18506
7.18506
7.18506
7.18506
7.18506
7.18506
7.18506
7.18506
7.18506
7.18506
7.18506
7.18506
7.18506
7.18506
7.18506
7.18506
7.18506
7.18506
7.18506
7.18506
7.18506
7.18506
7.18506
7.18506
7.18506
7.18506
7.18506
7.18506
7.18506
7.18506
7.18506
7.18506
7.18506
7.18506
7.18506
7.18506
7.18506
7.18506
7.18506
7.18506
7.18506
7.18506
7.18506
7.18506
7.18506
7.18506
7.18506
7.18506
7.18506
7.18506
7.18506
7.18506
7.18506
7.18506
7.18506
7.18506
7.18506
7.18506
7.18506
7.18506
7.18506
7.18506
7.18506
7.18506
7.18506
7.18506
7.18506
7.18506
7.18506
7.18506
7.18506
7.18506
7.18506
7.18506
7.18506
7.18506
7.18506
7.18506
7.18506
7.18506
7.18506
7.18506
7.18506
7.18506
7.18506
7.18506
7.18506
7.18506
7.18506
7.18506
7.18506
7.18506
7.18506
7.18506
7.18506
7.18506
7.18506
7.18506
7.18506
7.18506
7.18506
7.18506
7.18506
7.18506
7.18506
7.18506
7.18506
7.18506
7.18506
7.18506
7.18506
7.18506
7.18506
7.18506
7.18506
7.18506
7.18506
7.18506
7.18506
7.18506
7.18506
7.18506
7.18506
7.18506
7.18506
7.18506
7.18506
7.18506
7.18506
7.18506
7.18506
7.18506
7.18506
7.18506
7.18506
7.18506
7.18506
7.18506
7.18506
7.18506
7.18506
7.18506
7.18506
7.18506
7.18506
7.18506
7.18506
7.18506
7.18506
7.18506
7.18506
7.18506
7.18506
7.18506
7.18506
7.18506
7.18506
7.18506
7.18506
7.18506
7.18506
7.18506
7.18506
7.18506
7.18506
7.18506
7.18506
7.18506
7.18506
7.18506
7.18506
7.18506
7.18506
7.18506
7.18506
7.18506
7.18506
7.18506
7.18506
7.18506
7.18506
7.18506
7.18506
7.18506
7.18506
7.18506
7.18506
7.18506
7.18506
7.18506
7.18506
7.18506
7.18506
7.18506
7.18506
7.18506
7.18506
7.18506
7.18506
7.18506
7.18506
7.18506
7.18506
7.18506
7.18506
7.18506
7.18506
7.18506
7.18506
7.18506
7.18506
7.18506
7.18506
7.18506
7.18506
7.18506
7.18506
7.18506
7.18506
7.18506
7.18506
7.18506
7.18506
7.18506
7.18506
7.18506
7.18506
7.18506
7.18506
7.18506
7.18506
7.18506
7.18506
7.18506
7.18506
7.18506
7.18506
7.18506
7.18506
7.18506
7.18506
7.18506
7.18506
7.18506
7.18506
7.18506
7.18506
7.18506
7.18506
7.18506
7.18506
7.18506
7.18506
7.18506
7.18506
7.18506
7.18506
7.18506
7.18506
7.18506
7.18506
7.18506
7.18506
7.18506
7.18506
7.18506
7.18506
7.18506
7.18506
7.18506
7.18506
7.18506
7.18506
7.18506
7.18506
7.18506
7.18506
7.18506
7.18506
7.18506
7.18506
7.18506
7.18506
7.18506
7.18506
7.18506
7.18506
7.18506
7.18506
7.18506
7.18506
7.18506
7.18506
7.18506
7.18506
7.18506
7.18506
7.18506
7.18506
7.18506
7.18506
7.18506
7.18506
7.18506
7.18506
7.18506
7.18506
7.18506
7.18506
7.18506
7.18506
7.18506
7.18506
7.18506
7.18506
7.18506
7.18506
7.18506
7.18506
7.18506
7.18506
7.18506
7.18506
7.18506
7.18506
7.18506
7.18506
7.18506
7.18506
7.18506
7.18506
7.18506
7.18506
7.18506
7.18506
7.18506
7.18506
7.18506
7.18506
7.18506
7.18506
7.18506
7.18506
7.18506
7.18506
7.18506
7.18506
7.18506
7.18506
7.18506
7.18506
7.18506
7.18506
7.18506
7.18506
7.18506
7.18506
7.18506
7.18506
7.18506
7.18506
7.18506
7.18506
7.18506
7.18506
7.18506
7.18506
7.18506
7.18506
7.18506
7.18506
7.18506
7.18506
7.18506
7.18506
7.18506
7.18506
7.18506
7.18506
7.18506
7.18506
7.18506
7.18506
7.18506
7.18506
7.18506
7.18506
7.18506
7.18506
7.18506
7.18506
7.18506
7.18506
7.18506
7.18506
7.18506
7.18506
7.18506
7.18506
7.18506
7.18506
7.18506
7.18506
7.18506
7.18506
7.18506
7.18506
7.18506
7.18506
7.18506
7.18506
7.18506
7.18506
7.18506
7.18506
7.18506
7.18506
7.18506
7.18506
7.18506
7.18506
7.18506
7.18506
7.18506
7.18506
7.18506
7.18506
7.18506
7.18506
7.18506
7.18506
7.18506
7.18506
7.18506
7.18506
7.18506
7.18506
7.18506
7.18506
7.18506
7.18506
7.18506
7.18506
7.18506
7.18506
7.18506
7.18506
7.18506
7.18506
7.18506
7.18506
7.18506
7.18506
7.18506
7.18506
7.18506
7.18506
7.18506
7.18506
7.18506
7.18506
7.18506
7.18506
7.18506
7.18506
7.18506
7.18506
7.18506
7.18506
7.18506
7.18506
7.18506
7.18506
7.18506
7.18506
7.18506
7.18506
7.18506
7.18506
7.18506
7.18506
7.18506
7.18506
7.18506
7.18506
7.18506
7.18506
7.18506
7.18506
7.18506
7.18506
7.18506
7.18506
7.18506
7.18506
7.18506
7.18506
7.18506
7.18506
7.18506
7.18506
7.18506
7.18506
7.18506
7.18506
7.18506
7.18506
7.18506
7.18506
7.18506
7.18506
7.18506
7.18506
7.18506
7.18506
7.18506
7.18506
7.18506
7.18506
7.18506
7.18506
7.18506
7.18506
7.18506
7.18506
7.18506
7.18506
7.18506
7.18506
7.18506
7.18506
7.18506
7.18506
7.18506
7.18506
7.18506
7.18506
7.18506
7.18506
7.18506
7.18506
7.18506
7.18506
7.18506
7.18506
7.18506
7.18506
7.18506
7.18506
7.18506
7.18506
7.18506
7.18506
7.18506
7.18506
7.18506
7.18506
7.18506
7.18506
7.18506
7.18506
7.18506
7.18506
7.18506
7.18506
7.18506
7.18506
7.18506
7.18506
7.18506
7.18506
7.18506
7.18506
7.18506
7.18506
7.18506
7.18506
7.18506
7.18506
7.18506
7.18506
7.18506
7.18506
7.18506
7.18506
7.18506
7.18506
7.18506
7.18506
7.18506
7.18506
7.18506
7.18506
7.18506
7.18506
7.18506
7.18506
7.18506
7.18506
7.18506
7.18506
7.18506
7.18506
7.18506
7.18506
7.18506
7.18506
7.18506
7.18506
7.18506
7.18506
7.18506
7.18506
7.18506
7.18506
7.18506
7.18506
7.18506
7.18506
7.18506
7.18506
7.18506
7.18506
7.18506
7.18506
7.18506
7.18506
7.18506
7.18506
7.18506
7.18506
7.18506
7.18506
7.18505
7.18505
7.18505
7.18505
7.18505
7.18506
7.18506
7.18506
7.18506
7.18506
7.18506
7.18506
7.18506
7.18506
7.18506
7.18506
7.18506
7.18506
7.18506
7.18506
7.18506
7.18506
7.18506
7.18506
7.18506
7.18506
7.18506
7.18506
7.18506
7.18506
7.18506
7.18506
7.18506
7.18506
7.18506
7.18506
7.18506
7.18506
7.18506
7.18506
7.18506
7.18506
7.18506
7.18506
7.18506
7.18506
7.18506
7.18506
7.18506
7.18506
7.18506
7.18506
7.18506
7.18506
7.18506
7.18506
7.18506
7.18506
7.18506
7.18506
7.18506
7.18506
7.18506
7.18506
7.18506
7.18506
7.18506
7.18506
7.18506
7.18506
7.18506
7.18506
7.18506
7.18506
7.18506
7.18506
7.18506
7.18506
7.18506
7.18506
7.18506
7.18506
7.18506
7.18506
7.18506
7.18506
7.18506
7.18506
7.18506
7.18506
7.18506
7.18506
7.18506
7.18506
7.18506
7.18505
7.18505
7.18505
7.18505
7.18505
7.18505
7.18505
7.18504
7.18504
7.18504
7.18504
7.18503
7.18503
7.18502
7.18502
7.18501
7.18501
7.185
7.18499
7.18498
7.18497
7.18506
7.18506
7.18506
7.18506
7.18506
7.18506
7.18506
7.18506
7.18506
7.18506
7.18506
7.18506
7.18506
7.18506
7.18506
7.18506
7.18506
7.18506
7.18506
7.18506
7.18506
7.18506
7.18506
7.18506
7.18506
7.18506
7.18506
7.18506
7.18506
7.18506
7.18506
7.18506
7.18506
7.18506
7.18506
7.18506
7.18506
7.18506
7.18506
7.18506
7.18506
7.18506
7.18506
7.18506
7.18506
7.18506
7.18506
7.18506
7.18506
7.18506
7.18506
7.18506
7.18506
7.18506
7.18506
7.18506
7.18506
7.18506
7.18506
7.18506
7.18506
7.18506
7.18506
7.18506
7.18506
7.18506
7.18506
7.18506
7.18506
7.18506
7.18506
7.18506
7.18505
7.18505
7.18505
7.18505
7.18505
7.18505
7.18505
7.18505
7.18505
7.18504
7.18504
7.18504
7.18504
7.18503
7.18503
7.18503
7.18502
7.18502
7.18501
7.18501
7.185
7.18499
7.18499
7.18498
7.18497
7.18496
7.18494
7.18493
7.18491
7.1849
7.18488
7.18485
7.18482
7.18479
7.18476
7.18472
7.18467
7.18462
7.18457
7.18451
7.18444
7.18506
7.18506
7.18506
7.18506
7.18506
7.18506
7.18506
7.18506
7.18506
7.18506
7.18506
7.18506
7.18506
7.18506
7.18506
7.18506
7.18506
7.18506
7.18506
7.18506
7.18506
7.18506
7.18506
7.18506
7.18506
7.18506
7.18506
7.18506
7.18506
7.18506
7.18506
7.18506
7.18506
7.18506
7.18506
7.18506
7.18506
7.18506
7.18506
7.18506
7.18506
7.18506
7.18506
7.18506
7.18506
7.18506
7.18506
7.18505
7.18505
7.18505
7.18505
7.18505
7.18505
7.18505
7.18505
7.18505
7.18505
7.18505
7.18505
7.18505
7.18504
7.18504
7.18504
7.18504
7.18504
7.18504
7.18503
7.18503
7.18503
7.18503
7.18502
7.18502
7.18502
7.18501
7.18501
7.185
7.185
7.18499
7.18499
7.18498
7.18497
7.18496
7.18495
7.18494
7.18492
7.18491
7.18489
7.18488
7.18486
7.18483
7.18481
7.18478
7.18475
7.18471
7.18467
7.18462
7.18456
7.1845
7.18444
7.18436
7.18428
7.18419
7.18408
7.18395
7.18381
7.18364
7.18346
7.18325
7.18302
7.18277
7.18249
7.18217
7.1818
7.18506
7.18506
7.18506
7.18506
7.18506
7.18506
7.18506
7.18506
7.18506
7.18506
7.18506
7.18506
7.18506
7.18506
7.18506
7.18506
7.18506
7.18506
7.18506
7.18505
7.18505
7.18505
7.18505
7.18505
7.18505
7.18505
7.18505
7.18505
7.18505
7.18505
7.18505
7.18505
7.18504
7.18504
7.18504
7.18504
7.18504
7.18504
7.18504
7.18504
7.18504
7.18503
7.18503
7.18503
7.18503
7.18503
7.18503
7.18502
7.18502
7.18502
7.18502
7.18502
7.18501
7.18501
7.18501
7.185
7.185
7.185
7.18499
7.18499
7.18498
7.18498
7.18497
7.18496
7.18496
7.18495
7.18494
7.18493
7.18492
7.18491
7.1849
7.18489
7.18487
7.18486
7.18484
7.18482
7.1848
7.18477
7.18475
7.18472
7.18469
7.18465
7.18461
7.18456
7.18451
7.18445
7.18438
7.1843
7.18422
7.18413
7.18403
7.18392
7.18379
7.18364
7.18348
7.18328
7.18307
7.18282
7.18255
7.18225
7.18192
7.18155
7.18114
7.18066
7.1801
7.17944
7.17868
7.17781
7.17682
7.17573
7.17452
7.17321
7.17175
7.1701
7.16818
7.18505
7.18505
7.18505
7.18505
7.18505
7.18505
7.18505
7.18504
7.18504
7.18504
7.18504
7.18504
7.18504
7.18503
7.18503
7.18503
7.18503
7.18503
7.18502
7.18502
7.18502
7.18502
7.18501
7.18501
7.18501
7.185
7.185
7.185
7.18499
7.18499
7.18499
7.18498
7.18498
7.18497
7.18497
7.18497
7.18496
7.18496
7.18495
7.18494
7.18494
7.18493
7.18493
7.18492
7.18491
7.1849
7.18489
7.18489
7.18488
7.18487
7.18486
7.18485
7.18483
7.18482
7.18481
7.18479
7.18478
7.18476
7.18474
7.18472
7.18469
7.18467
7.18464
7.18461
7.18458
7.18455
7.18451
7.18447
7.18443
7.18437
7.18432
7.18425
7.18418
7.1841
7.18401
7.18391
7.18381
7.1837
7.18357
7.18343
7.18327
7.1831
7.18289
7.18266
7.1824
7.18211
7.18178
7.18142
7.18103
7.18059
7.18011
7.17956
7.17894
7.17821
7.17736
7.17639
7.17528
7.17405
7.17267
7.17117
7.16951
7.16769
7.16562
7.16322
7.16041
7.15712
7.15332
7.149
7.14416
7.13881
7.13294
7.12652
7.11946
7.11144
7.10193
7.09046
7.18504
7.18503
7.18503
7.18503
7.18502
7.18502
7.18502
7.18501
7.18501
7.185
7.185
7.18499
7.18499
7.18498
7.18498
7.18497
7.18496
7.18496
7.18495
7.18494
7.18494
7.18493
7.18492
7.18491
7.1849
7.18489
7.18488
7.18487
7.18486
7.18485
7.18483
7.18482
7.18481
7.18479
7.18478
7.18476
7.18475
7.18473
7.18472
7.1847
7.18468
7.18466
7.18464
7.18462
7.1846
7.18458
7.18455
7.18453
7.1845
7.18447
7.18444
7.18441
7.18437
7.18434
7.1843
7.18426
7.18422
7.18418
7.18413
7.18407
7.18402
7.18395
7.18388
7.18381
7.18372
7.18363
7.18354
7.18343
7.18332
7.18319
7.18306
7.18292
7.18277
7.18259
7.1824
7.18219
7.18195
7.18168
7.18138
7.18104
7.18068
7.18027
7.17983
7.17935
7.17883
7.17825
7.1776
7.17685
7.176
7.17502
7.1739
7.17263
7.17121
7.16964
7.16791
7.16601
7.16394
7.16164
7.15903
7.15601
7.1525
7.14845
7.14382
7.13861
7.13279
7.12637
7.11934
7.11166
7.1032
7.09357
7.08225
7.0688
7.053
7.03484
7.01444
6.99192
6.96745
6.94118
6.91314
6.88282
6.84861
6.8082
6.7603
7.18494
7.18493
7.18492
7.18491
7.18489
7.18488
7.18486
7.18485
7.18483
7.18481
7.18479
7.18477
7.18475
7.18472
7.1847
7.18467
7.18465
7.18462
7.18459
7.18456
7.18453
7.18449
7.18446
7.18442
7.18438
7.18434
7.1843
7.18425
7.18421
7.18416
7.18411
7.18406
7.184
7.18395
7.18389
7.18383
7.18377
7.1837
7.18364
7.18357
7.18349
7.18341
7.18333
7.18324
7.18314
7.18304
7.18293
7.18282
7.1827
7.18257
7.18244
7.1823
7.18216
7.18201
7.18185
7.18168
7.1815
7.1813
7.18109
7.18085
7.1806
7.18032
7.18001
7.17968
7.17932
7.17892
7.1785
7.17804
7.17754
7.17701
7.17643
7.1758
7.17512
7.17435
7.17349
7.17251
7.1714
7.17015
7.16876
7.16722
7.16552
7.16366
7.16164
7.15945
7.15706
7.15441
7.15143
7.14802
7.1441
7.13961
7.1345
7.12877
7.12239
7.11535
7.10765
7.09925
7.09008
7.0799
7.06827
7.05467
7.03875
7.02037
6.99953
6.97634
6.95092
6.9234
6.89393
6.86247
6.82836
6.78989
6.745
6.69275
6.63339
6.56776
6.49689
6.42183
6.34367
6.26326
6.18098
6.09645
6.00425
5.89602
5.77229
7.18456
7.18452
7.18447
7.18442
7.18436
7.1843
7.18424
7.18417
7.1841
7.18402
7.18394
7.18386
7.18377
7.18368
7.18358
7.18348
7.18337
7.18326
7.18314
7.18302
7.18289
7.18275
7.18261
7.18246
7.1823
7.18213
7.18196
7.18178
7.18159
7.18139
7.18118
7.18097
7.18075
7.18053
7.1803
7.18005
7.1798
7.17954
7.17926
7.17897
7.17866
7.17834
7.17799
7.17762
7.17723
7.17682
7.17638
7.17592
7.17543
7.17492
7.17438
7.17381
7.17321
7.17258
7.17192
7.17121
7.17045
7.16962
7.16871
7.16771
7.1666
7.16538
7.16404
7.16258
7.16099
7.15927
7.15741
7.1554
7.15325
7.15094
7.14845
7.14574
7.14276
7.13942
7.13564
7.13137
7.12655
7.12116
7.11518
7.10859
7.10137
7.0935
7.08497
7.07573
7.06568
7.05458
7.04199
7.02744
7.01062
6.99136
6.96967
6.94559
6.91923
6.8907
6.86009
6.82749
6.79262
6.75447
6.71115
6.66125
6.60443
6.54115
6.47222
6.39856
6.32113
6.24091
6.15859
6.07446
5.98774
5.89253
5.78304
5.66085
5.53119
5.39883
5.26723
5.13886
5.01533
4.89763
4.78588
4.67804
4.56691
4.43531
4.2939
7.18304
7.18286
7.18267
7.18247
7.18225
7.18201
7.18176
7.1815
7.18122
7.18092
7.1806
7.18026
7.17991
7.17954
7.17915
7.17874
7.17832
7.17788
7.17741
7.17692
7.17641
7.17587
7.17531
7.17472
7.1741
7.17345
7.17277
7.17206
7.17133
7.17057
7.16978
7.16896
7.16812
7.16725
7.16634
7.1654
7.16442
7.16339
7.1623
7.16113
7.15989
7.15856
7.15714
7.15564
7.15404
7.15235
7.15056
7.14867
7.14669
7.1446
7.1424
7.1401
7.13768
7.13515
7.13246
7.1296
7.1265
7.12311
7.11938
7.11526
7.11074
7.10578
7.10036
7.09448
7.0881
7.0812
7.07377
7.06578
7.05721
7.04803
7.03817
7.02748
7.01565
7.0023
6.98711
6.96988
6.95054
6.9291
6.90559
6.88006
6.85256
6.82315
6.79186
6.75868
6.72326
6.68457
6.64103
6.59151
6.53575
6.47413
6.40733
6.33607
6.26113
6.18329
6.1033
6.02152
5.93796
5.85031
5.75234
5.64242
5.52362
5.40013
5.27535
5.15182
5.03146
4.91551
4.80476
4.69901
4.59617
4.48683
4.36207
4.23118
4.10296
3.98225
3.87126
3.77085
3.68106
3.6014
3.53105
3.46958
3.41688
3.37299
3.33562
3.30316
3.27482
7.17711
7.17641
7.17566
7.17485
7.174
7.17309
7.17212
7.17109
7.17
7.16884
7.16763
7.16636
7.16503
7.16363
7.16218
7.16066
7.15907
7.1574
7.15565
7.15381
7.15186
7.14981
7.14765
7.14537
7.14299
7.1405
7.13789
7.13518
7.13237
7.12946
7.12645
7.12335
7.12016
7.11687
7.11347
7.10994
7.10623
7.10232
7.09816
7.09373
7.08902
7.08402
7.0787
7.07308
7.06712
7.06084
7.05421
7.04722
7.03988
7.03217
7.02408
7.01562
7.00676
6.99747
6.98767
6.97719
6.96578
6.95321
6.93929
6.92394
6.9071
6.88878
6.86896
6.84764
6.82482
6.80049
6.77465
6.7473
6.71844
6.68805
6.65595
6.62157
6.58376
6.54149
6.49431
6.44228
6.38577
6.32522
6.26112
6.19392
6.12411
6.05213
5.97841
5.90306
5.82583
5.74434
5.65394
5.55383
5.44635
5.33462
5.2213
5.10843
4.99754
4.88979
4.78589
4.68631
4.58994
4.49415
4.38624
4.26934
4.15114
4.0369
3.92947
3.83024
3.73994
3.65869
3.58603
3.52135
3.4644
3.41534
3.37386
3.33814
3.30684
3.27927
3.25513
3.23417
3.21609
3.20062
3.18765
3.17712
3.169
3.16295
3.15812
3.15379
3.14967
7.15459
7.15198
7.14919
7.14622
7.14306
7.13968
7.13609
7.13227
7.12823
7.12396
7.11948
7.11478
7.10988
7.10477
7.09946
7.09393
7.08816
7.08211
7.07577
7.06912
7.06214
7.05482
7.04716
7.03916
7.03083
7.02218
7.01319
7.00389
6.99429
6.98439
6.9742
6.96375
6.95304
6.94206
6.93073
6.91894
6.90653
6.89335
6.87933
6.86439
6.84851
6.83171
6.81398
6.79534
6.77581
6.7554
6.73412
6.71198
6.68899
6.66515
6.64049
6.615
6.58867
6.56145
6.53303
6.50278
6.46998
6.43418
6.39526
6.35331
6.30849
6.26098
6.21093
6.1585
6.10386
6.0472
5.98871
5.92859
5.86705
5.80416
5.7398
5.67303
5.60064
5.5209
5.43459
5.34361
5.24983
5.15476
5.0596
4.9653
4.87257
4.78194
4.69378
4.6083
4.52438
4.43925
4.34358
4.24135
4.13781
4.03673
3.94048
3.85036
3.76701
3.69075
3.6216
3.55913
3.50299
3.45314
3.41018
3.37295
3.34022
3.31119
3.28537
3.26254
3.24255
3.2252
3.21021
3.19746
3.18696
3.17858
3.1719
3.16637
3.1614
3.15659
3.15198
3.14763
3.14336
3.13925
3.13523
3.13167
3.1288
3.12677
3.12562
3.1249
3.12425
7.08177
7.07303
7.06374
7.05389
7.04343
7.03235
7.02064
7.0083
6.99534
6.98178
6.96762
6.95291
6.93766
6.92189
6.90562
6.88883
6.87145
6.85338
6.83453
6.81483
6.79424
6.77275
6.7504
6.72721
6.70324
6.67855
6.65322
6.62729
6.60084
6.57394
6.54666
6.51905
6.49117
6.46306
6.43465
6.40565
6.37562
6.34419
6.31117
6.27654
6.24036
6.20272
6.16373
6.12346
6.08201
6.03947
5.99593
5.95148
5.90621
5.86022
5.81358
5.76637
5.71866
5.67049
5.62174
5.572
5.51969
5.46323
5.40245
5.33806
5.27095
5.20188
5.13146
5.06018
4.98847
4.91669
4.84518
4.77422
4.70406
4.63488
4.56691
4.49979
4.4323
4.35866
4.27825
4.19469
4.11095
4.02892
3.94985
3.87456
3.80353
3.737
3.6751
3.61783
3.56495
3.51634
3.4722
3.43323
3.39854
3.36733
3.33925
3.314
3.2913
3.27106
3.2532
3.23755
3.22386
3.21203
3.20206
3.19387
3.18698
3.1809
3.17531
3.16998
3.16478
3.15979
3.15504
3.15056
3.14636
3.14237
3.13913
3.1367
3.13488
3.13348
3.13223
3.13094
3.12953
3.12801
3.12661
3.1244
3.12251
3.121
3.11946
3.11867
3.11802
3.11757
6.83463
6.80817
6.78038
6.7512
6.7206
6.68859
6.65524
6.62063
6.58488
6.54812
6.5105
6.47218
6.4333
6.39399
6.35435
6.31427
6.27349
6.23178
6.18903
6.14527
6.1006
6.05516
6.00911
5.96257
5.91571
5.86865
5.82153
5.77447
5.7276
5.68103
5.63489
5.58927
5.54426
5.49985
5.45586
5.41166
5.36607
5.31863
5.26944
5.21884
5.1672
5.11488
5.06213
5.00918
4.95622
4.90342
4.8509
4.7988
4.7472
4.69618
4.64581
4.59613
4.54716
4.49894
4.45141
4.40376
4.3535
4.29854
4.24048
4.18098
4.12115
4.06171
4.00317
3.9459
3.89022
3.83637
3.78454
3.73492
3.68759
3.64266
3.60015
3.56
3.52235
3.48792
3.45653
3.42772
3.40115
3.37662
3.35405
3.33327
3.31423
3.29688
3.28109
3.2668
3.25389
3.24233
3.23213
3.22326
3.21547
3.20833
3.20167
3.1955
3.18957
3.18385
3.17831
3.17283
3.16789
3.16341
3.15927
3.15581
3.15311
3.15085
3.14885
3.14692
3.14491
3.14283
3.14048
3.13832
3.13638
3.13361
3.1314
3.12967
3.12809
3.12699
3.12595
3.12508
3.12399
3.12293
3.12178
3.12033
3.11875
3.11716
3.11563
3.11426
3.11316
3.11232
3.11166
3.11114
6.19531
6.13734
6.0781
6.01771
5.95641
5.89446
5.83216
5.76979
5.7076
5.64583
5.58471
5.52444
5.4652
5.40712
5.35023
5.29417
5.23809
5.18166
5.12498
5.06827
5.01186
4.95602
4.90099
4.84697
4.7941
4.74251
4.69229
4.64353
4.59626
4.55054
4.50639
4.4638
4.42276
4.38321
4.34476
4.30635
4.26566
4.22332
4.18014
4.13673
4.09351
4.05077
4.00871
3.9675
3.92725
3.88808
3.85006
3.81324
3.77768
3.74339
3.71039
3.67867
3.64823
3.61906
3.59109
3.56432
3.53909
3.51554
3.49333
3.47224
3.45214
3.43295
3.41464
3.39719
3.38058
3.36483
3.34993
3.33589
3.32271
3.31037
3.29882
3.28807
3.27814
3.26906
3.26078
3.2531
3.24585
3.23889
3.23214
3.22542
3.21897
3.21284
3.20674
3.20108
3.19594
3.19089
3.18632
3.18232
3.17868
3.17547
3.17245
3.16946
3.16657
3.16397
3.1615
3.15779
3.15485
3.15257
3.14983
3.14693
3.14496
3.14322
3.1416
3.1399
3.13845
3.13707
3.13516
3.13325
3.13172
3.12954
3.12734
3.12526
3.12347
3.12183
3.1204
3.11919
3.11804
3.11698
3.11592
3.11458
3.11304
3.11136
3.10965
3.10804
3.10662
3.10542
3.10443
3.10363
5.13694
5.0634
4.99043
4.91835
4.84758
4.77847
4.71133
4.6464
4.58381
4.52369
4.46612
4.41113
4.35871
4.30889
4.26148
4.21563
4.16933
4.12301
4.07728
4.03256
3.98914
3.94721
3.9069
3.86829
3.83147
3.79645
3.76326
3.73189
3.70231
3.6745
3.64841
3.62401
3.60119
3.57981
3.5597
3.54083
3.52339
3.5071
3.49175
3.4772
3.46337
3.4502
3.43766
3.42571
3.41433
3.40349
3.39317
3.38335
3.37398
3.36506
3.35655
3.34843
3.34069
3.33328
3.32618
3.31937
3.31287
3.30662
3.30055
3.29457
3.28864
3.28273
3.27685
3.271
3.2652
3.25947
3.25382
3.24826
3.24283
3.23752
3.23235
3.22736
3.22249
3.21786
3.21358
3.20949
3.20555
3.20194
3.19848
3.1946
3.19102
3.18803
3.1841
3.18047
3.17788
3.17421
3.17094
3.16857
3.16539
3.16285
3.16088
3.15827
3.15592
3.15433
3.1521
3.14946
3.14677
3.14496
3.14273
3.14014
3.13788
3.13591
3.13411
3.13228
3.1307
3.1293
3.12776
3.12616
3.12425
3.12217
3.12003
3.11787
3.11582
3.11391
3.1122
3.11068
3.10932
3.10806
3.10682
3.10554
3.10419
3.10274
3.10121
3.09967
3.09821
3.0969
3.09575
3.09477
4.08242
4.02435
3.96797
3.91376
3.86203
3.81298
3.76672
3.7233
3.68272
3.64497
3.60999
3.57775
3.54814
3.52108
3.49648
3.4743
3.45465
3.43711
3.42133
3.40707
3.39413
3.38239
3.37174
3.36207
3.35335
3.34549
3.33844
3.33213
3.32652
3.32156
3.31721
3.31347
3.31025
3.30737
3.30467
3.30209
3.29963
3.29725
3.2949
3.29255
3.29016
3.28774
3.28527
3.28275
3.28018
3.27758
3.27492
3.27222
3.26945
3.26664
3.26376
3.26084
3.25788
3.25489
3.25189
3.24889
3.24592
3.243
3.24012
3.23732
3.2345
3.23163
3.22869
3.22567
3.22255
3.21936
3.2161
3.21276
3.20941
3.20602
3.20257
3.19923
3.19586
3.19245
3.18935
3.18629
3.1831
3.18045
3.17806
3.17479
3.17218
3.17018
3.16688
3.16394
3.16199
3.15895
3.15628
3.15427
3.15153
3.14933
3.14749
3.14549
3.14339
3.1419
3.14002
3.13784
3.13567
3.13359
3.13143
3.12911
3.12693
3.12476
3.12276
3.12088
3.11916
3.11756
3.11598
3.11442
3.11278
3.111
3.10912
3.10718
3.10522
3.1033
3.10149
3.09984
3.09834
3.09698
3.0957
3.09445
3.09318
3.09185
3.09045
3.08902
3.08761
3.08627
3.08506
3.08398
3.083
3.3512
3.32999
3.3115
3.29538
3.28132
3.26905
3.25837
3.24916
3.24126
3.23455
3.22895
3.2244
3.22086
3.21838
3.21676
3.21572
3.21503
3.21458
3.2143
3.21416
3.21412
3.21421
3.21438
3.21467
3.21501
3.21539
3.21582
3.21628
3.21678
3.21731
3.21819
3.21936
3.22062
3.22183
3.22292
3.22387
3.22467
3.2253
3.22574
3.22597
3.22597
3.22575
3.22527
3.22462
3.22377
3.22273
3.22151
3.22015
3.21865
3.21702
3.21529
3.21346
3.21154
3.20956
3.20752
3.20546
3.20342
3.20138
3.19932
3.19723
3.19512
3.19298
3.19079
3.18856
3.18629
3.18397
3.1816
3.17923
3.17679
3.17431
3.17193
3.16945
3.16692
3.16469
3.16238
3.15986
3.15796
3.15618
3.1535
3.1515
3.14978
3.14699
3.14454
3.14277
3.14023
3.13791
3.13609
3.13381
3.1318
3.12992
3.12822
3.12639
3.1247
3.1231
3.12148
3.11973
3.11802
3.11622
3.11426
3.11227
3.11026
3.1083
3.10643
3.10466
3.103
3.1014
3.09985
3.0983
3.09668
3.09497
3.09321
3.09138
3.08955
3.08776
3.08607
3.08451
3.08309
3.08177
3.0805
3.07923
3.07793
3.07659
3.07523
3.07386
3.07254
3.0713
3.07016
3.0691
3.11302
3.11194
3.11149
3.11144
3.11179
3.11239
3.11325
3.11431
3.11562
3.11709
3.11868
3.12038
3.12246
3.12531
3.12859
3.13188
3.13508
3.13817
3.14115
3.14404
3.14677
3.14937
3.15182
3.15408
3.15618
3.15815
3.16
3.16173
3.16338
3.16491
3.16629
3.1676
3.16894
3.17036
3.1718
3.17322
3.17456
3.17578
3.17686
3.17778
3.17852
3.17906
3.1794
3.17955
3.17951
3.17926
3.17885
3.17828
3.17755
3.17668
3.17567
3.17454
3.17331
3.17198
3.17058
3.16915
3.1677
3.16618
3.1645
3.16275
3.16097
3.15919
3.15739
3.15559
3.15378
3.15195
3.15011
3.14829
3.14639
3.14449
3.14267
3.14068
3.13868
3.13695
3.13497
3.13278
3.13118
3.12951
3.12725
3.12585
3.12455
3.12254
3.12072
3.11943
3.11748
3.11554
3.11409
3.11229
3.11055
3.10892
3.10744
3.10593
3.10428
3.10281
3.10142
3.09993
3.09841
3.09688
3.09523
3.09346
3.09165
3.08983
3.08804
3.0863
3.08464
3.08305
3.08149
3.07996
3.07839
3.07678
3.07512
3.07342
3.07169
3.06997
3.06832
3.06677
3.06534
3.06401
3.06275
3.0615
3.06024
3.05895
3.05764
3.05632
3.05502
3.05378
3.0526
3.05148
3.03055
3.03434
3.03805
3.04173
3.04551
3.04946
3.05273
3.05618
3.0598
3.06314
3.06631
3.06964
3.07289
3.07597
3.0792
3.08268
3.08625
3.08986
3.09359
3.09728
3.10076
3.10423
3.10757
3.11072
3.11373
3.11661
3.11935
3.12193
3.12436
3.12618
3.12749
3.1286
3.12971
3.1309
3.13217
3.13346
3.13472
3.1359
3.13697
3.13789
3.13863
3.13918
3.13952
3.13966
3.13959
3.13934
3.13887
3.13826
3.1375
3.13659
3.13553
3.13436
3.13307
3.13168
3.13022
3.12873
3.12727
3.12589
3.12454
3.12321
3.12188
3.12055
3.11922
3.11788
3.11653
3.1152
3.11386
3.11246
3.11111
3.10979
3.10828
3.10688
3.10564
3.10404
3.10241
3.10121
3.09981
3.09792
3.0968
3.0958
3.09425
3.09278
3.09185
3.09036
3.0888
3.08763
3.08633
3.0848
3.08344
3.08216
3.08092
3.07956
3.07815
3.07688
3.07556
3.07418
3.07278
3.07136
3.06983
3.06821
3.06656
3.06491
3.06328
3.06168
3.06013
3.05861
3.0571
3.05559
3.05406
3.05249
3.05089
3.04926
3.04765
3.04607
3.04458
3.04319
3.0419
3.04068
3.03949
3.0383
3.03709
3.03585
3.03459
3.03333
3.03209
3.03089
3.02974
2.98376
2.98816
2.99262
2.99763
3.00286
3.00711
3.01183
3.01693
3.02167
3.02631
3.03066
3.03475
3.03781
3.04123
3.04513
3.04891
3.05254
3.05675
3.06105
3.06429
3.06792
3.07153
3.07467
3.07756
3.08022
3.08263
3.08471
3.08646
3.08806
3.08941
3.09044
3.09126
3.09199
3.09273
3.0935
3.09431
3.09511
3.09586
3.09655
3.09712
3.09756
3.09785
3.09798
3.09794
3.09775
3.09734
3.09682
3.09618
3.0954
3.0945
3.09349
3.09237
3.09117
3.08989
3.08856
3.08724
3.08597
3.08477
3.08364
3.08255
3.0815
3.08048
3.07947
3.07846
3.07749
3.0765
3.07548
3.07453
3.07357
3.07246
3.07151
3.07063
3.06938
3.06827
3.0674
3.06633
3.06478
3.06389
3.0631
3.0618
3.06065
3.05996
3.05878
3.05754
3.05665
3.0557
3.05437
3.05327
3.05217
3.05117
3.05008
3.04889
3.04768
3.04652
3.04528
3.04399
3.04269
3.04136
3.03993
3.03844
3.03693
3.03543
3.03394
3.03247
3.03101
3.02957
3.02814
3.02669
3.02522
3.02372
3.02221
3.02069
3.01922
3.01781
3.01648
3.01525
3.0141
3.01299
3.0119
3.01079
3.00965
3.00847
3.00727
3.00606
3.00486
3.00368
3.00251
3.00131
2.94927
2.95432
2.95881
2.96452
2.97
2.9747
2.97972
2.98479
2.98929
2.99353
2.9975
3.00139
3.00471
3.008
3.01142
3.01446
3.01743
3.02094
3.0244
3.02739
3.03056
3.0337
3.03658
3.03922
3.04167
3.04387
3.0458
3.04744