/*--------------------------------*- C++ -*----------------------------------*\
| =========                 |                                                 |
| \\      /  F ield         | OpenFOAM: The Open Source CFD Toolbox           |
|  \\    /   O peration     | Version:  v1706                                 |
|   \\  /    A nd           | Web:      www.OpenFOAM.com                      |
|    \\/     M anipulation  |                                                 |
\*---------------------------------------------------------------------------*/
FoamFile
{
    version     2.0;
    format      ascii;
    class       volScalarField;
    location    "3.4e-05";
    object      p;
}
// * * * * * * * * * * * * * * * * * * * * * * * * * * * * * * * * * * * * * //

dimensions      [1 -1 -2 0 0 0 0];


internalField   nonuniform List<scalar> 
29871
(
21.9139
21.9139
21.9139
21.9139
21.9139
21.9139
21.9139
21.9139
21.9139
21.9139
21.9139
21.9139
21.9139
21.9139
21.9139
21.9139
21.9139
21.9139
21.9139
21.9139
21.9139
21.9139
21.9139
21.9139
21.9139
21.9139
21.9139
21.9139
21.9139
21.9139
21.9139
21.9139
21.9139
21.9139
21.9139
21.9139
21.9139
21.9139
21.9139
21.9139
21.9139
21.9139
21.9139
21.9139
21.9139
21.9139
21.9139
21.9139
21.9139
21.9139
21.9139
21.9139
21.9139
21.9139
21.9139
21.9139
21.9139
21.9139
21.9139
21.9139
21.9139
21.9139
21.9139
21.9139
21.9139
21.9139
21.9139
21.9139
21.9139
21.9139
21.9139
21.9139
21.9139
21.9139
21.9139
21.9139
21.9139
21.9139
21.9139
21.9139
21.9139
21.9139
21.9139
21.9139
21.9139
21.9139
21.9139
21.9139
21.9139
21.9139
21.9139
21.9139
21.9139
21.9139
21.9139
21.9139
21.9139
21.9139
21.9139
21.9139
21.9139
21.9139
21.9139
21.9139
21.9139
21.9139
21.9139
21.9139
21.9139
21.9139
21.9139
21.9139
21.9139
21.9139
21.9139
21.9139
21.9139
21.9139
21.9139
21.9139
21.9139
21.9139
21.9139
21.9139
21.9139
21.9139
21.9139
21.9139
21.9139
21.9139
21.9139
21.9139
21.9139
21.9139
21.9139
21.9139
21.9139
21.9139
21.9139
21.9139
21.9139
21.9139
21.9139
21.9139
21.9139
21.9139
21.9139
21.9139
21.9139
21.9139
21.9139
21.9139
21.9139
21.9139
21.9139
21.9139
21.9139
21.9139
21.9139
21.9139
21.9139
21.9139
21.9139
21.9139
21.9139
21.9139
21.9139
21.9139
21.9139
21.9139
21.9139
21.9139
21.9139
21.9139
21.9139
21.9139
21.9139
21.9139
21.9139
21.9139
21.9139
21.9139
21.9139
21.9139
21.9139
21.9139
21.9139
21.9139
21.9139
21.9139
21.9139
21.9139
21.9139
21.9139
21.9139
21.9139
21.9139
21.9139
21.9139
21.9139
21.9139
21.9139
21.9139
21.9139
21.9139
21.9139
21.9139
21.9139
21.9139
21.9139
21.9139
21.9139
21.9139
21.9139
21.9139
21.9139
21.9139
21.9139
21.9139
21.9139
21.9139
21.9139
21.9139
21.9139
21.9139
21.9139
21.9139
21.9139
21.9139
21.9139
21.9139
21.9139
21.9139
21.9139
21.9139
21.9139
21.9139
21.9139
21.9139
21.9139
21.9139
21.9139
21.9139
21.9139
21.9139
21.9139
21.9139
21.9139
21.9139
21.9139
21.9139
21.9139
21.9139
21.9139
21.9139
21.9139
21.9139
21.9139
21.9139
21.9139
21.9139
21.9139
21.9139
21.9139
21.9139
21.9139
21.9139
21.9139
21.9139
21.9139
21.9139
21.9139
21.9139
21.9139
21.9139
21.9139
21.9139
21.9139
21.9139
21.9139
21.9139
21.9139
21.9139
21.9139
21.9139
21.9139
21.9139
21.9139
21.9139
21.9139
21.9139
21.9139
21.9139
21.9139
21.9139
21.9139
21.9139
21.9139
21.9139
21.9139
21.9139
21.9139
21.9139
21.9139
21.9139
21.9139
21.9139
21.9139
21.9139
21.9139
21.9139
21.9139
21.9139
21.9139
21.9139
21.9139
21.9139
21.9139
21.9139
21.9139
21.9139
21.9139
21.9139
21.9139
21.9139
21.9139
21.9139
21.9139
21.9139
21.9139
21.9139
21.9139
21.9139
21.9139
21.9139
21.9139
21.9139
21.9139
21.9139
21.9139
21.9139
21.9139
21.9139
21.9139
21.9139
21.9139
21.9139
21.9139
21.9139
21.9139
21.9139
21.9139
21.9139
21.9139
21.9139
21.9139
21.9139
21.9139
21.9139
21.9139
21.9139
21.9139
21.9139
21.9139
21.9139
21.9139
21.9139
21.9139
21.9139
21.9139
21.9139
21.9139
21.9139
21.9139
21.9139
21.9139
21.9139
21.9139
21.9139
21.9139
21.9139
21.9139
21.9139
21.9139
21.9139
21.9139
21.9139
21.9139
21.9139
21.9139
21.9139
21.9139
21.9139
21.9139
21.9139
21.9139
21.9139
21.9139
21.9139
21.9139
21.9139
21.9139
21.9139
21.9139
21.9139
21.9139
21.9139
21.9139
21.9139
21.9139
21.9139
21.9139
21.9139
21.9139
21.9139
21.9139
21.9139
21.9139
21.9139
21.9139
21.9139
21.9139
21.9139
21.9139
21.9139
21.9139
21.9139
21.9139
21.9139
21.9139
21.9139
21.9139
21.9139
21.9139
21.9139
21.9139
21.9139
21.9139
21.9139
21.9139
21.9139
21.9139
21.9139
21.9139
21.9139
21.9139
21.9139
21.9139
21.9139
21.9139
21.9139
21.9139
21.9139
21.9139
21.9139
21.9139
21.9139
21.9139
21.9139
21.9139
21.9139
21.9139
21.9139
21.9139
21.9139
21.9139
21.9139
21.9139
21.9139
21.9139
21.9139
21.9139
21.9139
21.9139
21.9139
21.9139
21.9139
21.9139
21.9139
21.9139
21.9139
21.9139
21.9139
21.9139
21.9139
21.9139
21.9139
21.9139
21.9139
21.9139
21.9139
21.9139
21.9139
21.9139
21.9139
21.9139
21.9139
21.9139
21.9139
21.9139
21.9139
21.9139
21.9139
21.9139
21.9139
21.9139
21.9139
21.9139
21.9139
21.9139
21.9139
21.9139
21.9139
21.9139
21.9139
21.9139
21.9139
21.9139
21.9139
21.9139
21.9139
21.9139
21.9139
21.9139
21.9139
21.9139
21.9139
21.9139
21.9139
21.9139
21.9139
21.9139
21.9139
21.9139
21.9139
21.9139
21.9139
21.9139
21.9139
21.9139
21.9139
21.9139
21.9139
21.9139
21.9139
21.9139
21.9139
21.9139
21.9139
21.9139
21.9139
21.9139
21.9139
21.9139
21.9139
21.9139
21.9139
21.9139
21.9139
21.9139
21.9139
21.9139
21.9139
21.9139
21.9139
21.9139
21.9139
21.9139
21.9139
21.9139
21.9139
21.9139
21.9139
21.9139
21.9139
21.9139
21.9139
21.9139
21.9139
21.9139
21.9139
21.9139
21.9139
21.9139
21.9139
21.9139
21.9139
21.9139
21.9139
21.9139
21.9139
21.9139
21.9139
21.9139
21.9139
21.9139
21.9139
21.9139
21.9139
21.9139
21.9139
21.9139
21.9139
21.9139
21.9139
21.9139
21.9139
21.9139
21.9139
21.9139
21.9139
21.9139
21.9139
21.9139
21.9139
21.9139
21.9139
21.9139
21.9139
21.9139
21.9139
21.9139
21.9139
21.9139
21.9139
21.9139
21.9139
21.9139
21.9139
21.9139
21.9139
21.9139
21.9139
21.9139
21.9139
21.9139
21.9139
21.9139
21.9139
21.9139
21.9139
21.9139
21.9139
21.9139
21.9139
21.9139
21.9139
21.9139
21.9139
21.9139
21.9139
21.9139
21.9139
21.9139
21.9139
21.9139
21.9139
21.9139
21.9139
21.9139
21.9139
21.9139
21.9139
21.9139
21.9139
21.9139
21.9139
21.9139
21.9139
21.9139
21.9139
21.9139
21.9139
21.9139
21.9139
21.9139
21.9139
21.9139
21.9139
21.9139
21.9139
21.9139
21.9139
21.9139
21.9139
21.9139
21.9139
21.9139
21.9139
21.9139
21.9139
21.9139
21.9139
21.9139
21.9139
21.9139
21.9139
21.9139
21.9139
21.9139
21.9139
21.9139
21.9139
21.9139
21.9139
21.9139
21.9139
21.9139
21.9139
21.9139
21.9139
21.9139
21.9139
21.9139
21.9139
21.9139
21.9139
21.9139
21.9139
21.9139
21.9139
21.9139
21.9139
21.9139
21.9139
21.9139
21.9139
21.9139
21.9139
21.9139
21.9139
21.9139
21.9139
21.9139
21.9139
21.9139
21.9139
21.9139
21.9139
21.9139
21.9139
21.9139
21.9139
21.9139
21.9139
21.9139
21.9139
21.9139
21.9139
21.9139
21.9139
21.9139
21.9139
21.9139
21.9139
21.9139
21.9139
21.9139
21.9139
21.9139
21.9139
21.9139
21.9139
21.9139
21.9139
21.9139
21.9139
21.9139
21.9139
21.9139
21.9139
21.9139
21.9139
21.9139
21.9139
21.9139
21.9139
21.9139
21.9139
21.9139
21.9139
21.9139
21.9139
21.9139
21.9139
21.9139
21.9139
21.9139
21.9139
21.9139
21.9139
21.9139
21.9139
21.9139
21.9139
21.9139
21.9139
21.9139
21.9139
21.9139
21.9139
21.9139
21.9139
21.9139
21.9139
21.9139
21.9139
21.9139
21.9139
21.9139
21.9139
21.9139
21.9139
21.9139
21.9139
21.9139
21.9139
21.9139
21.9139
21.9139
21.9139
21.9139
21.9139
21.9139
21.9139
21.9139
21.9139
21.9139
21.9139
21.9139
21.9139
21.9139
21.9139
21.9139
21.9139
21.9139
21.9139
21.9139
21.9139
21.9139
21.9139
21.9139
21.9139
21.9139
21.9139
21.9139
21.9139
21.9139
21.9139
21.9139
21.9139
21.9139
21.9139
21.9139
21.9139
21.9139
21.9139
21.9139
21.9139
21.9139
21.9139
21.9139
21.9139
21.9139
21.9139
21.9139
21.9139
21.9139
21.9139
21.9139
21.9139
21.9139
21.9139
21.9139
21.9139
21.9139
21.9139
21.9139
21.9139
21.9139
21.9139
21.9139
21.9139
21.9139
21.9139
21.9139
21.9139
21.9139
21.9139
21.9139
21.9139
21.9139
21.9139
21.9139
21.9139
21.9139
21.9139
21.9139
21.9139
21.9139
21.9139
21.9139
21.9139
21.9139
21.9139
21.9139
21.9139
21.9139
21.9139
21.9139
21.9139
21.9139
21.9139
21.9139
21.9139
21.9139
21.9139
21.9139
21.9139
21.9139
21.9139
21.9139
21.9139
21.9139
21.9139
21.9139
21.9139
21.9139
21.9139
21.9139
21.9139
21.9139
21.9139
21.9139
21.9139
21.9139
21.9139
21.9139
21.9139
21.9139
21.9139
21.9139
21.9139
21.9139
21.9139
21.9139
21.9139
21.9139
21.9139
21.9139
21.9139
21.9139
21.9139
21.9139
21.9139
21.9139
21.9139
21.9139
21.9139
21.9139
21.9139
21.9139
21.9139
21.9139
21.9139
21.9139
21.9139
21.9139
21.9139
21.9139
21.9139
21.9139
21.9139
21.9139
21.9139
21.9139
21.9139
21.9139
21.9139
21.9139
21.9139
21.9139
21.9139
21.9139
21.9139
21.9139
21.9139
21.9139
21.9139
21.9139
21.9139
21.9139
21.9139
21.9139
21.9139
21.9139
21.9139
21.9139
21.9139
21.9139
21.9139
21.9139
21.9139
21.9139
21.9139
21.9139
21.9139
21.9139
21.9139
21.9139
21.9139
21.9139
21.9139
21.9139
21.9139
21.9139
21.9139
21.9139
21.9139
21.9139
21.9139
21.9139
21.9139
21.9139
21.9139
21.9139
21.9139
21.9139
21.9139
21.9139
21.9139
21.9139
21.9139
21.9139
21.9139
21.9139
21.9139
21.9139
21.9139
21.9139
21.9139
21.9139
21.9139
21.9139
21.9139
21.9139
21.9139
21.9139
21.9139
21.9139
21.9139
21.9139
21.9139
21.9139
21.9139
21.9139
21.9139
21.9139
21.9139
21.9139
21.9139
21.9139
21.9139
21.9139
21.9139
21.9139
21.9139
21.9139
21.9139
21.9139
21.9139
21.9139
21.9139
21.9139
21.9139
21.9139
21.9139
21.9139
21.9139
21.9139
21.9139
21.9139
21.9139
21.9139
21.9139
21.9139
21.9139
21.9139
21.9139
21.9139
21.9139
21.9139
21.9139
21.9139
21.9139
21.9139
21.9139
21.9139
21.9139
21.9139
21.9139
21.9139
21.9139
21.9139
21.9139
21.9139
21.9139
21.9139
21.9139
21.9139
21.9139
21.9139
21.9139
21.9139
21.9139
21.9139
21.9139
21.9139
21.9139
21.9139
21.9139
21.9139
21.9139
21.9139
21.9139
21.9139
21.9139
21.9139
21.9139
21.9139
21.9139
21.9139
21.9139
21.9139
21.9139
21.9139
21.9139
21.9139
21.9139
21.9139
21.9139
21.9139
21.9139
21.9139
21.9139
21.9139
21.9139
21.9139
21.9139
21.9139
21.9139
21.9139
21.9139
21.9139
21.9139
21.9139
21.9139
21.9139
21.9139
21.9139
21.9139
21.9139
21.9139
21.9139
21.9139
21.9139
21.9139
21.9139
21.9139
21.9139
21.9139
21.9139
21.9139
21.9139
21.9139
21.9139
21.9139
21.9139
21.9139
21.914
21.914
21.914
21.914
21.914
21.914
21.914
21.9139
21.9139
21.9139
21.9139
21.9139
21.9139
21.9139
21.9139
21.9139
21.9139
21.9139
21.9139
21.9139
21.9139
21.9139
21.9139
21.9139
21.9139
21.9139
21.9139
21.9139
21.9139
21.9139
21.9139
21.9139
21.9139
21.9139
21.9139
21.9139
21.9139
21.9139
21.9139
21.9139
21.9139
21.9139
21.9139
21.9139
21.9139
21.9139
21.9139
21.9139
21.9139
21.9139
21.9139
21.9139
21.9139
21.9139
21.9139
21.9139
21.9139
21.9139
21.9139
21.9139
21.9139
21.9139
21.9139
21.9139
21.9139
21.9139
21.9139
21.9139
21.9139
21.9139
21.9139
21.9139
21.9139
21.9139
21.9139
21.9139
21.9139
21.9139
21.9139
21.9139
21.9139
21.9139
21.9139
21.9139
21.9139
21.9139
21.9139
21.9139
21.9139
21.9139
21.9139
21.9139
21.9139
21.9139
21.9139
21.914
21.914
21.914
21.914
21.914
21.914
21.914
21.914
21.914
21.914
21.9141
21.9141
21.9141
21.9141
21.9141
21.9142
21.9142
21.9142
21.9143
21.9143
21.9144
21.9144
21.9145
21.9139
21.9139
21.9139
21.9139
21.9139
21.9139
21.9139
21.9139
21.9139
21.9139
21.9139
21.9139
21.9139
21.9139
21.9139
21.9139
21.9139
21.9139
21.9139
21.9139
21.9139
21.9139
21.9139
21.9139
21.9139
21.9139
21.9139
21.9139
21.9139
21.9139
21.9139
21.9139
21.9139
21.9139
21.9139
21.9139
21.9139
21.9139
21.9139
21.9139
21.9139
21.9139
21.9139
21.9139
21.9139
21.9139
21.9139
21.9139
21.9139
21.9139
21.9139
21.9139
21.9139
21.9139
21.9139
21.9139
21.9139
21.9139
21.9139
21.9139
21.9139
21.9139
21.9139
21.9139
21.9139
21.9139
21.9139
21.9139
21.9139
21.914
21.914
21.914
21.914
21.914
21.914
21.914
21.914
21.914
21.914
21.914
21.914
21.914
21.9141
21.9141
21.9141
21.9141
21.9141
21.9141
21.9142
21.9142
21.9142
21.9143
21.9143
21.9144
21.9144
21.9145
21.9145
21.9146
21.9147
21.9148
21.9149
21.915
21.9152
21.9153
21.9155
21.9157
21.9159
21.9162
21.9165
21.9168
21.9171
21.9175
21.918
21.9139
21.9139
21.9139
21.9139
21.9139
21.9139
21.9139
21.9139
21.9139
21.9139
21.9139
21.9139
21.9139
21.9139
21.9139
21.9139
21.9139
21.9139
21.9139
21.9139
21.9139
21.9139
21.9139
21.9139
21.9139
21.9139
21.9139
21.9139
21.9139
21.9139
21.9139
21.9139
21.9139
21.9139
21.9139
21.9139
21.9139
21.9139
21.9139
21.9139
21.9139
21.9139
21.914
21.914
21.914
21.914
21.914
21.914
21.914
21.914
21.914
21.914
21.914
21.914
21.914
21.914
21.914
21.914
21.914
21.914
21.914
21.914
21.9141
21.9141
21.9141
21.9141
21.9141
21.9141
21.9141
21.9141
21.9142
21.9142
21.9142
21.9142
21.9143
21.9143
21.9143
21.9144
21.9144
21.9145
21.9145
21.9146
21.9147
21.9147
21.9148
21.9149
21.915
21.9152
21.9153
21.9154
21.9156
21.9158
21.916
21.9162
21.9165
21.9168
21.9172
21.9176
21.918
21.9185
21.919
21.9196
21.9203
21.9211
21.9221
21.9232
21.9245
21.9259
21.9274
21.9291
21.931
21.9331
21.9355
21.9139
21.9139
21.9139
21.9139
21.9139
21.9139
21.9139
21.9139
21.9139
21.9139
21.9139
21.9139
21.9139
21.9139
21.9139
21.914
21.914
21.914
21.914
21.914
21.914
21.914
21.914
21.914
21.914
21.914
21.914
21.914
21.914
21.914
21.914
21.914
21.914
21.914
21.914
21.9141
21.9141
21.9141
21.9141
21.9141
21.9141
21.9141
21.9141
21.9141
21.9141
21.9141
21.9142
21.9142
21.9142
21.9142
21.9142
21.9142
21.9142
21.9143
21.9143
21.9143
21.9143
21.9144
21.9144
21.9144
21.9144
21.9145
21.9145
21.9146
21.9146
21.9146
21.9147
21.9148
21.9148
21.9149
21.915
21.9151
21.9152
21.9153
21.9154
21.9155
21.9157
21.9158
21.916
21.9162
21.9164
21.9166
21.9169
21.9172
21.9176
21.918
21.9184
21.9189
21.9194
21.92
21.9206
21.9214
21.9222
21.9232
21.9243
21.9255
21.927
21.9286
21.9305
21.9325
21.9347
21.9372
21.9399
21.943
21.9467
21.9509
21.9558
21.9613
21.9676
21.9746
21.9824
21.9911
22.0006
22.0114
22.024
21.914
21.914
21.914
21.914
21.914
21.914
21.914
21.914
21.914
21.9141
21.9141
21.9141
21.9141
21.9141
21.9141
21.9141
21.9141
21.9142
21.9142
21.9142
21.9142
21.9142
21.9142
21.9143
21.9143
21.9143
21.9143
21.9143
21.9144
21.9144
21.9144
21.9144
21.9145
21.9145
21.9145
21.9146
21.9146
21.9146
21.9147
21.9147
21.9147
21.9148
21.9148
21.9149
21.9149
21.915
21.915
21.9151
21.9151
21.9152
21.9153
21.9153
21.9154
21.9155
21.9156
21.9157
21.9158
21.9159
21.9161
21.9162
21.9164
21.9165
21.9167
21.9169
21.9171
21.9173
21.9176
21.9178
21.9181
21.9185
21.9189
21.9193
21.9197
21.9202
21.9208
21.9214
21.9221
21.9228
21.9237
21.9246
21.9256
21.9268
21.9281
21.9296
21.9314
21.9334
21.9355
21.9379
21.9406
21.9435
21.9467
21.9503
21.9544
21.9592
21.9646
21.9708
21.9778
21.9858
21.9946
22.0044
22.0152
22.0272
22.0408
22.0565
22.0751
22.0971
22.1227
22.152
22.185
22.2216
22.2618
22.3055
22.3536
22.408
22.4719
22.5478
21.9141
21.9141
21.9141
21.9141
21.9142
21.9142
21.9142
21.9142
21.9143
21.9143
21.9143
21.9144
21.9144
21.9144
21.9145
21.9145
21.9146
21.9146
21.9146
21.9147
21.9148
21.9148
21.9149
21.9149
21.915
21.9151
21.9151
21.9152
21.9153
21.9153
21.9154
21.9155
21.9156
21.9157
21.9158
21.9159
21.916
21.9161
21.9162
21.9163
21.9164
21.9165
21.9167
21.9168
21.917
21.9171
21.9173
21.9175
21.9177
21.9179
21.9181
21.9183
21.9185
21.9187
21.919
21.9193
21.9195
21.9198
21.9202
21.9205
21.9209
21.9213
21.9218
21.9222
21.9228
21.9233
21.924
21.9247
21.9254
21.9262
21.927
21.928
21.929
21.9301
21.9314
21.9328
21.9344
21.9362
21.9382
21.9404
21.9429
21.9456
21.9486
21.9518
21.9553
21.9592
21.9635
21.9683
21.9739
21.9802
21.9874
21.9955
22.0046
22.0147
22.0259
22.0383
22.0519
22.067
22.0842
22.1041
22.1274
22.1546
22.186
22.2216
22.2614
22.3054
22.3536
22.4062
22.4643
22.53
22.6065
22.6965
22.8019
22.9237
23.0627
23.2188
23.3919
23.5813
23.7876
24.0137
24.2721
24.5843
24.9663
21.9147
21.9148
21.9148
21.9149
21.915
21.9151
21.9152
21.9153
21.9154
21.9156
21.9157
21.9158
21.916
21.9161
21.9163
21.9164
21.9166
21.9168
21.917
21.9172
21.9174
21.9176
21.9179
21.9181
21.9184
21.9186
21.9189
21.9192
21.9195
21.9199
21.9202
21.9206
21.9209
21.9213
21.9217
21.9221
21.9225
21.923
21.9234
21.9239
21.9244
21.9249
21.9255
21.926
21.9267
21.9273
21.928
21.9287
21.9295
21.9303
21.9312
21.9321
21.933
21.934
21.9351
21.9362
21.9374
21.9387
21.9401
21.9417
21.9434
21.9452
21.9473
21.9495
21.952
21.9547
21.9575
21.9606
21.964
21.9676
21.9714
21.9756
21.9802
21.9853
21.9909
21.9973
22.0044
22.0124
22.0214
22.0313
22.0422
22.0543
22.0675
22.0819
22.0977
22.1152
22.1349
22.1574
22.1836
22.2138
22.2485
22.2877
22.3316
22.38
22.4332
22.4911
22.5544
22.6247
22.7047
22.7974
22.9052
23.0297
23.1721
23.3331
23.5131
23.7118
23.9291
24.166
24.4264
24.7252
25.0827
25.5135
26.0224
26.6078
27.265
27.9885
28.7726
29.6129
30.5075
31.4718
32.5602
33.8552
35.3913
21.9171
21.9174
21.9177
21.9181
21.9184
21.9188
21.9192
21.9197
21.9201
21.9206
21.9212
21.9217
21.9223
21.9229
21.9236
21.9243
21.925
21.9258
21.9266
21.9274
21.9282
21.9291
21.9301
21.9311
21.9321
21.9332
21.9343
21.9355
21.9367
21.938
21.9393
21.9407
21.9422
21.9436
21.9452
21.9468
21.9484
21.9502
21.952
21.954
21.956
21.9582
21.9606
21.9631
21.9658
21.9686
21.9716
21.9747
21.978
21.9815
21.9852
21.989
21.9931
21.9973
22.0018
22.0066
22.0117
22.0172
22.0232
22.0298
22.037
22.0448
22.0535
22.0629
22.0732
22.0844
22.0965
22.1097
22.1239
22.1392
22.1558
22.1738
22.1936
22.2158
22.2411
22.2699
22.3027
22.3396
22.3809
22.4265
22.4766
22.5313
22.5907
22.6551
22.7252
22.8028
22.8905
22.9911
23.1068
23.2393
23.3899
23.5595
23.7486
23.9575
24.1863
24.4354
24.7067
25.0084
25.3582
25.7738
26.2652
26.835
27.4814
28.2006
28.9879
29.8388
30.7498
31.7217
32.7753
33.9691
35.3687
36.9995
38.867
40.9693
43.2978
45.8383
48.5773
51.5011
54.6164
57.9298
61.7986
67.2863
74.4803
21.9269
21.9281
21.9294
21.9308
21.9322
21.9338
21.9354
21.9372
21.939
21.941
21.943
21.9452
21.9475
21.9499
21.9524
21.955
21.9578
21.9607
21.9637
21.9669
21.9703
21.9739
21.9776
21.9816
21.9858
21.9902
21.9948
21.9996
22.0046
22.0099
22.0153
22.0208
22.0266
22.0325
22.0387
22.045
22.0517
22.0586
22.066
22.0737
22.082
22.0907
22.0999
22.1097
22.1201
22.1311
22.1428
22.1553
22.1684
22.1823
22.197
22.2124
22.2286
22.2457
22.2638
22.2831
22.304
22.3269
22.3523
22.3805
22.4117
22.4461
22.4839
22.5252
22.57
22.6185
22.6708
22.7272
22.7878
22.8527
22.9226
22.9987
23.0828
23.1773
23.2841
23.4049
23.5409
23.6931
23.8624
24.0494
24.2548
24.4788
24.7218
24.9849
25.2707
25.5878
25.9526
26.3805
26.8805
27.4555
28.1046
28.8252
29.6143
30.4684
31.3852
32.3632
33.4116
34.563
35.8807
37.4011
39.1369
41.0941
43.2746
45.6736
48.2809
51.0867
54.083
57.282
60.6979
64.8627
70.5469
77.7753
86.3776
96.1935
107.118
119.066
131.934
145.632
160.049
175.083
190.386
204.827
218.418
231.414
243.841
21.9653
21.9699
21.9747
21.9799
21.9854
21.9913
21.9977
22.0044
22.0117
22.0193
22.0275
22.0361
22.0451
22.0545
22.0644
22.0748
22.0856
22.0968
22.1087
22.1211
22.1341
22.1478
22.1621
22.1771
22.1927
22.2091
22.2263
22.2442
22.2629
22.2823
22.3025
22.3234
22.3451
22.3675
22.3906
22.4148
22.4402
22.4671
22.4958
22.5265
22.5595
22.5948
22.6325
22.6727
22.7153
22.7604
22.8081
22.8583
22.9113
22.967
23.0255
23.087
23.1514
23.2192
23.2909
23.3676
23.451
23.5425
23.6431
23.7538
23.8753
24.0086
24.1544
24.3135
24.4865
24.674
24.8765
25.0944
25.3283
25.5792
25.8487
26.1415
26.469
26.8444
27.277
27.7714
28.3286
28.9478
29.6277
30.367
31.1647
32.0201
32.9332
33.9051
34.9486
36.096
37.3972
38.8778
40.5489
42.4188
44.4919
46.7687
49.2455
51.917
54.7768
57.8275
61.0812
64.6485
69.3506
75.4323
82.8075
91.3465
100.95
111.55
123.079
135.44
148.566
162.366
176.763
191.233
205.023
218.126
230.675
242.792
254.389
265.36
275.761
285.571
294.69
303.108
310.642
317.118
322.653
327.303
331.187
22.1123
22.1298
22.1486
22.1686
22.1899
22.2125
22.2365
22.2619
22.2886
22.3168
22.3465
22.3777
22.4104
22.4446
22.4803
22.5178
22.5571
22.5985
22.6422
22.6884
22.7373
22.789
22.8436
22.9011
22.9615
23.0246
23.0905
23.1589
23.23
23.3034
23.3793
23.4575
23.5379
23.6207
23.7065
23.796
23.8903
23.99
24.0958
24.2082
24.3276
24.4546
24.5895
24.7329
24.8851
25.0465
25.2172
25.3974
25.5874
25.7872
25.9971
26.2173
26.4484
26.6911
26.9478
27.2244
27.5297
27.8711
28.2531
28.6776
29.145
29.6553
30.2087
30.8055
31.4463
32.1319
32.8632
33.641
34.4663
35.3403
36.2694
37.2737
38.3873
39.6343
41.024
42.5636
44.2615
46.124
48.1537
50.3514
52.716
55.2483
57.9487
60.8279
63.8972
67.3174
71.7742
77.3776
84.0651
91.7467
100.35
109.819
120.11
131.172
142.95
155.406
168.463
182.017
195.253
207.979
220.257
232.137
243.663
254.778
265.34
275.353
284.86
293.738
301.94
309.345
315.774
321.298
326.123
330.259
333.826
337.027
339.733
342.049
344.27
346.338
348.236
349.928
351.312
352.433
353.447
22.5951
22.6539
22.7167
22.784
22.8559
22.933
23.0153
23.1031
23.1964
23.2953
23.3996
23.5092
23.6238
23.7433
23.8675
23.9967
24.1312
24.2719
24.4192
24.5737
24.7354
24.9048
25.0818
25.2669
25.4602
25.662
25.8724
26.0913
26.3186
26.5541
26.7975
27.0483
27.3061
27.571
27.8434
28.1255
28.4223
28.7391
29.0799
29.4471
29.8417
30.2637
30.7129
31.1886
31.6908
32.2192
32.7739
33.355
33.963
34.5979
35.2602
35.9504
36.6688
37.4163
38.1951
39.0168
39.8997
40.8603
41.9047
43.0371
44.2641
45.5934
47.0324
48.5863
50.2585
52.0519
53.9688
56.0122
58.1857
60.494
62.9425
65.5457
68.3325
71.7427
76.0159
81.1273
87.0058
93.5958
100.868
108.803
117.388
126.619
136.478
146.941
157.995
169.612
181.678
193.513
205.041
216.361
227.463
238.256
248.778
259.01
268.779
278.012
286.709
294.858
302.412
309.204
315.146
320.342
324.959
329.004
332.481
335.624
338.515
340.994
343.267
345.51
347.546
349.316
350.843
352.122
353.233
354.264
355.129
355.885
356.721
357.322
357.711
358.134
358.435
358.577
358.645
358.658
24.3765
24.5849
24.8062
25.041
25.2895
25.5518
25.828
26.1182
26.4224
26.7407
27.0732
27.4197
27.78
28.1536
28.5405
28.9414
29.3596
29.799
30.263
30.7538
31.2726
31.8194
32.3935
32.9937
33.6184
34.2662
34.9355
35.6251
36.3335
37.0597
37.8024
38.5604
39.3328
40.1187
40.922
41.7529
42.6226
43.5345
44.4892
45.4891
46.5389
47.644
48.8095
50.0391
51.335
52.6985
54.1304
55.6315
57.2029
58.8459
60.5624
62.3546
64.226
66.1788
68.2224
70.3596
72.7875
75.7396
79.2218
83.1898
87.605
92.4483
97.7172
103.419
109.567
116.172
123.242
130.782
138.794
147.273
156.216
165.616
175.471
185.368
195.115
204.742
214.285
223.776
233.144
242.318
251.299
260.003
268.36
276.403
284.084
291.391
298.286
304.584
310.273
315.378
319.881
323.978
327.689
330.858
333.862
336.829
339.54
342.009
344.384
346.514
348.364
350.011
351.428
352.612
353.735
354.832
355.648
356.312
357.093
357.713
358.128
358.523
358.807
358.982
359.099
359.192
359.252
359.31
359.478
359.645
359.803
359.982
360.138
360.242
360.274
360.236
360.151
360.021
30.0724
30.6951
31.3571
32.0612
32.8093
33.6019
34.4383
35.3169
36.2353
37.1906
38.1796
39.1989
40.2454
41.316
42.4103
43.5347
44.6968
45.8967
47.1315
48.3994
49.7015
51.0414
52.4238
53.8529
55.331
56.8591
58.4366
60.0621
61.7341
63.4504
65.2087
67.007
68.8443
70.7219
72.641
74.6514
76.9634
79.6015
82.5477
85.774
89.2567
92.9813
96.9423
101.14
105.577
110.259
115.189
120.37
125.805
131.495
137.442
143.646
150.106
156.821
163.792
171.032
178.373
185.609
192.767
199.897
207.027
214.159
221.282
228.377
235.426
242.408
249.299
256.085
262.741
269.239
275.576
281.728
287.669
293.331
298.608
303.451
307.976
312.148
315.984
319.766
323.351
326.632
329.918
333.034
335.85
338.605
341.168
343.506
345.663
347.518
349.206
350.786
352.07
353.149
354.378
355.166
355.627
356.23
356.975
357.431
357.78
358.124
358.397
358.592
358.73
358.926
359.12
359.285
359.571
359.866
360.126
360.368
360.569
360.729
360.82
360.857
360.868
360.852
360.87
360.944
361.033
361.13
361.227
361.3
361.323
361.282
361.188
361.045
46.1854
47.8494
49.5724
51.3473
53.1704
55.0422
56.9658
58.9459
60.9868
63.091
65.2595
67.4909
69.7833
72.1342
74.5389
77.0238
79.7802
82.8375
86.1874
89.8091
93.6781
97.7716
102.071
106.564
111.238
116.085
121.097
126.268
131.588
137.047
142.632
148.331
154.131
160.023
166.008
172.051
177.961
183.735
189.409
195.012
200.562
206.058
211.497
216.869
222.169
227.392
232.535
237.598
242.58
247.483
252.304
257.045
261.701
266.274
270.767
275.192
279.523
283.727
287.799
291.754
295.606
299.369
303.042
306.623
310.108
313.484
316.751
319.91
322.936
325.856
328.669
331.332
333.911
336.4
338.662
340.796
342.822
344.498
346.058
347.545
348.644
349.798
350.973
351.756
352.625
353.498
354.088
354.784
355.384
355.801
356.325
356.791
357.052
357.405
357.989
358.38
358.58
358.836
359.289
359.633
359.908
360.151
360.37
360.544
360.629
360.716
360.813
360.911
361.089
361.29
361.484
361.666
361.834
361.978
362.07
362.105
362.105
362.073
362.031
362.007
362.007
362.022
362.047
362.067
362.058
362.002
361.891
361.728
81.7581
85.5648
89.756
94.3219
99.2407
104.484
110.023
115.827
121.873
128.137
134.596
141.224
147.998
154.895
161.891
168.934
175.819
182.511
189.022
195.37
201.557
207.579
213.426
219.088
224.55
229.799
234.828
239.635
244.218
248.579
252.715
256.624
260.336
263.911
267.412
270.872
274.279
277.616
280.875
284.055
287.159
290.188
293.139
296.012
298.802
301.507
304.126
306.663
309.12
311.498
313.804
316.037
318.199
320.285
322.292
324.216
326.05
327.779
329.392
330.903
332.35
333.752
335.114
336.437
337.716
338.953
340.158
341.318
342.44
343.548
344.598
345.612
346.647
347.605
348.511
349.498
350.394
351.171
352.123
353.01
353.61
354.423
355.261
355.709
356.32
356.953
357.35
357.892
358.352
358.668
359.079
359.396
359.556
359.776
360.193
360.499
360.641
360.789
361.069
361.34
361.568
361.758
361.929
362.078
362.158
362.201
362.249
362.292
362.346
362.439
362.553
362.672
362.791
362.898
362.975
363.006
362.994
362.942
362.861
362.778
362.713
362.671
362.648
362.63
362.598
362.532
362.419
362.254
362.047
182.254
190.674
198.881
206.85
214.568
222.014
229.161
235.982
242.469
248.605
254.363
259.734
264.701
269.238
273.399
277.255
280.868
284.292
287.542
290.626
293.564
296.366
299.03
301.551
303.945
306.213
308.354
310.357
312.207
313.868
315.266
316.403
317.328
318.099
318.772
319.381
319.95
320.499
321.044
321.601
322.182
322.793
323.453
324.145
324.879
325.656
326.475
327.332
328.228
329.16
330.129
331.137
332.183
333.269
334.391
335.542
336.709
337.869
339.009
340.12
341.201
342.258
343.295
344.306
345.295
346.267
347.2
348.111
349.018
349.866
350.691
351.547
352.307
353.032
353.861
354.539
355.131
355.948
356.61
357.058
357.751
358.418
358.724
359.177
359.655
359.944
360.33
360.689
360.956
361.199
361.419
361.562
361.658
361.806
362.013
362.169
362.209
362.282
362.436
362.611
362.764
362.893
363.012
363.096
363.14
363.166
363.185
363.209
363.26
363.336
363.428
363.527
363.622
363.697
363.735
363.729
363.676
363.583
363.471
363.36
363.266
363.189
363.125
363.057
362.97
362.848
362.681
362.473
288.195
292.949
297.223
301.117
304.68
307.948
310.973
313.759
316.304
318.644
320.795
322.722
324.326
325.439
326.058
326.369
326.516
326.505
326.372
326.206
326.032
325.806
325.561
325.36
325.213
325.113
325.072
325.106
325.241
325.505
325.92
326.432
326.961
327.452
327.886
328.275
328.636
328.987
329.346
329.723
330.131
330.575
331.065
331.6
332.179
332.809
333.483
334.197
334.951
335.744
336.573
337.438
338.339
339.273
340.237
341.23
342.245
343.281
344.325
345.338
346.307
347.239
348.144
349.018
349.871
350.704
351.498
352.279
353.049
353.752
354.452
355.177
355.773
356.37
357.084
357.566
358.017
358.712
359.113
359.383
359.85
360.318
360.525
360.813
361.191
361.408
361.641
361.964
362.184
362.325
362.474
362.65
362.768
362.803
362.909
363.066
363.163
363.209
363.29
363.419
363.56
363.687
363.797
363.887
363.947
363.981
363.997
364.009
364.032
364.075
364.134
364.205
364.277
364.338
364.372
364.366
364.313
364.215
364.085
363.941
363.8
363.671
363.557
363.448
363.332
363.194
363.023
362.817
340.711
340.679
340.507
340.085
339.531
338.998
338.389
337.634
336.924
336.347
335.871
335.516
335.428
335.549
335.659
335.653
335.466
335.134
334.76
334.372
333.939
333.462
333.021
332.629
332.268
331.945
331.673
331.471
331.365
331.445
331.692
332.041
332.428
332.803
333.145
333.453
333.74
334.021
334.312
334.629
334.983
335.385
335.84
336.35
336.916
337.534
338.21
338.924
339.679
340.472
341.297
342.152
343.033
343.935
344.856
345.789
346.725
347.65
348.556
349.43
350.271
351.079
351.856
352.615
353.35
354.047
354.742
355.413
356.015
356.648
357.272
357.757
358.302
358.931
359.3
359.695
360.31
360.639
360.851
361.217
361.638
361.813
362.028
362.365
362.548
362.69
362.971
363.177
363.294
363.368
363.504
363.65
363.713
363.734
363.83
363.945
364.017
364.065
364.143
364.255
364.373
364.48
364.57
364.641
364.689
364.716
364.729
364.74
364.759
364.79
364.832
364.878
364.918
364.939
364.927
364.871
364.769
364.627
364.458
364.278
364.102
363.937
363.782
363.63
363.47
363.289
363.082
349.922
349.558
348.926
348.086
347.289
346.407
345.315
344.22
343.214
342.181
341.125
340.284
339.74
339.239
338.847
338.384
337.708
337.074
336.571
335.941
335.175
334.569
334.06
333.569
333.134
332.774
332.511
332.351
332.277
332.334
332.542
332.881
333.306
333.773
334.25
334.721
335.186
335.649
336.122
336.614
337.136
337.697
338.299
338.947
339.635
340.377
341.15
341.955
342.79
343.65
344.53
345.426
346.335
347.252
348.171
349.086
349.988
350.87
351.722
352.539
353.314
354.049
354.758
355.429
356.064
356.698
357.286
357.82
358.402
358.927
359.341
359.856
360.377
360.677
361.033
361.58
361.862
362.03
362.351
362.719
362.85
363.025
363.313
363.456
363.554
363.795
363.986
364.092
364.129
364.212
364.349
364.46
364.491
364.525
364.621
364.716
364.772
364.819
364.897
364.999
365.102
365.192
365.267
365.325
365.363
365.383
365.392
365.397
365.404
365.417
365.433
365.446
365.445
365.417
365.351
365.241
365.088
364.899
364.69
364.474
364.263
364.063
363.873
363.684
363.488
363.278
363.056
362.829
352.144
351.165
349.883
348.473
347.345
346.083
344.593
343.27
342.084
340.872
339.638
338.528
337.616
336.814
336.248
335.814
335.325
334.859
334.563
334.182
333.713
333.281
332.952
332.673
332.415
332.206
332.08
332.047
332.089
332.219
332.463
332.837