/*--------------------------------*- C++ -*----------------------------------*\
| =========                 |                                                 |
| \\      /  F ield         | OpenFOAM: The Open Source CFD Toolbox           |
|  \\    /   O peration     | Version:  v1706                                 |
|   \\  /    A nd           | Web:      www.OpenFOAM.com                      |
|    \\/     M anipulation  |                                                 |
\*---------------------------------------------------------------------------*/
FoamFile
{
    version     2.0;
    format      ascii;
    class       volScalarField;
    location    "3.4e-05";
    object      Tt;
}
// * * * * * * * * * * * * * * * * * * * * * * * * * * * * * * * * * * * * * //

dimensions      [0 0 0 1 0 0 0];


internalField   nonuniform List<scalar> 
29871
(
144.4
144.4
144.4
144.4
144.4
144.4
144.4
144.4
144.4
144.4
144.4
144.4
144.4
144.4
144.4
144.4
144.4
144.4
144.4
144.4
144.4
144.4
144.4
144.4
144.4
144.4
144.4
144.4
144.4
144.4
144.4
144.4
144.4
144.4
144.4
144.4
144.4
144.4
144.4
144.4
144.4
144.4
144.4
144.4
144.4
144.4
144.4
144.4
144.4
144.4
144.4
144.4
144.4
144.4
144.4
144.4
144.4
144.4
144.4
144.4
144.4
144.4
144.4
144.4
144.4
144.4
144.4
144.4
144.4
144.4
144.4
144.4
144.4
144.4
144.4
144.4
144.4
144.4
144.4
144.4
144.4
144.4
144.4
144.4
144.4
144.4
144.4
144.4
144.4
144.4
144.4
144.4
144.4
144.4
144.4
144.4
144.4
144.4
144.4
144.4
144.4
144.4
144.4
144.4
144.4
144.4
144.4
144.4
144.4
144.4
144.4
144.4
144.4
144.4
144.4
144.4
144.4
144.4
144.4
144.4
144.4
144.4
144.4
144.4
144.4
144.4
144.4
144.4
144.4
144.4
144.4
144.4
144.4
144.4
144.4
144.4
144.4
144.4
144.4
144.4
144.4
144.4
144.4
144.4
144.4
144.4
144.4
144.4
144.4
144.4
144.4
144.4
144.4
144.4
144.4
144.4
144.4
144.4
144.4
144.4
144.4
144.4
144.4
144.4
144.4
144.4
144.4
144.4
144.4
144.4
144.4
144.4
144.4
144.4
144.4
144.4
144.4
144.4
144.4
144.4
144.4
144.4
144.4
144.4
144.4
144.4
144.4
144.4
144.4
144.4
144.4
144.4
144.4
144.4
144.4
144.4
144.4
144.4
144.4
144.4
144.4
144.4
144.4
144.4
144.4
144.4
144.4
144.4
144.4
144.4
144.4
144.4
144.4
144.4
144.4
144.4
144.4
144.4
144.4
144.4
144.4
144.4
144.4
144.4
144.4
144.4
144.4
144.4
144.4
144.4
144.4
144.4
144.4
144.4
144.4
144.4
144.4
144.4
144.4
144.4
144.4
144.4
144.4
144.4
144.4
144.4
144.4
144.4
144.4
144.4
144.4
144.4
144.4
144.4
144.4
144.4
144.4
144.4
144.4
144.4
144.4
144.4
144.4
144.4
144.4
144.4
144.4
144.4
144.4
144.4
144.4
144.4
144.4
144.4
144.4
144.4
144.4
144.4
144.4
144.4
144.4
144.4
144.4
144.4
144.4
144.4
144.4
144.4
144.4
144.4
144.4
144.4
144.4
144.4
144.4
144.4
144.4
144.4
144.4
144.4
144.4
144.4
144.4
144.4
144.4
144.4
144.4
144.4
144.4
144.4
144.4
144.4
144.4
144.4
144.4
144.4
144.4
144.4
144.4
144.4
144.4
144.4
144.4
144.4
144.4
144.4
144.4
144.4
144.4
144.4
144.4
144.4
144.4
144.4
144.4
144.4
144.4
144.4
144.4
144.4
144.4
144.4
144.4
144.4
144.4
144.4
144.4
144.4
144.4
144.4
144.4
144.4
144.4
144.4
144.4
144.4
144.4
144.4
144.4
144.4
144.4
144.4
144.4
144.4
144.4
144.4
144.4
144.4
144.4
144.4
144.4
144.4
144.4
144.4
144.4
144.4
144.4
144.4
144.4
144.4
144.4
144.4
144.4
144.4
144.4
144.4
144.4
144.4
144.4
144.4
144.4
144.4
144.4
144.4
144.4
144.4
144.4
144.4
144.4
144.4
144.4
144.4
144.4
144.4
144.4
144.4
144.4
144.4
144.4
144.4
144.4
144.4
144.4
144.4
144.4
144.4
144.4
144.4
144.4
144.4
144.4
144.4
144.4
144.4
144.4
144.4
144.4
144.4
144.4
144.4
144.4
144.4
144.4
144.4
144.4
144.4
144.4
144.4
144.4
144.4
144.4
144.4
144.4
144.4
144.4
144.4
144.4
144.4
144.4
144.4
144.4
144.4
144.4
144.4
144.4
144.4
144.4
144.4
144.4
144.4
144.4
144.4
144.4
144.4
144.4
144.4
144.4
144.4
144.4
144.4
144.4
144.4
144.4
144.4
144.4
144.4
144.4
144.4
144.4
144.4
144.4
144.4
144.4
144.4
144.4
144.4
144.4
144.4
144.4
144.4
144.4
144.4
144.4
144.4
144.4
144.4
144.4
144.4
144.4
144.4
144.4
144.4
144.4
144.4
144.4
144.4
144.4
144.4
144.4
144.4
144.4
144.4
144.4
144.4
144.4
144.4
144.4
144.4
144.4
144.4
144.4
144.4
144.4
144.4
144.4
144.4
144.4
144.4
144.4
144.4
144.4
144.4
144.4
144.4
144.4
144.4
144.4
144.4
144.4
144.4
144.4
144.4
144.4
144.4
144.4
144.4
144.4
144.4
144.4
144.4
144.4
144.4
144.4
144.4
144.4
144.4
144.4
144.4
144.4
144.4
144.4
144.4
144.4
144.4
144.4
144.4
144.4
144.4
144.4
144.4
144.4
144.4
144.4
144.4
144.4
144.4
144.4
144.4
144.4
144.4
144.4
144.4
144.4
144.4
144.4
144.4
144.4
144.4
144.4
144.4
144.4
144.4
144.4
144.4
144.4
144.4
144.4
144.4
144.4
144.4
144.4
144.4
144.4
144.4
144.4
144.4
144.4
144.4
144.4
144.4
144.4
144.4
144.4
144.4
144.4
144.4
144.4
144.4
144.4
144.4
144.4
144.4
144.4
144.4
144.4
144.4
144.4
144.4
144.4
144.4
144.4
144.4
144.4
144.4
144.4
144.4
144.4
144.4
144.4
144.4
144.4
144.4
144.4
144.4
144.4
144.4
144.4
144.4
144.4
144.4
144.4
144.4
144.4
144.4
144.4
144.4
144.4
144.4
144.4
144.4
144.4
144.4
144.4
144.4
144.4
144.4
144.4
144.4
144.4
144.4
144.4
144.4
144.4
144.4
144.4
144.4
144.4
144.4
144.4
144.4
144.4
144.4
144.4
144.4
144.4
144.4
144.4
144.4
144.4
144.4
144.4
144.4
144.4
144.4
144.4
144.4
144.4
144.4
144.4
144.4
144.4
144.4
144.4
144.4
144.4
144.4
144.4
144.4
144.4
144.4
144.4
144.4
144.4
144.4
144.4
144.4
144.4
144.4
144.4
144.4
144.4
144.4
144.4
144.4
144.4
144.4
144.4
144.4
144.4
144.4
144.4
144.4
144.4
144.4
144.4
144.4
144.4
144.4
144.4
144.4
144.4
144.4
144.4
144.4
144.4
144.4
144.4
144.4
144.4
144.4
144.4
144.4
144.4
144.4
144.4
144.4
144.4
144.4
144.4
144.4
144.4
144.4
144.4
144.4
144.4
144.4
144.4
144.4
144.4
144.4
144.4
144.4
144.4
144.4
144.4
144.4
144.4
144.4
144.4
144.4
144.4
144.4
144.4
144.4
144.4
144.4
144.4
144.4
144.4
144.4
144.4
144.4
144.4
144.4
144.4
144.4
144.4
144.4
144.4
144.4
144.4
144.4
144.4
144.4
144.4
144.4
144.4
144.4
144.4
144.4
144.4
144.4
144.4
144.4
144.4
144.4
144.4
144.4
144.4
144.4
144.4
144.4
144.4
144.4
144.4
144.4
144.4
144.4
144.4
144.4
144.4
144.4
144.4
144.4
144.4
144.4
144.4
144.4
144.4
144.4
144.4
144.4
144.4
144.4
144.4
144.4
144.4
144.4
144.4
144.4
144.4
144.4
144.4
144.4
144.4
144.4
144.4
144.4
144.4
144.4
144.4
144.4
144.4
144.4
144.4
144.4
144.4
144.4
144.4
144.4
144.4
144.4
144.4
144.4
144.4
144.4
144.4
144.4
144.4
144.4
144.4
144.4
144.4
144.4
144.4
144.4
144.4
144.4
144.4
144.4
144.4
144.4
144.4
144.4
144.4
144.4
144.4
144.4
144.4
144.4
144.4
144.4
144.4
144.4
144.4
144.4
144.4
144.4
144.4
144.4
144.4
144.4
144.4
144.4
144.4
144.4
144.4
144.4
144.4
144.4
144.4
144.4
144.4
144.4
144.4
144.4
144.4
144.4
144.4
144.4
144.4
144.4
144.4
144.4
144.4
144.4
144.4
144.4
144.4
144.4
144.4
144.4
144.4
144.4
144.4
144.4
144.4
144.4
144.4
144.4
144.4
144.4
144.4
144.4
144.4
144.4
144.4
144.4
144.4
144.4
144.4
144.4
144.4
144.4
144.4
144.4
144.4
144.4
144.4
144.4
144.4
144.4
144.4
144.4
144.4
144.4
144.4
144.4
144.4
144.4
144.4
144.4
144.4
144.4
144.4
144.4
144.4
144.4
144.4
144.4
144.4
144.4
144.4
144.4
144.4
144.4
144.4
144.4
144.4
144.4
144.4
144.4
144.4
144.4
144.4
144.4
144.4
144.4
144.4
144.4
144.4
144.4
144.4
144.4
144.4
144.4
144.4
144.4
144.4
144.4
144.4
144.4
144.4
144.4
144.4
144.4
144.4
144.4
144.4
144.4
144.4
144.4
144.4
144.4
144.4
144.4
144.4
144.4
144.4
144.4
144.4
144.4
144.4
144.4
144.4
144.4
144.4
144.4
144.4
144.4
144.4
144.4
144.4
144.4
144.4
144.4
144.4
144.4
144.4
144.4
144.4
144.4
144.4
144.4
144.4
144.4
144.4
144.4
144.4
144.4
144.4
144.4
144.4
144.4
144.4
144.4
144.4
144.4
144.4
144.4
144.4
144.4
144.4
144.4
144.4
144.4
144.4
144.4
144.4
144.4
144.4
144.4
144.4
144.4
144.4
144.4
144.4
144.4
144.4
144.4
144.4
144.4
144.4
144.4
144.4
144.4
144.4
144.4
144.4
144.4
144.4
144.4
144.4
144.4
144.4
144.4
144.4
144.4
144.4
144.4
144.4
144.4
144.4
144.4
144.4
144.4
144.4
144.4
144.4
144.4
144.4
144.4
144.4
144.4
144.4
144.4
144.4
144.4
144.4
144.4
144.4
144.4
144.4
144.4
144.4
144.4
144.4
144.4
144.4
144.4
144.4
144.4
144.4
144.4
144.4
144.4
144.4
144.4
144.4
144.4
144.4
144.4
144.4
144.4
144.4
144.4
144.4
144.4
144.4
144.4
144.4
144.4
144.4
144.4
144.4
144.4
144.4
144.4
144.4
144.4
144.4
144.4
144.4
144.4
144.401
144.401
144.4
144.4
144.4
144.4
144.4
144.4
144.4
144.4
144.4
144.4
144.4
144.4
144.4
144.4
144.4
144.4
144.4
144.4
144.4
144.4
144.4
144.4
144.4
144.4
144.4
144.4
144.4
144.4
144.4
144.4
144.4
144.4
144.4
144.4
144.4
144.4
144.4
144.4
144.4
144.4
144.4
144.4
144.4
144.4
144.4
144.4
144.4
144.4
144.4
144.4
144.4
144.4
144.4
144.4
144.4
144.4
144.4
144.4
144.4
144.4
144.4
144.4
144.4
144.4
144.4
144.4
144.4
144.4
144.4
144.4
144.4
144.4
144.4
144.4
144.4
144.4
144.4
144.4
144.4
144.4
144.4
144.4
144.4
144.4
144.4
144.4
144.4
144.4
144.4
144.4
144.4
144.4
144.4
144.4
144.401
144.401
144.401
144.401
144.401
144.401
144.401
144.401
144.401
144.401
144.402
144.402
144.402
144.402
144.403
144.403
144.403
144.4
144.4
144.4
144.4
144.4
144.4
144.4
144.4
144.4
144.4
144.4
144.4
144.4
144.4
144.4
144.4
144.4
144.4
144.4
144.4
144.4
144.4
144.4
144.4
144.4
144.4
144.4
144.4
144.4
144.4
144.4
144.4
144.4
144.4
144.4
144.4
144.4
144.4
144.4
144.4
144.4
144.4
144.4
144.4
144.4
144.4
144.4
144.4
144.4
144.4
144.4
144.4
144.4
144.4
144.4
144.4
144.4
144.4
144.4
144.4
144.4
144.4
144.4
144.4
144.4
144.4
144.4
144.4
144.4
144.4
144.4
144.4
144.4
144.4
144.4
144.4
144.4
144.401
144.401
144.401
144.401
144.401
144.401
144.401
144.401
144.401
144.401
144.401
144.401
144.402
144.402
144.402
144.402
144.402
144.403
144.403
144.403
144.404
144.404
144.405
144.405
144.406
144.407
144.408
144.408
144.41
144.411
144.412
144.414
144.415
144.417
144.419
144.422
144.4
144.4
144.4
144.4
144.4
144.4
144.4
144.4
144.4
144.4
144.4
144.4
144.4
144.4
144.4
144.4
144.4
144.4
144.4
144.4
144.4
144.4
144.4
144.4
144.4
144.4
144.4
144.4
144.4
144.4
144.4
144.4
144.4
144.4
144.4
144.4
144.4
144.4
144.4
144.4
144.4
144.4
144.4
144.4
144.4
144.4
144.4
144.4
144.4
144.4
144.4
144.4
144.4
144.4
144.401
144.401
144.401
144.401
144.401
144.401
144.401
144.401
144.401
144.401
144.401
144.401
144.401
144.401
144.401
144.401
144.401
144.402
144.402
144.402
144.402
144.402
144.402
144.403
144.403
144.403
144.403
144.404
144.404
144.404
144.405
144.405
144.406
144.407
144.407
144.408
144.409
144.41
144.411
144.413
144.414
144.416
144.418
144.42
144.422
144.425
144.428
144.431
144.435
144.439
144.444
144.45
144.457
144.464
144.473
144.482
144.492
144.503
144.516
144.4
144.4
144.4
144.4
144.4
144.4
144.4
144.4
144.4
144.4
144.4
144.4
144.4
144.4
144.4
144.4
144.4
144.4
144.4
144.4
144.4
144.4
144.4
144.4
144.4
144.401
144.401
144.401
144.401
144.401
144.401
144.401
144.401
144.401
144.401
144.401
144.401
144.401
144.401
144.401
144.401
144.401
144.401
144.401
144.401
144.401
144.401
144.401
144.402
144.402
144.402
144.402
144.402
144.402
144.402
144.402
144.402
144.402
144.403
144.403
144.403
144.403
144.403
144.404
144.404
144.404
144.404
144.405
144.405
144.405
144.406
144.406
144.407
144.407
144.408
144.409
144.41
144.41
144.411
144.412
144.413
144.415
144.416
144.418
144.42
144.422
144.424
144.427
144.43
144.433
144.437
144.441
144.445
144.45
144.456
144.463
144.471
144.48
144.489
144.5
144.512
144.525
144.54
144.557
144.577
144.6
144.627
144.658
144.692
144.731
144.774
144.821
144.873
144.931
145
144.4
144.4
144.401
144.401
144.401
144.401
144.401
144.401
144.401
144.401
144.401
144.401
144.401
144.401
144.401
144.401
144.401
144.401
144.401
144.402
144.402
144.402
144.402
144.402
144.402
144.402
144.402
144.402
144.403
144.403
144.403
144.403
144.403
144.403
144.403
144.404
144.404
144.404
144.404
144.404
144.405
144.405
144.405
144.405
144.405
144.406
144.406
144.406
144.407
144.407
144.407
144.408
144.408
144.409
144.409
144.41
144.41
144.411
144.412
144.412
144.413
144.414
144.415
144.416
144.417
144.418
144.42
144.421
144.423
144.425
144.427
144.429
144.432
144.434
144.437
144.441
144.445
144.449
144.453
144.458
144.464
144.47
144.477
144.485
144.495
144.505
144.517
144.53
144.544
144.56
144.577
144.597
144.619
144.645
144.675
144.709
144.748
144.792
144.841
144.895
144.954
145.019
145.093
145.179
145.28
145.398
145.536
145.694
145.872
146.07
146.286
146.522
146.782
147.077
147.424
147.841
144.401
144.401
144.401
144.401
144.401
144.402
144.402
144.402
144.402
144.402
144.402
144.403
144.403
144.403
144.403
144.403
144.404
144.404
144.404
144.404
144.405
144.405
144.405
144.406
144.406
144.406
144.407
144.407
144.407
144.408
144.408
144.409
144.409
144.41
144.41
144.411
144.411
144.412
144.412
144.413
144.414
144.414
144.415
144.416
144.417
144.417
144.418
144.419
144.42
144.421
144.422
144.424
144.425
144.426
144.427
144.429
144.43
144.432
144.434
144.436
144.438
144.44
144.442
144.445
144.448
144.451
144.455
144.458
144.462
144.467
144.471
144.476
144.482
144.488
144.495
144.502
144.511
144.521
144.532
144.544
144.557
144.572
144.587
144.605
144.624
144.645
144.668
144.695
144.725
144.76
144.799
144.844
144.895
144.951
145.013
145.081
145.155
145.238
145.332
145.44
145.567
145.714
145.883
146.075
146.29
146.527
146.788
147.072
147.386
147.743
148.16
148.654
149.236
149.91
150.677
151.532
152.473
153.496
154.6
155.806
157.178
158.819
160.805
144.404
144.405
144.405
144.406
144.406
144.407
144.407
144.408
144.408
144.409
144.41
144.411
144.411
144.412
144.413
144.414
144.415
144.416
144.417
144.418
144.419
144.421
144.422
144.423
144.425
144.426
144.428
144.429
144.431
144.433
144.434
144.436
144.438
144.44
144.442
144.444
144.447
144.449
144.451
144.454
144.457
144.46
144.463
144.466
144.469
144.473
144.477
144.481
144.485
144.489
144.494
144.499
144.504
144.509
144.515
144.521
144.528
144.535
144.542
144.551
144.56
144.57
144.581
144.593
144.606
144.621
144.636
144.653
144.671
144.69
144.711
144.734
144.758
144.786
144.817
144.852
144.891
144.936
144.985
145.04
145.101
145.167
145.24
145.319
145.405
145.501
145.609
145.732
145.874
146.038
146.225
146.437
146.673
146.935
147.223
147.536
147.878
148.258
148.693
149.199
149.792
150.479
151.265
152.15
153.132
154.209
155.377
156.641
158.026
159.604
161.474
163.7
166.301
169.265
172.561
176.153
180.002
184.077
188.362
192.92
198.033
204.149
211.402
144.418
144.42
144.421
144.423
144.425
144.427
144.43
144.432
144.435
144.437
144.44
144.443
144.447
144.45
144.453
144.457
144.461
144.465
144.469
144.474
144.479
144.484
144.489
144.494
144.5
144.506
144.512
144.518
144.525
144.532
144.54
144.547
144.555
144.563
144.571
144.58
144.589
144.599
144.608
144.619
144.63
144.642
144.654
144.668
144.682
144.697
144.713
144.73
144.748
144.766
144.786
144.807
144.829
144.851
144.876
144.901
144.929
144.959
144.991
145.027
145.067
145.111
145.158
145.211
145.267
145.329
145.396
145.469
145.547
145.63
145.721
145.819
145.928
146.049
146.187
146.343
146.52
146.719
146.941
147.187
147.458
147.753
148.074
148.421
148.8
149.219
149.695
150.243
150.878
151.607
152.436
153.366
154.397
155.528
156.757
158.085
159.523
161.115
162.947
165.097
167.608
170.488
173.721
177.281
181.135
185.251
189.6
194.179
199.072
204.59
211.085
218.623
227.08
236.274
246.018
256.137
266.486
276.944
287.457
298.101
309.668
324.167
340.773
144.473
144.479
144.486
144.494
144.502
144.51
144.519
144.529
144.539
144.55
144.561
144.573
144.586
144.599
144.613
144.628
144.643
144.659
144.676
144.693
144.712
144.731
144.752
144.773
144.796
144.819
144.844
144.87
144.897
144.925
144.954
144.984
145.015
145.047
145.08
145.114
145.15
145.187
145.227
145.269
145.314
145.362
145.413
145.467
145.524
145.585
145.65
145.718
145.79
145.866
145.946
146.03
146.119
146.212
146.31
146.415
146.528
146.653
146.79
146.942
147.11
147.295
147.497
147.718
147.959
148.219
148.501
148.804
149.129
149.479
149.855
150.264
150.717
151.228
151.81
152.47
153.215
154.049
154.973
155.988
157.095
158.294
159.586
160.976
162.478
164.138
166.032
168.228
170.762
173.642
176.858
180.391
184.216
188.309
192.644
197.206
202.026
207.252
213.237
220.147
227.952
236.529
245.729
255.403
265.407
275.617
285.934
296.33
306.915
318.778
333.077
349.015
365.647
382.285
398.477
413.915
428.388
441.798
454.098
465.239
475.209
483.821
491.309
497.905
503.714
144.688
144.713
144.74
144.769
144.8
144.833
144.868
144.905
144.945
144.987
145.031
145.078
145.127
145.178
145.231
145.287
145.346
145.407
145.472
145.539
145.611
145.686
145.764
145.847
145.933
146.024
146.119
146.218
146.32
146.427
146.537
146.652
146.769
146.891
147.017
147.148
147.285
147.43
147.585
147.75
147.927
148.115
148.315
148.529
148.756
148.996
149.25
149.517
149.8
150.097
150.409
150.736
151.079
151.44
151.822
152.231
152.677
153.168
153.711
154.311
154.972
155.697
156.487
157.346
158.275
159.277
160.352
161.503
162.732
164.042
165.443
166.961
168.649
170.565
172.746
175.208
177.953
180.972
184.255
187.788
191.559
195.555
199.765
204.188
208.868
213.959
219.736
226.312
233.658
241.684
250.276
259.321
268.71
278.34
288.125
298.005
308.008
318.413
330.737
344.82
359.892
375.306
390.604
405.464
419.642
432.961
445.351
456.77
467.173
476.491
484.651
491.809
498.131
503.762
508.739
513.085
516.887
520.184
522.973
525.265
527.078
528.494
529.659
530.642
531.488
145.509
145.605
145.708
145.818
145.935
146.06
146.192
146.333
146.481
146.638
146.803
146.976
147.158
147.347
147.544
147.75
147.966
148.192
148.43
148.681
148.946
149.224
149.516
149.823
150.145
150.48
150.83
151.193
151.57
151.96
152.361
152.775
153.2
153.637
154.089
154.561
155.059
155.588
156.152
156.753
157.393
158.075
158.798
159.565
160.376
161.231
162.132
163.078
164.07
165.109
166.194
167.328
168.512
169.749
171.053
172.455
173.991
175.692
177.573
179.64
181.894
184.335
186.962
189.772
192.764
195.936
199.285
202.809
206.505
210.372
214.433
218.766
223.562
228.952
234.945
241.497
248.546
256.029
263.879
272.033
280.431
289.023
297.761
306.624
315.659
325.202
336.423
348.996
362.381
376.116
389.841
403.287
416.259
428.606
440.232
451.108
461.182
470.431
478.687
486.034
492.589
498.45
503.712
508.416
512.562
516.199
519.39
522.116
524.384
526.233
527.731
528.988
530.098
531.074
531.951
532.775
533.494
534.131
534.761
535.332
535.812
536.191
536.47
536.689
536.902
148.215
148.543
148.893
149.266
149.663
150.087
150.537
151.014
151.519
152.05
152.609
153.195
153.805
154.441
155.1
155.784
156.496
157.24
158.019
158.837
159.696
160.595
161.537
162.521
163.546
164.612
165.718
166.862
168.043
169.258
170.505
171.782
173.086
174.417
175.778
177.181
178.649
180.204
181.859
183.623
185.496
187.48
189.573
191.772
194.077
196.484
198.992
201.597
204.299
207.095
209.984
212.963
216.033
219.193
222.451
225.849
229.486
233.463
237.809
242.511
247.547
252.896
258.539
264.455
270.625
277.026
283.637
290.434
297.397
304.506
311.743
319.129
326.776
335.426
345.232
355.844
366.927
378.229
389.555
400.752
411.698
422.305
432.501
442.233
451.483
460.208
468.373
475.801
482.558
488.737
494.368
499.463
504.095
508.297
512.039
515.326
518.194
520.664
522.759
524.51
525.985
527.273
528.441
529.494
530.429
531.307
532.147
532.893
533.589
534.263
534.84
535.309
535.7
536.04
536.359
536.683
536.998
537.315
537.662
537.974
538.253
538.54
538.774
538.958
539.093
539.199
158.004
159.114
160.291
161.538
162.857
164.249
165.713
167.249
168.855
170.529
172.266
174.064
175.918
177.824
179.779
181.787
183.864
186.025
188.278
190.629
193.078
195.621
198.255
200.973
203.77
206.636
209.565
212.549
215.579
218.648
221.748
224.871
228.012
231.168
234.352
237.61
241.018
244.605
248.372
252.311
256.41
260.66
265.054
269.581
274.234
279
283.87
288.834
293.882
299.007
304.2
309.455
314.768
320.132
325.558
331.099
337.089
343.814
351.118
358.828
366.811
374.97
383.234
391.542
399.843
408.089
416.235
424.239
432.065
439.676
447.052
454.169
460.996
467.41
473.394
478.978
484.187
489.056
493.579
497.759
501.62
505.153
508.357
511.263
513.876
516.201
518.253
520.042
521.63
523.064
524.357
525.557
526.674
527.671
528.658
529.651
530.564
531.391
532.168
532.84
533.408
533.914
534.377
534.804
535.233
535.674
536.073
536.458
536.887
537.292
537.65
537.985
538.266
538.511
538.724
538.928
539.132
539.352
539.607
539.866
540.119
540.377
540.618
540.823
540.988
541.116
541.224
541.322
188.028
191.136
194.393
197.8
201.353
205.046
208.868
212.808
216.851
220.981
225.182
229.437
233.73
238.044
242.376
246.75
251.22
255.805
260.498
265.283
270.145
275.07
280.045
285.06
290.099
295.15
300.199
305.232
310.235
315.198
320.107
324.952
329.728
334.435
339.099
343.835
348.957
354.403
360.081
365.916
371.849
377.837
383.846
389.85
395.826
401.756
407.623
413.413
419.113
424.712
430.2
435.569
440.809
445.918
450.895
455.731
460.378
464.794
469.006
473.034
476.891
480.585
484.121
487.499
490.719
493.779
496.674
499.407
501.974
504.374
506.615
508.696
510.611
512.374
513.999
515.504
516.935
518.288
519.576
520.875
522.132
523.318
524.512
525.642
526.671
527.666
528.571
529.381
530.121
530.775
531.39
531.986
532.527
533.029
533.584
534.085
534.533
535.03
535.555
536
536.394
536.761
537.098
537.41
537.703
538.017
538.333
538.642
538.998
539.353
539.69
540.014
540.318
540.589
540.821
541.03
541.231
541.433
541.656
541.894
542.132
542.369
542.602
542.819
543.008
543.165
543.296
543.408
259.629
265.966
272.435
279.001
285.633
292.299
298.974
305.634
312.257
318.822
325.307
331.691
337.955
344.082
350.07
355.996
362.139
368.442
374.826
381.225
387.583
393.855
400.003
406
411.823
417.454
422.882
428.099
433.098
437.875
442.426
446.75
450.851
454.746
458.453
461.974
465.273
468.381
471.325
474.119
476.777
479.306
481.712
484.001
486.176
488.243
490.207
492.075
493.853
495.545
497.158
498.695
500.16
501.56
502.902
504.19
505.431
506.645
507.852
509.065
510.286
511.513
512.737
513.953
515.154
516.333
517.485
518.608
519.691
520.738
521.747
522.702
523.617
524.487
525.278
526.03
526.756
527.406
528.049
528.708
529.308
529.952
530.63
531.223
531.843
532.466
533.005
533.561
534.076
534.52
534.977
535.407
535.788
536.194
536.648
537.044
537.396
537.769
538.21
538.607
538.977
539.328
539.663
539.97
540.244
540.527
540.819
541.11
541.42
541.737
542.052
542.364
542.669
542.958
543.217
543.449
543.663
543.868
544.075
544.296
544.526
544.76
544.994
545.22
545.427
545.61
545.766
545.9
374.467
382.749
391.057
399.302
407.405
415.299
422.927
430.248
437.228
443.848
450.093
455.952
461.422
466.504
471.198
475.503
479.385
482.9
486.096
489.01
491.667
494.085
496.281
498.266
500.051
501.648
503.068
504.322
505.421
506.374
507.19
507.881
508.483
509.035
509.568
510.096
510.623
511.156
511.699
512.251
512.811
513.376
513.942
514.507
515.068
515.621
516.167
516.705
517.236
517.76
518.277
518.787
519.288
519.779
520.259
520.728
521.183
521.626
522.067
522.523
523.007
523.524
524.067
524.634
525.219
525.817
526.429
527.045
527.663
528.287
528.9
529.505
530.114
530.696
531.253
531.82
532.352
532.838
533.361
533.86
534.282
534.765
535.264
535.667
536.128
536.602
537.009
537.463
537.892
538.268
538.66
539.03
539.355
539.694
540.085
540.436
540.736
541.034
541.38
541.727
542.069
542.395
542.714
543.02
543.297
543.565
543.838
544.114
544.399
544.697
545.003
545.31
545.616
545.915
546.194
546.45
546.683
546.9
547.111
547.328
547.555
547.791
548.031
548.267
548.492
548.698
548.88
549.039
549.182
500.794
505.289
509.267
512.784
515.885
518.613
520.998
523.062
524.829
526.322
527.555
528.536
529.269
529.772
530.111
530.354
530.546
530.709
530.849
530.963
531.055
531.123
531.165
531.162
531.139
531.089
531.007
530.886
530.721
530.498
530.213
529.88
529.525
529.169
528.827
528.508
528.219
527.967
527.76
527.6
527.49
527.426
527.427
527.459
527.532
527.645
527.794
527.974
528.182
528.417
528.676
528.955
529.254
529.567
529.892
530.222
530.551
530.873
531.192
531.511
531.839
532.18
532.539
532.914
533.304
533.71
534.126
534.554
534.996
535.435
535.88
536.342
536.783
537.218
537.683
538.104
538.498
538.951
539.346
539.668
540.051
540.421
540.702
541.037
541.387
541.691
542.034
542.377
542.692
542.995
543.302
543.585
543.863
544.16
544.473
544.764
545.021
545.301
545.604
545.918
546.228
546.532
546.831
547.115
547.386
547.654
547.925
548.206
548.5
548.804
549.113
549.424
549.731
550.025
550.3
550.553
550.786
551.006
551.223
551.447
551.678
551.915
552.153
552.386
552.605
552.806
552.986
553.15
554.712
555.014
555.194
555.303
555.321
555.277
555.185
555.033
554.812
554.532
554.195
553.773
553.229
552.542
551.747
550.913
550.079
549.245
548.418
547.623
546.866
546.142
545.453
544.81
544.212
543.657
543.146
542.68
542.258
541.881
541.539
541.201
540.837
540.443
540.027
539.605
539.192
538.8
538.439
538.116
537.839
537.609
537.433
537.307
537.225
537.199
537.216
537.269
537.362
537.489
537.649
537.839
538.056
538.295
538.554
538.827
539.109
539.389
539.656
539.904
540.141
540.374
540.612
540.858
541.113
541.381
541.655
541.943
542.243
542.541
542.853
543.183
543.489
543.805
544.161
544.457
544.747
545.106
545.384
545.624
545.917
546.2
546.418
546.668
546.945
547.186
547.439
547.723
547.985
548.228
548.477
548.74
548.992
549.235
549.5
549.776
550.036
550.293
550.567
550.856
551.151
551.444
551.733
552.015
552.287
552.553
552.819
553.089
553.37
553.663
553.964
554.269
554.574
554.871
555.154
555.417
555.66
555.887
556.104
556.321
556.543
556.77
557.003
557.235
557.46
557.673
557.869
558.051
575.82
574.792
573.772
572.728
571.672
570.667
569.687
568.689
567.739
566.851
566.01
565.223
564.507
563.78
562.964
562.068
561.107
560.111
559.124
558.166
557.231
556.325
555.472
554.675
553.929
553.24
552.611
552.046
551.555
551.139
550.769
550.416
550.057
549.683
549.293
548.896
548.504
548.126
547.772
547.451
547.17
546.933
546.743
546.599
546.503
546.449
546.452
546.481
546.545
546.644
546.773
546.929
547.108
547.308
547.523
547.748
547.976
548.201
548.415
548.614
548.804
548.987
549.167
549.35
549.537
549.725
549.923
550.128
550.328
550.548
550.779
550.985
551.217
551.484
551.689
551.909
552.192
552.408
552.596
552.829
553.069
553.249
553.444
553.672
553.867
554.053
554.286
554.501
554.7
554.89
555.103
555.33
555.54
555.75
555.985
556.228
556.467
556.711
556.971
557.243
557.519
557.793
558.065
558.331
558.593
558.852
559.112
559.379
559.655
559.94
560.233
560.528
560.82
561.102
561.368
561.615
561.844
562.059
562.268
562.477
562.691
562.911
563.134
563.357
563.574
563.78
563.975
587.118
585.935
584.672
583.367
582.107
580.845
579.562
578.334
577.175
576.06
575.007
574.06
573.166
572.27
571.374
570.437
569.419
568.405
567.45
566.471
565.483
564.569
563.711
562.898
562.141
561.45
560.826
560.271
559.793
559.4
559.076
558.795
558.531
558.269
558.004
557.737
557.473
557.217
556.977
556.76
556.571
556.414
556.291
556.204
556.145
556.142
556.159
556.203
556.276
556.375
556.497
556.64
556.802
556.978
557.166
557.36
557.555
557.745
557.924
558.089
558.241
558.383
558.52
558.652
558.78
558.915
559.046
559.173
559.322
559.466
559.592
559.755
559.932
560.06
560.213
560.423
560.574
560.703
560.879
561.064
561.198
561.348
561.526
561.676
561.814
562.003
562.174
562.337
562.48
562.642
562.833
563.024
563.199
563.388
563.6
563.819
564.039
564.269
564.515
564.77
565.028
565.286
565.542
565.796
566.047
566.298
566.55
566.809
567.076
567.351
567.63
567.91
568.182
568.443
568.688
568.914
569.125
569.325
569.521
569.719
569.922
570.131
570.345
570.558
570.767
570.97
571.169
571.37
596.155
594.918
593.56
592.162
590.846
589.49
588.097
586.783
585.531
584.307
583.141
582.087
581.141
580.261
579.443
578.653
577.83
576.996
576.206
575.389
574.563
573.758
572.997
572.27
571.58
570.94
570.355
569.826
569.358
568.962
568.646
568.398
568.2
568.032
567.878
567.729
567.58
567.431
567.284
567.144
567.015
566.905
566.814
566.747
566.699
566.689
566.699
566.728
566.778
566.849
566.939
567.045
567.166
567.3
567.444
567.596
567.751
567.905
568.053
568.188
568.308
568.416
568.515
568.602
568.685
568.769
568.844
568.917
569.009
569.085
569.155
569.261
569.361
569.431
569.529
569.676
569.766
569.844
569.971
570.103
570.191
570.303
570.436
570.543
570.648
570.796
570.928
571.058
571.166
571.292
571.449
571.616
571.774
571.928
572.105
572.301
572.501
572.705
572.924
573.157
573.397
573.639
573.883
574.127
574.37
574.612
574.854
575.098
575.347
575.602
575.862
576.124
576.382
576.631
576.867
577.087
577.29
577.48
577.662
577.843
578.028
578.22
578.419
578.623
578.829
579.035
579.241
579.45
603.813
602.666
601.428
600.247
599.104
597.859
596.62
595.461
594.291
593.128
592.019
590.972
589.99
589.095
588.299
587.562
586.854
586.156
585.493
584.842
584.183
583.528
582.895
582.284
581.699
581.148
580.638
580.172
579.751
579.384
579.081
578.846
578.673
578.549
578.461
578.394
578.336
578.278
578.218
578.154
578.091
578.031
577.979
577.937
577.905
577.894
577.9
577.918
577.95
577.997
578.058
578.131
578.215
578.31
578.414
578.524
578.64
578.756
578.869
578.973
579.064
579.142
579.209
579.261
579.309
579.354
579.386
579.422
579.468
579.496
579.527
579.587
579.631
579.661
579.719
579.813
579.853
579.895
579.983
580.069
580.117
580.198
580.292
580.362
580.443
580.553
580.651
580.754
580.834
580.94
581.076
581.215
581.36
581.498
581.647
581.817
582.002
582.189
582.384
582.594
582.816
583.044
583.274
583.508
583.743
583.978
584.211
584.444
584.678
584.915
585.155
585.396
585.636
585.87
586.092
586.301
586.494
586.672
586.841
587.005
587.171
587.344
587.526
587.717
587.915
588.118
588.326
588.543
610.969
609.79
608.74
607.683
606.56
605.514
604.492
603.422
602.396
601.416
600.435
599.493
598.635
597.853
597.144
596.491
595.88
595.313
594.78
594.262
593.755
593.262
592.783
592.32
591.878
591.465
591.083
590.735
590.425
590.16
589.948
589.791
589.687
589.629
589.608
589.609
589.615
589.622
589.624
589.621
589.613
589.602
589.589
589.577
589.574
589.577
589.588
589.608
589.637
589.675
589.722
589.777
589.84
589.91
589.986
590.067
590.151
590.235
590.312
590.379
590.435
590.477
590.505
590.528
590.543
590.546
590.554
590.566
590.561
590.566
590.592
590.598
590.602
590.634
590.687
590.694
590.713
590.775
590.823
590.844
590.901
590.965
591.005
591.068
591.145
591.219
591.299
591.359
591.46
591.579
591.699
591.829
591.962
592.096
592.246
592.414
592.592
592.772
592.964
593.17
593.384
593.603
593.826
594.053
594.282
594.509
594.734
594.956
595.177
595.399
595.621
595.84
596.055
596.261
596.455
596.635
596.801
596.955
597.103
597.251
597.405
597.568
597.743
597.929
598.126
598.333
598.552
619.754
618.633
617.632
616.611
615.623
614.706
613.776