/*--------------------------------*- C++ -*----------------------------------*\
| =========                 |                                                 |
| \\      /  F ield         | OpenFOAM: The Open Source CFD Toolbox           |
|  \\    /   O peration     | Version:  v1706                                 |
|   \\  /    A nd           | Web:      www.OpenFOAM.com                      |
|    \\/     M anipulation  |                                                 |
\*---------------------------------------------------------------------------*/
FoamFile
{
    version     2.0;
    format      ascii;
    class       volVectorField;
    location    "3.4e-05";
    object      U;
}
// * * * * * * * * * * * * * * * * * * * * * * * * * * * * * * * * * * * * * //

dimensions      [0 1 -1 0 0 0 0];


internalField   nonuniform List<vector> 
29871
(
(1760 -6.61887e-11 6.4851e-15)
(1760 -6.52214e-11 3.42207e-15)
(1760 -6.42956e-11 3.72376e-15)
(1760 -6.39091e-11 3.93438e-15)
(1760 -6.41222e-11 2.57795e-15)
(1760 -6.44513e-11 2.52173e-15)
(1760 -6.46264e-11 3.12096e-15)
(1760 -6.4667e-11 3.12971e-15)
(1760 -6.49635e-11 3.61736e-15)
(1760 -6.49411e-11 3.8018e-15)
(1760 -6.47943e-11 4.03222e-15)
(1760 -6.42482e-11 5.7206e-15)
(1760 -6.28798e-11 4.13792e-15)
(1760 -6.13315e-11 5.49122e-15)
(1760 -6.06954e-11 3.56624e-15)
(1760 -6.05065e-11 2.23599e-15)
(1760 -5.99723e-11 2.58418e-15)
(1760 -5.93666e-11 3.17285e-15)
(1760 -5.90636e-11 3.32118e-15)
(1760 -5.71848e-11 3.84344e-15)
(1760 -5.58258e-11 3.48149e-15)
(1760 -5.4848e-11 3.76642e-15)
(1760 -5.41025e-11 1.71696e-15)
(1760 -5.54124e-11 3.31593e-15)
(1760 -5.67876e-11 5.4601e-15)
(1760 -5.70033e-11 3.5985e-15)
(1760 -5.84029e-11 6.19519e-15)
(1760 -5.96581e-11 3.36376e-15)
(1760 -6.24702e-11 2.19692e-15)
(1760 -6.42979e-11 3.8027e-15)
(1760 -6.64369e-11 4.09895e-15)
(1760 -6.87552e-11 3.04341e-15)
(1760 -7.00745e-11 3.30946e-15)
(1760 -7.26493e-11 5.58533e-15)
(1760 -7.35653e-11 3.31443e-15)
(1760 -7.4048e-11 1.5418e-15)
(1760 -7.52328e-11 1.61538e-15)
(1760 -7.67709e-11 4.29617e-15)
(1760 -7.75423e-11 3.97052e-15)
(1760 -7.81039e-11 4.37845e-15)
(1760 -7.82362e-11 6.26946e-15)
(1760 -7.81304e-11 6.67291e-15)
(1760 -7.69012e-11 6.47338e-15)
(1760 -7.65072e-11 3.80629e-15)
(1760 -7.67962e-11 3.35348e-15)
(1760 -7.84483e-11 3.89363e-15)
(1760 -7.9642e-11 2.39587e-15)
(1760 -8.06798e-11 -1.2035e-16)
(1760 -8.02027e-11 9.29711e-16)
(1760 -7.8961e-11 5.60915e-15)
(1760 -7.73932e-11 4.4336e-15)
(1760 -7.60812e-11 1.37639e-15)
(1760 -7.57446e-11 2.61814e-15)
(1760 -7.46844e-11 4.52635e-15)
(1760 -7.28363e-11 4.36974e-15)
(1760 -6.8384e-11 4.44052e-15)
(1760 -6.456e-11 4.75543e-15)
(1760 -6.10595e-11 5.79794e-15)
(1760 -5.89855e-11 4.80116e-15)
(1760 -5.61656e-11 3.58045e-15)
(1760 -5.23719e-11 1.5741e-15)
(1760 -4.71629e-11 1.0064e-15)
(1760 -4.21581e-11 1.71408e-15)
(1760 -4.0082e-11 -5.23825e-16)
(1760 -3.91598e-11 3.81001e-15)
(1760 -3.81883e-11 4.03632e-15)
(1760 -3.72644e-11 2.89336e-15)
(1760 -3.5774e-11 1.8507e-15)
(1760 -3.36399e-11 8.47152e-16)
(1760 -3.10156e-11 1.60298e-15)
(1760 -2.67932e-11 2.53317e-15)
(1760 -2.31483e-11 3.32313e-15)
(1760 -1.86875e-11 9.01601e-16)
(1760 -1.37066e-11 2.05982e-15)
(1760 -1.25958e-11 1.97109e-15)
(1760 -1.27398e-11 4.00754e-15)
(1760 -1.21047e-11 8.74736e-16)
(1760 -1.2402e-11 1.81636e-15)
(1760 -1.50994e-11 1.57096e-15)
(1760 -2.08581e-11 4.38414e-15)
(1760 -2.65142e-11 4.94877e-15)
(1760 -3.31597e-11 3.66165e-15)
(1760 -4.24578e-11 4.68444e-15)
(1760 -5.44167e-11 2.13373e-15)
(1760 -6.80574e-11 5.47503e-15)
(1760 -7.60521e-11 4.65493e-15)
(1760 -8.49414e-11 3.43971e-15)
(1760 -9.20818e-11 4.60875e-15)
(1760 -1.01268e-10 5.2346e-15)
(1760 -1.06739e-10 4.0195e-15)
(1760 -1.12597e-10 4.44823e-15)
(1760 -1.17631e-10 1.45805e-15)
(1760 -1.2307e-10 2.94228e-15)
(1760 -1.28999e-10 4.24538e-15)
(1760 -1.34867e-10 2.33503e-15)
(1760 -1.3999e-10 2.57044e-15)
(1760 -1.41987e-10 2.73585e-15)
(1760 -1.43153e-10 2.82127e-15)
(1760 -1.40049e-10 2.7427e-15)
(1760 -1.32359e-10 2.97686e-15)
(1760 -1.19629e-10 4.12248e-15)
(1760 -1.02608e-10 3.57175e-15)
(1760 -8.1482e-11 8.27825e-16)
(1760 -4.62493e-11 2.58493e-15)
(1760 -7.85435e-12 -4.30318e-16)
(1760 -1.93061e-10 1.01236e-14)
(1760 -1.95403e-10 9.61016e-15)
(1760 -1.96628e-10 1.20735e-14)
(1760 -1.95894e-10 1.20059e-14)
(1760 -1.95043e-10 1.07069e-14)
(1760 -1.93708e-10 1.23998e-14)
(1760 -1.9275e-10 1.19098e-14)
(1760 -1.9306e-10 1.23789e-14)
(1760 -1.93724e-10 1.25797e-14)
(1760 -1.95623e-10 1.15036e-14)
(1760 -1.96539e-10 1.2064e-14)
(1760 -1.9763e-10 1.04729e-14)
(1760 -2.0112e-10 1.4838e-14)
(1760 -2.03316e-10 1.09107e-14)
(1760 -2.04224e-10 5.22273e-15)
(1760 -2.03844e-10 7.8564e-15)
(1760 -2.05094e-10 1.05395e-14)
(1760 -2.05494e-10 1.07834e-14)
(1760 -2.0643e-10 9.4672e-15)
(1760 -2.07384e-10 8.32475e-15)
(1760 -2.0806e-10 9.16143e-15)
(1760 -2.07323e-10 1.01773e-14)
(1760 -2.04774e-10 1.21308e-14)
(1760 -1.99449e-10 1.38425e-14)
(1760 -1.9668e-10 9.91604e-15)
(1760 -1.90587e-10 1.06171e-14)
(1760 -1.87486e-10 1.14393e-14)
(1760 -1.82208e-10 1.01312e-14)
(1760 -1.76493e-10 1.03727e-14)
(1760 -1.68916e-10 1.07416e-14)
(1760 -1.66067e-10 1.14198e-14)
(1760 -1.61956e-10 7.45526e-15)
(1760 -1.59032e-10 9.10826e-15)
(1760 -1.55848e-10 1.28501e-14)
(1760 -1.55218e-10 1.1589e-14)
(1760 -1.53878e-10 1.10994e-14)
(1760 -1.51541e-10 9.00488e-15)
(1760 -1.50828e-10 1.10434e-14)
(1760 -1.4998e-10 1.06405e-14)
(1760 -1.4849e-10 1.17147e-14)
(1760 -1.4643e-10 1.1598e-14)
(1760 -1.45282e-10 1.02584e-14)
(1760 -1.43782e-10 1.08424e-14)
(1760 -1.41209e-10 1.01855e-14)
(1760 -1.38654e-10 9.93435e-15)
(1760 -1.3699e-10 1.01239e-14)
(1760 -1.36392e-10 1.06741e-14)
(1760 -1.3739e-10 6.97095e-15)
(1760 -1.42119e-10 9.54877e-15)
(1760 -1.45363e-10 8.75275e-15)
(1760 -1.48528e-10 5.898e-15)
(1760 -1.52119e-10 9.72128e-15)
(1760 -1.55427e-10 1.13432e-14)
(1760 -1.61892e-10 9.1336e-15)
(1760 -1.7455e-10 9.61341e-15)
(1760 -1.8658e-10 8.67202e-15)
(1760 -1.98317e-10 1.12568e-14)
(1760 -2.06819e-10 1.23426e-14)
(1760 -2.12078e-10 7.97126e-15)
(1760 -2.15626e-10 7.70809e-15)
(1760 -2.21747e-10 1.08665e-14)
(1760 -2.33914e-10 6.7351e-15)
(1760 -2.4425e-10 8.46281e-15)
(1760 -2.47059e-10 7.14432e-15)
(1760 -2.50561e-10 9.08845e-15)
(1760 -2.55372e-10 9.48467e-15)
(1760 -2.59345e-10 7.22687e-15)
(1760 -2.63022e-10 9.47814e-15)
(1760 -2.71426e-10 1.1389e-14)
(1760 -2.77893e-10 8.4808e-15)
(1760 -2.85305e-10 1.09793e-14)
(1760 -2.92182e-10 7.82104e-15)
(1760 -2.98693e-10 7.04015e-15)
(1760 -3.02905e-10 9.63805e-15)
(1760 -3.02133e-10 7.5828e-15)
(1760 -3.01495e-10 8.46951e-15)
(1760 -3.01599e-10 6.78101e-15)
(1760 -2.98114e-10 7.81129e-15)
(1760 -2.89731e-10 8.21659e-15)
(1760 -2.74649e-10 1.05008e-14)
(1760 -2.57822e-10 8.82589e-15)
(1760 -2.44248e-10 7.97193e-15)
(1760 -2.23494e-10 7.79249e-15)
(1760 -1.84527e-10 9.10615e-15)
(1760 -1.48737e-10 9.96422e-15)
(1760 -1.19807e-10 1.03021e-14)
(1760 -9.43032e-11 1.06339e-14)
(1760 -7.31068e-11 9.99669e-15)
(1760 -4.92075e-11 1.02613e-14)
(1760 -2.56733e-11 1.0379e-14)
(1760 -2.36356e-12 9.88859e-15)
(1760 1.76414e-11 7.19205e-15)
(1760 3.63609e-11 1.15538e-14)
(1760 5.97593e-11 1.05092e-14)
(1760 7.71699e-11 8.79356e-15)
(1760 8.31845e-11 8.64141e-15)
(1760 7.83205e-11 8.49532e-15)
(1760 7.12019e-11 9.96775e-15)
(1760 4.83279e-11 9.87359e-15)
(1760 1.12171e-11 4.40186e-15)
(1760 -4.08895e-11 7.2229e-15)
(1760 -8.80657e-11 9.71737e-15)
(1760 -1.36536e-10 6.57988e-15)
(1760 -2.14879e-10 7.98106e-15)
(1760 -2.91859e-10 6.54696e-15)
(1760 -3.30696e-10 2.24989e-14)
(1760 -3.28497e-10 2.39212e-14)
(1760 -3.26898e-10 1.82367e-14)
(1760 -3.25995e-10 1.99477e-14)
(1760 -3.24463e-10 2.13495e-14)
(1760 -3.22998e-10 1.96316e-14)
(1760 -3.20446e-10 1.97648e-14)
(1760 -3.18172e-10 1.90208e-14)
(1760 -3.14023e-10 2.15895e-14)
(1760 -3.10428e-10 2.0846e-14)
(1760 -3.06904e-10 1.91685e-14)
(1760 -3.03117e-10 1.5697e-14)
(1760 -2.99191e-10 1.33184e-14)
(1760 -2.95562e-10 1.72674e-14)
(1760 -2.93372e-10 1.78784e-14)
(1760 -2.93215e-10 1.80795e-14)
(1760 -2.9246e-10 1.58839e-14)
(1760 -2.90847e-10 1.67438e-14)
(1760 -2.91267e-10 1.59098e-14)
(1760 -2.93973e-10 1.60057e-14)
(1760 -2.98089e-10 1.57251e-14)
(1760 -3.0305e-10 1.39214e-14)
(1760 -3.13089e-10 1.52075e-14)
(1760 -3.19431e-10 2.06613e-14)
(1760 -3.27025e-10 1.4089e-14)
(1760 -3.34545e-10 1.69314e-14)
(1760 -3.44111e-10 1.97352e-14)
(1760 -3.49185e-10 1.8478e-14)
(1760 -3.56496e-10 1.80441e-14)
(1760 -3.61805e-10 1.84367e-14)
(1760 -3.64039e-10 1.8045e-14)
(1760 -3.65386e-10 1.88836e-14)
(1760 -3.66721e-10 1.79663e-14)
(1760 -3.68524e-10 1.8136e-14)
(1760 -3.69045e-10 1.85101e-14)
(1760 -3.69209e-10 1.85667e-14)
(1760 -3.71121e-10 1.85689e-14)
(1760 -3.72925e-10 1.90163e-14)
(1760 -3.76652e-10 1.87303e-14)
(1760 -3.78422e-10 2.0302e-14)
(1760 -3.84414e-10 1.9941e-14)
(1760 -3.8891e-10 1.73394e-14)
(1760 -3.92369e-10 1.72983e-14)
(1760 -3.93904e-10 1.7141e-14)
(1760 -3.96234e-10 1.78677e-14)
(1760 -3.95637e-10 1.72728e-14)
(1760 -3.93034e-10 1.91364e-14)
(1760 -3.90583e-10 1.92596e-14)
(1760 -3.84814e-10 1.61739e-14)
(1760 -3.80266e-10 1.48822e-14)
(1760 -3.75975e-10 1.3808e-14)
(1760 -3.69775e-10 1.56215e-14)
(1760 -3.61159e-10 1.39229e-14)
(1760 -3.50944e-10 1.28088e-14)
(1760 -3.42742e-10 1.34066e-14)
(1760 -3.2177e-10 1.67425e-14)
(1760 -2.94031e-10 1.34204e-14)
(1760 -2.79616e-10 1.86048e-14)
(1760 -2.68475e-10 1.8837e-14)
(1760 -2.60774e-10 1.49905e-14)
(1760 -2.55553e-10 1.47981e-14)
(1760 -2.4417e-10 1.29947e-14)
(1760 -2.28363e-10 1.37822e-14)
(1760 -2.13087e-10 1.75554e-14)
(1760 -2.02161e-10 1.37088e-14)
(1760 -1.87958e-10 1.44131e-14)
(1760 -1.74239e-10 1.47209e-14)
(1760 -1.60721e-10 1.46889e-14)
(1760 -1.47705e-10 1.49457e-14)
(1760 -1.32639e-10 1.59007e-14)
(1760 -1.20829e-10 1.45424e-14)
(1760 -1.13909e-10 1.73876e-14)
(1760 -1.07482e-10 1.39089e-14)
(1760 -1.0067e-10 1.4901e-14)
(1760 -9.77689e-11 1.50697e-14)
(1760 -1.01101e-10 1.28448e-14)
(1760 -1.10784e-10 1.42572e-14)
(1760 -1.16965e-10 1.82837e-14)
(1760 -1.32695e-10 1.34503e-14)
(1760 -1.44409e-10 1.31749e-14)
(1760 -1.77266e-10 1.56074e-14)
(1760 -2.19212e-10 1.52884e-14)
(1760 -2.30886e-10 1.54202e-14)
(1760 -2.5633e-10 1.43182e-14)
(1760 -2.81518e-10 1.60353e-14)
(1760 -3.37413e-10 1.97854e-14)
(1760 -4.08619e-10 1.37047e-14)
(1760 -4.38547e-10 1.33927e-14)
(1760 -4.60171e-10 1.6159e-14)
(1760 -4.70802e-10 1.44311e-14)
(1760 -4.88091e-10 1.58586e-14)
(1760 -5.0344e-10 1.47374e-14)
(1760 -5.24248e-10 1.3444e-14)
(1760 -5.40509e-10 1.51234e-14)
(1760 -5.59968e-10 1.58314e-14)
(1760 -5.80986e-10 1.42147e-14)
(1760 -6.04866e-10 1.21882e-14)
(1760 -5.79374e-10 1.61155e-14)
(1760 -5.54277e-10 1.5634e-14)
(1760 -4.92765e-10 1.44745e-14)
(1760 -3.94884e-10 1.45612e-14)
(1760 -1.10141e-10 1.58963e-14)
(1760 -1.71841e-11 1.58863e-14)
(1760 9.09039e-11 1.51368e-14)
(1760 2.32839e-10 1.58724e-14)
(1760 4.22301e-10 1.62847e-14)
(1760 -4.44542e-10 2.93256e-14)
(1760 -4.47845e-10 3.24631e-14)
(1760 -4.528e-10 2.72784e-14)
(1760 -4.58931e-10 2.72702e-14)
(1760 -4.64652e-10 2.82578e-14)
(1760 -4.69903e-10 2.63123e-14)
(1760 -4.75398e-10 2.86306e-14)
(1760 -4.79905e-10 2.99735e-14)
(1760 -4.84635e-10 2.64801e-14)
(1760 -4.93737e-10 2.48126e-14)
(1760 -4.99437e-10 2.84707e-14)
(1760 -5.01193e-10 2.66821e-14)
(1760 -5.04533e-10 2.67982e-14)
(1760 -5.0662e-10 2.62722e-14)
(1760 -5.0647e-10 2.70733e-14)
(1760 -5.06203e-10 2.43941e-14)
(1760 -5.05998e-10 2.43288e-14)
(1760 -5.0431e-10 2.47957e-14)
(1760 -4.98811e-10 2.45966e-14)
(1760 -4.90408e-10 2.46687e-14)
(1760 -4.76833e-10 2.34786e-14)
(1760 -4.61015e-10 2.71374e-14)
(1760 -4.45877e-10 2.66046e-14)
(1760 -4.26245e-10 2.50985e-14)
(1760 -4.06268e-10 2.28756e-14)
(1760 -3.91864e-10 2.23558e-14)
(1760 -3.77515e-10 2.59135e-14)
(1760 -3.65081e-10 2.44662e-14)
(1760 -3.53749e-10 2.06385e-14)
(1760 -3.44516e-10 2.37463e-14)
(1760 -3.34308e-10 2.38532e-14)
(1760 -3.26698e-10 2.45408e-14)
(1760 -3.15856e-10 2.36836e-14)
(1760 -3.01112e-10 2.58739e-14)
(1760 -2.90422e-10 2.53992e-14)
(1760 -2.77301e-10 2.46377e-14)
(1760 -2.63727e-10 2.59165e-14)
(1760 -2.53186e-10 2.4164e-14)
(1760 -2.4492e-10 2.47348e-14)
(1760 -2.35248e-10 2.22336e-14)
(1760 -2.31316e-10 2.35567e-14)
(1760 -2.27192e-10 2.70105e-14)
(1760 -2.24039e-10 2.35712e-14)
(1760 -2.21546e-10 2.54474e-14)
(1760 -2.23916e-10 2.55583e-14)
(1760 -2.34294e-10 2.36464e-14)
(1760 -2.45049e-10 2.21162e-14)
(1760 -2.51174e-10 2.18482e-14)
(1760 -2.62931e-10 2.86721e-14)
(1760 -2.70802e-10 2.27931e-14)
(1760 -2.79137e-10 2.09058e-14)
(1760 -2.93683e-10 2.09263e-14)
(1760 -3.18996e-10 2.01346e-14)
(1760 -3.4402e-10 2.44433e-14)
(1760 -3.56998e-10 2.12941e-14)
(1760 -3.79522e-10 2.06937e-14)
(1760 -4.07292e-10 2.33319e-14)
(1760 -4.46953e-10 2.52255e-14)
(1760 -4.88493e-10 2.20747e-14)
(1760 -5.20502e-10 2.13027e-14)
(1760 -5.37743e-10 2.42511e-14)
(1760 -5.52715e-10 2.13067e-14)
(1760 -5.68302e-10 1.94731e-14)
(1760 -5.84651e-10 1.9587e-14)
(1760 -6.02099e-10 1.98806e-14)
(1760 -6.19326e-10 2.03794e-14)
(1760 -6.39026e-10 2.01858e-14)
(1760 -6.55118e-10 1.97149e-14)
(1760 -6.66962e-10 1.95996e-14)
(1760 -6.80818e-10 1.97764e-14)
(1760 -6.85779e-10 2.09861e-14)
(1760 -6.90568e-10 2.10857e-14)
(1760 -6.96683e-10 2.1395e-14)
(1760 -7.08399e-10 2.16116e-14)
(1760 -7.22155e-10 1.92231e-14)
(1760 -7.35767e-10 1.92782e-14)
(1760 -7.2706e-10 2.12635e-14)
(1760 -7.16871e-10 2.15852e-14)
(1760 -6.80957e-10 2.22943e-14)
(1760 -6.2606e-10 2.38381e-14)
(1760 -4.35292e-10 2.35387e-14)
(1760 -1.99569e-10 2.12558e-14)
(1760 -1.88322e-10 2.05521e-14)
(1760 -2.36863e-10 2.13152e-14)
(1760 -1.78151e-10 2.20925e-14)
(1760 -1.35058e-11 2.00249e-14)
(1760 3.05459e-10 2.19777e-14)
(1760 4.52228e-10 2.55373e-14)
(1760 5.65058e-10 2.45904e-14)
(1760 6.58194e-10 2.1721e-14)
(1760 7.47606e-10 2.30848e-14)
(1760 8.57344e-10 2.27483e-14)
(1760 9.95182e-10 2.34061e-14)
(1760 1.14582e-09 2.47947e-14)
(1760 1.30286e-09 2.19007e-14)
(1760 1.46566e-09 2.11174e-14)
(1760 1.61999e-09 2.60237e-14)
(1760 1.76701e-09 2.59084e-14)
(1760 1.93899e-09 2.15724e-14)
(1760 2.11229e-09 2.34237e-14)
(1760 2.18324e-09 2.25618e-14)
(1760 2.16898e-09 2.11132e-14)
(1760 2.45988e-09 2.24295e-14)
(1760 2.72094e-09 2.19816e-14)
(1760 3.02871e-09 2.06455e-14)
(1760 3.35681e-09 2.14388e-14)
(1760 -6.04238e-10 3.70035e-14)
(1760 -5.90557e-10 3.84398e-14)
(1760 -5.73912e-10 3.80465e-14)
(1760 -5.54168e-10 3.5806e-14)
(1760 -5.41272e-10 3.70727e-14)
(1760 -5.23818e-10 3.40599e-14)
(1760 -5.104e-10 3.31306e-14)
(1760 -4.92862e-10 3.70058e-14)
(1760 -4.76949e-10 3.78671e-14)
(1760 -4.60153e-10 3.81627e-14)
(1760 -4.46605e-10 3.45739e-14)
(1760 -4.37089e-10 3.34107e-14)
(1760 -4.28021e-10 3.45627e-14)
(1760 -4.20427e-10 3.15854e-14)
(1760 -4.15548e-10 3.09313e-14)
(1760 -4.13768e-10 3.51796e-14)
(1760 -4.15823e-10 3.38098e-14)
(1760 -4.22012e-10 3.66373e-14)
(1760 -4.3896e-10 3.58227e-14)
(1760 -4.71592e-10 3.31879e-14)
(1760 -5.06419e-10 3.35493e-14)
(1760 -5.44518e-10 3.27233e-14)
(1760 -5.83493e-10 3.52854e-14)
(1760 -6.09876e-10 3.97998e-14)
(1760 -6.34336e-10 3.50702e-14)
(1760 -6.4856e-10 3.32631e-14)
(1760 -6.57547e-10 3.41333e-14)
(1760 -6.67873e-10 2.87758e-14)
(1760 -6.78372e-10 2.83081e-14)
(1760 -6.87556e-10 3.10359e-14)
(1760 -6.98697e-10 3.1033e-14)
(1760 -7.07166e-10 3.09247e-14)
(1760 -7.15687e-10 3.14352e-14)
(1760 -7.28351e-10 3.12456e-14)
(1760 -7.38446e-10 3.18966e-14)
(1760 -7.48168e-10 3.14595e-14)
(1760 -7.51648e-10 3.3406e-14)
(1760 -7.56466e-10 3.3363e-14)
(1760 -7.58916e-10 2.93887e-14)
(1760 -7.60777e-10 2.93763e-14)
(1760 -7.62233e-10 3.23154e-14)
(1760 -7.68326e-10 3.32557e-14)
(1760 -7.76344e-10 3.1281e-14)
(1760 -7.79859e-10 3.09945e-14)
(1760 -7.78146e-10 3.27405e-14)
(1760 -7.72078e-10 3.25325e-14)
(1760 -7.62361e-10 3.27466e-14)
(1760 -7.39603e-10 3.07393e-14)
(1760 -7.3285e-10 2.9698e-14)
(1760 -7.17393e-10 3.1066e-14)
(1760 -6.85925e-10 2.93959e-14)
(1760 -6.51581e-10 2.82612e-14)
(1760 -5.92965e-10 2.87563e-14)
(1760 -4.50037e-10 3.27997e-14)
(1760 -3.9638e-10 3.28632e-14)
(1760 -4.37661e-10 3.15094e-14)
(1760 -4.56747e-10 3.14635e-14)
(1760 -4.00709e-10 3.25002e-14)
(1760 -3.24786e-10 3.22979e-14)
(1760 -7.25068e-11 3.05304e-14)
(1760 2.32269e-10 3.07318e-14)
(1760 3.03779e-10 3.27483e-14)
(1760 3.66033e-10 3.08627e-14)
(1760 4.17277e-10 3.06392e-14)
(1760 4.59871e-10 3.18432e-14)
(1760 5.08402e-10 3.0817e-14)
(1760 5.63089e-10 2.84302e-14)
(1760 6.22723e-10 2.92961e-14)
(1760 6.90411e-10 2.86409e-14)
(1760 7.55872e-10 3.0109e-14)
(1760 8.24701e-10 3.05685e-14)
(1760 9.10711e-10 2.98143e-14)
(1760 1.01417e-09 3.22365e-14)
(1760 1.12404e-09 3.08011e-14)
(1760 1.24324e-09 2.87497e-14)
(1760 1.37782e-09 3.00261e-14)
(1760 1.49734e-09 2.9892e-14)
(1760 1.55525e-09 3.02158e-14)
(1760 1.67175e-09 3.04097e-14)
(1760 1.80429e-09 3.05832e-14)
(1760 1.89743e-09 3.11098e-14)
(1760 1.81992e-09 3.02494e-14)
(1760 1.85002e-09 2.75078e-14)
(1760 2.09295e-09 2.66263e-14)
(1760 2.47866e-09 2.90471e-14)
(1760 2.8803e-09 3.02265e-14)
(1760 3.02211e-09 2.87367e-14)
(1760 3.18517e-09 2.83517e-14)
(1760 3.4726e-09 2.98138e-14)
(1760 3.83615e-09 2.86407e-14)
(1760 4.19553e-09 2.86433e-14)
(1760 4.57345e-09 3.11105e-14)
(1760 5.00599e-09 2.80528e-14)
(1760 5.50369e-09 2.78161e-14)
(1760 6.04921e-09 2.89183e-14)
(1760 6.64321e-09 2.72514e-14)
(1760 7.26984e-09 2.73915e-14)
(1760 7.93003e-09 2.91463e-14)
(1760 8.69927e-09 2.71092e-14)
(1760 9.55392e-09 2.76348e-14)
(1760 1.04851e-08 2.86478e-14)
(1760 1.15045e-08 2.56182e-14)
(1760 1.27851e-08 2.71335e-14)
(1760 1.43318e-08 2.92463e-14)
(1760 1.58797e-08 2.78128e-14)
(1760 1.75783e-08 2.67259e-14)
(1760 1.95477e-08 2.86522e-14)
(1760 -6.75825e-10 4.68486e-14)
(1760 -7.05959e-10 4.41611e-14)
(1760 -7.30934e-10 4.60888e-14)
(1760 -7.41595e-10 4.30463e-14)
(1760 -7.53693e-10 4.46101e-14)
(1760 -7.68609e-10 4.42735e-14)
(1760 -7.83733e-10 4.91734e-14)
(1760 -7.94965e-10 4.84441e-14)
(1760 -8.05628e-10 4.75827e-14)
(1760 -8.1394e-10 4.69914e-14)
(1760 -8.17354e-10 4.30352e-14)
(1760 -8.21445e-10 4.49777e-14)
(1760 -8.23435e-10 4.45042e-14)
(1760 -8.21266e-10 4.36512e-14)
(1760 -8.10877e-10 4.58338e-14)
(1760 -7.94754e-10 4.34591e-14)
(1760 -7.64972e-10 4.08589e-14)
(1760 -7.30492e-10 4.20395e-14)
(1760 -6.40968e-10 4.20512e-14)
(1760 -4.23347e-10 4.27659e-14)
(1760 -2.42864e-10 4.28924e-14)
(1760 -6.4593e-11 4.42358e-14)
(1760 2.90926e-11 4.6588e-14)
(1760 1.04117e-10 4.57619e-14)
(1760 1.49967e-10 4.00992e-14)
(1760 2.22247e-10 4.18705e-14)
(1760 2.81779e-10 4.26066e-14)
(1760 3.4308e-10 4.1358e-14)
(1760 4.03234e-10 4.37382e-14)
(1760 4.61585e-10 4.28739e-14)
(1760 5.19449e-10 4.3382e-14)
(1760 5.76703e-10 4.3262e-14)
(1760 6.31519e-10 4.42101e-14)
(1760 6.88518e-10 4.25103e-14)
(1760 7.51365e-10 4.50532e-14)
(1760 8.16318e-10 4.34548e-14)
(1760 8.82775e-10 4.22801e-14)
(1760 9.51595e-10 4.0589e-14)
(1760 1.02383e-09 4.0425e-14)
(1760 1.10289e-09 4.23739e-14)
(1760 1.18822e-09 4.18343e-14)
(1760 1.27679e-09 4.17021e-14)
(1760 1.35669e-09 4.19875e-14)
(1760 1.43543e-09 4.08385e-14)
(1760 1.5335e-09 4.32826e-14)
(1760 1.60892e-09 4.25101e-14)
(1760 1.62524e-09 4.13116e-14)
(1760 1.70293e-09 4.0338e-14)
(1760 1.77629e-09 3.97258e-14)
(1760 1.84671e-09 4.19886e-14)
(1760 1.92086e-09 3.97137e-14)
(1760 1.97727e-09 3.70403e-14)
(1760 1.99575e-09 3.93664e-14)
(1760 1.98918e-09 4.15273e-14)
(1760 2.08827e-09 4.33438e-14)
(1760 2.27128e-09 4.25734e-14)
(1760 2.55748e-09 4.07121e-14)
(1760 2.77726e-09 3.6441e-14)
(1760 2.87005e-09 3.7231e-14)
(1760 2.84657e-09 3.80871e-14)
(1760 2.77411e-09 3.78001e-14)
(1760 2.89156e-09 3.6467e-14)
(1760 3.07255e-09 3.70483e-14)
(1760 3.24259e-09 3.91741e-14)
(1760 3.41087e-09 3.51605e-14)
(1760 3.59595e-09 3.56518e-14)
(1760 3.80454e-09 4.17629e-14)
(1760 4.03645e-09 3.74329e-14)
(1760 4.28706e-09 3.31221e-14)
(1760 4.55551e-09 3.73127e-14)
(1760 4.85034e-09 3.70785e-14)
(1760 5.19008e-09 3.41502e-14)
(1760 5.58153e-09 3.56642e-14)
(1760 6.00897e-09 3.67419e-14)
(1760 6.48416e-09 3.62464e-14)
(1760 6.99074e-09 3.57338e-14)
(1760 7.52427e-09 3.6203e-14)
(1760 8.14627e-09 3.68093e-14)
(1760 8.80957e-09 3.63155e-14)
(1760 9.49355e-09 3.36884e-14)
(1760 1.01952e-08 3.28059e-14)
(1760 1.10292e-08 3.55799e-14)
(1760 1.20657e-08 3.64046e-14)
(1760 1.31396e-08 3.54282e-14)
(1760 1.41728e-08 3.50067e-14)
(1760 1.51535e-08 3.41392e-14)
(1760 1.61852e-08 3.39459e-14)
(1760 1.75301e-08 3.46409e-14)
(1760 1.92048e-08 3.52925e-14)
(1760 2.10456e-08 3.36472e-14)
(1760 2.30252e-08 3.46209e-14)
(1760 2.52423e-08 3.32566e-14)
(1760 2.78087e-08 3.3058e-14)
(1760 3.07724e-08 3.54241e-14)
(1760 3.41506e-08 3.52904e-14)
(1760 3.79715e-08 3.25238e-14)
(1760 4.22228e-08 3.23196e-14)
(1760 4.69441e-08 3.44567e-14)
(1760 5.2198e-08 3.22712e-14)
(1760 5.80262e-08 3.26795e-14)
(1760 6.4474e-08 3.51793e-14)
(1760 7.16183e-08 3.3764e-14)
(1760 7.95194e-08 3.46083e-14)
(1760 8.81129e-08 3.36252e-14)
(1760 9.73585e-08 3.18806e-14)
(1760 1.07467e-07 3.12513e-14)
(1760 1.18624e-07 3.4273e-14)
(1760 -7.32924e-10 5.3875e-14)
(1760 -5.8369e-10 5.41068e-14)
(1760 -3.6561e-10 5.64635e-14)
(1760 -1.30655e-10 5.22863e-14)
(1760 5.04892e-11 5.28262e-14)
(1760 1.79771e-10 5.33165e-14)
(1760 2.96706e-10 5.44713e-14)
(1760 4.06204e-10 5.75783e-14)
(1760 5.20973e-10 5.58877e-14)
(1760 6.38803e-10 5.7183e-14)
(1760 7.57825e-10 5.34354e-14)
(1760 8.74926e-10 5.49796e-14)
(1760 1.00405e-09 5.83258e-14)
(1760 1.13487e-09 5.49011e-14)
(1760 1.27321e-09 5.3595e-14)
(1760 1.41996e-09 5.30296e-14)
(1760 1.57231e-09 5.34362e-14)
(1760 1.73877e-09 5.40851e-14)
(1760 1.83083e-09 5.35105e-14)
(1760 1.89865e-09 5.35119e-14)
(1760 1.93691e-09 5.21134e-14)
(1760 2.00656e-09 5.19871e-14)
(1760 1.89136e-09 5.07258e-14)
(1760 1.96967e-09 4.89257e-14)
(1760 2.0812e-09 4.9602e-14)
(1760 2.29474e-09 5.22409e-14)
(1760 2.50527e-09 5.2125e-14)
(1760 2.72919e-09 5.08309e-14)
(1760 2.91748e-09 5.1508e-14)
(1760 3.10869e-09 5.07222e-14)
(1760 3.29934e-09 4.97421e-14)
(1760 3.49454e-09 4.94482e-14)
(1760 3.68958e-09 5.16645e-14)
(1760 3.89253e-09 5.25544e-14)
(1760 4.10014e-09 5.06066e-14)
(1760 4.30751e-09 4.89166e-14)
(1760 4.51941e-09 4.6799e-14)
(1760 4.73448e-09 4.84833e-14)
(1760 4.95687e-09 4.83394e-14)
(1760 5.18522e-09 4.85914e-14)
(1760 5.41772e-09 4.8602e-14)
(1760 5.6545e-09 4.86344e-14)
(1760 5.90427e-09 4.70607e-14)
(1760 6.16402e-09 4.72182e-14)
(1760 6.43025e-09 4.88257e-14)
(1760 6.69274e-09 4.89792e-14)
(1760 6.96349e-09 4.77628e-14)
(1760 7.25705e-09 4.87527e-14)
(1760 7.53909e-09 4.94522e-14)
(1760 7.86118e-09 4.90805e-14)
(1760 8.185e-09 4.63674e-14)
(1760 8.51847e-09 4.6086e-14)
(1760 8.87566e-09 4.69242e-14)
(1760 9.2672e-09 4.60973e-14)
(1760 9.66534e-09 4.8631e-14)
(1760 1.00806e-08 4.4948e-14)
(1760 1.05593e-08 4.30065e-14)
(1760 1.10807e-08 4.82696e-14)
(1760 1.16596e-08 4.71033e-14)
(1760 1.22569e-08 4.37525e-14)
(1760 1.28448e-08 4.39345e-14)
(1760 1.3451e-08 4.60593e-14)
(1760 1.41482e-08 4.27319e-14)
(1760 1.50207e-08 4.32924e-14)
(1760 1.60094e-08 4.35904e-14)
(1760 1.70171e-08 4.24154e-14)
(1760 1.80303e-08 4.74823e-14)
(1760 1.90912e-08 4.45828e-14)
(1760 2.02345e-08 4.428e-14)
(1760 2.14847e-08 4.59338e-14)
(1760 2.28345e-08 4.3334e-14)
(1760 2.42665e-08 4.25416e-14)
(1760 2.57784e-08 4.14699e-14)
(1760 2.73826e-08 4.20777e-14)
(1760 2.91039e-08 4.33106e-14)
(1760 3.09638e-08 4.26184e-14)
(1760 3.29793e-08 4.29795e-14)
(1760 3.51879e-08 4.34547e-14)
(1760 3.76053e-08 4.13343e-14)
(1760 4.03104e-08 4.19743e-14)
(1760 4.33666e-08 4.11459e-14)
(1760 4.67801e-08 4.11948e-14)
(1760 5.05885e-08 3.98219e-14)
(1760 5.49469e-08 3.90334e-14)
(1760 5.99818e-08 4.21313e-14)
(1760 6.56496e-08 4.1138e-14)
(1760 7.1861e-08 4.1693e-14)
(1760 7.86603e-08 4.06485e-14)
(1760 8.63155e-08 3.88123e-14)
(1760 9.51196e-08 3.84763e-14)
(1760 1.0501e-07 3.87163e-14)
(1760 1.15733e-07 4.01839e-14)
(1760 1.27287e-07 4.04854e-14)
(1760 1.39912e-07 3.74855e-14)
(1760 1.53844e-07 3.83789e-14)
(1760 1.69155e-07 4.18198e-14)
(1760 1.85798e-07 4.01542e-14)
(1760 2.03806e-07 4.1899e-14)
(1760 2.23383e-07 3.98794e-14)
(1760 2.44913e-07 3.85258e-14)
(1760 2.68923e-07 3.84178e-14)
(1760 2.96017e-07 3.81845e-14)
(1760 3.26872e-07 4.06577e-14)
(1760 3.6227e-07 3.88194e-14)
(1760 4.03082e-07 4.0811e-14)
(1760 4.50274e-07 3.98057e-14)
(1760 5.04878e-07 3.92473e-14)
(1760 5.67825e-07 3.85841e-14)
(1760 6.39674e-07 3.62036e-14)
(1760 7.20467e-07 3.87304e-14)
(1760 2.33081e-09 6.21379e-14)
(1760 2.45327e-09 6.31059e-14)
(1760 2.42734e-09 6.42201e-14)
(1760 2.61447e-09 6.0193e-14)
(1760 2.89996e-09 6.18605e-14)
(1760 3.23718e-09 6.28395e-14)
(1760 3.59017e-09 6.25769e-14)
(1760 3.9499e-09 6.1003e-14)
(1760 4.31575e-09 6.30049e-14)
(1760 4.69716e-09 6.35359e-14)
(1760 5.08917e-09 6.13581e-14)
(1760 5.49407e-09 6.38865e-14)
(1760 5.91932e-09 6.45449e-14)
(1760 6.36505e-09 6.15607e-14)
(1760 6.8361e-09 5.83187e-14)
(1760 7.3413e-09 5.99605e-14)
(1760 7.87975e-09 6.36099e-14)
(1760 8.46086e-09 6.27107e-14)
(1760 9.11589e-09 6.19017e-14)
(1760 9.78806e-09 5.88204e-14)
(1760 1.04394e-08 5.99054e-14)
(1760 1.11271e-08 5.95672e-14)
(1760 1.1765e-08 6.10934e-14)
(1760 1.23753e-08 6.20295e-14)
(1760 1.29386e-08 5.88273e-14)
(1760 1.35571e-08 5.83715e-14)
(1760 1.42318e-08 6.03529e-14)
(1760 1.49619e-08 6.0881e-14)
(1760 1.57234e-08 5.87076e-14)
(1760 1.65015e-08 5.46079e-14)
(1760 1.72937e-08 5.36957e-14)
(1760 1.8103e-08 5.86774e-14)
(1760 1.89307e-08 5.87165e-14)
(1760 1.97886e-08 5.41673e-14)
(1760 2.06904e-08 5.45217e-14)
(1760 2.16368e-08 5.67002e-14)
(1760 2.26312e-08 5.5478e-14)
(1760 2.36809e-08 5.55079e-14)
(1760 2.47917e-08 5.47228e-14)
(1760 2.59697e-08 5.70557e-14)
(1760 2.72204e-08 5.64205e-14)
(1760 2.8554e-08 5.51262e-14)
(1760 2.99751e-08 5.41619e-14)
(1760 3.14843e-08 5.54746e-14)
(1760 3.30792e-08 5.49192e-14)
(1760 3.47388e-08 5.45838e-14)
(1760 3.64585e-08 5.62519e-14)
(1760 3.82392e-08 5.61502e-14)
(1760 4.00745e-08 5.34234e-14)
(1760 4.19815e-08 5.41481e-14)
(1760 4.39441e-08 5.32932e-14)
(1760 4.59621e-08 5.45108e-14)
(1760 4.8053e-08 5.2077e-14)
(1760 5.02367e-08 5.39895e-14)
(1760 5.25272e-08 5.44088e-14)
(1760 5.49516e-08 5.19139e-14)
(1760 5.74796e-08 5.36499e-14)
(1760 6.00887e-08 5.18351e-14)
(1760 6.27514e-08 5.31642e-14)
(1760 6.54724e-08 5.37455e-14)
(1760 6.83555e-08 5.19198e-14)
(1760 7.15281e-08 5.28342e-14)
(1760 7.50443e-08 5.13789e-14)
(1760 7.88849e-08 5.0291e-14)
(1760 8.3004e-08 4.7873e-14)
(1760 8.74027e-08 5.15468e-14)
(1760 9.21733e-08 5.29848e-14)
(1760 9.74567e-08 4.83063e-14)
(1760 1.03382e-07 5.1505e-14)
(1760 1.10017e-07 5.33432e-14)
(1760 1.17408e-07 4.98779e-14)
(1760 1.25645e-07 4.88234e-14)
(1760 1.34845e-07 4.88635e-14)
(1760 1.45133e-07 5.16175e-14)
(1760 1.56584e-07 4.85113e-14)
(1760 1.69221e-07 4.78135e-14)
(1760 1.83042e-07 4.97216e-14)
(1760 1.9805e-07 4.85976e-14)
(1760 2.14309e-07 4.77912e-14)
(1760 2.31992e-07 4.75079e-14)
(1760 2.51271e-07 4.63787e-14)
(1760 2.72308e-07 4.62692e-14)
(1760 2.953e-07 4.80777e-14)
(1760 3.20384e-07 4.72856e-14)
(1760 3.47511e-07 4.77382e-14)
(1760 3.76624e-07 4.85368e-14)
(1760 4.07961e-07 4.74671e-14)
(1760 4.4223e-07 4.37681e-14)
(1760 4.80355e-07 4.45829e-14)
(1760 5.23037e-07 4.51385e-14)
(1760 5.70808e-07 4.62821e-14)
(1760 6.24541e-07 4.5258e-14)
(1760 6.85694e-07 4.75787e-14)
(1760 7.56052e-07 4.48197e-14)
(1760 8.37341e-07 4.5496e-14)
(1760 9.3106e-07 4.54092e-14)
(1760 1.0384e-06 4.60221e-14)
(1760 1.16015e-06 4.63766e-14)
(1760 1.29666e-06 4.35742e-14)
(1760 1.44825e-06 4.58894e-14)
(1760 1.61571e-06 4.61168e-14)
(1760 1.80078e-06 4.51121e-14)
(1760 2.00601e-06 4.44909e-14)
(1760 2.23379e-06 4.3364e-14)
(1760 2.48569e-06 4.51784e-14)
(1760 2.76246e-06 4.37858e-14)
(1760 3.06444e-06 4.46654e-14)
(1760 3.39319e-06 4.42557e-14)
(1760 3.75319e-06 4.42597e-14)
(1760 4.15217e-06 4.22862e-14)
(1760 1.23036e-08 7.32917e-14)
(1760 1.34626e-08 7.20017e-14)
(1760 1.45778e-08 7.12293e-14)
(1760 1.5756e-08 7.13646e-14)
(1760 1.7015e-08 7.30356e-14)
(1760 1.8409e-08 7.03213e-14)
(1760 1.99386e-08 6.88994e-14)
(1760 2.16058e-08 7.07379e-14)
(1760 2.34206e-08 7.27397e-14)
(1760 2.53585e-08 7.21401e-14)
(1760 2.73757e-08 7.18433e-14)
(1760 2.94478e-08 7.00717e-14)
(1760 3.15685e-08 7.12186e-14)
(1760 3.37262e-08 6.91954e-14)
(1760 3.5919e-08 6.92215e-14)
(1760 3.81569e-08 7.03954e-14)
(1760 4.04547e-08 7.07084e-14)
(1760 4.28351e-08 7.04649e-14)
(1760 4.53601e-08 6.89802e-14)
(1760 4.80377e-08 6.88343e-14)
(1760 5.08731e-08 7.2418e-14)
(1760 5.39028e-08 6.88132e-14)
(1760 5.70894e-08 6.91826e-14)
(1760 6.04565e-08 6.85948e-14)
(1760 6.40011e-08 6.81423e-14)
(1760 6.77523e-08 6.76824e-14)
(1760 7.17234e-08 6.54298e-14)
(1760 7.59217e-08 6.50879e-14)
(1760 8.03275e-08 6.85932e-14)
(1760 8.49186e-08 6.29672e-14)
(1760 8.9685e-08 6.34109e-14)
(1760 9.45906e-08 6.43044e-14)
(1760 9.96028e-08 6.50218e-14)
(1760 1.04708e-07 6.59611e-14)
(1760 1.09904e-07 6.42285e-14)
(1760 1.15188e-07 6.43958e-14)
(1760 1.2057e-07 6.38765e-14)
(1760 1.26048e-07 6.36595e-14)
(1760 1.3162e-07 6.27663e-14)
(1760 1.3728e-07 6.36295e-14)
(1760 1.43021e-07 6.50368e-14)
(1760 1.48846e-07 6.37784e-14)
(1760 1.54777e-07 6.31028e-14)
(1760 1.60858e-07 6.13062e-14)
(1760 1.67137e-07 5.92826e-14)
(1760 1.73676e-07 6.13356e-14)
(1760 1.8056e-07 6.27487e-14)
(1760 1.87867e-07 5.96732e-14)
(1760 1.95662e-07 5.88116e-14)
(1760 2.04004e-07 6.18269e-14)
(1760 2.12938e-07 6.28249e-14)
(1760 2.22503e-07 6.28106e-14)
(1760 2.32749e-07 5.93091e-14)
(1760 2.43771e-07 5.99762e-14)
(1760 2.55715e-07 6.14042e-14)
(1760 2.68742e-07 6.12184e-14)
(1760 2.83001e-07 5.91527e-14)
(1760 2.98644e-07 5.86556e-14)
(1760 3.15745e-07 5.82338e-14)
(1760 3.34373e-07 6.21244e-14)
(1760 3.54627e-07 5.90496e-14)
(1760 3.7649e-07 5.75695e-14)
(1760 3.99789e-07 5.88743e-14)
(1760 4.24367e-07 5.80511e-14)
(1760 4.50239e-07 5.6166e-14)
(1760 4.77655e-07 5.80059e-14)
(1760 5.07032e-07 5.78563e-14)
(1760 5.3878e-07 5.70657e-14)
(1760 5.73151e-07 5.7694e-14)
(1760 6.10233e-07 5.60647e-14)
(1760 6.50052e-07 5.73453e-14)
(1760 6.92645e-07 5.79666e-14)
(1760 7.38102e-07 5.57299e-14)
(1760 7.86663e-07 5.88697e-14)
(1760 8.38853e-07 5.32377e-14)