/*--------------------------------*- C++ -*----------------------------------*\
| =========                 |                                                 |
| \\      /  F ield         | OpenFOAM: The Open Source CFD Toolbox           |
|  \\    /   O peration     | Version:  v1706                                 |
|   \\  /    A nd           | Web:      www.OpenFOAM.com                      |
|    \\/     M anipulation  |                                                 |
\*---------------------------------------------------------------------------*/
FoamFile
{
    version     2.0;
    format      ascii;
    class       volVectorField;
    location    "1.6e-05";
    object      U;
}
// * * * * * * * * * * * * * * * * * * * * * * * * * * * * * * * * * * * * * //

dimensions      [0 1 -1 0 0 0 0];


internalField   nonuniform List<vector> 
29987
(
(978.58 -2.1758e-08 3.79591e-11)
(978.58 -8.57186e-09 1.42627e-11)
(978.58 -3.87845e-09 6.4542e-12)
(978.58 -2.16651e-09 3.64026e-12)
(978.58 -1.41542e-09 2.38759e-12)
(978.58 -1.01817e-09 1.72112e-12)
(978.58 -7.75689e-10 1.30893e-12)
(978.58 -6.15072e-10 1.02096e-12)
(978.58 -5.01619e-10 8.27494e-13)
(978.58 -4.17442e-10 6.92174e-13)
(978.58 -3.54669e-10 5.20514e-13)
(978.58 -3.06793e-10 4.60219e-13)
(978.58 -2.68871e-10 4.10752e-13)
(978.58 -2.38458e-10 3.4996e-13)
(978.58 -2.13158e-10 3.0234e-13)
(978.58 -1.92547e-10 2.64012e-13)
(978.58 -1.76274e-10 2.21052e-13)
(978.58 -1.62147e-10 1.96646e-13)
(978.58 -1.49799e-10 1.85746e-13)
(978.58 -1.38977e-10 1.71626e-13)
(978.58 -1.30007e-10 1.61872e-13)
(978.58 -1.23046e-10 1.38033e-13)
(978.58 -1.15974e-10 1.30244e-13)
(978.58 -1.0954e-10 1.13896e-13)
(978.58 -1.0448e-10 1.17457e-13)
(978.58 -9.95396e-11 1.11774e-13)
(978.58 -9.5648e-11 9.17431e-14)
(978.58 -9.18946e-11 8.29425e-14)
(978.58 -8.86818e-11 8.95215e-14)
(978.58 -8.53229e-11 8.19039e-14)
(978.58 -8.275e-11 8.19721e-14)
(978.58 -8.06597e-11 7.43404e-14)
(978.58 -7.81156e-11 6.44939e-14)
(978.58 -7.58638e-11 5.8992e-14)
(978.58 -7.45805e-11 5.93987e-14)
(978.58 -7.23604e-11 5.52088e-14)
(978.58 -7.00661e-11 5.2995e-14)
(978.58 -6.9579e-11 4.49471e-14)
(978.58 -6.76889e-11 4.25203e-14)
(978.58 -6.74482e-11 4.31201e-14)
(978.58 -6.59952e-11 3.53597e-14)
(978.58 -6.45065e-11 4.00267e-14)
(978.58 -6.35429e-11 4.45096e-14)
(978.58 -6.27715e-11 3.75208e-14)
(978.58 -6.1882e-11 3.34902e-14)
(978.58 -6.18587e-11 3.25464e-14)
(978.58 -6.05008e-11 4.1089e-14)
(978.58 -6.03413e-11 2.9154e-14)
(978.58 -5.935e-11 2.96986e-14)
(978.58 -5.91786e-11 3.30223e-14)
(978.58 -5.86498e-11 3.21612e-14)
(978.58 -5.86048e-11 2.84149e-14)
(978.58 -5.7732e-11 2.68387e-14)
(978.58 -5.76625e-11 2.25092e-14)
(978.58 -5.71735e-11 2.40781e-14)
(978.58 -5.66783e-11 2.04629e-14)
(978.58 -5.65473e-11 1.81623e-14)
(978.58 -5.627e-11 1.98712e-14)
(978.58 -5.64513e-11 2.18403e-14)
(978.58 -5.61839e-11 2.54581e-14)
(978.58 -5.58227e-11 2.29709e-14)
(978.58 -5.57071e-11 1.39588e-14)
(978.58 -5.56753e-11 1.96208e-14)
(978.58 -5.54263e-11 2.06412e-14)
(978.58 -5.48772e-11 1.71641e-14)
(978.58 -5.48431e-11 1.53606e-14)
(978.58 -5.44618e-11 1.5759e-14)
(978.58 -5.44939e-11 1.8762e-14)
(978.58 -5.46885e-11 1.86226e-14)
(978.58 -5.51577e-11 1.59317e-14)
(978.58 -5.48453e-11 1.46206e-14)
(978.58 -5.51705e-11 1.54136e-14)
(978.58 -5.60636e-11 1.40415e-14)
(978.58 -5.56219e-11 1.48183e-14)
(978.58 -5.56705e-11 1.80553e-14)
(978.58 -5.61075e-11 1.67808e-14)
(978.58 -5.57172e-11 1.56427e-14)
(978.58 -5.60775e-11 1.58212e-14)
(978.58 -5.61265e-11 9.16735e-15)
(978.58 -5.65094e-11 6.54956e-15)
(978.58 -5.6837e-11 1.01951e-14)
(978.58 -5.68932e-11 1.04803e-14)
(978.58 -5.72161e-11 8.23891e-15)
(978.58 -5.69134e-11 1.09764e-14)
(978.58 -5.72918e-11 1.24743e-14)
(978.58 -5.74702e-11 1.15962e-14)
(978.58 -5.79638e-11 1.03668e-14)
(978.58 -5.76805e-11 1.08282e-14)
(978.58 -5.76768e-11 1.12328e-14)
(978.58 -5.79686e-11 8.08833e-15)
(978.58 -5.84834e-11 7.37645e-15)
(978.58 -5.87592e-11 7.98757e-15)
(978.58 -5.95261e-11 1.11601e-14)
(978.58 -5.93552e-11 1.22203e-14)
(978.58 -5.92249e-11 1.28169e-14)
(978.58 -5.93081e-11 1.12233e-14)
(978.58 -5.97515e-11 8.32741e-15)
(978.58 -6.0281e-11 1.07963e-14)
(978.58 -6.05083e-11 9.93168e-15)
(978.58 -6.10388e-11 6.96962e-15)
(978.58 -6.14279e-11 7.17342e-15)
(978.58 -6.20451e-11 1.26863e-14)
(978.58 -6.22852e-11 1.19822e-14)
(978.58 -6.24462e-11 8.54436e-15)
(978.58 -6.28634e-11 8.55189e-15)
(978.58 -6.34381e-11 6.85575e-15)
(978.58 -6.39591e-11 5.31849e-15)
(978.58 -6.44232e-11 6.64599e-15)
(978.58 -6.51895e-11 9.16755e-15)
(978.58 -6.56928e-11 6.52705e-15)
(978.58 -6.64636e-11 7.1028e-15)
(978.58 -6.70488e-11 7.69404e-15)
(978.58 -6.7485e-11 9.42827e-15)
(978.58 -6.83951e-11 8.20966e-15)
(978.58 -6.91012e-11 9.9083e-15)
(978.58 -6.99032e-11 7.72312e-15)
(978.58 -7.03192e-11 9.43764e-15)
(978.58 -7.09946e-11 1.12769e-14)
(978.58 -7.15637e-11 9.90728e-15)
(978.58 -7.22021e-11 5.86462e-15)
(978.58 -7.25106e-11 6.62729e-15)
(978.58 -7.35207e-11 8.22018e-15)
(978.58 -7.39705e-11 7.5103e-15)
(978.58 -7.41698e-11 8.6749e-15)
(978.58 -7.50624e-11 8.88823e-15)
(978.58 -7.55341e-11 7.75892e-15)
(978.58 -7.6853e-11 9.26196e-15)
(978.58 -7.72961e-11 8.44583e-15)
(978.58 -7.82593e-11 8.87612e-15)
(978.58 -7.94255e-11 8.26602e-15)
(978.58 -7.9916e-11 9.81674e-15)
(978.58 -8.08233e-11 1.13366e-14)
(978.58 -8.19162e-11 5.56155e-15)
(978.58 -8.26563e-11 4.21619e-15)
(978.58 -8.35154e-11 5.58057e-15)
(978.58 -8.50026e-11 5.72316e-15)
(978.58 -8.58941e-11 8.1789e-15)
(978.58 -8.66487e-11 8.14742e-15)
(978.58 -8.83522e-11 6.20044e-15)
(978.58 -8.90479e-11 7.54561e-15)
(978.58 -9.01143e-11 1.93159e-15)
(978.58 -9.0932e-11 4.9986e-15)
(978.58 -9.20143e-11 7.08738e-15)
(978.58 -9.29853e-11 6.25162e-15)
(978.58 -9.46419e-11 7.20663e-15)
(978.58 -9.605e-11 7.9545e-15)
(978.58 -9.78942e-11 8.02867e-15)
(978.58 -9.8644e-11 8.11088e-15)
(978.58 -1.00369e-10 6.25168e-15)
(978.58 -1.02065e-10 5.10961e-15)
(978.58 -1.04068e-10 4.09351e-15)
(978.58 -1.04887e-10 3.97864e-15)
(978.58 -1.05927e-10 5.08723e-15)
(978.58 -1.07977e-10 7.51753e-15)
(978.58 -1.09826e-10 6.12341e-15)
(978.58 -1.11662e-10 8.07311e-15)
(978.58 -5.20904e-08 8.6842e-11)
(978.58 -2.79329e-08 4.30641e-11)
(978.58 -1.50575e-08 2.16729e-11)
(978.58 -8.79977e-09 1.23255e-11)
(978.58 -5.64886e-09 7.85529e-12)
(978.58 -3.93368e-09 5.48889e-12)
(978.58 -2.91775e-09 4.08121e-12)
(978.58 -2.26862e-09 3.12972e-12)
(978.58 -1.82603e-09 2.50907e-12)
(978.58 -1.50934e-09 2.02845e-12)
(978.58 -1.27412e-09 1.65966e-12)
(978.58 -1.09329e-09 1.4238e-12)
(978.58 -9.52653e-10 1.2019e-12)
(978.58 -8.40421e-10 1.04563e-12)
(978.58 -7.48937e-10 9.06228e-13)
(978.58 -6.74731e-10 8.17662e-13)
(978.58 -6.13259e-10 7.05969e-13)
(978.58 -5.6091e-10 6.41796e-13)
(978.58 -5.16346e-10 5.84262e-13)
(978.58 -4.78337e-10 5.32961e-13)
(978.58 -4.4478e-10 4.79412e-13)
(978.58 -4.16845e-10 4.17188e-13)
(978.58 -3.93352e-10 3.94226e-13)
(978.58 -3.71742e-10 3.60057e-13)
(978.58 -3.51953e-10 3.49006e-13)
(978.58 -3.33804e-10 3.30608e-13)
(978.58 -3.18972e-10 3.07909e-13)
(978.58 -3.05375e-10 2.84287e-13)
(978.58 -2.94104e-10 2.65058e-13)
(978.58 -2.83196e-10 2.42974e-13)
(978.58 -2.73444e-10 2.16441e-13)
(978.58 -2.64523e-10 2.10714e-13)
(978.58 -2.56025e-10 1.81572e-13)
(978.58 -2.4835e-10 1.7167e-13)
(978.58 -2.43654e-10 1.72313e-13)
(978.58 -2.38325e-10 1.65863e-13)
(978.58 -2.30364e-10 1.52809e-13)
(978.58 -2.2496e-10 1.53401e-13)
(978.58 -2.18749e-10 1.45367e-13)
(978.58 -2.15095e-10 1.29692e-13)
(978.58 -2.12433e-10 1.20502e-13)
(978.58 -2.09037e-10 1.22452e-13)
(978.58 -2.03686e-10 1.24015e-13)
(978.58 -2.00153e-10 1.09463e-13)
(978.58 -1.97596e-10 9.30678e-14)
(978.58 -1.97172e-10 1.04081e-13)
(978.58 -1.94433e-10 9.86735e-14)
(978.58 -1.9109e-10 9.10465e-14)
(978.58 -1.8786e-10 9.14243e-14)
(978.58 -1.86005e-10 9.86098e-14)
(978.58 -1.83192e-10 9.48042e-14)
(978.58 -1.83322e-10 8.18879e-14)
(978.58 -1.81936e-10 7.72917e-14)
(978.58 -1.80751e-10 6.58887e-14)
(978.58 -1.79838e-10 6.77379e-14)
(978.58 -1.77959e-10 6.53559e-14)
(978.58 -1.76619e-10 6.51033e-14)
(978.58 -1.74927e-10 6.35932e-14)
(978.58 -1.75119e-10 7.12068e-14)
(978.58 -1.74523e-10 6.81974e-14)
(978.58 -1.73163e-10 5.94712e-14)
(978.58 -1.72861e-10 5.60573e-14)
(978.58 -1.72136e-10 6.32821e-14)
(978.58 -1.71853e-10 5.54074e-14)
(978.58 -1.72153e-10 5.42964e-14)
(978.58 -1.72039e-10 5.27419e-14)
(978.58 -1.70502e-10 4.76279e-14)
(978.58 -1.69033e-10 5.15554e-14)
(978.58 -1.68728e-10 4.95256e-14)
(978.58 -1.68498e-10 4.60813e-14)
(978.58 -1.68035e-10 4.93137e-14)
(978.58 -1.68601e-10 4.97093e-14)
(978.58 -1.69321e-10 4.47667e-14)
(978.58 -1.69931e-10 4.56172e-14)
(978.58 -1.68784e-10 4.88485e-14)
(978.58 -1.69979e-10 5.00527e-14)
(978.58 -1.71244e-10 4.47354e-14)
(978.58 -1.70491e-10 4.09521e-14)
(978.58 -1.69894e-10 3.33076e-14)
(978.58 -1.69891e-10 3.43339e-14)
(978.58 -1.71397e-10 3.72313e-14)
(978.58 -1.72057e-10 3.44623e-14)
(978.58 -1.73199e-10 3.21942e-14)
(978.58 -1.73137e-10 3.67091e-14)
(978.58 -1.73682e-10 3.91078e-14)
(978.58 -1.73948e-10 3.71624e-14)
(978.58 -1.74897e-10 3.32342e-14)
(978.58 -1.756e-10 3.60811e-14)
(978.58 -1.76078e-10 3.3545e-14)
(978.58 -1.76088e-10 3.12075e-14)
(978.58 -1.75826e-10 3.28145e-14)
(978.58 -1.77233e-10 3.01662e-14)
(978.58 -1.77556e-10 3.63783e-14)
(978.58 -1.78419e-10 3.73677e-14)
(978.58 -1.79879e-10 3.86618e-14)
(978.58 -1.80026e-10 2.91154e-14)
(978.58 -1.8115e-10 2.4104e-14)
(978.58 -1.82146e-10 2.5304e-14)
(978.58 -1.82984e-10 2.52122e-14)
(978.58 -1.83716e-10 2.50159e-14)
(978.58 -1.84636e-10 2.53145e-14)
(978.58 -1.86341e-10 2.70473e-14)
(978.58 -1.87368e-10 2.7916e-14)
(978.58 -1.88342e-10 2.19701e-14)
(978.58 -1.89722e-10 2.34691e-14)
(978.58 -1.91286e-10 2.2257e-14)
(978.58 -1.9294e-10 2.22678e-14)
(978.58 -1.93738e-10 2.09283e-14)
(978.58 -1.94616e-10 1.91488e-14)
(978.58 -1.9576e-10 2.16592e-14)
(978.58 -1.97659e-10 2.31279e-14)
(978.58 -2.0011e-10 2.25946e-14)
(978.58 -2.01094e-10 2.29056e-14)
(978.58 -2.02445e-10 2.34496e-14)
(978.58 -2.04274e-10 2.55829e-14)
(978.58 -2.06732e-10 2.49209e-14)
(978.58 -2.08184e-10 2.61704e-14)
(978.58 -2.09946e-10 2.56139e-14)
(978.58 -2.11912e-10 2.15501e-14)
(978.58 -2.14021e-10 1.8043e-14)
(978.58 -2.15846e-10 1.99765e-14)
(978.58 -2.17898e-10 2.09246e-14)
(978.58 -2.20331e-10 2.16504e-14)
(978.58 -2.21352e-10 2.19317e-14)
(978.58 -2.2363e-10 2.19445e-14)
(978.58 -2.25019e-10 2.01733e-14)
(978.58 -2.27788e-10 2.03478e-14)
(978.58 -2.3002e-10 1.93321e-14)
(978.58 -2.31607e-10 1.9838e-14)
(978.58 -2.34483e-10 2.33517e-14)
(978.58 -2.36994e-10 2.42172e-14)
(978.58 -2.40121e-10 1.83447e-14)
(978.58 -2.41645e-10 1.83269e-14)
(978.58 -2.43912e-10 2.05692e-14)
(978.58 -2.47229e-10 1.97824e-14)
(978.58 -2.50189e-10 2.08168e-14)
(978.58 -2.52286e-10 2.04647e-14)
(978.58 -2.5554e-10 1.74841e-14)
(978.58 -2.58668e-10 2.14358e-14)
(978.58 -2.61629e-10 2.13304e-14)
(978.58 -2.65731e-10 1.80072e-14)
(978.58 -2.69005e-10 2.00309e-14)
(978.58 -2.72997e-10 1.78998e-14)
(978.58 -2.75177e-10 1.79631e-14)
(978.58 -2.78477e-10 1.69024e-14)
(978.58 -2.80637e-10 1.98235e-14)
(978.58 -2.86186e-10 1.93136e-14)
(978.58 -2.90032e-10 2.04837e-14)
(978.58 -2.94681e-10 2.07636e-14)
(978.58 -2.97568e-10 1.68849e-14)
(978.58 -3.0159e-10 1.52148e-14)
(978.58 -3.06425e-10 1.30437e-14)
(978.58 -3.10461e-10 1.7699e-14)
(978.58 -3.12814e-10 1.70042e-14)
(978.58 -3.18503e-10 1.70752e-14)
(978.58 -3.21928e-10 1.95805e-14)
(978.58 -7.11538e-08 1.17584e-10)
(978.58 -4.52397e-08 6.78054e-11)
(978.58 -2.73587e-08 3.74196e-11)
(978.58 -1.69418e-08 2.17479e-11)
(978.58 -1.10817e-08 1.37094e-11)
(978.58 -7.69568e-09 9.37354e-12)
(978.58 -5.64759e-09 6.92922e-12)
(978.58 -4.3403e-09 5.30674e-12)
(978.58 -3.45854e-09 4.22244e-12)
(978.58 -2.83751e-09 3.41649e-12)
(978.58 -2.38121e-09 2.83951e-12)
(978.58 -2.03457e-09 2.41885e-12)
(978.58 -1.76609e-09 2.06577e-12)
(978.58 -1.5525e-09 1.77597e-12)
(978.58 -1.38016e-09 1.5703e-12)
(978.58 -1.23984e-09 1.36324e-12)
(978.58 -1.12308e-09 1.18868e-12)
(978.58 -1.02451e-09 1.07162e-12)
(978.58 -9.39876e-10 9.53722e-13)
(978.58 -8.68672e-10 8.86292e-13)
(978.58 -8.07576e-10 7.92582e-13)
(978.58 -7.55402e-10 7.14901e-13)
(978.58 -7.08644e-10 6.74563e-13)
(978.58 -6.67064e-10 6.17786e-13)
(978.58 -6.31565e-10 5.89766e-13)
(978.58 -5.98809e-10 5.43314e-13)
(978.58 -5.70498e-10 5.11594e-13)
(978.58 -5.45458e-10 4.6946e-13)
(978.58 -5.23332e-10 4.29129e-13)
(978.58 -5.02402e-10 4.01595e-13)
(978.58 -4.8381e-10 3.72982e-13)
(978.58 -4.67118e-10 3.57011e-13)
(978.58 -4.52102e-10 3.31953e-13)
(978.58 -4.38623e-10 3.23144e-13)
(978.58 -4.27117e-10 3.05892e-13)
(978.58 -4.18023e-10 2.73017e-13)
(978.58 -4.05524e-10 2.58514e-13)
(978.58 -3.9411e-10 2.52668e-13)
(978.58 -3.83822e-10 2.48661e-13)
(978.58 -3.76906e-10 2.28108e-13)
(978.58 -3.69156e-10 2.20633e-13)
(978.58 -3.62936e-10 2.12403e-13)
(978.58 -3.55283e-10 2.06163e-13)
(978.58 -3.48542e-10 1.90057e-13)
(978.58 -3.43201e-10 1.80329e-13)
(978.58 -3.39919e-10 1.77694e-13)
(978.58 -3.35278e-10 1.70995e-13)
(978.58 -3.29291e-10 1.6938e-13)
(978.58 -3.24449e-10 1.68519e-13)
(978.58 -3.21156e-10 1.69006e-13)
(978.58 -3.17357e-10 1.53023e-13)
(978.58 -3.15838e-10 1.44881e-13)
(978.58 -3.11561e-10 1.3431e-13)
(978.58 -3.08451e-10 1.29637e-13)
(978.58 -3.08134e-10 1.21612e-13)
(978.58 -3.04971e-10 1.20679e-13)
(978.58 -3.02549e-10 1.14204e-13)
(978.58 -2.99675e-10 1.12525e-13)
(978.58 -2.98006e-10 1.19732e-13)
(978.58 -2.96819e-10 1.15297e-13)
(978.58 -2.95226e-10 1.09064e-13)
(978.58 -2.94532e-10 1.09747e-13)
(978.58 -2.9301e-10 9.94203e-14)
(978.58 -2.91861e-10 8.80728e-14)
(978.58 -2.91665e-10 9.61721e-14)
(978.58 -2.91599e-10 9.06281e-14)
(978.58 -2.8974e-10 8.56279e-14)
(978.58 -2.87467e-10 9.015e-14)
(978.58 -2.85551e-10 8.05927e-14)
(978.58 -2.84937e-10 7.67049e-14)
(978.58 -2.84769e-10 7.62017e-14)
(978.58 -2.84368e-10 7.5872e-14)
(978.58 -2.85209e-10 7.4562e-14)
(978.58 -2.86227e-10 7.70984e-14)
(978.58 -2.84617e-10 7.95768e-14)
(978.58 -2.85852e-10 7.50631e-14)
(978.58 -2.86616e-10 6.88423e-14)
(978.58 -2.86296e-10 6.9441e-14)
(978.58 -2.85349e-10 7.01948e-14)
(978.58 -2.85197e-10 6.83896e-14)
(978.58 -2.87229e-10 6.34364e-14)
(978.58 -2.89132e-10 6.07726e-14)
(978.58 -2.89182e-10 5.92501e-14)
(978.58 -2.89598e-10 5.89366e-14)
(978.58 -2.9124e-10 5.61307e-14)
(978.58 -2.9132e-10 5.64209e-14)
(978.58 -2.92195e-10 6.18856e-14)
(978.58 -2.92655e-10 6.21885e-14)
(978.58 -2.94739e-10 5.77454e-14)
(978.58 -2.95583e-10 5.58943e-14)
(978.58 -2.9548e-10 5.2996e-14)
(978.58 -2.98362e-10 5.54617e-14)
(978.58 -2.99166e-10 6.25951e-14)
(978.58 -2.99816e-10 6.52671e-14)
(978.58 -3.00943e-10 5.89967e-14)
(978.58 -3.02151e-10 4.7301e-14)
(978.58 -3.03704e-10 4.53706e-14)
(978.58 -3.04257e-10 4.80767e-14)
(978.58 -3.05046e-10 4.82515e-14)
(978.58 -3.06213e-10 4.68902e-14)
(978.58 -3.07769e-10 4.25351e-14)
(978.58 -3.09722e-10 4.64682e-14)
(978.58 -3.11936e-10 4.37476e-14)
(978.58 -3.13288e-10 4.30841e-14)
(978.58 -3.14979e-10 4.65031e-14)
(978.58 -3.17133e-10 4.37143e-14)
(978.58 -3.19478e-10 4.07668e-14)
(978.58 -3.21274e-10 3.93341e-14)
(978.58 -3.22536e-10 4.0584e-14)
(978.58 -3.2464e-10 4.01674e-14)
(978.58 -3.26869e-10 3.62264e-14)
(978.58 -3.29902e-10 3.5874e-14)
(978.58 -3.32367e-10 3.75562e-14)
(978.58 -3.34703e-10 3.98067e-14)
(978.58 -3.37687e-10 4.14024e-14)
(978.58 -3.41331e-10 4.54538e-14)
(978.58 -3.43956e-10 4.6467e-14)
(978.58 -3.4667e-10 4.36711e-14)
(978.58 -3.49676e-10 3.77079e-14)
(978.58 -3.52501e-10 3.70262e-14)
(978.58 -3.55904e-10 3.78309e-14)
(978.58 -3.59468e-10 3.75009e-14)
(978.58 -3.6311e-10 3.57811e-14)
(978.58 -3.66071e-10 3.47423e-14)
(978.58 -3.6913e-10 3.61539e-14)
(978.58 -3.71534e-10 3.67949e-14)
(978.58 -3.75226e-10 3.55327e-14)
(978.58 -3.79291e-10 3.75403e-14)
(978.58 -3.82771e-10 4.05442e-14)
(978.58 -3.85388e-10 3.8279e-14)
(978.58 -3.89091e-10 3.34469e-14)
(978.58 -3.9406e-10 3.72283e-14)
(978.58 -3.96863e-10 3.83898e-14)
(978.58 -4.00677e-10 3.32906e-14)
(978.58 -4.05439e-10 3.61906e-14)
(978.58 -4.0957e-10 2.91378e-14)
(978.58 -4.1411e-10 3.01588e-14)
(978.58 -4.19609e-10 3.6321e-14)
(978.58 -4.23675e-10 3.94474e-14)
(978.58 -4.28974e-10 3.18742e-14)
(978.58 -4.34801e-10 2.80432e-14)
(978.58 -4.39434e-10 2.91861e-14)
(978.58 -4.45582e-10 3.10658e-14)
(978.58 -4.50555e-10 3.01012e-14)
(978.58 -4.55363e-10 3.15987e-14)
(978.58 -4.60195e-10 2.89798e-14)
(978.58 -4.65913e-10 3.0898e-14)
(978.58 -4.71336e-10 3.31642e-14)
(978.58 -4.78474e-10 3.43386e-14)
(978.58 -4.85538e-10 3.12944e-14)
(978.58 -4.92402e-10 3.00459e-14)
(978.58 -4.99295e-10 2.97449e-14)
(978.58 -5.06168e-10 2.98735e-14)
(978.58 -5.11842e-10 2.80476e-14)
(978.58 -5.18265e-10 3.28006e-14)
(978.58 -5.2423e-10 3.24218e-14)
(978.58 -8.35628e-08 1.37756e-10)
(978.58 -5.9559e-08 8.79324e-11)
(978.58 -3.94981e-08 5.23951e-11)
(978.58 -2.59387e-08 3.15241e-11)
(978.58 -1.74912e-08 2.00644e-11)
(978.58 -1.2279e-08 1.36714e-11)
(978.58 -9.00069e-09 9.93475e-12)
(978.58 -6.87149e-09 7.58536e-12)
(978.58 -5.4339e-09 6.00689e-12)
(978.58 -4.42677e-09 4.89573e-12)
(978.58 -3.69306e-09 4.03237e-12)
(978.58 -3.14098e-09 3.4132e-12)
(978.58 -2.71494e-09 2.90965e-12)
(978.58 -2.3784e-09 2.5311e-12)
(978.58 -2.10929e-09 2.24403e-12)
(978.58 -1.89051e-09 1.93957e-12)
(978.58 -1.70895e-09 1.70829e-12)
(978.58 -1.55522e-09 1.52131e-12)
(978.58 -1.42317e-09 1.36739e-12)
(978.58 -1.31112e-09 1.25675e-12)
(978.58 -1.21621e-09 1.12726e-12)
(978.58 -1.13523e-09 1.0502e-12)
(978.58 -1.06289e-09 9.56835e-13)
(978.58 -9.99152e-10 8.90506e-13)
(978.58 -9.43796e-10 8.15947e-13)
(978.58 -8.94903e-10 7.5935e-13)
(978.58 -8.50725e-10 7.03096e-13)
(978.58 -8.11411e-10 6.58623e-13)
(978.58 -7.76346e-10 6.29666e-13)
(978.58 -7.44358e-10 5.79587e-13)
(978.58 -7.14991e-10 5.44791e-13)
(978.58 -6.89093e-10 5.08248e-13)
(978.58 -6.66614e-10 4.86568e-13)
(978.58 -6.45983e-10 4.56003e-13)
(978.58 -6.26299e-10 4.26244e-13)
(978.58 -6.11182e-10 4.00401e-13)
(978.58 -5.93729e-10 3.78688e-13)
(978.58 -5.77616e-10 3.53706e-13)
(978.58 -5.62533e-10 3.41051e-13)
(978.58 -5.50373e-10 3.17223e-13)
(978.58 -5.37871e-10 3.11124e-13)
(978.58 -5.27342e-10 2.95198e-13)
(978.58 -5.17219e-10 2.84592e-13)
(978.58 -5.07873e-10 2.69839e-13)
(978.58 -4.98955e-10 2.7008e-13)
(978.58 -4.9067e-10 2.51376e-13)
(978.58 -4.85013e-10 2.44321e-13)
(978.58 -4.7614e-10 2.37353e-13)
(978.58 -4.68813e-10 2.31952e-13)
(978.58 -4.62721e-10 2.17049e-13)
(978.58 -4.57238e-10 2.0681e-13)
(978.58 -4.54137e-10 2.03614e-13)
(978.58 -4.49281e-10 1.91442e-13)
(978.58 -4.44142e-10 1.83144e-13)
(978.58 -4.41487e-10 1.75641e-13)
(978.58 -4.37544e-10 1.76272e-13)
(978.58 -4.33169e-10 1.67821e-13)
(978.58 -4.29667e-10 1.64679e-13)
(978.58 -4.26647e-10 1.67959e-13)
(978.58 -4.23018e-10 1.60928e-13)
(978.58 -4.20752e-10 1.50402e-13)
(978.58 -4.1948e-10 1.40245e-13)
(978.58 -4.1813e-10 1.36149e-13)
(978.58 -4.16775e-10 1.43114e-13)
(978.58 -4.15195e-10 1.44596e-13)
(978.58 -4.14385e-10 1.35087e-13)
(978.58 -4.12381e-10 1.30173e-13)
(978.58 -4.09429e-10 1.25659e-13)
(978.58 -4.06366e-10 1.15172e-13)
(978.58 -4.04588e-10 1.13414e-13)
(978.58 -4.05088e-10 1.14956e-13)
(978.58 -4.04075e-10 1.15157e-13)
(978.58 -4.04246e-10 1.11935e-13)
(978.58 -4.0466e-10 1.11745e-13)
(978.58 -4.03812e-10 1.07431e-13)
(978.58 -4.03882e-10 1.04069e-13)
(978.58 -4.04424e-10 1.07251e-13)
(978.58 -4.04281e-10 1.06235e-13)
(978.58 -4.0305e-10 9.80432e-14)
(978.58 -4.02754e-10 9.17519e-14)
(978.58 -4.03789e-10 9.06994e-14)
(978.58 -4.07283e-10 9.58215e-14)
(978.58 -4.07711e-10 9.26109e-14)
(978.58 -4.07404e-10 9.21111e-14)
(978.58 -4.08472e-10 8.91194e-14)
(978.58 -4.08255e-10 8.82891e-14)
(978.58 -4.10103e-10 8.45601e-14)
(978.58 -4.11029e-10 7.93376e-14)
(978.58 -4.12636e-10 8.00352e-14)
(978.58 -4.13282e-10 8.27193e-14)
(978.58 -4.13779e-10 8.11769e-14)
(978.58 -4.15837e-10 8.20429e-14)
(978.58 -4.18145e-10 8.49572e-14)
(978.58 -4.19059e-10 8.44174e-14)
(978.58 -4.2008e-10 7.35373e-14)
(978.58 -4.22482e-10 7.39319e-14)
(978.58 -4.25253e-10 7.36646e-14)
(978.58 -4.2717e-10 6.8225e-14)
(978.58 -4.28845e-10 6.75008e-14)
(978.58 -4.29941e-10 6.37792e-14)
(978.58 -4.31216e-10 6.00806e-14)
(978.58 -4.3251e-10 6.11908e-14)
(978.58 -4.35355e-10 6.23e-14)
(978.58 -4.37601e-10 6.4932e-14)
(978.58 -4.40529e-10 6.41471e-14)
(978.58 -4.42793e-10 6.19939e-14)
(978.58 -4.45357e-10 6.01608e-14)
(978.58 -4.47939e-10 5.91034e-14)
(978.58 -4.50415e-10 5.52472e-14)
(978.58 -4.52517e-10 5.21041e-14)
(978.58 -4.55204e-10 5.39901e-14)
(978.58 -4.58848e-10 5.45537e-14)
(978.58 -4.6158e-10 5.89125e-14)
(978.58 -4.64917e-10 5.90019e-14)
(978.58 -4.68947e-10 6.01673e-14)
(978.58 -4.73637e-10 5.84288e-14)
(978.58 -4.77357e-10 5.69696e-14)
(978.58 -4.81629e-10 5.20024e-14)
(978.58 -4.85468e-10 5.04604e-14)
(978.58 -4.89152e-10 5.34568e-14)
(978.58 -4.93272e-10 5.33926e-14)
(978.58 -4.97627e-10 5.01436e-14)
(978.58 -5.01983e-10 4.87798e-14)
(978.58 -5.06821e-10 5.17571e-14)
(978.58 -5.10964e-10 5.24655e-14)
(978.58 -5.15069e-10 5.22748e-14)
(978.58 -5.1908e-10 5.49686e-14)
(978.58 -5.23499e-10 5.46257e-14)
(978.58 -5.28955e-10 4.93979e-14)
(978.58 -5.33216e-10 4.8206e-14)
(978.58 -5.38471e-10 4.76364e-14)
(978.58 -5.43718e-10 5.01217e-14)
(978.58 -5.48905e-10 4.83314e-14)
(978.58 -5.53585e-10 4.75986e-14)
(978.58 -5.59368e-10 4.91625e-14)
(978.58 -5.64555e-10 4.86425e-14)
(978.58 -5.70234e-10 5.42001e-14)
(978.58 -5.77172e-10 5.14802e-14)
(978.58 -5.83482e-10 4.99697e-14)
(978.58 -5.90606e-10 4.54449e-14)
(978.58 -5.97401e-10 4.59784e-14)
(978.58 -6.03404e-10 4.5642e-14)
(978.58 -6.10842e-10 4.46134e-14)
(978.58 -6.1863e-10 4.62961e-14)
(978.58 -6.25398e-10 4.73529e-14)
(978.58 -6.32613e-10 4.7719e-14)
(978.58 -6.39861e-10 4.69602e-14)
(978.58 -6.46948e-10 4.56406e-14)
(978.58 -6.55e-10 4.31786e-14)
(978.58 -6.63984e-10 4.31918e-14)
(978.58 -6.73124e-10 4.29626e-14)
(978.58 -6.82031e-10 4.58989e-14)
(978.58 -6.91537e-10 4.38049e-14)
(978.58 -7.00281e-10 4.05655e-14)
(978.58 -7.08855e-10 4.37257e-14)
(978.58 -7.16979e-10 4.40771e-14)
(978.58 -9.21841e-08 1.51882e-10)
(978.58 -7.10983e-08 1.04318e-10)
(978.58 -5.07606e-08 6.59959e-11)
(978.58 -3.5205e-08 4.13011e-11)
(978.58 -2.4571e-08 2.67909e-11)
(978.58 -1.7567e-08 1.83056e-11)
(978.58 -1.29578e-08 1.32042e-11)
(978.58 -9.88043e-09 1.00116e-11)
(978.58 -7.77853e-09 7.89925e-12)
(978.58 -6.29956e-09 6.41833e-12)
(978.58 -5.22623e-09 5.31698e-12)
(978.58 -4.42439e-09 4.45481e-12)
(978.58 -3.80955e-09 3.78134e-12)
(978.58 -3.32664e-09 3.2838e-12)
(978.58 -2.94064e-09 2.86612e-12)
(978.58 -2.62782e-09 2.51419e-12)
(978.58 -2.36908e-09 2.22866e-12)
(978.58 -2.15292e-09 2.00614e-12)
(978.58 -1.96816e-09 1.81903e-12)
(978.58 -1.80798e-09 1.62645e-12)
(978.58 -1.67319e-09 1.48588e-12)
(978.58 -1.55837e-09 1.3668e-12)
(978.58 -1.45636e-09 1.24115e-12)
(978.58 -1.36738e-09 1.14325e-12)
(978.58 -1.28869e-09 1.05259e-12)
(978.58 -1.21939e-09 9.99444e-13)
(978.58 -1.15841e-09 9.24711e-13)
(978.58 -1.10402e-09 8.77526e-13)
(978.58 -1.05424e-09 8.2382e-13)
(978.58 -1.00905e-09 7.58271e-13)
(978.58 -9.67766e-10 7.06482e-13)
(978.58 -9.31554e-10 6.64724e-13)
(978.58 -8.99107e-10 6.15312e-13)
(978.58 -8.69935e-10 5.79159e-13)
(978.58 -8.43254e-10 5.49507e-13)
(978.58 -8.19859e-10 5.16743e-13)
(978.58 -7.96079e-10 4.92783e-13)
(978.58 -7.73379e-10 4.66779e-13)
(978.58 -7.53419e-10 4.35783e-13)
(978.58 -7.36583e-10 4.22813e-13)
(978.58 -7.18344e-10 4.12377e-13)
(978.58 -7.01921e-10 3.9329e-13)
(978.58 -6.88453e-10 3.74827e-13)
(978.58 -6.76308e-10 3.64507e-13)
(978.58 -6.64447e-10 3.4766e-13)
(978.58 -6.51745e-10 3.39523e-13)
(978.58 -6.41804e-10 3.19222e-13)
(978.58 -6.31083e-10 3.07122e-13)
(978.58 -6.21032e-10 2.92267e-13)
(978.58 -6.12248e-10 2.71285e-13)
(978.58 -6.05115e-10 2.71902e-13)
(978.58 -5.98378e-10 2.60753e-13)
(978.58 -5.92969e-10 2.52411e-13)
(978.58 -5.85782e-10 2.44566e-13)
(978.58 -5.80812e-10 2.40336e-13)
(978.58 -5.7622e-10 2.28816e-13)
(978.58 -5.69627e-10 2.14836e-13)
(978.58 -5.64713e-10 2.13e-13)
(978.58 -5.60752e-10 2.0864e-13)
(978.58 -5.56006e-10 1.94143e-13)
(978.58 -5.51518e-10 1.89086e-13)
(978.58 -5.48722e-10 1.84195e-13)
(978.58 -5.46242e-10 1.84797e-13)
(978.58 -5.44719e-10 1.86314e-13)
(978.58 -5.42333e-10 1.74817e-13)
(978.58 -5.40235e-10 1.75906e-13)
(978.58 -5.37715e-10 1.69526e-13)
(978.58 -5.34898e-10 1.5644e-13)
(978.58 -5.31655e-10 1.62719e-13)
(978.58 -5.28135e-10 1.59125e-13)
(978.58 -5.26905e-10 1.52582e-13)
(978.58 -5.25923e-10 1.49873e-13)
(978.58 -5.25188e-10 1.44601e-13)
(978.58 -5.26087e-10 1.386e-13)
(978.58 -5.25359e-10 1.39946e-13)
(978.58 -5.24707e-10 1.37056e-13)
(978.58 -5.24042e-10 1.35451e-13)
(978.58 -5.23466e-10 1.27522e-13)
(978.58 -5.22174e-10 1.22861e-13)
(978.58 -5.22114e-10 1.24336e-13)
(978.58 -5.22688e-10 1.29583e-13)
(978.58 -5.25345e-10 1.18995e-13)
(978.58 -5.26328e-10 1.16399e-13)
(978.58 -5.26525e-10 1.15244e-13)
(978.58 -5.27134e-10 1.13604e-13)
(978.58 -5.27908e-10 1.07776e-13)
(978.58 -5.29467e-10 1.07334e-13)
(978.58 -5.30368e-10 1.1036e-13)
(978.58 -5.31879e-10 1.12047e-13)
(978.58 -5.32603e-10 1.07799e-13)
(978.58 -5.33726e-10 1.02718e-13)
(978.58 -5.35913e-10 1.02807e-13)
(978.58 -5.38682e-10 1.01073e-13)
(978.58 -5.41042e-10 9.73752e-14)
(978.58 -5.41428e-10 9.5031e-14)
(978.58 -5.42974e-10 9.54245e-14)
(978.58 -5.45545e-10 8.89363e-14)
(978.58 -5.48063e-10 9.03978e-14)
(978.58 -5.50662e-10 9.07251e-14)
(978.58 -5.52065e-10 8.62286e-14)
(978.58 -5.53638e-10 8.41396e-14)
(978.58 -5.55608e-10 8.69466e-14)
(978.58 -5.58376e-10 8.58084e-14)
(978.58 -5.6061e-10 7.80448e-14)
(978.58 -5.6377e-10 7.92239e-14)
(978.58 -5.6724e-10 8.09874e-14)
(978.58 -5.702e-10 8.01783e-14)
(978.58 -5.73372e-10 7.85736e-14)
(978.58 -5.77339e-10 7.67054e-14)
(978.58 -5.80635e-10 7.85351e-14)
(978.58 -5.82731e-10 7.76849e-14)
(978.58 -5.85765e-10 7.69535e-14)
(978.58 -5.89249e-10 7.48626e-14)
(978.58 -5.93207e-10 6.74258e-14)
(978.58 -5.97358e-10 6.95995e-14)
(978.58 -6.0313e-10 7.32634e-14)
(978.58 -6.07886e-10 7.37779e-14)
(978.58 -6.12986e-10 7.14696e-14)
(978.58 -6.18828e-10 7.39523e-14)
(978.58 -6.23863e-10 7.22157e-14)
(978.58 -6.28366e-10 6.5688e-14)
(978.58 -6.33438e-10 6.54056e-14)
(978.58 -6.38811e-10 7.09878e-14)
(978.58 -6.44463e-10 6.91054e-14)
(978.58 -6.5051e-10 6.69601e-14)
(978.58 -6.55499e-10 7.11187e-14)
(978.58 -6.6036e-10 6.92781e-14)
(978.58 -6.65361e-10 6.34654e-14)
(978.58 -6.70741e-10 6.20849e-14)
(978.58 -6.75807e-10 6.17744e-14)
(978.58 -6.82713e-10 6.26345e-14)
(978.58 -6.8979e-10 6.73059e-14)
(978.58 -6.96751e-10 6.39044e-14)
(978.58 -7.03334e-10 6.58256e-14)
(978.58 -7.09403e-10 6.50934e-14)
(978.58 -7.15936e-10 6.40456e-14)
(978.58 -7.22462e-10 6.39236e-14)
(978.58 -7.30371e-10 6.00821e-14)
(978.58 -7.38431e-10 5.9789e-14)
(978.58 -7.47077e-10 5.79854e-14)
(978.58 -7.556e-10 6.15201e-14)
(978.58 -7.6357e-10 6.04009e-14)
(978.58 -7.71205e-10 6.16606e-14)
(978.58 -7.80192e-10 6.22809e-14)
(978.58 -7.8926e-10 6.06083e-14)
(978.58 -7.98178e-10 5.98899e-14)
(978.58 -8.07154e-10 5.64499e-14)
(978.58 -8.15248e-10 5.37812e-14)
(978.58 -8.24432e-10 5.65493e-14)
(978.58 -8.35416e-10 5.68177e-14)
(978.58 -8.45912e-10 5.69487e-14)
(978.58 -8.55905e-10 5.95347e-14)
(978.58 -8.67657e-10 5.19761e-14)
(978.58 -8.7859e-10 5.44832e-14)
(978.58 -8.89952e-10 5.78672e-14)
(978.58 -9.00759e-10 5.66979e-14)
(978.58 -9.85212e-08 1.62706e-10)
(978.58 -8.03698e-08 1.17675e-10)
(978.58 -6.08436e-08 7.81478e-11)
(978.58 -4.42965e-08 5.08999e-11)
(978.58 -3.20109e-08 3.36779e-11)
(978.58 -2.33952e-08 2.31493e-11)
(978.58 -1.74549e-08 1.67355e-11)
(978.58 -1.33581e-08 1.2584e-11)
(978.58 -1.0502e-08 9.82443e-12)
(978.58 -8.47201e-09 7.91664e-12)
(978.58 -6.99724e-09 6.55696e-12)
(978.58 -5.89877e-09 5.50784e-12)
(978.58 -5.05841e-09 4.71065e-12)
(978.58 -4.40183e-09 4.08039e-12)
(978.58 -3.87936e-09 3.51477e-12)
(978.58 -3.45673e-09 3.09472e-12)
(978.58 -3.10898e-09 2.76646e-12)
(978.58 -2.81859e-09 2.46734e-12)
(978.58 -2.57211e-09 2.23155e-12)
(978.58 -2.36044e-09 2.00139e-12)
(978.58 -2.17995e-09 1.82038e-12)
(978.58 -2.02558e-09 1.6625e-12)
(978.58 -1.89054e-09 1.52638e-12)
(978.58 -1.77129e-09 1.38828e-12)
(978.58 -1.66685e-09 1.30179e-12)
(978.58 -1.57547e-09 1.21821e-12)
(978.58 -1.49353e-09 1.13927e-12)
(978.58 -1.42199e-09 1.06584e-12)
(978.58 -1.35585e-09 9.78344e-13)
(978.58 -1.29561e-09 9.0448e-13)
(978.58 -1.24162e-09 8.60814e-13)
(978.58 -1.19316e-09 8.05215e-13)
(978.58 -1.14989e-09 7.57004e-13)
(978.58 -1.11068e-09 7.21506e-13)
(978.58 -1.07523e-09 6.73847e-13)
(978.58 -1.04363e-09 6.24848e-13)
(978.58 -1.013e-09 6.14605e-13)
(978.58 -9.83056e-10 5.78991e-13)
(978.58 -9.57995e-10 5.52635e-13)
(978.58 -9.35951e-10 5.32688e-13)
(978.58 -9.1164e-10 4.93712e-13)
(978.58 -8.8978e-10 4.71768e-13)
(978.58 -8.71018e-10 4.56239e-13)
(978.58 -8.52967e-10 4.42019e-13)
(978.58 -8.37102e-10 4.24137e-13)
(978.58 -8.22185e-10 4.09563e-13)
(978.58 -8.08272e-10 3.86614e-13)
(978.58 -7.93404e-10 3.76189e-13)
(978.58 -7.81012e-10 3.6155e-13)
(978.58 -7.6867e-10 3.40982e-13)
(978.58 -7.59842e-10 3.30917e-13)
(978.58 -7.49299e-10 3.18944e-13)
(978.58 -7.42374e-10 3.06406e-13)
(978.58 -7.33802e-10 2.96284e-13)
(978.58 -7.262e-10 2.83744e-13)
(978.58 -7.20042e-10 2.72728e-13)
(978.58 -7.12094e-10 2.68126e-13)
(978.58 -7.05288e-10 2.66136e-13)
(978.58 -6.98467e-10 2.50323e-13)
(978.58 -6.92537e-10 2.42094e-13)
(978.58 -6.87099e-10 2.38486e-13)
(978.58 -6.82861e-10 2.31722e-13)
(978.58 -6.79013e-10 2.29047e-13)
(978.58 -6.75787e-10 2.20066e-13)
(978.58 -6.72859e-10 2.18948e-13)
(978.58 -6.70203e-10 2.16246e-13)
(978.58 -6.66858e-10 2.0336e-13)
(978.58 -6.63132e-10 1.97265e-13)
(978.58 -6.59964e-10 2.00806e-13)
(978.58 -6.55763e-10 1.91553e-13)
(978.58 -6.52904e-10 1.85631e-13)
(978.58 -6.51383e-10 1.81367e-13)
(978.58 -6.49736e-10 1.76617e-13)
(978.58 -6.49383e-10 1.69738e-13)
(978.58 -6.48412e-10 1.70338e-13)
(978.58 -6.47861e-10 1.62383e-13)
(978.58 -6.4733e-10 1.59346e-13)
(978.58 -6.46219e-10 1.57757e-13)
(978.58 -6.45006e-10 1.6565e-13)
(978.58 -6.43897e-10 1.56873e-13)
(978.58 -6.43569e-10 1.52039e-13)
(978.58 -6.46479e-10 1.46368e-13)