/*--------------------------------*- C++ -*----------------------------------*\
| =========                 |                                                 |
| \\      /  F ield         | OpenFOAM: The Open Source CFD Toolbox           |
|  \\    /   O peration     | Version:  v1706                                 |
|   \\  /    A nd           | Web:      www.OpenFOAM.com                      |
|    \\/     M anipulation  |                                                 |
\*---------------------------------------------------------------------------*/
FoamFile
{
    version     2.0;
    format      ascii;
    class       volScalarField;
    location    "1.6e-05";
    object      wallHeatFlux;
}
// * * * * * * * * * * * * * * * * * * * * * * * * * * * * * * * * * * * * * //

dimensions      [1 0 -3 0 0 0 0];


internalField   uniform 0;

boundaryField
{
    cone
    {
        type            calculated;
        value           nonuniform List<scalar> 
147
(
8615.66
8612.92
8607.9
8601.48
8593.48
8584.56
8574.71
8563.76
8551.56
8538.03
8523.14
8506.85
8489.15
8470.04
8449.54
8427.65
8404.38
8379.74
8353.74
8326.38
8297.66
8267.57
8236.11
8203.29
8169.1
8133.54
8096.62
8058.32
8018.67
7977.65
7935.29
7891.58
7846.54
7800.18
7752.53
7703.59
7653.39
7601.93
7549.25
7495.34
7440.22
7383.89
7326.36
7267.64
7207.73
7146.65
7084.42
7021.04
6956.54
6890.96
6824.3
6756.61
6687.92
6618.26
6547.65
6476.16
6403.8
6330.62
6256.67
6181.99
6106.63
6030.64
5954.09
5877.04
5799.54
5721.67
5643.51
5565.12
5486.6
5408.02
5329.49
5251.08
5172.92
5095.08
5017.7
4940.88
4864.73
4789.39
4714.98
4641.64
4569.5
4498.7
4429.4
4361.74
4295.87
4231.96
4170.17
4110.67
4053.61
3999.18
3947.55
3898.88
3853.36
3811.17
3772.46
3737.37
3706.02
3678.53
3655.1
3635.92
3621.16
3610.95
3605.44
3604.63
3608.58
3617.46
3631.4
3650.53
3674.99
3704.94
3740.26
3780.79
3826.53
3877.44
3933.43
3994.4
4060.19
4130.64
4205.51
4284.55
4367.46
4453.9
4543.48
4635.77
4730.29
4826.51
4923.87
5021.75
5119.5
5216.44
5311.85
5404.97
5495.05
5581.31
5662.98
5739.31
5809.54
5872.98
5928.95
5976.87
6016.18
6046.42
6067.19
6078.17
6079.47
6070.99
8626.72
)
;
    }
    inlet
    {
        type            calculated;
        value           uniform 0;
    }
    rWedge
    {
        type            wedge;
    }
    lWedge
    {
        type            wedge;
    }
    outlet
    {
        type            calculated;
        value           nonuniform 0();
    }
    procBoundary3to2
    {
        type            processor;
        value           uniform 0;
    }
}


// ************************************************************************* //
