/*--------------------------------*- C++ -*----------------------------------*\
| =========                 |                                                 |
| \\      /  F ield         | OpenFOAM: The Open Source CFD Toolbox           |
|  \\    /   O peration     | Version:  v1706                                 |
|   \\  /    A nd           | Web:      www.OpenFOAM.com                      |
|    \\/     M anipulation  |                                                 |
\*---------------------------------------------------------------------------*/
FoamFile
{
    version     2.0;
    format      ascii;
    class       volScalarField;
    location    "3.9e-05";
    object      wallHeatFlux;
}
// * * * * * * * * * * * * * * * * * * * * * * * * * * * * * * * * * * * * * //

dimensions      [1 0 -3 0 0 0 0];


internalField   uniform 0;

boundaryField
{
    cone
    {
        type            calculated;
        value           nonuniform List<scalar> 
147
(
244687
244636
244562
244498
244411
244319
244207
244082
243941
243785
243614
243427
243225
243008
242776
242529
242266
241988
241695
241386
241062
240722
240367
239997
239611
239210
238793
238362
237915
237453
236976
236484
235978
235456
234921
234370
233805
233226
232633
232025
231404
230769
230120
229458
228783
228094
227392
226678
225950
225210
224457
223691
222913
222123
221321
220507
219682
218846
218000
217143
216275
215397
214507
213608
212697
211777
210846
209906
208955
207995
207026
206047
205059
204061
203055
202040
201017
199985
198945
197897
196841
195777
194706
193628
192542
191449
190350
189243
188131
187012
185886
184755
183619
182476
181328
180175
179017
177854
176687
175515
174339
173159
171974
170787
169595
168401
167203
166002
164799
163593
162385
161175
159963
158749
157533
156316
155098
153879
152659
151439
150218
148997
147775
146554
145333
144112
142892
141673
140455
139238
138022
136808
135595
134384
133175
131968
130764
129561
128362
127165
125972
124784
123602
122425
121251
120077
244955
)
;
    }
    inlet
    {
        type            calculated;
        value           uniform 0;
    }
    rWedge
    {
        type            wedge;
    }
    lWedge
    {
        type            wedge;
    }
    outlet
    {
        type            calculated;
        value           nonuniform 0();
    }
    procBoundary3to2
    {
        type            processor;
        value           uniform 0;
    }
}


// ************************************************************************* //
