/*--------------------------------*- C++ -*----------------------------------*\
| =========                 |                                                 |
| \\      /  F ield         | OpenFOAM: The Open Source CFD Toolbox           |
|  \\    /   O peration     | Version:  v1706                                 |
|   \\  /    A nd           | Web:      www.OpenFOAM.com                      |
|    \\/     M anipulation  |                                                 |
\*---------------------------------------------------------------------------*/
FoamFile
{
    version     2.0;
    format      ascii;
    class       volVectorField;
    location    "3.2e-05";
    object      U;
}
// * * * * * * * * * * * * * * * * * * * * * * * * * * * * * * * * * * * * * //

dimensions      [0 1 -1 0 0 0 0];


internalField   nonuniform List<vector> 
29987
(
(1760 -2.25027e-08 4.14034e-11)
(1760 -7.40977e-09 1.30696e-11)
(1760 -3.31032e-09 5.93773e-12)
(1760 -1.97244e-09 3.49925e-12)
(1760 -1.34148e-09 2.332e-12)
(1760 -9.74989e-10 1.69366e-12)
(1760 -7.40591e-10 1.28961e-12)
(1760 -5.83607e-10 1.01171e-12)
(1760 -4.73921e-10 8.17696e-13)
(1760 -3.9174e-10 6.92215e-13)
(1760 -3.27275e-10 5.17572e-13)
(1760 -2.80022e-10 4.54966e-13)
(1760 -2.45582e-10 4.15776e-13)
(1760 -2.16872e-10 3.51136e-13)
(1760 -1.91759e-10 3.1038e-13)
(1760 -1.70545e-10 2.65457e-13)
(1760 -1.54936e-10 2.21184e-13)
(1760 -1.41038e-10 1.93885e-13)
(1760 -1.29917e-10 1.82745e-13)
(1760 -1.19232e-10 1.72042e-13)
(1760 -1.12475e-10 1.66066e-13)
(1760 -1.013e-10 1.40706e-13)
(1760 -9.46214e-11 1.32381e-13)
(1760 -9.02099e-11 1.13525e-13)
(1760 -8.53799e-11 1.1576e-13)
(1760 -8.06148e-11 1.1298e-13)
(1760 -7.4592e-11 9.14414e-14)
(1760 -7.20954e-11 8.1954e-14)
(1760 -7.02404e-11 8.80356e-14)
(1760 -6.56584e-11 8.11267e-14)
(1760 -6.23659e-11 8.52708e-14)
(1760 -6.21191e-11 7.47077e-14)
(1760 -5.88808e-11 6.62877e-14)
(1760 -5.59902e-11 5.98884e-14)
(1760 -5.52702e-11 6.14236e-14)
(1760 -5.25045e-11 5.65514e-14)
(1760 -5.2227e-11 5.49637e-14)
(1760 -4.94783e-11 4.42549e-14)
(1760 -4.93652e-11 4.23294e-14)
(1760 -4.84524e-11 4.6955e-14)
(1760 -4.64527e-11 3.61361e-14)
(1760 -4.50652e-11 3.71685e-14)
(1760 -4.52025e-11 4.49602e-14)
(1760 -4.46819e-11 3.83438e-14)
(1760 -4.22738e-11 3.57888e-14)
(1760 -4.10641e-11 3.21026e-14)
(1760 -4.09506e-11 4.40733e-14)
(1760 -4.08986e-11 3.0298e-14)
(1760 -4.07911e-11 2.88712e-14)
(1760 -3.95634e-11 3.38314e-14)
(1760 -3.86688e-11 3.26366e-14)
(1760 -3.88769e-11 2.9364e-14)
(1760 -3.80593e-11 2.79965e-14)
(1760 -3.70502e-11 2.60784e-14)
(1760 -3.65119e-11 2.76141e-14)
(1760 -3.71949e-11 2.15521e-14)
(1760 -3.6457e-11 1.85635e-14)
(1760 -3.65367e-11 1.98299e-14)
(1760 -3.59831e-11 2.05829e-14)
(1760 -3.45095e-11 2.52143e-14)
(1760 -3.54991e-11 2.48392e-14)
(1760 -3.4934e-11 1.36726e-14)
(1760 -3.57278e-11 1.8582e-14)
(1760 -3.44701e-11 2.12243e-14)
(1760 -3.33617e-11 1.60157e-14)
(1760 -3.38053e-11 1.4692e-14)
(1760 -3.33243e-11 1.48128e-14)
(1760 -3.36293e-11 1.88945e-14)
(1760 -3.45791e-11 1.86036e-14)
(1760 -3.3399e-11 1.62371e-14)
(1760 -3.37929e-11 1.39213e-14)
(1760 -3.39364e-11 1.63653e-14)
(1760 -3.41727e-11 1.43426e-14)
(1760 -3.33887e-11 1.50351e-14)
(1760 -3.31431e-11 1.80265e-14)
(1760 -3.47568e-11 1.6233e-14)
(1760 -3.34727e-11 1.48535e-14)
(1760 -3.38755e-11 1.66634e-14)
(1760 -3.32643e-11 1.11466e-14)
(1760 -3.32796e-11 7.69199e-15)
(1760 -3.31789e-11 1.07584e-14)
(1760 -3.38849e-11 1.07422e-14)
(1760 -3.41573e-11 7.834e-15)
(1760 -3.37566e-11 1.11584e-14)
(1760 -3.38998e-11 1.21598e-14)
(1760 -3.41381e-11 1.07941e-14)
(1760 -3.35795e-11 9.36903e-15)
(1760 -3.26269e-11 9.80924e-15)
(1760 -3.23493e-11 1.22368e-14)
(1760 -3.28599e-11 8.69825e-15)
(1760 -3.34075e-11 6.78509e-15)
(1760 -3.33565e-11 7.0206e-15)
(1760 -3.22778e-11 1.07854e-14)
(1760 -3.29295e-11 1.18994e-14)
(1760 -3.34604e-11 1.24742e-14)
(1760 -3.37656e-11 1.21509e-14)
(1760 -3.42903e-11 8.03851e-15)
(1760 -3.52674e-11 1.06252e-14)
(1760 -3.53731e-11 1.09096e-14)
(1760 -3.56591e-11 7.9253e-15)
(1760 -3.54584e-11 6.94418e-15)
(1760 -3.54297e-11 1.30454e-14)
(1760 -3.601e-11 1.28074e-14)
(1760 -3.66984e-11 9.11855e-15)
(1760 -3.63831e-11 9.32693e-15)
(1760 -3.68335e-11 7.85769e-15)
(1760 -3.66905e-11 6.42286e-15)
(1760 -3.65204e-11 7.01113e-15)
(1760 -3.57343e-11 9.73798e-15)
(1760 -3.64393e-11 7.09498e-15)
(1760 -3.6947e-11 7.36031e-15)
(1760 -3.7365e-11 7.34365e-15)
(1760 -3.81261e-11 9.26228e-15)
(1760 -3.85198e-11 7.13543e-15)
(1760 -3.93837e-11 1.03638e-14)
(1760 -3.90139e-11 7.60837e-15)
(1760 -3.95639e-11 8.76367e-15)
(1760 -3.88549e-11 1.15184e-14)
(1760 -3.88608e-11 1.07542e-14)
(1760 -3.8568e-11 6.69799e-15)
(1760 -3.84973e-11 7.09253e-15)
(1760 -3.8886e-11 8.79795e-15)
(1760 -3.96592e-11 7.20302e-15)
(1760 -4.01349e-11 8.94181e-15)
(1760 -4.0736e-11 9.1577e-15)
(1760 -4.11222e-11 8.25636e-15)
(1760 -4.11071e-11 9.72795e-15)
(1760 -4.14577e-11 7.75037e-15)
(1760 -4.19357e-11 9.02395e-15)
(1760 -4.14982e-11 8.18398e-15)
(1760 -4.26404e-11 1.01729e-14)
(1760 -4.34566e-11 1.01926e-14)
(1760 -4.50636e-11 7.25757e-15)
(1760 -4.49375e-11 3.83191e-15)
(1760 -4.42281e-11 6.84259e-15)
(1760 -4.55576e-11 5.30805e-15)
(1760 -4.50914e-11 7.56631e-15)
(1760 -4.47698e-11 7.73138e-15)
(1760 -4.62181e-11 7.05819e-15)
(1760 -4.72092e-11 1.05652e-14)
(1760 -4.75526e-11 2.52059e-16)
(1760 -4.75367e-11 2.80221e-15)
(1760 -4.75904e-11 6.74164e-15)
(1760 -4.75912e-11 5.8281e-15)
(1760 -4.89159e-11 7.65328e-15)
(1760 -4.93588e-11 7.68164e-15)
(1760 -5.13713e-11 9.01002e-15)
(1760 -5.18064e-11 8.41243e-15)
(1760 -5.22072e-11 6.72276e-15)
(1760 -5.23909e-11 5.25329e-15)
(1760 -5.34085e-11 3.91627e-15)
(1760 -5.51161e-11 5.28808e-15)
(1760 -5.5285e-11 1.95926e-15)
(1760 -5.5147e-11 9.88748e-15)
(1760 -5.62454e-11 5.55088e-15)
(1760 -5.72777e-11 9.02329e-15)
(1760 -6.29881e-08 1.07806e-10)
(1760 -2.70661e-08 4.37547e-11)
(1760 -1.27653e-08 1.99779e-11)
(1760 -7.20561e-09 1.14409e-11)
(1760 -4.68006e-09 7.5007e-12)
(1760 -3.32879e-09 5.36881e-12)
(1760 -2.50809e-09 4.02143e-12)
(1760 -1.9633e-09 3.09795e-12)
(1760 -1.58325e-09 2.50419e-12)
(1760 -1.30779e-09 2.0331e-12)
(1760 -1.09457e-09 1.63484e-12)
(1760 -9.31836e-10 1.42032e-12)
(1760 -8.121e-10 1.19633e-12)
(1760 -7.16612e-10 1.04375e-12)
(1760 -6.33019e-10 8.93823e-13)
(1760 -5.61744e-10 8.17658e-13)
(1760 -5.07815e-10 7.05575e-13)
(1760 -4.61651e-10 6.41039e-13)
(1760 -4.22919e-10 5.91123e-13)
(1760 -3.91876e-10 5.3167e-13)
(1760 -3.65106e-10 4.86007e-13)
(1760 -3.35753e-10 4.19879e-13)
(1760 -3.09615e-10 3.92238e-13)
(1760 -2.92707e-10 3.53812e-13)
(1760 -2.76001e-10 3.45832e-13)
(1760 -2.59377e-10 3.30681e-13)
(1760 -2.42958e-10 3.00776e-13)
(1760 -2.32063e-10 2.76892e-13)
(1760 -2.25092e-10 2.66354e-13)
(1760 -2.13937e-10 2.49408e-13)
(1760 -2.03036e-10 2.14909e-13)
(1760 -1.95488e-10 2.13387e-13)
(1760 -1.87042e-10 1.77744e-13)
(1760 -1.78568e-10 1.6513e-13)
(1760 -1.76308e-10 1.73302e-13)
(1760 -1.68453e-10 1.71448e-13)
(1760 -1.65043e-10 1.53949e-13)
(1760 -1.56515e-10 1.53184e-13)
(1760 -1.52661e-10 1.42008e-13)
(1760 -1.52239e-10 1.26968e-13)
(1760 -1.45985e-10 1.12947e-13)
(1760 -1.41633e-10 1.20108e-13)
(1760 -1.39556e-10 1.27348e-13)
(1760 -1.39337e-10 1.13164e-13)
(1760 -1.36472e-10 8.97455e-14)
(1760 -1.30558e-10 1.04896e-13)
(1760 -1.27014e-10 1.03212e-13)
(1760 -1.2488e-10 8.81792e-14)
(1760 -1.26633e-10 8.83943e-14)
(1760 -1.22721e-10 9.64608e-14)
(1760 -1.2139e-10 9.44686e-14)
(1760 -1.20824e-10 8.18244e-14)
(1760 -1.19486e-10 8.02098e-14)
(1760 -1.16383e-10 6.63093e-14)
(1760 -1.13076e-10 6.95207e-14)
(1760 -1.11957e-10 6.35634e-14)
(1760 -1.11921e-10 6.19655e-14)
(1760 -1.11864e-10 6.27883e-14)
(1760 -1.12539e-10 7.09334e-14)
(1760 -1.08193e-10 7.08356e-14)
(1760 -1.07361e-10 6.0529e-14)
(1760 -1.04845e-10 4.99674e-14)
(1760 -1.07847e-10 6.26756e-14)
(1760 -1.08708e-10 5.6113e-14)
(1760 -1.05876e-10 5.2505e-14)
(1760 -1.0387e-10 5.30209e-14)
(1760 -1.0079e-10 4.64079e-14)
(1760 -1.0045e-10 5.19857e-14)
(1760 -1.03581e-10 5.07159e-14)
(1760 -1.03889e-10 4.68247e-14)
(1760 -1.0302e-10 4.87774e-14)
(1760 -1.02193e-10 4.98059e-14)
(1760 -1.0303e-10 4.42599e-14)
(1760 -1.0143e-10 4.4426e-14)
(1760 -9.94125e-11 4.81819e-14)
(1760 -1.02929e-10 5.08972e-14)
(1760 -1.00868e-10 4.56102e-14)
(1760 -1.02604e-10 4.44803e-14)
(1760 -1.02053e-10 3.31053e-14)
(1760 -1.00756e-10 3.04169e-14)
(1760 -9.90955e-11 3.50206e-14)
(1760 -9.91992e-11 3.34973e-14)
(1760 -1.0224e-10 3.22329e-14)
(1760 -1.02311e-10 3.83254e-14)
(1760 -1.00658e-10 4.2746e-14)
(1760 -1.02188e-10 3.94767e-14)
(1760 -1.03611e-10 3.44726e-14)
(1760 -1.04181e-10 3.9695e-14)
(1760 -1.01663e-10 3.50367e-14)
(1760 -1.00154e-10 2.94748e-14)
(1760 -1.00987e-10 3.21495e-14)
(1760 -1.02466e-10 2.69989e-14)
(1760 -1.00938e-10 3.42681e-14)
(1760 -1.02688e-10 3.53254e-14)
(1760 -1.02248e-10 4.00343e-14)
(1760 -1.03013e-10 3.15885e-14)
(1760 -1.02092e-10 2.43192e-14)
(1760 -1.01436e-10 2.62304e-14)
(1760 -1.0208e-10 2.47429e-14)
(1760 -1.04866e-10 2.49985e-14)
(1760 -1.05685e-10 2.59025e-14)
(1760 -1.04889e-10 2.72836e-14)
(1760 -1.04468e-10 2.99518e-14)
(1760 -1.07767e-10 2.10483e-14)
(1760 -1.08141e-10 2.23727e-14)
(1760 -1.08899e-10 2.16798e-14)
(1760 -1.09918e-10 2.29936e-14)
(1760 -1.12577e-10 2.1426e-14)
(1760 -1.10579e-10 1.84448e-14)
(1760 -1.10083e-10 2.04446e-14)
(1760 -1.09559e-10 2.377e-14)
(1760 -1.09712e-10 2.30192e-14)
(1760 -1.10501e-10 2.25783e-14)
(1760 -1.11222e-10 2.41567e-14)
(1760 -1.12659e-10 2.71086e-14)
(1760 -1.13964e-10 2.56654e-14)
(1760 -1.15698e-10 2.65525e-14)
(1760 -1.16574e-10 2.61144e-14)
(1760 -1.18111e-10 2.21709e-14)
(1760 -1.19359e-10 1.77971e-14)
(1760 -1.20264e-10 1.98059e-14)
(1760 -1.1989e-10 2.08809e-14)
(1760 -1.19913e-10 2.1471e-14)
(1760 -1.1957e-10 2.28477e-14)
(1760 -1.20521e-10 2.35318e-14)
(1760 -1.2275e-10 2.21814e-14)
(1760 -1.23749e-10 2.23676e-14)
(1760 -1.24199e-10 2.09744e-14)
(1760 -1.26405e-10 2.1165e-14)
(1760 -1.26616e-10 2.37412e-14)
(1760 -1.28074e-10 2.31124e-14)
(1760 -1.28496e-10 1.80854e-14)
(1760 -1.31417e-10 1.83009e-14)
(1760 -1.32922e-10 1.99269e-14)
(1760 -1.34535e-10 1.85174e-14)
(1760 -1.36366e-10 2.02447e-14)
(1760 -1.38777e-10 2.27321e-14)
(1760 -1.38553e-10 1.63315e-14)
(1760 -1.39141e-10 2.15914e-14)
(1760 -1.4052e-10 2.33483e-14)
(1760 -1.43895e-10 1.68818e-14)
(1760 -1.45264e-10 1.86947e-14)
(1760 -1.49096e-10 1.81311e-14)
(1760 -1.4754e-10 2.10453e-14)
(1760 -1.48798e-10 1.77878e-14)
(1760 -1.49061e-10 2.20162e-14)
(1760 -1.50748e-10 2.06241e-14)
(1760 -1.53406e-10 2.21396e-14)
(1760 -1.55984e-10 2.40816e-14)
(1760 -1.57298e-10 1.88413e-14)
(1760 -1.56135e-10 1.62279e-14)
(1760 -1.60664e-10 1.27084e-14)
(1760 -1.64189e-10 1.4802e-14)
(1760 -1.65014e-10 1.82148e-14)
(1760 -1.68059e-10 1.69122e-14)
(1760 -1.68541e-10 1.98385e-14)
(1760 -9.30484e-08 1.56635e-10)
(1760 -4.73947e-08 7.42209e-11)
(1760 -2.41433e-08 3.58203e-11)
(1760 -1.36832e-08 2.0095e-11)
(1760 -8.72765e-09 1.281e-11)
(1760 -6.10078e-09 8.96605e-12)
(1760 -4.54415e-09 6.7464e-12)
(1760 -3.53602e-09 5.18512e-12)
(1760 -2.84247e-09 4.17332e-12)
(1760 -2.34318e-09 3.37179e-12)
(1760 -1.96173e-09 2.80254e-12)
(1760 -1.66578e-09 2.40796e-12)
(1760 -1.44435e-09 2.03839e-12)
(1760 -1.26971e-09 1.7606e-12)
(1760 -1.12313e-09 1.55636e-12)
(1760 -1.00055e-09 1.3632e-12)
(1760 -8.98388e-10 1.17609e-12)
(1760 -8.17862e-10 1.07095e-12)
(1760 -7.48835e-10 9.52955e-13)
(1760 -6.91165e-10 8.91718e-13)
(1760 -6.42396e-10 7.91705e-13)
(1760 -5.92136e-10 6.97041e-13)
(1760 -5.45261e-10 6.69743e-13)
(1760 -5.15877e-10 6.08599e-13)
(1760 -4.87175e-10 5.91028e-13)
(1760 -4.55126e-10 5.45611e-13)
(1760 -4.26596e-10 5.19265e-13)
(1760 -4.05049e-10 4.69049e-13)
(1760 -3.89298e-10 4.26978e-13)
(1760 -3.74862e-10 4.04088e-13)
(1760 -3.54763e-10 3.67812e-13)
(1760 -3.40024e-10 3.63979e-13)
(1760 -3.27296e-10 3.23015e-13)
(1760 -3.11633e-10 3.19302e-13)
(1760 -3.03289e-10 3.08819e-13)
(1760 -2.93684e-10 2.71899e-13)
(1760 -2.84159e-10 2.55817e-13)
(1760 -2.73675e-10 2.5725e-13)
(1760 -2.63991e-10 2.52973e-13)
(1760 -2.60427e-10 2.25623e-13)
(1760 -2.52496e-10 2.15595e-13)
(1760 -2.46803e-10 2.09061e-13)
(1760 -2.40659e-10 2.07658e-13)
(1760 -2.36781e-10 1.90288e-13)
(1760 -2.35569e-10 1.73494e-13)
(1760 -2.2645e-10 1.75374e-13)
(1760 -2.18932e-10 1.70178e-13)
(1760 -2.15553e-10 1.66462e-13)
(1760 -2.12794e-10 1.63133e-13)
(1760 -2.11676e-10 1.71666e-13)
(1760 -2.0741e-10 1.54263e-13)
(1760 -2.07412e-10 1.46236e-13)
(1760 -2.03585e-10 1.36375e-13)
(1760 -2.00375e-10 1.31289e-13)
(1760 -1.96534e-10 1.21167e-13)
(1760 -1.91906e-10 1.19104e-13)
(1760 -1.89021e-10 1.11808e-13)
(1760 -1.9239e-10 1.08319e-13)
(1760 -1.91418e-10 1.19589e-13)
(1760 -1.86498e-10 1.14774e-13)
(1760 -1.83775e-10 1.07896e-13)
(1760 -1.8083e-10 1.10523e-13)
(1760 -1.80772e-10 1.03816e-13)
(1760 -1.80789e-10 8.54217e-14)
(1760 -1.7966e-10 9.47302e-14)
(1760 -1.78103e-10 8.90466e-14)
(1760 -1.75064e-10 8.12468e-14)
(1760 -1.73357e-10 8.90932e-14)
(1760 -1.72783e-10 7.94179e-14)
(1760 -1.72884e-10 7.56826e-14)
(1760 -1.72378e-10 7.54928e-14)
(1760 -1.70682e-10 7.92576e-14)
(1760 -1.72525e-10 7.4062e-14)
(1760 -1.7098e-10 7.59224e-14)
(1760 -1.68785e-10 8.02084e-14)
(1760 -1.71166e-10 7.84758e-14)
(1760 -1.71312e-10 6.87724e-14)
(1760 -1.70873e-10 6.92346e-14)
(1760 -1.70279e-10 6.91466e-14)
(1760 -1.69451e-10 6.62142e-14)
(1760 -1.67381e-10 6.20753e-14)
(1760 -1.6661e-10 5.8321e-14)
(1760 -1.68135e-10 5.54197e-14)
(1760 -1.69331e-10 5.65052e-14)
(1760 -1.68494e-10 5.57632e-14)
(1760 -1.69281e-10 5.53106e-14)
(1760 -1.71967e-10 6.13338e-14)
(1760 -1.73549e-10 6.49494e-14)
(1760 -1.7333e-10 5.76251e-14)
(1760 -1.71449e-10 5.65083e-14)
(1760 -1.69779e-10 5.17194e-14)
(1760 -1.69346e-10 5.10856e-14)
(1760 -1.69478e-10 5.85729e-14)
(1760 -1.71759e-10 6.34734e-14)
(1760 -1.71402e-10 6.20859e-14)
(1760 -1.72101e-10 4.60827e-14)
(1760 -1.73517e-10 4.25028e-14)
(1760 -1.72132e-10 4.62421e-14)
(1760 -1.71772e-10 4.70636e-14)
(1760 -1.73878e-10 4.6413e-14)
(1760 -1.77473e-10 4.03209e-14)
(1760 -1.76578e-10 4.65375e-14)
(1760 -1.73793e-10 4.51218e-14)
(1760 -1.74848e-10 4.14876e-14)
(1760 -1.77097e-10 4.74123e-14)
(1760 -1.78484e-10 4.37782e-14)
(1760 -1.81354e-10 3.98433e-14)
(1760 -1.8335e-10 3.6835e-14)
(1760 -1.86398e-10 3.86073e-14)
(1760 -1.86167e-10 4.0967e-14)
(1760 -1.84365e-10 3.62362e-14)
(1760 -1.84792e-10 3.51418e-14)
(1760 -1.85011e-10 3.56419e-14)
(1760 -1.86727e-10 3.80922e-14)
(1760 -1.87027e-10 3.88046e-14)
(1760 -1.89088e-10 4.64218e-14)
(1760 -1.91864e-10 4.8071e-14)
(1760 -1.93496e-10 4.66265e-14)
(1760 -1.95215e-10 3.99038e-14)
(1760 -1.95503e-10 3.81709e-14)
(1760 -1.96341e-10 3.84686e-14)
(1760 -1.98433e-10 3.76886e-14)
(1760 -1.99143e-10 3.61031e-14)
(1760 -1.99783e-10 3.39667e-14)
(1760 -2.00849e-10 3.55442e-14)
(1760 -2.02542e-10 3.6655e-14)
(1760 -2.04458e-10 3.58066e-14)
(1760 -2.06194e-10 3.66779e-14)
(1760 -2.07313e-10 4.08837e-14)
(1760 -2.08262e-10 3.84187e-14)
(1760 -2.10503e-10 3.432e-14)
(1760 -2.12814e-10 3.72023e-14)
(1760 -2.14867e-10 3.83477e-14)
(1760 -2.17412e-10 3.51117e-14)
(1760 -2.1982e-10 3.81068e-14)
(1760 -2.23408e-10 2.81896e-14)
(1760 -2.23697e-10 2.78055e-14)
(1760 -2.27184e-10 3.43721e-14)
(1760 -2.27684e-10 4.29671e-14)
(1760 -2.28004e-10 3.37705e-14)
(1760 -2.31202e-10 2.63679e-14)
(1760 -2.32572e-10 2.62256e-14)
(1760 -2.37553e-10 3.08591e-14)
(1760 -2.41342e-10 2.97303e-14)
(1760 -2.42743e-10 3.46486e-14)
(1760 -2.45362e-10 2.92163e-14)
(1760 -2.4688e-10 3.05265e-14)
(1760 -2.51843e-10 3.34654e-14)
(1760 -2.55286e-10 3.65698e-14)
(1760 -2.58988e-10 3.26006e-14)
(1760 -2.60848e-10 3.12018e-14)
(1760 -2.61275e-10 3.11767e-14)
(1760 -2.64279e-10 3.05216e-14)
(1760 -2.68532e-10 2.63885e-14)
(1760 -2.72985e-10 3.28776e-14)
(1760 -2.75798e-10 3.27708e-14)
(1760 -1.14833e-07 1.92235e-10)
(1760 -6.65009e-08 1.02197e-10)
(1760 -3.66237e-08 5.24464e-11)
(1760 -2.12832e-08 2.93649e-11)
(1760 -1.35243e-08 1.84897e-11)
(1760 -9.34114e-09 1.28138e-11)
(1760 -6.88693e-09 9.5225e-12)
(1760 -5.32521e-09 7.36706e-12)
(1760 -4.26007e-09 5.87972e-12)
(1760 -3.49867e-09 4.80797e-12)
(1760 -2.92718e-09 3.93952e-12)
(1760 -2.48664e-09 3.37152e-12)
(1760 -2.14936e-09 2.89018e-12)
(1760 -1.88122e-09 2.50949e-12)
(1760 -1.66356e-09 2.25022e-12)
(1760 -1.48204e-09 1.94003e-12)
(1760 -1.3299e-09 1.69874e-12)
(1760 -1.20909e-09 1.50882e-12)
(1760 -1.10575e-09 1.34282e-12)
(1760 -1.0188e-09 1.26191e-12)
(1760 -9.42842e-10 1.12013e-12)
(1760 -8.73669e-10 1.03819e-12)
(1760 -8.05304e-10 9.53163e-13)
(1760 -7.5461e-10 8.83768e-13)
(1760 -7.12608e-10 8.06769e-13)
(1760 -6.69059e-10 7.48047e-13)
(1760 -6.27981e-10 6.97946e-13)
(1760 -5.94889e-10 6.4719e-13)
(1760 -5.66547e-10 6.23347e-13)
(1760 -5.45207e-10 5.72931e-13)
(1760 -5.18137e-10 5.41805e-13)
(1760 -4.96831e-10 5.09528e-13)
(1760 -4.77081e-10 4.93151e-13)
(1760 -4.55525e-10 4.62174e-13)
(1760 -4.41381e-10 4.32211e-13)
(1760 -4.27463e-10 3.99914e-13)
(1760 -4.12556e-10 3.8036e-13)
(1760 -3.97275e-10 3.47047e-13)
(1760 -3.83967e-10 3.49073e-13)
(1760 -3.7407e-10 3.17639e-13)
(1760 -3.65068e-10 3.1023e-13)
(1760 -3.55704e-10 2.90245e-13)
(1760 -3.48866e-10 2.85404e-13)
(1760 -3.4204e-10 2.67825e-13)
(1760 -3.36567e-10 2.71775e-13)
(1760 -3.27467e-10 2.46253e-13)
(1760 -3.18866e-10 2.41994e-13)
(1760 -3.1047e-10 2.33775e-13)
(1760 -3.03961e-10 2.35255e-13)
(1760 -3.01885e-10 2.23614e-13)
(1760 -2.96492e-10 2.05316e-13)
(1760 -2.94035e-10 2.03579e-13)
(1760 -2.90092e-10 1.9501e-13)
(1760 -2.86532e-10 1.86494e-13)
(1760 -2.80085e-10 1.71063e-13)
(1760 -2.76399e-10 1.75266e-13)
(1760 -2.72117e-10 1.67118e-13)
(1760 -2.72528e-10 1.61597e-13)
(1760 -2.70961e-10 1.69341e-13)
(1760 -2.67513e-10 1.62615e-13)
(1760 -2.62663e-10 1.50329e-13)
(1760 -2.58717e-10 1.40753e-13)
(1760 -2.57467e-10 1.34305e-13)
(1760 -2.57439e-10 1.36178e-13)
(1760 -2.547e-10 1.44792e-13)
(1760 -2.51484e-10 1.33726e-13)
(1760 -2.48114e-10 1.26447e-13)
(1760 -2.46796e-10 1.27797e-13)
(1760 -2.47244e-10 1.10643e-13)
(1760 -2.45764e-10 1.08644e-13)
(1760 -2.44716e-10 1.09261e-13)
(1760 -2.42346e-10 1.15615e-13)
(1760 -2.43198e-10 1.11713e-13)
(1760 -2.41104e-10 1.12344e-13)
(1760 -2.38367e-10 1.07379e-13)
(1760 -2.39553e-10 1.03652e-13)
(1760 -2.42578e-10 1.0707e-13)
(1760 -2.4245e-10 1.08521e-13)
(1760 -2.41178e-10 9.98728e-14)
(1760 -2.3941e-10 9.21427e-14)
(1760 -2.37264e-10 8.62645e-14)
(1760 -2.36957e-10 9.34655e-14)
(1760 -2.36994e-10 8.81446e-14)
(1760 -2.36925e-10 8.91749e-14)
(1760 -2.38085e-10 8.67522e-14)
(1760 -2.38252e-10 8.85744e-14)
(1760 -2.39445e-10 8.59616e-14)
(1760 -2.40256e-10 8.17107e-14)
(1760 -2.43137e-10 7.76131e-14)
(1760 -2.42663e-10 8.11185e-14)
(1760 -2.39596e-10 7.96593e-14)
(1760 -2.38178e-10 7.9293e-14)
(1760 -2.38323e-10 8.19654e-14)
(1760 -2.40251e-10 8.62243e-14)
(1760 -2.40591e-10 7.48624e-14)
(1760 -2.40616e-10 7.2788e-14)
(1760 -2.42036e-10 7.50649e-14)
(1760 -2.40394e-10 6.8577e-14)
(1760 -2.40604e-10 6.68327e-14)
(1760 -2.43037e-10 6.32559e-14)
(1760 -2.44859e-10 5.88855e-14)
(1760 -2.4918e-10 5.95243e-14)
(1760 -2.4855e-10 6.07744e-14)
(1760 -2.4578e-10 6.50131e-14)
(1760 -2.46391e-10 6.44109e-14)
(1760 -2.47893e-10 6.27034e-14)
(1760 -2.49895e-10 6.04305e-14)
(1760 -2.52132e-10 5.96557e-14)
(1760 -2.5533e-10 5.62932e-14)
(1760 -2.58861e-10 5.03994e-14)
(1760 -2.5806e-10 5.20507e-14)
(1760 -2.57563e-10 5.20216e-14)
(1760 -2.57586e-10 5.76641e-14)
(1760 -2.58715e-10 5.80005e-14)
(1760 -2.60494e-10 6.08497e-14)
(1760 -2.61611e-10 6.02475e-14)
(1760 -2.63758e-10 5.91775e-14)
(1760 -2.66101e-10 5.39077e-14)
(1760 -2.69641e-10 5.04106e-14)
(1760 -2.72646e-10 5.36726e-14)
(1760 -2.73675e-10 5.38927e-14)
(1760 -2.75815e-10 5.04385e-14)
(1760 -2.77342e-10 4.74914e-14)
(1760 -2.79129e-10 5.09907e-14)
(1760 -2.80368e-10 5.20364e-14)
(1760 -2.82157e-10 5.13656e-14)
(1760 -2.84409e-10 5.58664e-14)
(1760 -2.86852e-10 5.59288e-14)
(1760 -2.88295e-10 5.0612e-14)
(1760 -2.88923e-10 4.9422e-14)
(1760 -2.90967e-10 4.98384e-14)
(1760 -2.9366e-10 5.11873e-14)
(1760 -2.96596e-10 4.8872e-14)
(1760 -2.99395e-10 4.88021e-14)
(1760 -3.0234e-10 4.96451e-14)
(1760 -3.06255e-10 4.65921e-14)
(1760 -3.07842e-10 5.59364e-14)
(1760 -3.12535e-10 5.07752e-14)
(1760 -3.1585e-10 5.08846e-14)
(1760 -3.18765e-10 4.58156e-14)
(1760 -3.20575e-10 4.5299e-14)
(1760 -3.21687e-10 4.56451e-14)
(1760 -3.25128e-10 4.32597e-14)
(1760 -3.2905e-10 4.46824e-14)
(1760 -3.32437e-10 4.64242e-14)
(1760 -3.35177e-10 4.94373e-14)
(1760 -3.37918e-10 4.84668e-14)
(1760 -3.44593e-10 4.79993e-14)
(1760 -3.48026e-10 4.39246e-14)
(1760 -3.53774e-10 4.41095e-14)
(1760 -3.58634e-10 4.38747e-14)
(1760 -3.62552e-10 4.75609e-14)
(1760 -3.6477e-10 4.87745e-14)
(1760 -3.67387e-10 4.05258e-14)
(1760 -3.7353e-10 4.27366e-14)
(1760 -3.77101e-10 4.29635e-14)
(1760 -1.31026e-07 2.1879e-10)
(1760 -8.36451e-08 1.27293e-10)
(1760 -4.94929e-08 6.90964e-11)
(1760 -2.97632e-08 3.92784e-11)
(1760 -1.90518e-08 2.47076e-11)
(1760 -1.30871e-08 1.69873e-11)
(1760 -9.56233e-09 1.24516e-11)
(1760 -7.34092e-09 9.61697e-12)
(1760 -5.84589e-09 7.6815e-12)
(1760 -4.78242e-09 6.28643e-12)
(1760 -3.99764e-09 5.19692e-12)
(1760 -3.3947e-09 4.38212e-12)
(1760 -2.92217e-09 3.72888e-12)
(1760 -2.55348e-09 3.24894e-12)
(1760 -2.25461e-09 2.87056e-12)
(1760 -2.00675e-09 2.51668e-12)
(1760 -1.80287e-09 2.2051e-12)
(1760 -1.63417e-09 1.99164e-12)
(1760 -1.49208e-09 1.81058e-12)
(1760 -1.37439e-09 1.62591e-12)
(1760 -1.27092e-09 1.4856e-12)
(1760 -1.17548e-09 1.36573e-12)
(1760 -1.08645e-09 1.23318e-12)
(1760 -1.01532e-09 1.14646e-12)
(1760 -9.56164e-10 1.04524e-12)
(1760 -8.99169e-10 1.00289e-12)
(1760 -8.45612e-10 9.17867e-13)
(1760 -7.97709e-10 8.72962e-13)
(1760 -7.58674e-10 8.24621e-13)
(1760 -7.26427e-10 7.58884e-13)
(1760 -6.9287e-10 7.01882e-13)
(1760 -6.62574e-10 6.66619e-13)
(1760 -6.36313e-10 6.12863e-13)
(1760 -6.09283e-10 5.73976e-13)
(1760 -5.8902e-10 5.5342e-13)
(1760 -5.68567e-10 5.26043e-13)
(1760 -5.48914e-10 4.94601e-13)
(1760 -5.27908e-10 4.70402e-13)
(1760 -5.11432e-10 4.35764e-13)
(1760 -4.95842e-10 4.14675e-13)
(1760 -4.83451e-10 4.12963e-13)
(1760 -4.69903e-10 3.97908e-13)
(1760 -4.61067e-10 3.76448e-13)
(1760 -4.51513e-10 3.66296e-13)
(1760 -4.43249e-10 3.50365e-13)
(1760 -4.32991e-10 3.36295e-13)
(1760 -4.23951e-10 3.14041e-13)
(1760 -4.13346e-10 3.02583e-13)
(1760 -4.00621e-10 2.88964e-13)
(1760 -3.95099e-10 2.67766e-13)
(1760 -3.90614e-10 2.72126e-13)
(1760 -3.84233e-10 2.61951e-13)
(1760 -3.80233e-10 2.54988e-13)
(1760 -3.74351e-10 2.44053e-13)
(1760 -3.6818e-10 2.4119e-13)
(1760 -3.62419e-10 2.32581e-13)
(1760 -3.5968e-10 2.13014e-13)
(1760 -3.56569e-10 2.09198e-13)
(1760 -3.52491e-10 2.13309e-13)
(1760 -3.49966e-10 1.9316e-13)
(1760 -3.44491e-10 1.86182e-13)
(1760 -3.39712e-10 1.81772e-13)
(1760 -3.35409e-10 1.82297e-13)
(1760 -3.34029e-10 1.89167e-13)
(1760 -3.32912e-10 1.75082e-13)
(1760 -3.29357e-10 1.75968e-13)
(1760 -3.2396e-10 1.71227e-13)
(1760 -3.21438e-10 1.55659e-13)
(1760 -3.2158e-10 1.62039e-13)
(1760 -3.18958e-10 1.59025e-13)
(1760 -3.18042e-10 1.50344e-13)
(1760 -3.15348e-10 1.49976e-13)
(1760 -3.17333e-10 1.43706e-13)
(1760 -3.14541e-10 1.39468e-13)
(1760 -3.10802e-10 1.41373e-13)
(1760 -3.09354e-10 1.38633e-13)
(1760 -3.13541e-10 1.39318e-13)
(1760 -3.13122e-10 1.28981e-13)
(1760 -3.11781e-10 1.20517e-13)
(1760 -3.09648e-10 1.2315e-13)
(1760 -3.08879e-10 1.30163e-13)
(1760 -3.07814e-10 1.19054e-13)
(1760 -3.06313e-10 1.14192e-13)
(1760 -3.05843e-10 1.13358e-13)
(1760 -3.06801e-10 1.13319e-13)
(1760 -3.08022e-10 1.06326e-13)
(1760 -3.08188e-10 1.0389e-13)
(1760 -3.0835e-10 1.08189e-13)
(1760 -3.11735e-10 1.13523e-13)
(1760 -3.12664e-10 1.11409e-13)
(1760 -3.11822e-10 1.03152e-13)
(1760 -3.0878e-10 1.02376e-13)
(1760 -3.0695e-10 1.00378e-13)
(1760 -3.08841e-10 9.65287e-14)
(1760 -3.10361e-10 9.48794e-14)
(1760 -3.10488e-10 9.65893e-14)
(1760 -3.1228e-10 8.94682e-14)
(1760 -3.1027e-10 8.96084e-14)
(1760 -3.0947e-10 9.08637e-14)
(1760 -3.11606e-10 8.44919e-14)
(1760 -3.12921e-10 8.00722e-14)
(1760 -3.15049e-10 8.19835e-14)
(1760 -3.17671e-10 8.58968e-14)
(1760 -3.17626e-10 7.88246e-14)
(1760 -3.17393e-10 7.90887e-14)
(1760 -3.17389e-10 8.16287e-14)
(1760 -3.20583e-10 7.97112e-14)
(1760 -3.23638e-10 7.806e-14)
(1760 -3.25865e-10 7.48718e-14)
(1760 -3.29343e-10 7.71108e-14)
(1760 -3.33365e-10 7.77411e-14)
(1760 -3.33584e-10 7.64304e-14)
(1760 -3.33141e-10 7.69198e-14)
(1760 -3.31843e-10 6.58174e-14)
(1760 -3.31838e-10 6.69994e-14)
(1760 -3.34957e-10 7.15529e-14)
(1760 -3.36817e-10 7.38007e-14)
(1760 -3.3956e-10 7.11362e-14)
(1760 -3.4365e-10 7.45583e-14)
(1760 -3.48246e-10 7.50473e-14)
(1760 -3.50862e-10 6.5997e-14)
(1760 -3.52004e-10 6.41214e-14)
(1760 -3.53521e-10 6.98289e-14)
(1760 -3.54568e-10 6.82417e-14)
(1760 -3.57235e-10 6.36681e-14)
(1760 -3.5944e-10 6.94579e-14)
(1760 -3.61122e-10 6.91563e-14)
(1760 -3.63355e-10 6.28456e-14)
(1760 -3.65312e-10 6.22463e-14)
(1760 -3.67618e-10 6.1586e-14)
(1760 -3.6961e-10 6.26349e-14)
(1760 -3.72799e-10 6.61721e-14)
(1760 -3.77072e-10 6.51057e-14)
(1760 -3.80407e-10 6.68971e-14)
(1760 -3.83973e-10 6.69219e-14)
(1760 -3.86273e-10 6.53664e-14)
(1760 -3.88299e-10 6.65699e-14)
(1760 -3.92825e-10 5.80401e-14)
(1760 -3.96962e-10 6.17008e-14)
(1760 -4.0254e-10 5.68135e-14)
(1760 -4.06441e-10 6.04133e-14)
(1760 -4.10411e-10 5.85603e-14)
(1760 -4.1443e-10 6.02389e-14)
(1760 -4.18802e-10 6.13824e-14)
(1760 -4.23079e-10 5.95161e-14)
(1760 -4.26487e-10 5.95972e-14)
(1760 -4.27758e-10 5.73929e-14)
(1760 -4.32689e-10 5.30766e-14)
(1760 -4.38907e-10 5.48336e-14)
(1760 -4.45482e-10 5.68529e-14)
(1760 -4.50677e-10 5.48133e-14)
(1760 -4.55959e-10 6.23184e-14)
(1760 -4.61037e-10 5.49792e-14)
(1760 -4.6432e-10 5.46464e-14)
(1760 -4.70664e-10 6.05028e-14)
(1760 -4.74216e-10 5.86771e-14)
(1760 -1.43496e-07 2.39749e-10)
(1760 -9.87015e-08 1.49215e-10)
(1760 -6.22127e-08 8.51304e-11)
(1760 -3.88453e-08 4.96802e-11)
(1760 -2.52282e-08 3.12747e-11)
(1760 -1.73374e-08 2.13378e-11)
(1760 -1.25993e-08 1.56448e-11)
(1760 -9.60768e-09 1.19404e-11)
(1760 -7.60991e-09 9.45027e-12)
(1760 -6.2026e-09 7.69042e-12)
(1760 -5.16993e-09 6.40354e-12)
(1760 -4.38717e-09 5.39961e-12)
(1760 -3.77336e-09 4.62738e-12)
(1760 -3.28748e-09 4.02918e-12)
(1760 -2.89924e-09 3.48705e-12)
(1760 -2.57798e-09 3.06562e-12)
(1760 -2.31288e-09 2.7448e-12)
(1760 -2.09595e-09 2.43921e-12)
(1760 -1.91151e-09 2.21348e-12)
(1760 -1.75738e-09 1.98226e-12)
(1760 -1.62309e-09 1.8182e-12)
(1760 -1.50106e-09 1.65981e-12)
(1760 -1.38897e-09 1.51824e-12)
(1760 -1.29716e-09 1.37497e-12)
(1760 -1.21806e-09 1.29865e-12)
(1760 -1.14307e-09 1.22067e-12)
(1760 -1.07546e-09 1.13223e-12)
(1760 -1.01585e-09 1.06632e-12)
(1760 -9.65159e-10 9.77918e-13)
(1760 -9.19528e-10 8.96222e-13)
(1760 -8.78597e-10 8.60712e-13)
(1760 -8.40895e-10 8.02472e-13)
(1760 -8.05122e-10 7.55793e-13)
(1760 -7.72144e-10 7.20517e-13)
(1760 -7.43532e-10 6.76983e-13)
(1760 -7.16635e-10 6.18424e-13)
(1760 -6.94023e-10 6.1805e-13)
(1760 -6.6418e-10 5.81661e-13)
(1760 -6.44823e-10 5.53568e-13)
(1760 -6.2638e-10 5.33174e-13)
(1760 -6.09226e-10 4.92961e-13)
(1760 -5.91271e-10 4.7314e-13)
(1760 -5.8035e-10 4.5585e-13)
(1760 -5.65818e-10 4.42066e-13)
(1760 -5.54478e-10 4.24393e-13)
(1760 -5.43063e-10 4.15422e-13)
(1760 -5.31995e-10 3.82801e-13)
(1760 -5.20424e-10 3.70904e-13)
(1760 -5.06636e-10 3.60439e-13)
(1760 -4.95123e-10 3.39135e-13)
(1760 -4.86489e-10 3.28685e-13)
(1760 -4.77933e-10 3.18492e-13)
(1760 -4.74265e-10 3.0765e-13)
(1760 -4.66218e-10 3.004e-13)
(1760 -4.59738e-10 2.84958e-13)
(1760 -4.52154e-10 2.7227e-13)
(1760 -4.47795e-10 2.65665e-13)
(1760 -4.44041e-10 2.65993e-13)
(1760 -4.38893e-10 2.50591e-13)
(1760 -4.35019e-10 2.39372e-13)
(1760 -4.29137e-10 2.39185e-13)
(1760 -4.2285e-10 2.28514e-13)
(1760 -4.18542e-10 2.23584e-13)
(1760 -4.13703e-10 2.16504e-13)
(1760 -4.11658e-10 2.14458e-13)
(1760 -4.08626e-10 2.14532e-13)
(1760 -4.02679e-10 2.01174e-13)
(1760 -3.97866e-10 1.91034e-13)
(1760 -3.97205e-10 1.99617e-13)
(1760 -3.94869e-10 1.89993e-13)
(1760 -3.92107e-10 1.82667e-13)
(1760 -3.88804e-10 1.79061e-13)
(1760 -3.88776e-10 1.78069e-13)
(1760 -3.90637e-10 1.67709e-13)
(1760 -3.86367e-10 1.71434e-13)
(1760 -3.82669e-10 1.6536e-13)
(1760 -3.8422e-10 1.59829e-13)
(1760 -3.8552e-10 1.55064e-13)
(1760 -3.85259e-10 1.67732e-13)
(1760 -3.82626e-10 1.59936e-13)
(1760 -3.80625e-10 1.54733e-13)
(1760 -3.80327e-10 1.43353e-13)
(1760 -3.79467e-10 1.43086e-13)
(1760 -3.7762e-10 1.3322e-13)
(1760 -3.76555e-10 1.37337e-13)
(1760 -3.77446e-10 1.29661e-13)
(1760 -3.78317e-10 1.34236e-13)
(1760 -3.78786e-10 1.29604e-13)
(1760 -3.79969e-10 1.30924e-13)
(1760 -3.81681e-10 1.21573e-13)
(1760 -3.82847e-10 1.21179e-13)
(1760 -3.82017e-10 1.23853e-13)
(1760 -3.77553e-10 1.18049e-13)
(1760 -3.75798e-10 1.14609e-13)
(1760 -3.77668e-10 1.16428e-13)
(1760 -3.78453e-10 1.16091e-13)
(1760 -3.82467e-10 1.0822e-13)
(1760 -3.8149e-10 1.11007e-13)
(1760 -3.80698e-10 1.10447e-13)
(1760 -3.80224e-10 1.09731e-13)
(1760 -3.81743e-10 1.06169e-13)
(1760 -3.83569e-10 1.07235e-13)
(1760 -3.86121e-10 9.85257e-14)
(1760 -3.88607e-10 9.67816e-14)
(1760 -3.89065e-10 1.0122e-13)
(1760 -3.88088e-10 9.98041e-14)
(1760 -3.89344e-10 9.89188e-14)
(1760 -3.93367e-10 9.61991e-14)
(1760 -3.94701e-10 9.81475e-14)
(1760 -3.9742e-10 1.00591e-13)
(1760 -4.0311e-10 9.34475e-14)
(1760 -4.05959e-10 9.0753e-14)
(1760 -4.07648e-10 8.74622e-14)
(1760 -4.07677e-10 8.76636e-14)
(1760 -4.07739e-10 9.18253e-14)
(1760 -4.07409e-10 9.27346e-14)
(1760 -4.10157e-10 9.44946e-14)
(1760 -4.10886e-10 9.50256e-14)
(1760 -4.14439e-10 9.34998e-14)
(1760 -4.18988e-10 8.8923e-14)
(1760 -4.27734e-10 7.86568e-14)
(1760 -4.30806e-10 8.61411e-14)
(1760 -4.32491e-10 8.90117e-14)
(1760 -4.32705e-10 8.24797e-14)
(1760 -4.33988e-10 7.97346e-14)
(1760 -4.36883e-10 8.07802e-14)
(1760 -4.39471e-10 8.08039e-14)
(1760 -4.424e-10 8.10605e-14)
(1760 -4.44703e-10 8.23041e-14)
(1760 -4.46925e-10 8.07435e-14)
(1760 -4.48657e-10 8.22004e-14)
(1760 -4.50476e-10 8.257e-14)
(1760 -4.54498e-10 8.13989e-14)
(1760 -4.58563e-10 8.22497e-14)
(1760 -4.63549e-10 8.09751e-14)
(1760 -4.67699e-10 8.08715e-14)