/*--------------------------------*- C++ -*----------------------------------*\
| =========                 |                                                 |
| \\      /  F ield         | OpenFOAM: The Open Source CFD Toolbox           |
|  \\    /   O peration     | Version:  v1706                                 |
|   \\  /    A nd           | Web:      www.OpenFOAM.com                      |
|    \\/     M anipulation  |                                                 |
\*---------------------------------------------------------------------------*/
FoamFile
{
    version     2.0;
    format      ascii;
    class       volScalarField;
    location    "3.2e-05";
    object      wallHeatFlux;
}
// * * * * * * * * * * * * * * * * * * * * * * * * * * * * * * * * * * * * * //

dimensions      [1 0 -3 0 0 0 0];


internalField   uniform 0;

boundaryField
{
    cone
    {
        type            calculated;
        value           nonuniform List<scalar> 
147
(
243044
242992
242919
242855
242769
242677
242565
242441
242300
242145
241974
241788
241587
241371
241139
240893
240631
240354
240062
239754
239431
239093
238739
238370
237985
237586
237171
236740
236295
235835
235360
234870
234365
233846
233312
232763
232201
231624
231033
230428
229809
229176
228530
227871
227198
226512
225813
225101
224376
223639
222889
222126
221351
220564
219765
218955
218133
217300
216458
215604
214740
213865
212979
212083
211176
210259
209333
208396
207449
206493
205528
204553
203569
202575
201574
200563
199544
198516
197481
196437
195385
194326
193260
192186
191105
190016
188922
187820
186712
185598
184477
183351
182220
181082
179939
178791
177638
176481
175318
174152
172981
171806
170627
169445
168259
167069
165877
164682
163484
162284
161081
159877
158670
157462
156252
155041
153828
152615
151401
150186
148971
147755
146540
145324
144109
142894
141680
140467
139255
138043
136833
135625
134418
133213
132010
130809
129610
128414
127220
126029
124842
123660
122483
121312
120143
118975
243308
)
;
    }
    inlet
    {
        type            calculated;
        value           uniform 0;
    }
    rWedge
    {
        type            wedge;
    }
    lWedge
    {
        type            wedge;
    }
    outlet
    {
        type            calculated;
        value           nonuniform 0();
    }
    procBoundary3to2
    {
        type            processor;
        value           uniform 0;
    }
}


// ************************************************************************* //
