/*--------------------------------*- C++ -*----------------------------------*\
| =========                 |                                                 |
| \\      /  F ield         | OpenFOAM: The Open Source CFD Toolbox           |
|  \\    /   O peration     | Version:  v1706                                 |
|   \\  /    A nd           | Web:      www.OpenFOAM.com                      |
|    \\/     M anipulation  |                                                 |
\*---------------------------------------------------------------------------*/
FoamFile
{
    version     2.0;
    format      ascii;
    class       volScalarField;
    location    "3.1e-05";
    object      kappatr;
}
// * * * * * * * * * * * * * * * * * * * * * * * * * * * * * * * * * * * * * //

dimensions      [1 1 -3 -1 0 0 0];


internalField   nonuniform List<scalar> 
30104
(
0.0146932
0.0147064
0.0147212
0.0147377
0.014756
0.014776
0.0147979
0.0148216
0.0148474
0.0148759
0.0149075
0.0149426
0.0149816
0.0150245
0.0150712
0.0151215
0.0151751
0.0146108
0.0146073
0.0146044
0.014602
0.0146002
0.0145987
0.0145975
0.0145966
0.0145958
0.0145952
0.0145948
0.0145944
0.0145941
0.0145938
0.0145936
0.0145935
0.0145934
0.0145933
0.0145932
0.0145932
0.0145931
0.0145931
0.0145931
0.014593
0.014593
0.014593
0.014593
0.014593
0.014593
0.014593
0.014593
0.014593
0.014593
0.014593
0.014593
0.014593
0.014593
0.014593
0.014593
0.014593
0.014593
0.014593
0.014593
0.014593
0.014593
0.014593
0.014593
0.014593
0.014593
0.014593
0.014593
0.014593
0.014593
0.014593
0.014593
0.014593
0.014593
0.014593
0.014593
0.014593
0.014593
0.014593
0.014593
0.014593
0.014593
0.014593
0.014593
0.014593
0.014593
0.014593
0.014593
0.014593
0.014593
0.014593
0.014593
0.014593
0.014593
0.014593
0.014593
0.014593
0.014593
0.014593
0.014593
0.014593
0.014593
0.014593
0.014593
0.014593
0.014593
0.014593
0.014593
0.014593
0.014593
0.014593
0.014593
0.014593
0.014593
0.014593
0.014593
0.014593
0.014593
0.014593
0.014593
0.014593
0.014593
0.014593
0.014593
0.014593
0.014593
0.014593
0.014593
0.014593
0.014593
0.014593
0.014593
0.014593
0.014593
0.014593
0.014593
0.014593
0.014593
0.014593
0.014593
0.014593
0.014593
0.014593
0.014593
0.014593
0.014593
0.014593
0.014593
0.014593
0.014593
0.014593
0.014593
0.014593
0.014593
0.014593
0.014593
0.014593
0.014593
0.014593
0.014593
0.014593
0.014593
0.014593
0.014593
0.014593
0.014593
0.014593
0.014593
0.014593
0.014593
0.014593
0.014593
0.014593
0.014593
0.014593
0.014593
0.014593
0.014593
0.014593
0.014593
0.014593
0.014593
0.014593
0.014593
0.014593
0.014593
0.014593
0.014593
0.014593
0.014593
0.014593
0.014593
0.014593
0.014593
0.014593
0.014593
0.014593
0.014593
0.014593
0.014593
0.014593
0.014593
0.014593
0.014593
0.014593
0.014593
0.014593
0.014593
0.014593
0.014593
0.0151947
0.0152705
0.015355
0.0154487
0.0155517
0.015664
0.0157854
0.0159159
0.0160567
0.0162103
0.0163779
0.0165595
0.0167542
0.0169602
0.0171755
0.017398
0.0176256
0.0147276
0.0147022
0.0146813
0.0146642
0.0146503
0.0146389
0.0146296
0.0146219
0.0146157
0.0146107
0.0146069
0.0146038
0.0146014
0.0145995
0.014598
0.0145968
0.0145959
0.0145952
0.0145947
0.0145942
0.0145939
0.0145937
0.0145935
0.0145934
0.0145933
0.0145932
0.0145931
0.0145931
0.0145931
0.0145931
0.014593
0.014593
0.014593
0.014593
0.014593
0.014593
0.014593
0.014593
0.014593
0.014593
0.014593
0.014593
0.014593
0.014593
0.014593
0.014593
0.014593
0.014593
0.014593
0.014593
0.014593
0.014593
0.014593
0.014593
0.014593
0.014593
0.014593
0.014593
0.014593
0.014593
0.014593
0.014593
0.014593
0.014593
0.014593
0.014593
0.014593
0.014593
0.014593
0.014593
0.014593
0.014593
0.014593
0.014593
0.014593
0.014593
0.014593
0.014593
0.014593
0.014593
0.014593
0.014593
0.014593
0.014593
0.014593
0.014593
0.014593
0.014593
0.014593
0.014593
0.014593
0.014593
0.014593
0.014593
0.014593
0.014593
0.014593
0.014593
0.014593
0.014593
0.014593
0.014593
0.014593
0.014593
0.014593
0.014593
0.014593
0.014593
0.014593
0.014593
0.014593
0.014593
0.014593
0.014593
0.014593
0.014593
0.014593
0.014593
0.014593
0.014593
0.014593
0.014593
0.014593
0.014593
0.014593
0.014593
0.014593
0.014593
0.014593
0.014593
0.014593
0.014593
0.014593
0.014593
0.014593
0.014593
0.014593
0.014593
0.014593
0.014593
0.014593
0.014593
0.014593
0.014593
0.014593
0.014593
0.014593
0.014593
0.014593
0.014593
0.014593
0.014593
0.014593
0.014593
0.014593
0.014593
0.014593
0.014593
0.014593
0.014593
0.014593
0.014593
0.014593
0.014593
0.014593
0.014593
0.014593
0.014593
0.014593
0.014593
0.014593
0.014593
0.014593
0.014593
0.014593
0.014593
0.014593
0.014593
0.014593
0.014593
0.014593
0.014593
0.014593
0.014593
0.014593
0.014593
0.014593
0.014593
0.014593
0.014593
0.014593
0.014593
0.014593
0.016588
0.0168153
0.0170618
0.0173259
0.0176053
0.0178974
0.0181994
0.01851
0.0188308
0.0191774
0.0195531
0.0199525
0.0203673
0.0207882
0.0212064
0.0216135
0.0151662
0.0150612
0.0149726
0.0149001
0.0148414
0.0147934
0.0147537
0.0147211
0.0146946
0.0146734
0.0146565
0.0146429
0.0146319
0.0146231
0.0146162
0.0146108
0.0146067
0.0146034
0.0146009
0.014599
0.0145975
0.0145964
0.0145955
0.0145948
0.0145943
0.014594
0.0145937
0.0145935
0.0145934
0.0145933
0.0145932
0.0145931
0.0145931
0.0145931
0.0145931
0.014593
0.014593
0.014593
0.014593
0.014593
0.014593
0.014593
0.014593
0.014593
0.014593
0.014593
0.014593
0.014593
0.014593
0.014593
0.014593
0.014593
0.014593
0.014593
0.014593
0.014593
0.014593
0.014593
0.014593
0.014593
0.014593
0.014593
0.014593
0.014593
0.014593
0.014593
0.014593
0.014593
0.014593
0.014593
0.014593
0.014593
0.014593
0.014593
0.014593
0.014593
0.014593
0.014593
0.014593
0.014593
0.014593
0.014593
0.014593
0.014593
0.014593
0.014593
0.014593
0.014593
0.014593
0.014593
0.014593
0.014593
0.014593
0.014593
0.014593
0.014593
0.014593
0.014593
0.014593
0.014593
0.014593
0.014593
0.014593
0.014593
0.014593
0.014593
0.014593
0.014593
0.014593
0.014593
0.014593
0.014593
0.014593
0.014593
0.014593
0.014593
0.014593
0.014593
0.014593
0.014593
0.014593
0.014593
0.014593
0.014593
0.014593
0.014593
0.014593
0.014593
0.014593
0.014593
0.014593
0.014593
0.014593
0.014593
0.014593
0.014593
0.014593
0.014593
0.014593
0.014593
0.014593
0.014593
0.014593
0.014593
0.014593
0.0145931
0.0145931
0.0145931
0.0145931
0.0145931
0.0145931
0.0145931
0.0145931
0.0145931
0.0145931
0.0145931
0.0145931
0.0145931
0.0145931
0.0145931
0.0145931
0.0145931
0.0145931
0.0145931
0.0145931
0.0145931
0.0145931
0.0145931
0.0145931
0.0145931
0.0145931
0.0145931
0.0145931
0.0145931
0.0145931
0.0145931
0.0145931
0.0145931
0.0145931
0.0145931
0.0145931
0.0145931
0.0145932
0.0145932
0.0145932
0.0145932
0.0145932
0.0145932
0.0145932
0.0145932
0.0145932
0.0145932
0.0145932
0.0196555
0.0201025
0.0205708
0.0210499
0.0215288
0.0219968
0.0224451
0.0228672
0.0232577
0.0236104
0.0239243
0.0242008
0.0244424
0.024652
0.0248329
0.0249884
0.0165767
0.0162587
0.0159779
0.0157393
0.0155402
0.0153717
0.015227
0.0151033
0.015
0.0149165
0.01485
0.0147967
0.0147535
0.0147187
0.014691
0.0146692
0.0146521
0.0146385
0.0146277
0.0146193
0.0146128
0.0146079
0.0146041
0.0146013
0.0145991
0.0145975
0.0145963
0.0145954
0.0145947
0.0145942
0.0145939
0.0145936
0.0145934
0.0145933
0.0145932
0.0145932
0.0145931
0.0145931
0.0145931
0.0145931
0.0145931
0.0145931
0.014593
0.014593
0.014593
0.014593
0.014593
0.014593
0.014593
0.014593
0.014593
0.014593
0.014593
0.014593
0.014593
0.014593
0.014593
0.014593
0.014593
0.014593
0.014593
0.014593
0.014593
0.014593
0.014593
0.014593
0.014593
0.014593
0.014593
0.014593
0.014593
0.014593
0.014593
0.014593
0.014593
0.014593
0.014593
0.014593
0.014593
0.014593
0.014593
0.014593
0.014593
0.014593
0.014593
0.014593
0.014593
0.014593
0.014593
0.014593
0.014593
0.014593
0.014593
0.014593
0.014593
0.014593
0.014593
0.014593
0.014593
0.014593
0.014593
0.014593
0.014593
0.014593
0.014593
0.0145931
0.0145931
0.0145931
0.0145931
0.0145931
0.0145931
0.0145931
0.0145931
0.0145931
0.0145931
0.0145931
0.0145931
0.0145931
0.0145931
0.0145931
0.0145931
0.0145931
0.0145931
0.0145931
0.0145931
0.0145931
0.0145931
0.0145931
0.0145931
0.0145931
0.0145931
0.0145931
0.0145931
0.0145931
0.0145931
0.0145931
0.0145931
0.0145931
0.0145931
0.0145931
0.0145931
0.0145932
0.0145932
0.0145932
0.0145932
0.0145932
0.0145932
0.0145932
0.0145932
0.0145932
0.0145932
0.0145932
0.0145932
0.0145932
0.0145932
0.0145932
0.0145933
0.0145933
0.0145933
0.0145933
0.0145933
0.0145933
0.0145933
0.0145933
0.0145933
0.0145933
0.0145934
0.0145934
0.0145934
0.0145934
0.0145934
0.0145934
0.0145934
0.0145934
0.0145935
0.0145935
0.0145935
0.0145935
0.0145935
0.0145935
0.0145936
0.0145936
0.0145936
0.0145936
0.0145936
0.0145937
0.0145937
0.0145937
0.0145937
0.0145938
0.0145938
0.0145938
0.0145938
0.0239486
0.0242855
0.0245797
0.0248339
0.0250519
0.0252376
0.025395
0.0255279
0.0256391
0.025731
0.0258063
0.0258669
0.0259146
0.0259509
0.0259785
0.0199696
0.0193177
0.0186653
0.0180679
0.0175669
0.0171294
0.0167322
0.0163715
0.0160535
0.0157845
0.0155628
0.0153782
0.0152222
0.0150911
0.0149838
0.0148987
0.0148319
0.0147789
0.0147368
0.0147034
0.0146774
0.0146572
0.0146416
0.0146293
0.0146199
0.0146128
0.0146075
0.0146036
0.0146007
0.0145985
0.014597
0.0145958
0.014595
0.0145944
0.014594
0.0145937
0.0145935
0.0145934
0.0145933
0.0145932
0.0145932
0.0145932
0.0145931
0.0145931
0.0145931
0.0145931
0.0145931
0.0145931
0.0145931
0.0145931
0.0145931
0.0145931
0.0145931
0.0145931
0.0145931
0.0145931
0.0145931
0.0145931
0.0145931
0.0145931
0.0145931
0.0145931
0.0145931
0.0145931
0.0145931
0.0145931
0.0145931
0.0145931
0.0145931
0.0145931
0.0145931
0.0145931
0.0145931
0.0145931
0.0145931
0.0145931
0.0145931
0.0145931
0.0145931
0.0145931
0.0145931
0.0145931
0.0145931
0.0145931
0.0145931
0.0145931
0.0145931
0.0145931
0.0145931
0.0145931
0.0145931
0.0145931
0.0145931
0.0145931
0.0145931
0.0145931
0.0145931
0.0145931
0.0145931
0.0145931
0.0145931
0.0145931
0.0145931
0.0145931
0.0145931
0.0145932
0.0145932
0.0145932
0.0145932
0.0145932
0.0145932
0.0145932
0.0145932
0.0145932
0.0145932
0.0145932
0.0145932
0.0145932
0.0145932
0.0145932
0.0145933
0.0145933
0.0145933
0.0145933
0.0145933
0.0145933
0.0145933
0.0145933
0.0145933
0.0145933
0.0145934
0.0145934
0.0145934
0.0145934
0.0145934
0.0145934
0.0145934
0.0145935
0.0145935
0.0145935
0.0145935
0.0145935
0.0145935
0.0145936
0.0145936
0.0145936
0.0145936
0.0145937
0.0145937
0.0145937
0.0145937
0.0145938
0.0145938
0.0145938
0.0145938
0.0145939
0.0145939
0.0145939
0.014594
0.014594
0.014594
0.0145941
0.0145941
0.0145942
0.0145942
0.0145942
0.0145943
0.0145943
0.0145944
0.0145944
0.0145945
0.0145945
0.0145946
0.0145947
0.0145947
0.0145948
0.0145949
0.0145949
0.014595
0.0145951
0.0145952
0.0145952
0.0145953
0.0145954
0.0145955
0.0145956
0.0145957
0.0145958
0.0145959
0.014596
0.0145961
0.0145962
0.0145961
0.0258677
0.0259705
0.026054
0.0261206
0.0261726
0.026212
0.0262421
0.0262659
0.0262854
0.026302
0.0263166
0.0263283
0.0263373
0.0263432
0.0263447
0.0263432
0.0230274
0.0227677
0.0224353
0.0220176
0.0215091
0.0209207
0.0202667
0.0195668
0.0188555
0.0181916
0.017635
0.017157
0.0167289
0.0163451
0.0160119
0.0157344
0.0155081
0.015321
0.0151647
0.0150362
0.0149341
0.0148548
0.0147932
0.014745
0.0147074
0.0146785
0.0146565
0.0146397
0.014627
0.0146175
0.0146106
0.0146056
0.014602
0.0145994
0.0145976
0.0145962
0.0145953
0.0145947
0.0145943
0.014594
0.0145937
0.0145936
0.0145935
0.0145934
0.0145934
0.0145933
0.0145933
0.0145933
0.0145932
0.0145932
0.0145932
0.0145932
0.0145932
0.0145932
0.0145932
0.0145932
0.0145932
0.0145932
0.0145932
0.0145932
0.0145932
0.0145932
0.0145932
0.0145932
0.0145932
0.0145932
0.0145932
0.0145932
0.0145932
0.0145932
0.0145932
0.0145932
0.0145932
0.0145932
0.0145932
0.0145932
0.0145932
0.0145932
0.0145932
0.0145932
0.0145932
0.0145933
0.0145933
0.0145933
0.0145933
0.0145933
0.0145933
0.0145933
0.0145933
0.0145933
0.0145933
0.0145933
0.0145933
0.0145933
0.0145933
0.0145934
0.0145934
0.0145934
0.0145934
0.0145934
0.0145934
0.0145934
0.0145934
0.0145935
0.0145935
0.0145935
0.0145935
0.0145935
0.0145935
0.0145935
0.0145936
0.0145936
0.0145936
0.0145936
0.0145937
0.0145937
0.0145937
0.0145937
0.0145938
0.0145938
0.0145938
0.0145938
0.0145939
0.0145939
0.0145939
0.014594
0.014594
0.0145941
0.0145941
0.0145941
0.0145942
0.0145942
0.0145943
0.0145943
0.0145944
0.0145944
0.0145945
0.0145945
0.0145946
0.0145946
0.0145947
0.0145948
0.0145948
0.0145949
0.014595
0.0145951
0.0145951
0.0145952
0.0145953
0.0145954
0.0145955
0.0145956
0.0145957
0.0145958
0.0145959
0.014596
0.0145961
0.0145963
0.0145964
0.0145965
0.0145967
0.0145968
0.014597
0.0145971
0.0145973
0.0145975
0.0145976
0.0145978
0.014598
0.0145982
0.0145984
0.0145986
0.0145989
0.0145991
0.0145993
0.0145996
0.0145998
0.0146001
0.0146004
0.0146007
0.014601
0.0146013
0.0146016
0.0146019
0.0146023
0.0146027
0.0146031
0.0146035
0.0146039
0.0146043
0.0146048
0.0146053
0.0146047
0.0265255
0.026542
0.0265552
0.0265655
0.026572
0.0265737
0.0265722
0.0265686
0.0265634
0.0265587
0.0265536
0.0265473
0.0265436
0.0238119
0.0237579
0.0236965
0.0236216
0.0235239
0.0233881
0.0231975
0.0229392
0.0226021
0.022173
0.0216408
0.0210138
0.0203089
0.0195529
0.0187917
0.0180974
0.0175224
0.0170266
0.0165849
0.0161963
0.0158675
0.0156002
0.015383
0.0152042
0.0150583
0.0149434
0.0148556
0.0147889
0.0147379
0.0146992
0.0146702
0.0146487
0.0146328
0.0146212
0.014613
0.0146072
0.0146032
0.0146003
0.0145983
0.0145969
0.0145959
0.0145953
0.0145948
0.0145944
0.0145942
0.014594
0.0145939
0.0145938
0.0145937
0.0145936
0.0145936
0.0145936
0.0145935
0.0145935
0.0145935
0.0145935
0.0145935
0.0145935
0.0145935
0.0145935
0.0145935
0.0145935
0.0145935
0.0145935
0.0145935
0.0145935
0.0145935
0.0145935
0.0145935
0.0145936
0.0145936
0.0145936
0.0145936
0.0145936
0.0145936
0.0145936
0.0145937
0.0145937
0.0145937
0.0145937
0.0145937
0.0145938
0.0145938
0.0145938
0.0145938
0.0145938
0.0145939
0.0145939
0.0145939
0.0145939
0.014594
0.014594
0.014594
0.014594
0.0145941
0.0145941
0.0145941
0.0145942
0.0145942
0.0145942
0.0145943
0.0145943
0.0145943
0.0145944
0.0145944
0.0145945
0.0145945
0.0145946
0.0145946
0.0145947
0.0145948
0.0145948
0.0145949
0.014595
0.014595
0.0145951
0.0145952
0.0145953
0.0145954
0.0145955
0.0145956
0.0145957
0.0145958
0.0145959
0.014596
0.0145961
0.0145963
0.0145964
0.0145965
0.0145967
0.0145968
0.014597
0.0145971
0.0145973
0.0145975
0.0145977
0.0145978
0.014598
0.0145982
0.0145984
0.0145987
0.0145989
0.0145991
0.0145994
0.0145996
0.0145999
0.0146002
0.0146005
0.0146008
0.0146011
0.0146015
0.0146018
0.0146022
0.0146026
0.014603
0.0146034
0.0146038
0.0146042
0.0146047
0.0146052
0.0146057
0.0146062
0.0146068
0.0146073
0.0146079
0.0146086
0.0146093
0.0146099
0.0146107
0.0146114
0.0146122
0.014613
0.0146139
0.0146148
0.0146157
0.0146167
0.0146177
0.0146188
0.0146199
0.014621
0.0146222
0.0146234
0.0146246
0.0146259
0.0146273
0.0146287
0.0146301
0.0146317
0.0146333
0.014635
0.0146368
0.0146387
0.014637
0.0267784
0.026772
0.0267667
0.0267627
0.0267595
0.0267575
0.0267551
0.026751
0.0267448
0.0267382
0.026729
0.0267185
0.0267098
0.0240473
0.0240385
0.0240234
0.0240053
0.0239853
0.0239601
0.0239288
0.0238912
0.0238431
0.0237769
0.0236804
0.0235367
0.0233299
0.0230468
0.0226738
0.0221937
0.0215954
0.0208913
0.0201057
0.0192799
0.0184813
0.017798
0.0172278
0.0167289
0.0162906
0.0159193
0.0156189
0.0153789
0.0151854
0.0150317
0.0149142
0.0148272
0.0147629
0.0147154
0.0146806
0.0146555
0.0146375
0.0146246
0.0146157
0.0146095
0.0146051
0.0146021
0.0145999
0.0145984
0.0145973
0.0145965
0.0145959
0.0145955
0.0145952
0.014595
0.0145948
0.0145947
0.0145946
0.0145945
0.0145945
0.0145944
0.0145944
0.0145944
0.0145944
0.0145944
0.0145944
0.0145944
0.0145944
0.0145944
0.0145944
0.0145945
0.0145945
0.0145945
0.0145945
0.0145946
0.0145946
0.0145947
0.0145947
0.0145948
0.0145948
0.0145949
0.0145949
0.014595
0.014595
0.0145951
0.0145952
0.0145952
0.0145953
0.0145954
0.0145954
0.0145955
0.0145956
0.0145956
0.0145957
0.0145958
0.0145959
0.0145959
0.014596
0.0145961
0.0145962
0.0145963
0.0145964
0.0145965
0.0145966
0.0145967
0.0145968
0.014597
0.0145971
0.0145972
0.0145974
0.0145975
0.0145977
0.0145979
0.014598
0.0145982
0.0145984
0.0145986
0.0145989
0.0145991
0.0145993
0.0145996
0.0145999
0.0146001
0.0146004
0.0146007
0.0146011
0.0146014
0.0146017
0.0146021
0.0146025
0.0146029
0.0146033
0.0146037
0.0146042
0.0146047
0.0146052
0.0146057
0.0146062
0.0146068
0.0146073
0.0146079
0.0146086
0.0146092
0.0146099
0.0146106
0.0146114
0.0146121
0.0146129
0.0146138
0.0146147
0.0146156
0.0146166
0.0146176
0.0146187
0.0146199
0.0146211
0.0146223
0.0146236
0.0146249
0.0146264
0.0146278
0.0146294
0.014631
0.0146326
0.0146344
0.0146362
0.0146381
0.0146401
0.0146421
0.0146443
0.0146465
0.0146488
0.0146512
0.0146538
0.0146565
0.0146594
0.0146624
0.0146655
0.0146688
0.0146723
0.0146759
0.0146796
0.0146835
0.0146875
0.0146917
0.014696
0.0147005
0.0147052
0.01471
0.0147151
0.0147204
0.0147259
0.0147318
0.0147379
0.0147443
0.014751
0.0147586
0.0147531
0.0269588
0.0269514
0.0269409
0.0269309
0.0269214
0.0269127
0.0269061
0.0269007
0.0268955
0.02689
0.0268836
0.0268759
0.0268672
0.0268582
0.0241892
0.0241799
0.0241689
0.0241583
0.0241501
0.0241467
0.0241488
0.024149
0.0241448
0.024139
0.024131
0.0241199
0.0241033
0.0240761
0.0240318
0.0239592
0.0238432
0.0236674
0.0234157
0.0230714
0.0226141
0.0220219
0.0212962
0.0204604
0.0195587
0.0186665
0.0178907
0.0172528
0.0167046
0.0162316
0.0158399
0.0155308
0.0152891
0.0151006
0.0149585
0.0148554
0.0147816
0.0147285
0.0146904
0.0146633
0.014644
0.0146304
0.0146207
0.014614
0.0146092
0.0146058
0.0146033
0.0146015
0.0146002
0.0145992
0.0145985
0.014598
0.0145976
0.0145974
0.0145972
0.014597
0.0145969
0.0145969
0.0145968
0.0145968
0.0145968
0.0145969
0.0145969
0.014597
0.014597
0.0145971
0.0145972
0.0145973
0.0145974
0.0145975
0.0145977
0.0145978
0.0145979
0.0145981
0.0145982
0.0145984
0.0145986
0.0145987
0.0145989
0.0145991
0.0145993
0.0145995
0.0145997
0.0145999
0.0146001
0.0146003
0.0146005
0.0146007
0.014601
0.0146012
0.0146015
0.0146017
0.014602
0.0146023
0.0146025
0.0146028
0.0146031
0.0146035
0.0146038
0.0146041
0.0146045
0.0146049
0.0146053
0.0146057
0.0146062
0.0146066
0.0146071
0.0146076
0.0146082
0.0146088
0.0146094
0.0146101
0.0146107
0.0146115
0.0146122
0.014613
0.0146139
0.0146148
0.0146157
0.0146166
0.0146177
0.0146187
0.0146198
0.014621
0.0146222
0.0146235
0.0146248
0.0146262
0.0146277
0.0146293
0.0146309
0.0146326
0.0146343
0.0146362
0.0146381
0.0146401
0.0146422
0.0146444
0.0146467
0.0146491
0.0146515
0.0146541
0.0146568
0.0146596
0.0146626
0.0146657
0.0146689
0.0146723
0.0146759
0.0146797
0.0146836
0.0146878
0.0146922
0.0146968
0.0147017
0.0147068
0.014712
0.0147175
0.0147233
0.0147292
0.0147354
0.0147418
0.0147484
0.0147554
0.0147627
0.0147704
0.0147785
0.0147871
0.0147961
0.0148055
0.0148154
0.0148257
0.0148366
0.0148481
0.0148603
0.0148732
0.0148868
0.0149011
0.014916
0.0149317
0.0149478
0.0149644
0.0149814
0.0149987
0.0150164
0.0150345
0.0150531
0.0150724
0.0150925
0.0151136
0.0151357
0.015163
0.0151495
0.0270971
0.0270895
0.0270805
0.0270708
0.027061
0.0270513
0.0270426
0.0270357
0.0270304
0.0270263
0.0270227
0.0270188
0.0270145
0.0270095
0.0243044
0.0242944
0.0242857
0.0242782
0.0242721
0.0242701
0.024271
0.0242711
0.0242719
0.0242753
0.0242831
0.0242975
0.0243124
0.0243217
0.0243309
0.0243401
0.0243466
0.0243462
0.0243376
0.0243108
0.0242538
0.0241517
0.0239868
0.0237388
0.0233846
0.0228975
0.0222504
0.0214411
0.0205003
0.01949
0.018515
0.0177007
0.0170347
0.0164715
0.0160049
0.0156394
0.0153615
0.0151507
0.0149945
0.0148829
0.0148041
0.0147479
0.0147074
0.0146783
0.0146574
0.0146422
0.0146313
0.0146235
0.0146179
0.0146138
0.0146109
0.0146087
0.0146071
0.014606
0.0146051
0.0146046
0.0146041
0.0146039
0.0146037
0.0146037
0.0146037
0.0146037
0.0146038
0.014604
0.0146042
0.0146044
0.0146047
0.014605
0.0146054
0.0146057
0.0146061
0.0146065
0.0146069
0.0146074
0.0146079
0.0146084
0.0146089
0.0146094
0.0146099
0.0146105
0.014611
0.0146116
0.0146122
0.0146128
0.0146134
0.0146141
0.0146148
0.0146154
0.0146162
0.0146169
0.0146176
0.0146184
0.0146192
0.0146201
0.0146209
0.0146218
0.0146227
0.0146237
0.0146247
0.0146258
0.0146268
0.014628
0.0146292
0.0146305
0.0146318
0.0146332
0.0146347
0.0146363
0.014638
0.0146398
0.0146417
0.0146437
0.0146458
0.014648
0.0146504
0.0146529
0.0146555
0.0146583
0.0146612
0.0146642
0.0146673
0.0146707
0.0146741
0.0146777
0.0146815
0.0146855
0.0146896
0.014694
0.0146985
0.0147033
0.0147084
0.0147136
0.0147192
0.014725
0.0147311
0.0147375
0.0147442
0.0147511
0.0147584
0.014766
0.0147739
0.0147821
0.0147907
0.0147996
0.014809
0.0148188
0.0148291
0.01484
0.0148515
0.0148636
0.0148763
0.0148898
0.0149039
0.0149188
0.0149345
0.0149509
0.0149682
0.0149864
0.0150054
0.0150253
0.0150461
0.0150676
0.0150897
0.0151125
0.0151358
0.0151597
0.0151843
0.0152099
0.0152368
0.0152652
0.0152952
0.0153269
0.0153605
0.0153961
0.0154337
0.0154734
0.0155151
0.0155589
0.0156046
0.0156522
0.0157015
0.0157523
0.0158045
0.0158576
0.0159116
0.0159668
0.0160234
0.0160817
0.0161413
0.0162038
0.0162659
0.016346
0.01633
0.0272253
0.0272199
0.0272147
0.0272094
0.0272037
0.0271977
0.0271917
0.0271863
0.0271821
0.0271792
0.0271773
0.027176
0.0271748
0.0271733
0.0244167
0.0244042
0.0243937
0.0243848
0.0243775
0.0243728
0.02437
0.0243698
0.0243711
0.024375
0.0243824
0.0243938
0.0244061
0.02442
0.0244371
0.024459
0.0244877
0.0245138
0.0245375
0.0245612
0.0245844
0.0246037
0.0246102
0.0246059
0.0245834
0.0245264
0.0244171
0.0242334
0.0239488
0.0235313
0.0229442
0.0221576
0.0211853
0.0200886
0.0189803
0.0180168
0.0172566
0.0166346
0.0161267
0.0157323
0.0154375
0.0152163
0.0150517
0.0149328
0.0148481
0.0147868
0.0147418
0.0147087
0.0146846
0.0146669
0.0146539
0.0146445
0.0146378
0.0146329
0.0146294
0.0146269
0.0146252
0.014624
0.0146232
0.0146228
0.0146227
0.0146227
0.0146229
0.0146233
0.0146238
0.0146245
0.0146253
0.0146261
0.0146271
0.0146282
0.0146293
0.0146305
0.0146317
0.0146331
0.0146344
0.0146359
0.0146373
0.0146389
0.0146404
0.014642
0.0146437
0.0146454
0.0146471
0.014649
0.0146508
0.0146527
0.0146547
0.0146568
0.0146589
0.0146611
0.0146633
0.0146657
0.0146681
0.0146706
0.0146733
0.014676
0.0146788
0.0146817
0.0146847
0.0146879
0.0146911
0.0146945
0.0146981
0.0147018
0.0147058
0.0147099
0.0147143
0.0147189
0.0147238
0.014729
0.0147345
0.0147403
0.0147465
0.0147531
0.01476
0.0147674
0.0147751
0.0147833
0.0147919
0.0148009
0.0148104
0.0148202
0.0148305
0.0148413
0.0148525
0.0148642
0.0148765
0.0148894
0.014903
0.0149172
0.0149322
0.014948
0.0149646
0.0149821
0.0150005
0.0150198
0.0150401
0.0150614
0.0150835
0.0151066
0.0151306
0.0151555
0.0151811
0.0152077
0.0152352
0.0152638
0.0152935
0.0153243
0.0153566
0.0153903
0.0154257
0.015463
0.0155023
0.0155438
0.0155876
0.0156339
0.0156827
0.0157339
0.0157875
0.0158432
0.0159007
0.0159595
0.0160192
0.0160799
0.0161419
0.0162055
0.0162711
0.0163391
0.0164097
0.0164827
0.0165579
0.016635
0.0167141
0.0167955
0.0168799
0.0169679
0.0170603
0.0171581
0.017262
0.0173725
0.0174897
0.0176129
0.0177406
0.0178688
0.0179936
0.0181139
0.0182273
0.018335
0.0184341
0.0185294
0.0186174
0.0187229
0.0187374
0.0273698
0.027366
0.0273633
0.027361
0.0273589
0.0273567
0.0273542
0.0273517
0.0273496
0.027348
0.0273474
0.0273475
0.0273481
0.0245325
0.0245164
0.024502
0.0244895
0.0244788
0.02447
0.024463
0.0244584
0.0244568
0.0244575
0.0244609
0.0244672
0.0244763
0.024488
0.0245026
0.024521
0.0245426
0.0245656
0.0245907
0.0246191
0.0246519
0.0246895
0.024723
0.0247545
0.0247883
0.0248232
0.024853
0.0248658
0.0248624
0.0248358
0.0247616
0.0246142
0.0243634
0.0239715
0.0233985
0.0226096
0.0216087
0.0204637
0.0192943
0.0182594
0.0174588
0.0168197
0.0162987
0.0158884
0.0155788
0.0153447
0.0151657
0.0150317
0.0149341
0.0148634
0.0148111
0.0147722
0.0147436
0.0147228
0.0147077
0.0146966
0.0146885
0.0146828
0.0146789
0.0146764
0.0146751
0.0146747
0.0146749
0.0146755
0.0146767
0.0146783
0.0146804
0.0146827
0.0146854
0.0146883
0.0146915
0.0146949
0.0146985
0.0147023
0.0147063
0.0147104
0.0147147
0.0147191
0.0147236
0.0147283
0.014733
0.0147379
0.014743
0.0147481
0.0147534
0.0147589
0.0147645
0.0147704
0.0147764
0.0147826
0.0147891
0.0147958
0.0148028
0.01481
0.0148175
0.0148252
0.0148333
0.0148417
0.0148503
0.0148593
0.0148686
0.0148783
0.0148884
0.014899
0.01491
0.0149216
0.0149338
0.0149467
0.0149603
0.0149747
0.0149899
0.0150061
0.0150233
0.0150415
0.0150609
0.0150815
0.0151034
0.0151265
0.0151508
0.0151764
0.0152031
0.0152308
0.0152596
0.0152893
0.0153202
0.0153521
0.0153852
0.0154196
0.0154555
0.0154928
0.0155317
0.0155725
0.0156151
0.0156598
0.0157067
0.0157559
0.0158075
0.0158616
0.0159181
0.0159769
0.016038
0.016101
0.0161655
0.0162313
0.0162984
0.016367
0.0164373
0.0165095
0.0165838
0.0166606
0.01674
0.0168222
0.0169072
0.0169951
0.0170856
0.0171791
0.0172758
0.0173763
0.0174814
0.017592
0.0177085
0.0178311
0.0179566
0.0180816
0.0182038
0.0183206
0.0184297
0.0185305
0.0186237
0.0187112
0.0187952
0.0188776
0.0189603
0.0190447
0.0191307
0.0192173
0.0193038
0.0193892
0.0194682
0.0195355
0.0195887
0.0196293
0.0196595
0.0196821
0.0197002
0.0197161
0.0197328
0.0197519
0.0197771
0.0198072
0.0198458
0.0198971
0.0199176
0.0275287
0.0275266
0.0275256
0.0275255
0.0275258
0.0275264
0.0275271
0.0275278
0.0275285
0.0275293
0.0275305
0.0275322
0.0275343
0.0246095
0.0245928
0.0245778
0.0245642
0.0245522
0.0245422
0.0245346
0.0245294
0.0245274
0.0245279
0.0245303
0.0245357
0.0245441
0.024555
0.0245684
0.0245843
0.0246028
0.0246247
0.0246508
0.0246807
0.0247125
0.0247461
0.0247826
0.0248238
0.02487
0.0249107
0.02495
0.0249926
0.025036
0.0250696
0.0250776
0.025064
0.0250046
0.0248672
0.0246221
0.0242377
0.0236759
0.0229049
0.0219304
0.0208201
0.0196798
0.0186371
0.017807
0.0171585
0.0166233
0.016185
0.0158414
0.0155809
0.015381
0.0152266
0.0151104
0.0150256
0.0149643
0.0149193
0.0148858
0.014861
0.0148432
0.0148309
0.0148229
0.0148183
0.0148166
0.0148167
0.0148182
0.0148212
0.0148257
0.0148314
0.014838
0.0148456
0.0148539
0.0148628
0.0148725
0.0148827
0.0148934
0.0149046
0.0149162
0.0149282
0.0149405
0.0149532
0.0149662
0.0149795
0.0149931
0.0150071
0.0150215
0.0150363
0.0150514
0.0150671
0.0150832
0.0151
0.0151173
0.0151354
0.0151542
0.0151738
0.0151942
0.0152154
0.0152374
0.0152603
0.0152839
0.0153082
0.0153332
0.015359
0.0153856
0.0154132
0.0154418
0.0154715
0.0155024
0.0155347
0.0155684
0.0156037
0.0156408
0.0156799
0.015721
0.0157645
0.0158104
0.0158589
0.0159101
0.0159642
0.0160211
0.0160809
0.0161433
0.0162081
0.0162747
0.016343
0.0164127
0.016484
0.0165568
0.0166312
0.0167073
0.0167852
0.0168651
0.0169474
0.0170322
0.0171198
0.0172105
0.0173043
0.0174013
0.0175016
0.0176053
0.0177121
0.017822
0.017935
0.0180493
0.0181626
0.0182742
0.0183837
0.0184906
0.018594
0.018693
0.0187871
0.0188758
0.0189593
0.0190382
0.0191136
0.0191866
0.0192582
0.0193293
0.0193998
0.0194691
0.0195358
0.0195971
0.0196483
0.0196868
0.019714
0.0197331
0.0197474
0.0197604
0.0197753
0.0197959
0.0198253
0.0198627
0.0199048
0.0199473
0.0199847
0.0200124
0.0200284
0.020034
0.02003
0.0200203
0.0200096
0.0200039
0.020002
0.0200012
0.0200043
0.0200138
0.0200289
0.0200489
0.0200723
0.020098
0.0201215
0.0201402
0.0201543
0.0201525
0.0276989
0.0277
0.0277018
0.0277043
0.0277072
0.0277105
0.027714
0.0277174
0.0277209
0.0277244
0.027728
0.0277319
0.0247098
0.0246886
0.0246686
0.0246498
0.0246324
0.0246165
0.0246024
0.0245904
0.0245806
0.0245731
0.0245674
0.0245642
0.0245644
0.0245664
0.0245713
0.0245799
0.0245921
0.0246076
0.0246261
0.0246478
0.0246729
0.0247014
0.0247337
0.0247691
0.0248063
0.0248446
0.0248852
0.0249293
0.0249757
0.0250206
0.0250589
0.0251008
0.0251478
0.0251857
0.025197
0.025185
0.0251263
0.0249899
0.024753
0.024396
0.0238972
0.0232298
0.0223824
0.021397
0.0203483
0.0193262
0.0184292
0.0177278
0.0171703
0.016706
0.0163262
0.0160292
0.0158054
0.015637
0.0155069
0.0154063
0.0153304
0.015275
0.0152361
0.0152102
0.0151943
0.0151865
0.0151849
0.0151871
0.0151937
0.0152044
0.0152185
0.0152354
0.0152547
0.0152762
0.0152997
0.0153249
0.0153518
0.0153801
0.0154096
0.01544
0.0154711
0.015503
0.0155354
0.0155685
0.0156022
0.0156365
0.0156714
0.0157069
0.0157432
0.0157802
0.0158182
0.0158572
0.0158973
0.0159386
0.0159812
0.0160254
0.0160711
0.0161185
0.0161676
0.0162186
0.0162713
0.0163254
0.0163806
0.0164371
0.0164947
0.0165537
0.016614
0.0166758
0.0167392
0.0168042
0.0168711
0.01694
0.017011
0.0170844
0.0171604
0.0172392
0.0173212
0.0174065
0.0174953
0.017588
0.0176846
0.0177852
0.0178896
0.0179978
0.0181074
0.0182162
0.0183233
0.0184283
0.018531
0.0186311
0.0187282
0.0188221
0.0189124
0.0189987
0.0190806
0.019158
0.0192306
0.0192985
0.019362
0.0194214
0.0194771
0.0195294
0.0195785
0.0196241
0.0196663
0.0197052
0.0197402
0.019771
0.0197975
0.0198204
0.0198408
0.0198599
0.0198791
0.0198993
0.0199213
0.0199448
0.0199688
0.0199922
0.020013
0.0200283
0.0200373
0.0200411
0.0200397
0.0200356
0.0200318
0.0200281
0.020027
0.0200314
0.0200444
0.0200643
0.0200881
0.0201119
0.0201298
0.0201387
0.0201395
0.0201341
0.0201235
0.0201128
0.0201038
0.0200973
0.0200914
0.0200881
0.0200892
0.0200949
0.0201044
0.0201169
0.0201317
0.0201469
0.020161
0.0201727
0.0201819
0.0201879
0.0201917
0.0201919
0.0201821
0.0278809
0.0278846
0.0278887
0.0278934
0.0278985
0.027904
0.0279097
0.0279156
0.0279215
0.0279273
0.0247956
0.0247694
0.0247439
0.0247193
0.0246958
0.0246734
0.0246524
0.0246325
0.0246142
0.0245979
0.0245839
0.024572
0.0245631
0.0245573
0.024555
0.0245553
0.0245577
0.0245631
0.0245718
0.0245838
0.0245991
0.0246178
0.0246396
0.024664
0.0246913
0.0247215
0.0247552
0.0247923
0.0248316
0.0248736
0.0249192
0.0249666
0.0250151
0.02506
0.0250957
0.0251241
0.0251523
0.0251769
0.0251831
0.025172
0.0251236
0.0250132
0.0248238
0.024542
0.0241534
0.0236409
0.0229846
0.0221815
0.0212822
0.0203557
0.0194729
0.0187007
0.0180855
0.0176222
0.0172488
0.0169405
0.0166913
0.0164963
0.0163482
0.0162391
0.0161621
0.0161107
0.0160798
0.016065
0.0160636
0.0160711
0.0160895
0.0161166
0.0161507
0.0161908
0.016236
0.0162855
0.0163389
0.0163958
0.0164555
0.0165172