/*--------------------------------*- C++ -*----------------------------------*\
| =========                 |                                                 |
| \\      /  F ield         | OpenFOAM: The Open Source CFD Toolbox           |
|  \\    /   O peration     | Version:  v1706                                 |
|   \\  /    A nd           | Web:      www.OpenFOAM.com                      |
|    \\/     M anipulation  |                                                 |
\*---------------------------------------------------------------------------*/
FoamFile
{
    version     2.0;
    format      ascii;
    class       volScalarField;
    location    "3.1e-05";
    object      p;
}
// * * * * * * * * * * * * * * * * * * * * * * * * * * * * * * * * * * * * * //

dimensions      [1 -1 -2 0 0 0 0];


internalField   nonuniform List<scalar> 
30104
(
22.2164
22.258
22.3049
22.3572
22.4147
22.4771
22.5439
22.6152
22.6917
22.7747
22.8672
22.9721
23.0922
23.2291
23.3838
23.5563
23.7455
21.9736
21.9607
21.9501
21.942
21.9359
21.9314
21.9279
21.9251
21.923
21.9212
21.9198
21.9185
21.9174
21.9165
21.9158
21.9153
21.915
21.9147
21.9145
21.9144
21.9143
21.9142
21.9141
21.914
21.914
21.914
21.9139
21.9139
21.9139
21.9139
21.9139
21.9139
21.9139
21.9139
21.9139
21.9139
21.9139
21.9139
21.9139
21.9139
21.9139
21.9139
21.9139
21.9139
21.9139
21.9139
21.9139
21.9139
21.9139
21.9139
21.9139
21.9139
21.9139
21.9139
21.9139
21.9139
21.9139
21.9139
21.9139
21.9139
21.9139
21.9139
21.9139
21.9139
21.9139
21.9139
21.9139
21.9139
21.9139
21.9139
21.9139
21.9139
21.9139
21.9139
21.9139
21.9139
21.9139
21.9139
21.9139
21.9139
21.9139
21.9139
21.9139
21.9139
21.9139
21.9139
21.9139
21.9139
21.9139
21.9139
21.9139
21.9139
21.9139
21.9139
21.9139
21.9139
21.9139
21.9139
21.9139
21.9139
21.9139
21.9139
21.9139
21.9139
21.9139
21.9139
21.9139
21.9139
21.9139
21.9139
21.9139
21.9139
21.9139
21.9139
21.9139
21.9139
21.9139
21.9139
21.9139
21.9139
21.9139
21.9139
21.9139
21.9139
21.9139
21.9139
21.9139
21.9139
21.9139
21.9139
21.9139
21.9139
21.9139
21.9139
21.9139
21.9139
21.9139
21.9139
21.9139
21.9139
21.9139
21.9139
21.9139
21.9139
21.9139
21.9139
21.9139
21.9139
21.9139
21.9139
21.9139
21.9139
21.9139
21.9139
21.9139
21.9139
21.9139
21.9139
21.9139
21.9139
21.9139
21.9139
21.9139
21.9139
21.9139
21.9139
21.9139
21.9139
21.9139
21.9139
21.9139
21.9139
21.9139
21.9139
21.9139
21.9139
21.9139
21.9139
21.9139
21.9139
21.9139
21.9139
21.9139
21.9139
21.9139
21.9139
21.9139
21.9139
21.9139
21.9139
21.9139
21.9139
21.9139
23.6844
23.9137
24.1741
24.4695
24.8028
25.1757
25.5892
26.0436
26.545
27.0987
27.7065
28.3668
29.0771
29.8364
30.6459
31.5082
32.427
22.3293
22.2522
22.189
22.1372
22.0945
22.059
22.0292
22.0044
21.9842
21.9683
21.9562
21.9468
21.9395
21.9338
21.9294
21.9259
21.9231
21.9209
21.9191
21.9177
21.9167
21.9159
21.9154
21.915
21.9147
21.9145
21.9143
21.9142
21.9141
21.9141
21.914
21.914
21.914
21.9139
21.9139
21.9139
21.9139
21.9139
21.9139
21.9139
21.9139
21.9139
21.9139
21.9139
21.9139
21.9139
21.9139
21.9139
21.9139
21.9139
21.9139
21.9139
21.9139
21.9139
21.9139
21.9139
21.9139
21.9139
21.9139
21.9139
21.9139
21.9139
21.9139
21.9139
21.9139
21.9139
21.9139
21.9139
21.9139
21.9139
21.9139
21.9139
21.9139
21.9139
21.9139
21.9139
21.9139
21.9139
21.9139
21.9139
21.9139
21.9139
21.9139
21.9139
21.9139
21.9139
21.9139
21.9139
21.9139
21.9139
21.9139
21.9139
21.9139
21.9139
21.9139
21.9139
21.9139
21.9139
21.9139
21.9139
21.9139
21.9139
21.9139
21.9139
21.9139
21.9139
21.9139
21.9139
21.9139
21.9139
21.9139
21.9139
21.9139
21.9139
21.9139
21.9139
21.9139
21.9139
21.9139
21.9139
21.9139
21.9139
21.9139
21.9139
21.9139
21.9139
21.9139
21.9139
21.9139
21.9139
21.9139
21.9139
21.9139
21.9139
21.9139
21.9139
21.9139
21.9139
21.9139
21.9139
21.9139
21.9139
21.9139
21.9139
21.9139
21.9139
21.9139
21.9139
21.9139
21.9139
21.9139
21.9139
21.9139
21.9139
21.914
21.914
21.914
21.914
21.914
21.914
21.914
21.914
21.914
21.914
21.914
21.914
21.914
21.914
21.914
21.914
21.914
21.914
21.914
21.914
21.914
21.914
21.914
21.914
21.914
21.914
21.914
21.914
21.914
21.914
21.914
21.914
21.914
21.914
21.914
21.914
21.914
21.9141
21.914
28.2461
29.0724
29.9821
30.9752
32.0536
33.2224
34.4869
35.8615
37.3495
39.0994
41.212
43.7276
46.6557
49.9856
53.691
57.7348
23.7679
23.4062
23.1042
22.8637
22.6755
22.5258
22.4046
22.3064
22.2272
22.1635
22.1118
22.0696
22.0349
22.0066
21.9844
21.9676
21.9548
21.9452
21.9378
21.9321
21.9277
21.9243
21.9216
21.9195
21.9179
21.9168
21.916
21.9154
21.915
21.9147
21.9145
21.9143
21.9142
21.9141
21.9141
21.914
21.914
21.914
21.914
21.914
21.914
21.9139
21.9139
21.9139
21.9139
21.9139
21.9139
21.9139
21.9139
21.9139
21.9139
21.9139
21.9139
21.9139
21.9139
21.9139
21.9139
21.9139
21.9139
21.9139
21.9139
21.9139
21.9139
21.9139
21.9139
21.9139
21.9139
21.9139
21.9139
21.9139
21.9139
21.9139
21.9139
21.9139
21.9139
21.9139
21.9139
21.9139
21.9139
21.9139
21.9139
21.9139
21.9139
21.9139
21.9139
21.9139
21.9139
21.9139
21.9139
21.9139
21.9139
21.9139
21.9139
21.9139
21.9139
21.9139
21.9139
21.9139
21.9139
21.9139
21.9139
21.9139
21.9139
21.9139
21.9139
21.9139
21.9139
21.914
21.914
21.914
21.914
21.914
21.914
21.914
21.914
21.914
21.914
21.914
21.914
21.914
21.914
21.914
21.914
21.914
21.914
21.914
21.914
21.914
21.914
21.914
21.914
21.914
21.914
21.914
21.914
21.914
21.914
21.914
21.914
21.914
21.914
21.914
21.9141
21.9141
21.9141
21.9141
21.9141
21.9141
21.9141
21.9141
21.9141
21.9141
21.9141
21.9141
21.9141
21.9141
21.9141
21.9141
21.9142
21.9142
21.9142
21.9142
21.9142
21.9142
21.9142
21.9142
21.9142
21.9142
21.9142
21.9143
21.9143
21.9143
21.9143
21.9143
21.9143
21.9143
21.9144
21.9144
21.9144
21.9144
21.9144
21.9144
21.9144
21.9145
21.9145
21.9145
21.9145
21.9145
21.9146
21.9146
21.9146
21.9146
21.9146
41.2012
43.867
47.0326
50.7126
54.8946
59.5457
64.6193
70.0598
75.8149
81.6845
87.5162
93.2195
98.7321
104.009
109.017
113.731
28.7406
27.5512
26.561
25.7378
25.0477
24.4628
23.9631
23.5376
23.1862
22.9094
22.6964
22.5309
22.4
22.2963
22.2143
22.1491
22.0968
22.0545
22.0202
21.9933
21.973
21.958
21.9469
21.9386
21.9324
21.9276
21.9239
21.9211
21.919
21.9175
21.9164
21.9157
21.9152
21.9149
21.9146
21.9144
21.9143
21.9142
21.9142
21.9141
21.9141
21.9141
21.914
21.914
21.914
21.914
21.914
21.914
21.914
21.914
21.914
21.914
21.914
21.914
21.914
21.914
21.914
21.914
21.914
21.914
21.914
21.914
21.914
21.914
21.914
21.914
21.914
21.914
21.914
21.914
21.914
21.914
21.914
21.914
21.914
21.914
21.914
21.914
21.914
21.914
21.914
21.914
21.914
21.914
21.914
21.914
21.914
21.914
21.914
21.914
21.914
21.914
21.914
21.914
21.914
21.914
21.914
21.914
21.914
21.914
21.914
21.914
21.9141
21.9141
21.9141
21.9141
21.9141
21.9141
21.9141
21.9141
21.9141
21.9141
21.9141
21.9141
21.9141
21.9141
21.9141
21.9141
21.9142
21.9142
21.9142
21.9142
21.9142
21.9142
21.9142
21.9142
21.9142
21.9142
21.9143
21.9143
21.9143
21.9143
21.9143
21.9143
21.9143
21.9143
21.9144
21.9144
21.9144
21.9144
21.9144
21.9144
21.9145
21.9145
21.9145
21.9145
21.9145
21.9146
21.9146
21.9146
21.9146
21.9147
21.9147
21.9147
21.9148
21.9148
21.9148
21.9148
21.9149
21.9149
21.915
21.915
21.915
21.9151
21.9151
21.9151
21.9152
21.9152
21.9153
21.9153
21.9154
21.9154
21.9155
21.9155
21.9156
21.9156
21.9157
21.9158
21.9158
21.9159
21.916
21.916
21.9161
21.9162
21.9163
21.9164
21.9165
21.9165
21.9166
21.9167
21.9168
21.9169
21.9169
84.4341
90.8889
97.2032
103.295
109.101
114.572
119.678
124.398
128.726
132.65
136.159
139.245
141.915
144.177
146.08
50.0909
44.2196
39.2707
35.5244
32.9259
30.9449
29.3051
27.93
26.7977
25.8705
25.1065
24.4687
23.9314
23.4821
23.1206
22.8429
22.633
22.4717
22.3462
22.2484
22.1717
22.1112
22.0628
22.0242
21.9943
21.9723
21.9565
21.9451
21.9368
21.9306
21.926
21.9225
21.9199
21.9181
21.9169
21.9161
21.9156
21.9152
21.9149
21.9147
21.9145
21.9144
21.9144
21.9143
21.9143
21.9142
21.9142
21.9142
21.9142
21.9142
21.9142
21.9141
21.9141
21.9141
21.9141
21.9141
21.9141
21.9141
21.9141
21.9141
21.9141
21.9141
21.9141
21.9141
21.9141
21.9141
21.9141
21.9141
21.9141
21.9141
21.9141
21.9141
21.9141
21.9141
21.9141
21.9141
21.9142
21.9142
21.9142
21.9142
21.9142
21.9142
21.9142
21.9142
21.9142
21.9142
21.9142
21.9142
21.9142
21.9143
21.9143
21.9143
21.9143
21.9143
21.9143
21.9143
21.9143
21.9143
21.9143
21.9144
21.9144
21.9144
21.9144
21.9144
21.9144
21.9144
21.9145
21.9145
21.9145
21.9145
21.9145
21.9146
21.9146
21.9146
21.9146
21.9147
21.9147
21.9147
21.9147
21.9148
21.9148
21.9148
21.9149
21.9149
21.915
21.915
21.915
21.9151
21.9151
21.9152
21.9152
21.9153
21.9153
21.9154
21.9154
21.9155
21.9155
21.9156
21.9156
21.9157
21.9158
21.9158
21.9159
21.916
21.9161
21.9161
21.9162
21.9163
21.9164
21.9165
21.9166
21.9167
21.9168
21.9169
21.917
21.9171
21.9172
21.9173
21.9174
21.9176
21.9177
21.9179
21.918
21.9182
21.9183
21.9185
21.9187
21.9189
21.9191
21.9193
21.9195
21.9197
21.9199
21.9201
21.9204
21.9206
21.9209
21.9212
21.9214
21.9217
21.922
21.9223
21.9226
21.9229
21.9232
21.9235
21.9239
21.9243
21.9247
21.9251
21.9255
21.926
21.9257
130.533
134.925
138.816
142.2
145.094
147.519
149.538
151.233
152.66
153.891
154.979
155.913
156.71
157.379
157.871
158.192
97.897
91.6822
84.6344
76.7879
68.4296
60.2519
52.7085
46.0243
40.3877
36.0795
33.1345
30.9655
29.2177
27.7818
26.6153
25.6691
24.8948
24.252
23.7164
23.2814
22.9457
22.6957
22.5087
22.3665
22.2575
22.1733
22.1076
22.0559
22.0157
21.986
21.9652
21.9507
21.9405
21.9332
21.9278
21.9238
21.921
21.919
21.9177
21.9169
21.9163
21.9159
21.9155
21.9153
21.9151
21.915
21.9149
21.9148
21.9147
21.9147
21.9146
21.9146
21.9146
21.9146
21.9145
21.9145
21.9145
21.9145
21.9145
21.9145
21.9145
21.9145
21.9145
21.9145
21.9145
21.9145
21.9145
21.9145
21.9146
21.9146
21.9146
21.9146
21.9146
21.9146
21.9146
21.9147
21.9147
21.9147
21.9147
21.9148
21.9148
21.9148
21.9148
21.9148
21.9149
21.9149
21.9149
21.9149
21.915
21.915
21.915
21.9151
21.9151
21.9151
21.9151
21.9152
21.9152
21.9153
21.9153
21.9153
21.9154
21.9154
21.9155
21.9155
21.9156
21.9156
21.9157
21.9158
21.9158
21.9159
21.916
21.916
21.9161
21.9162
21.9163
21.9164
21.9165
21.9166
21.9167
21.9168
21.9169
21.917
21.9171
21.9172
21.9174
21.9175
21.9176
21.9178
21.9179
21.9181
21.9182
21.9184
21.9186
21.9188
21.9189
21.9191
21.9193
21.9195
21.9197
21.92
21.9202
21.9205
21.9207
21.921
21.9213
21.9216
21.9219
21.9222
21.9225
21.9228
21.9232
21.9236
21.9239
21.9243
21.9247
21.9252
21.9256
21.9261
21.9266
21.9271
21.9277
21.9282
21.9288
21.9293
21.9299
21.9305
21.9312
21.9318
21.9326
21.9333
21.9341
21.9349
21.9357
21.9366
21.9374
21.9383
21.9393
21.9402
21.9412
21.9423
21.9435
21.9447
21.9459
21.9473
21.9487
21.9501
21.9516
21.9532
21.9548
21.9565
21.9581
21.96
21.9594
156.28
157.515
158.561
159.452
160.167
160.671
160.988
161.136
161.158
161.181
161.115
160.944
160.841
121.739
119.766
117.485
114.644
111.028
106.455
100.825
94.1753
86.6309
78.283
69.3535
60.5724
52.4944
45.421
39.6004
35.3194
32.4386
30.2983
28.5842
27.1982
26.0821
25.1796
24.4399
23.8295
23.3376
22.9626
22.689
22.49
22.3426
22.2317
22.1473
22.0824
22.033
21.997
21.9723
21.9557
21.9443
21.9363
21.9305
21.9261
21.923
21.9209
21.9195
21.9186
21.9179
21.9174
21.9169
21.9166
21.9164
21.9162
21.916
21.9159
21.9159
21.9158
21.9157
21.9157
21.9157
21.9157
21.9156
21.9156
21.9156
21.9156
21.9156
21.9157
21.9157
21.9157
21.9157
21.9158
21.9158
21.9159
21.9159
21.916
21.916
21.9161
21.9161
21.9162
21.9162
21.9163
21.9164
21.9164
21.9165
21.9166
21.9167
21.9167
21.9168
21.9169
21.917
21.9171
21.9172
21.9173
21.9173
21.9174
21.9175
21.9176
21.9178
21.9179
21.918
21.9181
21.9182
21.9184
21.9185
21.9187
21.9188
21.919
21.9191
21.9193
21.9195
21.9197
21.9199
21.9201
21.9204
21.9206
21.9209
21.9211
21.9214
21.9217
21.922
21.9223
21.9226
21.923
21.9234
21.9237
21.9241
21.9246
21.925
21.9255
21.9259
21.9264
21.9269
21.9275
21.928
21.9286
21.9292
21.9298
21.9305
21.9312
21.9319
21.9326
21.9334
21.9342
21.935
21.9358
21.9367
21.9377
21.9386
21.9396
21.9407
21.9417
21.9429
21.9441
21.9453
21.9467
21.948
21.9494
21.9509
21.9524
21.954
21.9556
21.9573
21.9591
21.9609
21.9629
21.965
21.9672
21.9695
21.972
21.9746
21.9773
21.98
21.9828
21.9858
21.9888
21.992
21.9954
21.999
22.0028
22.0068
22.0109
22.0153
22.0197
22.0242
22.0288
22.0335
22.0383
22.0432
22.0483
22.0537
22.0594
22.0654
22.0719
22.0787
22.0864
22.0853
163.887
163.781
163.683
163.616
163.528
163.497
163.484
163.436
163.329
163.23
163.022
162.703
162.411
128.352
128.462
128.199
127.608
126.684
125.427
123.911
122.152
119.939
116.984
113.016
107.88
101.572
94.2014
85.9155
76.7981
67.2038
57.9761
49.6881
42.6727
37.2341
33.5362
30.9839
29.0247
27.4623
26.2133
25.2117
24.4006
23.7441
23.2328
22.8597
22.5977
22.4121
22.2774
22.1775
22.1027
22.0471
22.0074
21.9806
21.9628
21.9508
21.9422
21.9359
21.9312
21.9276
21.9252
21.9234
21.9223
21.9214
21.9208
21.9203
21.9199
21.9196
21.9193
21.9191
21.919
21.9189
21.9188
21.9188
21.9188
21.9188
21.9188
21.9189
21.9189
21.919
21.9191
21.9192
21.9193
21.9195
21.9196
21.9197
21.9199
21.9201
21.9203
21.9204
21.9206
21.9208
21.921
21.9213
21.9215
21.9217
21.9219
21.9222
21.9224
21.9226
21.9229
21.9232
21.9234
21.9237
21.924
21.9243
21.9246
21.9249
21.9252
21.9255
21.9258
21.9262
21.9266
21.927
21.9274
21.9278
21.9283
21.9288
21.9293
21.9298
21.9304
21.931
21.9316
21.9323
21.933
21.9338
21.9345
21.9354
21.9362
21.9372
21.9381
21.9391
21.9402
21.9413
21.9424
21.9437
21.9449
21.9462
21.9476
21.949
21.9505
21.952
21.9536
21.9553
21.957
21.9588
21.9607
21.9627
21.9647
21.9669
21.9691
21.9714
21.9739
21.9764
21.979
21.9818
21.9847
21.9878
21.991
21.9943
21.9979
22.0016
22.0056
22.0097
22.014
22.0185
22.0231
22.028
22.033
22.0383
22.0439
22.0497
22.0558
22.0623
22.0691
22.0762
22.0836
22.0912
22.0989
22.1067
22.1147
22.1232
22.1321
22.1416
22.1518
22.1627
22.1742
22.1862
22.1987
22.2116
22.2248
22.2385
22.2526
22.2672
22.2825
22.2985
22.3153
22.333
22.3518
22.3717
22.3929
22.4153
22.4389
22.4634
22.4891
22.5152
22.5449
22.5447
166.049
165.945
165.702
165.44
165.166
164.857
164.588
164.372
164.173
163.988
163.787
163.535
163.229
162.895
129.447
129.647
129.731
129.826
130.01
130.309
130.631
130.626
130.33
129.719
128.826
127.71
126.325
124.483
121.915
118.305
113.439
107.282
99.9086
91.4463
82.0053
71.7564
61.52
52.1627
44.1867
37.965
33.7365
30.9263
28.8388
27.205
25.912
24.8866
24.0723
23.4434
22.9888
22.6778
22.4655
22.3161
22.2075
22.1273
22.0681
22.0258
21.9969
21.9776
21.9643
21.9548
21.9476
21.9422
21.938
21.9349
21.9327
21.9312
21.9301
21.9293
21.9287
21.9283
21.928
21.9278
21.9277
21.9277
21.9277
21.9278
21.9279
21.9281
21.9284
21.9287
21.929
21.9293
21.9297
21.9302
21.9306
21.9311
21.9316
21.9321
21.9327
21.9333
21.9338
21.9345
21.9351
21.9358
21.9364
21.9372
21.9379
21.9386
21.9394
21.9402
21.941
21.9418
21.9427
21.9436
21.9445
21.9454
21.9464
21.9475
21.9485
21.9496
21.9508
21.952
21.9532
21.9545
21.9558
21.9573
21.9588
21.9603
21.962
21.9637
21.9656
21.9675
21.9696
21.9717
21.974
21.9764
21.979
21.9816
21.9844
21.9874
21.9905
21.9937
21.9971
22.0007
22.0045
22.0084
22.0126
22.0169
22.0215
22.0263
22.0313
22.0366
22.0422
22.048
22.0541
22.0605
22.0672
22.0743
22.0816
22.0892
22.0971
22.1054
22.1141
22.1231
22.1325
22.1423
22.1525
22.1632
22.1743
22.186
22.1981
22.2108
22.2242
22.2383
22.2531
22.2689
22.2855
22.303
22.3213
22.3405
22.3604
22.381
22.4023
22.4243
22.4472
22.4711
22.4963
22.5232
22.5519
22.5827
22.6157
22.6505
22.6869
22.7247
22.7639
22.8045
22.8471
22.892
22.9399
22.991
23.0455
23.1037
23.1652
23.2299
23.297
23.3659
23.4361
23.5071
23.579
23.6519
23.7265
23.8037
23.8846
23.9712
24.0613
24.1714
24.1943
166.689
166.46
166.179
165.862
165.526
165.168
164.785
164.42
164.096
163.816
163.559
163.303
163.039
162.756
129.873
130.12
130.348
130.599
130.909
131.289
131.64
131.871
132.101
132.409
132.818
133.253
133.39
133.241
132.84
132.234
131.419
130.265
128.627
126.24
122.766
117.935
111.642
103.894
94.7771
84.4356
73.1243
61.7862
51.5306
43.0177
36.7
32.648
29.9583
27.9664
26.4258
25.2274
24.2993
23.5972
23.0973
22.7605
22.5342
22.3763
22.2617
22.1765
22.1124
22.0653
22.032
22.0091
21.9933
21.9821
21.9738
21.9675
21.9627
21.9591
21.9565
21.9546
21.9533
21.9525
21.9521
21.9519
21.952
21.9523
21.9527
21.9532
21.954
21.9549
21.9559
21.957
21.9582
21.9595
21.9609
21.9624
21.964
21.9656
21.9674
21.9691
21.971
21.9729
21.9748
21.9768
21.9789
21.981
21.9832
21.9854
21.9877
21.9901
21.9925
21.995
21.9976
22.0003
22.003
22.0059
22.0088
22.0118
22.0149
22.0181
22.0215
22.025
22.0287
22.0326
22.0366
22.0409
22.0454
22.0501
22.0551
22.0605
22.0661
22.072
22.0784
22.0851
22.0922
22.0997
22.1077
22.1162
22.1251
22.1346
22.1445
22.155
22.166
22.1775
22.1895
22.202
22.2151
22.2288
22.2431
22.2581
22.2738
22.2903
22.3075
22.3255
22.3444
22.3642
22.385
22.4068
22.4297
22.4536
22.4788
22.5051
22.5326
22.5614
22.5915
22.623
22.6561
22.6907
22.7273
22.7659
22.8069
22.8503
22.8964
22.9452
22.9967
23.0508
23.1076
23.1671
23.2295
23.2951
23.3643
23.4375
23.5152
23.5976
23.6846
23.776
23.8708
23.9679
24.0661
24.1652
24.2662
24.3712
24.4822
24.6013
24.7299
24.8687
25.0183
25.1783
25.3481
25.5268
25.7137
25.908
26.1093
26.3177
26.534
26.7596
26.9957
27.2438
27.5061
27.7854
28.0835
28.4038
28.7416
29.1091
29.4769
29.9104
30.1643
166.453
166.149
165.861
165.573
165.276
164.965
164.63
164.286
163.954
163.645
163.359
163.093
162.837
162.579
129.916
130.222
130.562
130.935
131.327
131.717
132.064
132.393
132.747
133.169
133.641
134.089
134.459
134.833
135.256
135.74
136.19
136.341
136.285
136.041
135.63
134.969
133.827
132.063
129.468
125.699
120.419
113.423
104.656
94.2178
82.351
69.6204
57.4459
47.0455
39.1124
33.9256
30.7328
28.5006
26.8193
25.5324
24.5511
23.8124
23.281
22.9176
22.6714
22.4986
22.3721
22.277
22.2048
22.1501
22.1099
22.0814
22.0615
22.0477
22.038
22.031
22.0262
22.0229
22.0208
22.0197
22.0196
22.0201
22.021
22.0225
22.0245
22.0269
22.0298
22.0329
22.0364
22.0402
22.0443
22.0485
22.053
22.0577
22.0626
22.0677
22.0729
22.0784
22.0841
22.0899
22.096
22.1022
22.1087
22.1153
22.1222
22.1293
22.1366
22.1441
22.152
22.1601
22.1685
22.1773
22.1864
22.1959
22.2058
22.216
22.2266
22.2376
22.249
22.2608
22.2732
22.286
22.2995
22.3137
22.3286
22.3443
22.3609
22.3784
22.3969
22.4166
22.4374
22.4595
22.4829
22.5077
22.5339
22.5616
22.5909
22.6217
22.6542
22.6884
22.7244
22.7622
22.8019
22.8436
22.8875
22.9336
22.9822
23.0335
23.0876
23.1447
23.2052
23.2692
23.3369
23.4085
23.4839
23.5633
23.6468
23.7343
23.8261
23.922
24.0221
24.1263
24.2349
24.348
24.466
24.5889
24.7171
24.8509
24.9908
25.138
25.2936
25.4591
25.6358
25.825
26.0275
26.2437
26.4734
26.7156
26.9689
27.2314
27.5014
27.7786
28.0647
28.3643
28.6833
29.0277
29.4022
29.8089
30.2467
30.7114
31.1981
31.7037
32.2292
32.7801
33.3658
33.9978
34.6894
35.4571
36.3182
37.2858
38.3628
39.5443
40.8114
42.123
43.4328
44.7247
45.9612
47.1569
48.2804
49.391
50.4914
51.6126
52.9895
166.195
165.874
165.578
165.298
165.024
164.747
164.459
164.157
163.849
163.542
163.245
162.961
162.69
129.876
130.214
130.59
130.994
131.403
131.799
132.187
132.595
133.043
133.513
133.981
134.427
134.877
135.367
135.889
136.409
136.885
137.345
137.832
138.368
138.944
139.453
139.674
139.728
139.694
139.523
138.996
137.767
135.649
132.41
127.614
120.872
112.013
101.109
88.481
74.7329
61.2649
49.6959
40.8615
35.007
31.5162
29.1632
27.412
26.0716
25.0437
24.2555
23.6646
23.2421
22.9499
22.7461
22.5989
22.4894
22.4072
22.3455
22.2994
22.2654
22.2409
22.2239
22.2127
22.2063
22.2035
22.2033
22.205
22.2082
22.2131
22.2195
22.2273
22.2362
22.2461
22.257
22.2687
22.2813
22.2947
22.3089
22.3237
22.339
22.3549
22.3713
22.3881
22.4054
22.4232
22.4415
22.4602
22.4795
22.4994
22.5198
22.541
22.5629
22.5855
22.6089
22.6332
22.6583
22.6842
22.711
22.7389
22.7677
22.7978
22.8291
22.8618
22.8959
22.9316
22.9689
23.0081
23.0493
23.0927
23.1385
23.187
23.2384
23.293
23.3511
23.413
23.4789
23.5493
23.6243
23.7044
23.7897
23.8806
23.9771
24.0794
24.1871
24.3001
24.418
24.5408
24.6686
24.8019
24.941
25.0865
25.2389
25.3987
25.5665
25.7428
25.9283
26.1238
26.3302
26.5485
26.7797
27.0247
27.284
27.5581
27.8471
28.1512
28.47
28.8031
29.1508
29.5145
29.8968
30.3012
30.7316
31.1921
31.6861
32.216
32.783
33.3878
34.0299
34.7091
35.4282
36.1945
37.0202
37.9213
38.9168
40.026
41.2597
42.5892
43.9727
45.3708
46.7355
48.0266
49.2318
50.3698
51.4804
52.6087
53.7937
55.0662
56.4441
57.9211
59.4656
61.0529
62.6384
64.1054
65.3358
66.2849
66.9853
67.4991
67.9007
68.2661
68.6459
69.0986
69.6533
70.3752
71.2188
72.2824
73.3198
74.7502
165.992
165.678
165.378
165.094
164.82
164.552
164.284
164.01
163.729
163.441
163.151
162.864
162.583
130.551
130.957
131.367
131.775
132.192
132.634
133.098
133.571
134.045
134.527
135.032
135.56
136.094
136.623
137.152
137.694
138.259
138.844
139.432
140.016
140.614
141.233
141.887
142.563
143.134
143.399
143.515
143.582
143.494
142.886
141.235
138.25
133.502
126.542
117.205
105.717
92.5892
78.5071
64.673
52.7218
43.441
36.9843
33.0198
30.4646
28.5785
27.1211
25.9888
25.1125
24.4366
23.9271
23.5589
23.3013
23.1212
22.9922
22.898
22.8294
22.7804
22.747
22.7262
22.7163
22.7141
22.7181
22.7268
22.7407
22.7593
22.7819
22.8078
22.8367
22.8682
22.9022
22.9383
22.9764
23.0164
23.0581
23.1016
23.1468
23.1935
23.2418
23.2917
23.3431
23.3963
23.4511
23.5077
23.5661
23.6266
23.6892
23.7543
23.8219
23.8926
23.9666
24.0441
24.1255
24.2107
24.2999
24.3929
24.4896
24.5898
24.6933
24.8005
24.9116
25.0271
25.1475
25.2732
25.4049
25.543
25.6883
25.8414
26.0033
26.1748
26.3567
26.5501
26.756
26.9754
27.2092
27.4582
27.723
28.0042
28.3022
28.6177
28.9508
29.3013
29.6693
30.0554
30.4608
30.8867
31.335
31.8079
32.3086
32.8406
33.4085
34.0168
34.6698
35.3717
36.126
36.936
37.805
38.7364
39.7339
40.801
41.9406
43.1392
44.377
45.6501
46.9545
48.2805
49.6134
50.9373
52.2397
53.5149
54.7652
56.0018
57.2445
58.514
59.8242
61.1796
62.5668
63.9513
65.2832
66.4828
67.4456
68.1432
68.634
69.0049
69.3457
69.7384
70.2522
70.9478
71.8473
72.8992
74.003
75.0549
75.9273
76.5121
76.7816
76.8242
76.6607
76.3975
76.2022
76.1612
76.2414
76.4107
76.6991
77.1296
77.6677
78.286
78.9201
79.5309
80.0014
80.3151
80.4357
80.3363
165.503
165.213
164.931
164.657
164.389
164.126
163.864
163.597
163.326
163.049
162.768
162.486
130.464
130.87
131.282
131.702
132.138
132.592
133.058
133.528
134.006
134.508
135.031
135.563
136.103
136.646
137.201
137.775
138.364
138.959
139.565
140.201
140.87
141.565
142.275
142.972
143.671
144.431
145.276
146.203
147.117
147.792
148.094
148.254
148.222
147.645
146.006
142.994
138.119
130.949
121.479
110.124
97.496
84.1694
70.8227
58.7365
48.8178
41.3077
36.1525
32.9449
30.7642
29.1057
27.8204
26.8309
26.0748
25.4997
25.0607
24.7286
24.4846
24.3131
24.1991
24.1292
24.0933
24.0817
24.0901
24.1127
24.15
24.2015
24.2651
24.3391
24.4221
24.5137
24.6135
24.7212
24.8362
24.9576
25.0843
25.2154
25.3505
25.4893
25.6317
25.7778
25.9274
26.0808
26.2382
26.4001
26.567
26.7394
26.9179
27.1028
27.2945
27.4932
27.6994
27.9138
28.137
28.37
28.6134
28.8681
29.1347
29.4132
29.7038
30.0069
30.3232
30.6541
31.0009
31.365
31.7481
32.1521
32.5793
33.0324
33.5144
34.0287
34.5794
35.1706
35.8072
36.4944
37.2382
38.0447
38.9196
39.8682
40.894
41.9974
43.1568
44.3503
45.5719
46.8195
48.091
49.3834
50.6933
52.0156
53.3431
54.6662
55.975
57.2599
58.5139
59.7331
60.9167
62.0649
63.1768
64.2493
65.2759
66.2463
67.1619
68.0255
68.8248
69.5508
70.207
70.8096
71.3849
71.9611
72.5606
73.1964
73.87
74.5618
75.2284
75.8275
76.3114
76.6297
76.7864
76.8302
76.7935
76.7469
76.7678
76.8685
77.0814
77.4568
77.9916
78.61
79.2196
79.7133
79.9814
80.0333
79.9158
79.6567
79.3831
79.1864
79.0838
79.0611
79.0945
79.2094
79.4267
79.7072
80.0125
80.3249
80.6221
80.8654
81.0376
81.1349
81.185
81.1879
81.1604
81.0891
80.8029
165.33
165.056
164.783
164.514
164.248
163.986
163.725
163.464
163.201
162.933
130.339
130.748
131.167
131.596
132.038
132.494
132.964
133.443
133.931
134.435
134.956
135.485
136.016
136.559
137.128
137.718
138.314
138.918
139.544
140.199
140.876
141.567
142.264
142.993
143.793
144.67
145.608
146.55
147.449
148.359
149.355
150.433
151.521
152.36
152.754
152.872
152.557
151.55
149.641
146.68
142.191
135.729
127.277
117.185
105.906
93.8829
81.5329
69.441
58.7004
49.9394
43.2391
38.4675
35.338
33.3269
31.8443
30.6908
29.8047
29.1377
28.6445
28.2899
28.0492
27.9045
27.8366
27.8248
27.8662
27.9487
28.073
28.2322
28.422
28.6387
28.8789
29.14
29.42
29.7174
30.0313
30.3603
30.7029
31.0585
31.4264
31.8068
32.1998
32.6057
33.0247
33.4568
33.9023
34.3617
34.8367
35.3302
35.8465
36.3908
36.9679
37.5819
38.2358
38.9326
39.6758
40.4697
41.3185
42.2119
43.1326
44.0773
45.0474
46.0431
47.064
48.1093
49.1783
50.2702
51.3837
52.5167
53.6664
54.8292
56.0012
57.178
58.3544
59.5243
60.6794
61.8102
62.9064
63.9577
64.9552
65.8946
66.7922
67.6632
68.5086
69.3261
70.1124
70.8632
71.5733
72.2383
72.8569
73.4324
73.9713
74.4817
74.9712
75.444
75.8994
76.3315
76.7304
77.0862
77.3921
77.648
77.8611
78.0433
78.2097
78.3772
78.5623
78.7776
79.0272
79.3025
79.5824
79.8419
80.055
80.1921
80.2444
80.2311
80.1579
80.0613
79.9822
79.9432
79.9428
79.9867
80.1276
80.3648
80.6669
80.9763
81.2116
81.323
81.3389
81.2465
81.0583
80.8352
80.6245
80.4569
80.3398
80.2818
80.2751
80.3198
80.4171
80.5559
80.7241
80.9011
81.0721
81.2266
81.3575
81.4593
81.5253
81.5461
81.5088
81.3893
81.1961
80.9721
80.748
164.9
164.638
164.376
164.115
163.854
163.595
163.335
163.073
162.809
130.594
131.024
131.466
131.917
132.372
132.837
133.317
133.811
134.312
134.823
135.343
135.872
136.422
137.004
137.598
138.198
138.809
139.447
140.103
140.772
141.453
142.159
142.915
143.734
144.601
145.478
146.36
147.308
148.358
149.504
150.699
151.865
152.952
153.98
154.964
155.771
156.24
156.518
156.478
155.783
154.534
152.838
150.474
147.091
142.242
135.647
127.401
117.888
107.556
96.8573
86.2243
76.0748
66.9515
59.3311
53.2214
48.4509
44.8337
42.1833
40.3133
39.0473
38.2338
37.7383
37.4616
37.3494
37.3741
37.5384
37.8176
38.2008
38.6752
39.2322
39.8696
40.5887
41.3929
42.2814
43.2307
44.2189
45.2376
46.2817
47.3464
48.4265
49.5171
50.6151
51.7191
52.8298
53.9486
55.0752
56.2052
57.3285
58.4312
59.5002
60.528
61.5156
62.469
63.3927
64.2868
65.1468
65.9792
66.7958
67.5955
68.3749
69.1328
69.8694
70.5844
71.2771
71.946
72.5891
73.2052
73.7942
74.3567
74.8936
75.4045
75.8882
76.343
76.7681
77.1645
77.5347
77.8822
78.2104
78.5218
78.8171
79.0951
79.3539
79.5921
79.809
80.0058
80.1856
80.3532
80.5138
80.6722
80.8302
80.9865
81.1362
81.2722
81.3882
81.4784
81.5387
81.5745
81.595
81.609
81.625
81.6493
81.6898
81.7532
81.8359
81.9266
82.0101
82.0709
82.0973
82.093
82.0539
81.9796
81.8818
81.7704
81.6581
81.566
81.5157
81.5039
81.5238
81.5898
81.6938
81.8139
81.9172
81.9777
81.9997
81.9803
81.8945
81.7491
81.5852
81.4289
81.2914
81.1908
81.1416
81.1357
81.1727
81.2576
81.3858
81.5365
81.6905
81.832
81.9483
82.0285
82.0668
82.0694
82.0251
81.9205
81.7559
81.5698
81.397
81.2453
81.1088
164.747
164.493
130.43
130.857
131.3
131.754
132.211
132.673
133.147
133.637
134.139
134.645
135.167
135.713
136.282
136.865
137.456
138.059
138.676
139.312
139.965
140.63
141.312
142.033
142.794
143.593
144.417
145.27
146.177
147.154
148.208
149.326
150.479
151.638
152.797
153.962
155.116
156.202
157.13
157.803
158.279
158.714
159.126
159.427
159.525
159.154
158.27
156.945
155.229
152.83
149.378
144.65
138.656
131.661
124.078
116.265
108.479
100.909
93.7583
87.1866
81.3122
76.2166
71.9451
68.5226
65.935
64.085
62.8622
62.1714
61.8663
61.8431
62.0802
62.5428
63.1571
63.8553
64.612
65.3909
66.1837
66.9863
67.7876
68.5797
69.3597
70.1269
70.8818
71.6241
72.3508
73.0545
73.7244
74.3492
74.9233
75.4533
75.9571
76.4558
76.9627
77.4755
77.9789
78.4548
78.8911
79.2855
79.643
79.9699
80.2721
80.5536
80.8159
81.0591
81.2839
81.4914
81.6824
81.8598
82.0274
82.1866
82.3363
82.4755
82.603
82.7183
82.8222
82.9156
82.9998
83.0759
83.1444
83.2045
83.2553
83.2968
83.3304
83.3572
83.3789
83.3987
83.4195
83.4431
83.471
83.5032
83.5377
83.5699
83.5953
83.6096
83.6103
83.6002
83.5753
83.5382
83.4982
83.462
83.4341
83.4165
83.4079
83.4114
83.424
83.4347
83.4333
83.4228
83.4007
83.3571
83.2887
83.2014
83.1024
82.9977
82.8951
82.8052
82.7422
82.7143
82.7148
82.7422
82.7967
82.8684
82.9355
82.9713
82.9721
82.9295
82.8256
82.6674
82.4908
82.3304
82.2082
82.1316
82.1005
82.107
82.1558
82.2497
82.3731
82.497
82.5901
82.6403
82.657
82.6389
82.5914
82.5218
82.4229
82.2904
82.1367
81.989
81.8607
81.7589
81.6926
81.6839
130.235
130.66
131.097
131.546
132.006
132.474
132.947
133.435
133.942
134.465
135.003
135.558
136.127
136.707
137.298
137.903
138.524
139.161
139.813
140.48
141.17
141.892
142.647
143.426
144.236
145.085
145.994
146.973
148.011
149.092
150.207
151.354
152.533
153.736
154.927
156.029
156.955
157.725
158.465
159.253
160.025
160.679
161.234
161.78
162.358
162.896
163.263
163.326
162.808
161.635
160.043
158.055
155.469
152.258
148.487
144.268
139.685
134.772
129.573
124.183
118.709
113.284
108.051
103.162
98.7499
94.9093
91.6789
89.04
86.9412
85.304
84.0396
83.0763
82.3597
81.8457
81.5017
81.2981
81.1971
81.1885
81.2626
81.3954
81.5656
81.7573
81.9579
82.159
82.3626
82.5718
82.7948
83.0387
83.2988
83.5556
83.7818
83.9569
84.0845
84.187
84.285
84.3878
84.494
84.5984
84.697
84.7878
84.8699
84.945
85.0135
85.0758
85.133
85.1852
85.2316
85.2712
85.303
85.3253
85.3387
85.3447
85.3444
85.3386
85.3287
85.3152
85.2972
85.273
85.2463
85.2196
85.1927
85.1662
85.1428
85.1253
85.1131
85.1047
85.0998
85.0964
85.0904
85.0821
85.0698
85.0491
85.0197
84.9829
84.9412
84.8994
84.8621
84.8327
84.8123
84.7989
84.7921
84.7889
84.7824
84.7691
84.746
84.7087
84.6531
84.5778
84.4867
84.3866
84.2854
84.1911
84.1121
84.0571
84.0304
84.0261
84.0419
84.0754
84.1137
84.1387
84.138
84.1079
84.0347
83.9115
83.7535
83.5851
83.4345
83.3241
83.2622
83.242
83.2513
83.2967
83.3685
83.4474
83.5148
83.5548
83.5651
83.5525
83.5159
83.4505
83.3536
83.227
83.0747
82.907
82.7441
82.6107
82.5202
82.477
82.474
82.5289
130.011
130.44
130.874
131.32
131.782
132.257
132.745
133.245
133.758
134.287
134.83
135.387
135.956
136.537
137.131
137.74
138.363
139
139.654