/*--------------------------------*- C++ -*----------------------------------*\
| =========                 |                                                 |
| \\      /  F ield         | OpenFOAM: The Open Source CFD Toolbox           |
|  \\    /   O peration     | Version:  v1706                                 |
|   \\  /    A nd           | Web:      www.OpenFOAM.com                      |
|    \\/     M anipulation  |                                                 |
\*---------------------------------------------------------------------------*/
FoamFile
{
    version     2.0;
    format      ascii;
    class       volScalarField;
    location    "3.1e-05";
    object      Tt;
}
// * * * * * * * * * * * * * * * * * * * * * * * * * * * * * * * * * * * * * //

dimensions      [0 0 0 1 0 0 0];


internalField   nonuniform List<scalar> 
30104
(
145.741
145.917
146.116
146.337
146.583
146.852
147.145
147.464
147.811
148.194
148.619
149.093
149.618
150.197
150.828
151.509
152.235
144.639
144.592
144.553
144.521
144.497
144.477
144.461
144.448
144.438
144.43
144.424
144.418
144.414
144.411
144.408
144.406
144.405
144.404
144.403
144.402
144.401
144.401
144.401
144.401
144.4
144.4
144.4
144.4
144.4
144.4
144.4
144.4
144.4
144.4
144.4
144.4
144.4
144.4
144.4
144.4
144.4
144.4
144.4
144.4
144.4
144.4
144.4
144.4
144.4
144.4
144.4
144.4
144.4
144.4
144.4
144.4
144.4
144.4
144.4
144.4
144.4
144.4
144.4
144.4
144.4
144.4
144.4
144.4
144.4
144.4
144.4
144.4
144.4
144.4
144.4
144.4
144.4
144.4
144.4
144.4
144.4
144.4
144.4
144.4
144.4
144.4
144.4
144.4
144.4
144.4
144.4
144.4
144.4
144.4
144.4
144.4
144.4
144.4
144.4
144.4
144.4
144.4
144.4
144.4
144.4
144.4
144.4
144.4
144.4
144.4
144.4
144.4
144.4
144.4
144.4
144.4
144.4
144.4
144.4
144.4
144.4
144.4
144.4
144.4
144.4
144.4
144.4
144.4
144.4
144.4
144.4
144.4
144.4
144.4
144.4
144.4
144.4
144.4
144.4
144.4
144.4
144.4
144.4
144.4
144.4
144.4
144.4
144.4
144.4
144.4
144.4
144.4
144.4
144.4
144.4
144.4
144.4
144.4
144.4
144.4
144.4
144.4
144.4
144.4
144.4
144.4
144.4
144.4
144.4
144.4
144.4
144.4
144.4
144.4
144.4
144.4
144.4
144.4
144.4
144.4
144.4
144.4
144.4
144.4
144.4
144.4
144.4
144.4
144.4
144.4
144.4
144.4
144.4
152.499
153.527
154.676
155.953
157.36
158.897
160.563
162.359
164.303
166.429
168.758
171.292
174.018
176.915
179.957
183.115
186.36
146.21
145.868
145.586
145.357
145.17
145.017
144.891
144.788
144.705
144.638
144.586
144.545
144.513
144.487
144.467
144.451
144.439
144.43
144.422
144.417
144.412
144.409
144.407
144.405
144.404
144.403
144.402
144.401
144.401
144.401
144.4
144.4
144.4
144.4
144.4
144.4
144.4
144.4
144.4
144.4
144.4
144.4
144.4
144.4
144.4
144.4
144.4
144.4
144.4
144.4
144.4
144.4
144.4
144.4
144.4
144.4
144.4
144.4
144.4
144.4
144.4
144.4
144.4
144.4
144.4
144.4
144.4
144.4
144.4
144.4
144.4
144.4
144.4
144.4
144.4
144.4
144.4
144.4
144.4
144.4
144.4
144.4
144.4
144.4
144.4
144.4
144.4
144.4
144.4
144.4
144.4
144.4
144.4
144.4
144.4
144.4
144.4
144.4
144.4
144.4
144.4
144.4
144.4
144.4
144.4
144.4
144.4
144.4
144.4
144.4
144.4
144.4
144.4
144.4
144.4
144.4
144.4
144.4
144.4
144.4
144.4
144.4
144.4
144.4
144.4
144.4
144.4
144.4
144.4
144.4
144.4
144.4
144.4
144.4
144.4
144.4
144.4
144.4
144.4
144.4
144.4
144.4
144.4
144.4
144.4
144.4
144.4
144.4
144.4
144.4
144.4
144.4
144.4
144.4
144.4
144.4
144.4
144.4
144.4
144.4
144.4
144.4
144.4
144.4
144.4
144.4
144.4
144.4
144.4
144.4
144.4
144.4
144.4
144.4
144.4
144.4
144.4
144.4
144.4
144.4
144.4
144.4
144.4
144.4
144.4
144.4
144.4
144.4
144.401
144.401
144.401
144.401
144.401
171.686
174.871
178.344
182.084
186.063
190.246
194.598
199.1
203.776
208.86
214.409
220.348
226.56
232.912
239.267
245.498
152.148
150.722
149.521
148.539
147.746
147.098
146.563
146.123
145.767
145.481
145.253
145.07
144.923
144.805
144.712
144.64
144.584
144.54
144.506
144.48
144.46
144.445
144.434
144.425
144.418
144.413
144.409
144.407
144.405
144.403
144.402
144.402
144.401
144.401
144.401
144.401
144.4
144.4
144.4
144.4
144.4
144.4
144.4
144.4
144.4
144.4
144.4
144.4
144.4
144.4
144.4
144.4
144.4
144.4
144.4
144.4
144.4
144.4
144.4
144.4
144.4
144.4
144.4
144.4
144.4
144.4
144.4
144.4
144.4
144.4
144.4
144.4
144.4
144.4
144.4
144.4
144.4
144.4
144.4
144.4
144.4
144.4
144.4
144.4
144.4
144.4
144.4
144.4
144.4
144.4
144.4
144.4
144.4
144.4
144.4
144.4
144.4
144.4
144.4
144.4
144.4
144.4
144.4
144.4
144.4
144.4
144.4
144.4
144.4
144.4
144.4
144.4
144.4
144.4
144.4
144.4
144.4
144.4
144.4
144.4
144.4
144.4
144.4
144.4
144.4
144.4
144.4
144.4
144.4
144.4
144.4
144.4
144.4
144.4
144.4
144.4
144.4
144.4
144.4
144.401
144.401
144.401
144.401
144.401
144.401
144.401
144.401
144.401
144.401
144.401
144.401
144.401
144.401
144.401
144.401
144.401
144.401
144.401
144.401
144.401
144.401
144.401
144.401
144.401
144.401
144.401
144.401
144.401
144.401
144.401
144.401
144.401
144.401
144.401
144.402
144.402
144.402
144.402
144.402
144.402
144.402
144.402
144.402
144.402
144.402
144.402
144.402
144.402
144.402
144.402
144.403
144.403
144.402
215.92
222.581
229.616
236.874
244.186
251.389
258.34
264.929
271.065
276.638
281.622
286.032
289.9
293.267
296.181
298.691
171.635
167.194
163.293
159.996
157.258
154.952
152.979
151.296
149.894
148.762
147.863
147.143
146.561
146.092
145.719
145.425
145.194
145.012
144.867
144.753
144.666
144.6
144.55
144.511
144.482
144.46
144.444
144.432
144.423
144.416
144.412
144.408
144.406
144.404
144.403
144.402
144.402
144.401
144.401
144.401
144.401
144.401
144.401
144.4
144.4
144.4
144.4
144.4
144.4
144.4
144.4
144.4
144.4
144.4
144.4
144.4
144.4
144.4
144.4
144.4
144.4
144.4
144.4
144.4
144.4
144.4
144.4
144.4
144.4
144.4
144.4
144.4
144.4
144.4
144.4
144.4
144.4
144.4
144.4
144.4
144.4
144.4
144.4
144.4
144.4
144.4
144.4
144.4
144.4
144.4
144.4
144.4
144.4
144.4
144.4
144.4
144.4
144.4
144.4
144.401
144.401
144.401
144.401
144.401
144.401
144.401
144.401
144.401
144.401
144.401
144.401
144.401
144.401
144.401
144.401
144.401
144.401
144.401
144.401
144.401
144.401
144.401
144.401
144.401
144.401
144.401
144.401
144.401
144.401
144.401
144.401
144.401
144.401
144.402
144.402
144.402
144.402
144.402
144.402
144.402
144.402
144.402
144.402
144.402
144.402
144.402
144.402
144.402
144.403
144.403
144.403
144.403
144.403
144.403
144.403
144.403
144.403
144.403
144.404
144.404
144.404
144.404
144.404
144.404
144.404
144.404
144.405
144.405
144.405
144.405
144.405
144.405
144.406
144.406
144.406
144.406
144.406
144.407
144.407
144.407
144.407
144.408
144.408
144.408
144.409
144.409
144.409
144.409
144.41
144.41
144.41
144.411
144.41
282
287.379
292.096
296.189
299.71
302.719
305.276
307.438
309.25
310.751
311.982
312.973
313.753
314.347
314.8
220.819
211.145
201.567
192.877
185.665
179.434
173.827
168.773
164.348
160.624
157.572
155.044
152.916
151.133
149.676
148.523
147.619
146.904
146.336
145.886
145.536
145.264
145.053
144.889
144.762
144.666
144.595
144.542
144.503
144.474
144.453
144.438
144.427
144.419
144.414
144.41
144.407
144.405
144.404
144.403
144.403
144.402
144.402
144.402
144.401
144.401
144.401
144.401
144.401
144.401
144.401
144.401
144.401
144.401
144.401
144.401
144.401
144.401
144.401
144.401
144.401
144.401
144.401
144.401
144.401
144.401
144.401
144.401
144.401
144.401
144.401
144.401
144.401
144.401
144.401
144.401
144.401
144.401
144.401
144.401
144.401
144.401
144.401
144.401
144.401
144.401
144.401
144.401
144.401
144.401
144.401
144.401
144.401
144.401
144.401
144.401
144.402
144.402
144.402
144.402
144.402
144.402
144.402
144.402
144.402
144.402
144.402
144.402
144.402
144.402
144.402
144.402
144.403
144.403
144.403
144.403
144.403
144.403
144.403
144.403
144.403
144.403
144.404
144.404
144.404
144.404
144.404
144.404
144.404
144.405
144.405
144.405
144.405
144.405
144.405
144.406
144.406
144.406
144.406
144.406
144.407
144.407
144.407
144.407
144.408
144.408
144.408
144.409
144.409
144.409
144.41
144.41
144.41
144.411
144.411
144.411
144.412
144.412
144.413
144.413
144.414
144.414
144.415
144.415
144.416
144.417
144.417
144.418
144.418
144.419
144.42
144.421
144.421
144.422
144.423
144.424
144.425
144.426
144.427
144.428
144.429
144.43
144.431
144.432
144.433
144.434
144.436
144.437
144.438
144.44
144.441
144.443
144.441
312.981
314.664
316.033
317.127
317.981
318.629
319.124
319.516
319.836
320.11
320.349
320.542
320.69
320.788
320.813
320.788
267.537
263.49
258.332
251.885
244.085
235.134
225.28
214.847
204.365
194.682
186.653
179.836
173.789
168.413
163.776
159.938
156.826
154.266
152.136
150.39
149.004
147.931
147.098
146.448
145.941
145.552
145.255
145.029
144.858
144.73
144.636
144.569
144.521
144.486
144.461
144.444
144.431
144.423
144.417
144.413
144.41
144.408
144.406
144.405
144.405
144.404
144.404
144.403
144.403
144.403
144.403
144.403
144.403
144.402
144.402
144.402
144.402
144.402
144.402
144.402
144.402
144.402
144.402
144.402
144.402
144.402
144.402
144.402
144.402
144.402
144.403
144.403
144.403
144.403
144.403
144.403
144.403
144.403
144.403
144.403
144.403
144.403
144.403
144.403
144.404
144.404
144.404
144.404
144.404
144.404
144.404
144.404
144.404
144.404
144.405
144.405
144.405
144.405
144.405
144.405
144.405
144.406
144.406
144.406
144.406
144.406
144.407
144.407
144.407
144.407
144.407
144.408
144.408
144.408
144.409
144.409
144.409
144.41
144.41
144.41
144.411
144.411
144.412
144.412
144.413
144.413
144.414
144.414
144.415
144.415
144.416
144.416
144.417
144.418
144.418
144.419
144.42
144.42
144.421
144.422
144.423
144.424
144.425
144.425
144.426
144.428
144.429
144.43
144.431
144.432
144.433
144.435
144.436
144.437
144.439
144.44
144.442
144.444
144.445
144.447
144.449
144.451
144.453
144.455
144.457
144.459
144.462
144.464
144.467
144.469
144.472
144.475
144.478
144.481
144.484
144.488
144.491
144.495
144.498
144.502
144.506
144.51
144.515
144.519
144.524
144.529
144.534
144.54
144.546
144.551
144.558
144.564
144.556
323.791
324.063
324.281
324.45
324.558
324.588
324.563
324.503
324.417
324.339
324.255
324.151
324.089
279.867
279.011
278.041
276.861
275.325
273.194
270.21
266.177
260.934
254.295
246.117
236.564
225.932
214.659
203.446
193.33
185.052
177.998
171.776
166.345
161.783
158.096
155.118
152.677
150.693
149.133
147.943
147.041
146.353
145.831
145.44
145.15
144.936
144.78
144.669
144.591
144.537
144.499
144.472
144.453
144.439
144.43
144.424
144.419
144.416
144.413
144.412
144.41
144.409
144.409
144.408
144.408
144.407
144.407
144.407
144.407
144.407
144.406
144.406
144.406
144.406
144.406
144.406
144.407
144.407
144.407
144.407
144.407
144.407
144.407
144.407
144.408
144.408
144.408
144.408
144.408
144.409
144.409
144.409
144.409
144.41
144.41
144.41
144.411
144.411
144.411
144.411
144.412
144.412
144.412
144.413
144.413
144.413
144.414
144.414
144.415
144.415
144.415
144.416
144.416
144.417
144.417
144.418
144.418
144.419
144.42
144.42
144.421
144.422
144.423
144.424
144.424
144.425
144.426
144.427
144.428
144.429
144.431
144.432
144.433
144.434
144.436
144.437
144.439
144.44
144.442
144.444
144.445
144.447
144.449
144.451
144.453
144.455
144.457
144.46
144.462
144.465
144.467
144.47
144.473
144.476
144.479
144.482
144.485
144.489
144.492
144.496
144.5
144.504
144.508
144.513
144.518
144.523
144.528
144.533
144.538
144.544
144.55
144.556
144.563
144.569
144.576
144.584
144.592
144.6
144.608
144.617
144.626
144.636
144.646
144.657
144.667
144.679
144.691
144.703
144.717
144.73
144.744
144.759
144.774
144.79
144.806
144.823
144.84
144.858
144.877
144.896
144.917
144.938
144.961
144.985
145.011
144.988
327.971
327.865
327.777
327.711
327.658
327.624
327.584
327.516
327.414
327.305
327.153
326.979
326.834
283.598
283.458
283.219
282.933
282.616
282.217
281.72
281.126
280.365
279.323
277.805
275.548
272.305
267.876
262.068
254.638
245.447
234.731
222.911
210.643
198.928
189.02
180.863
173.809
167.669
162.508
158.361
155.068
152.426
150.334
148.74
147.561
146.692
146.051
145.581
145.242
144.999
144.826
144.705
144.621
144.563
144.522
144.493
144.472
144.457
144.446
144.439
144.433
144.429
144.426
144.424
144.422
144.421
144.42
144.419
144.419
144.419
144.418
144.418
144.418
144.418
144.418
144.418
144.419
144.419
144.419
144.42
144.42
144.421
144.421
144.422
144.422
144.423
144.424
144.424
144.425
144.426
144.426
144.427
144.428
144.429
144.43
144.43
144.431
144.432
144.433
144.434
144.435
144.436
144.437
144.438
144.439
144.44
144.442
144.443
144.444
144.445
144.447
144.448
144.45
144.451
144.453
144.455
144.456
144.458
144.46
144.463
144.465
144.467
144.47
144.472
144.475
144.478
144.481
144.484
144.488
144.491
144.495
144.499
144.503
144.508
144.512
144.517
144.522
144.527
144.532
144.538
144.543
144.549
144.556
144.562
144.569
144.576
144.584
144.591
144.6
144.608
144.617
144.626
144.635
144.645
144.656
144.666
144.678
144.69
144.702
144.715
144.729
144.744
144.759
144.775
144.791
144.809
144.827
144.846
144.865
144.886
144.907
144.93
144.953
144.978
145.003
145.029
145.057
145.085
145.114
145.145
145.178
145.212
145.249
145.287
145.327
145.37
145.414
145.46
145.508
145.558
145.61
145.664
145.72
145.778
145.838
145.9
145.965
146.033
146.104
146.178
146.257
146.338
146.424
146.514
146.616
146.543
330.959
330.836
330.663
330.496
330.338
330.195
330.085
329.996
329.909
329.817
329.711
329.584
329.441
329.291
285.861
285.713
285.538
285.368
285.237
285.182
285.213
285.219
285.153
285.061
284.935
284.76
284.497
284.069
283.371
282.226
280.397
277.63
273.676
268.288
261.169
252.02
240.908
228.259
214.794
201.656
190.376
181.237
173.482
166.858
161.419
157.158
153.845
151.276
149.343
147.944
146.945
146.227
145.713
145.347
145.087
144.903
144.773
144.682
144.618
144.572
144.538
144.514
144.496
144.483
144.474
144.467
144.462
144.458
144.456
144.454
144.452
144.452
144.451
144.451
144.451
144.452
144.452
144.453
144.454
144.455
144.456
144.457
144.459
144.46
144.462
144.464
144.466
144.468
144.47
144.472
144.474
144.477
144.479
144.481
144.484
144.486
144.489
144.492
144.495
144.497
144.5
144.503
144.506
144.51
144.513
144.516
144.52
144.524
144.527
144.531
144.535
144.54
144.544
144.549
144.554
144.559
144.564
144.57
144.576
144.582
144.589
144.596
144.603
144.611
144.619
144.628
144.637
144.647
144.657
144.667
144.679
144.691
144.703
144.716
144.729
144.744
144.758
144.774
144.79
144.807
144.825
144.844
144.864
144.884
144.906
144.929
144.952
144.977
145.003
145.03
145.058
145.087
145.118
145.149
145.183
145.217
145.253
145.291
145.33
145.372
145.415
145.46
145.508
145.559
145.612
145.668
145.727
145.789
145.854
145.921
145.992
146.066
146.143
146.222
146.305
146.391
146.48
146.574
146.672
146.775
146.884
146.998
147.119
147.245
147.378
147.517
147.664
147.818
147.982
148.155
148.338
148.53
148.732
148.942
149.16
149.383
149.612
149.846
150.084
150.329
150.58
150.841
151.112
151.399
151.697
152.066
151.884
333.256
333.129
332.98
332.819
332.655
332.494
332.349
332.234
332.147
332.079
332.018
331.954
331.882
331.8
287.703
287.542
287.403
287.282
287.185
287.152
287.167
287.168
287.18
287.235
287.358
287.586
287.827
287.976
288.125
288.271
288.379
288.374
288.24
287.819
286.92
285.307
282.703
278.793
273.227
265.614
255.582
243.157
228.898
213.81
199.469
187.664
178.158
170.223
163.715
158.657
154.84
151.96
149.832
148.316
147.249
146.488
145.941
145.549
145.267
145.062
144.915
144.809
144.734
144.679
144.639
144.61
144.589
144.574
144.562
144.554
144.549
144.545
144.543
144.543
144.543
144.543
144.545
144.547
144.549
144.553
144.556
144.561
144.565
144.57
144.575
144.581
144.586
144.592
144.599
144.605
144.612
144.619
144.626
144.633
144.641
144.648
144.656
144.665
144.673
144.682
144.691
144.7
144.709
144.719
144.729
144.74
144.75
144.762
144.773
144.785
144.797
144.81
144.824
144.838
144.852
144.868
144.884
144.901
144.919
144.938
144.958
144.979
145.001
145.025
145.05
145.077
145.105
145.135
145.167
145.2
145.235
145.272
145.311
145.351
145.394
145.438
145.484
145.533
145.583
145.636
145.692
145.75
145.811
145.876
145.943
146.014
146.088
146.166
146.248
146.333
146.423
146.516
146.614
146.716
146.822
146.932
147.047
147.167
147.292
147.424
147.563
147.709
147.863
148.026
148.197
148.378
148.568
148.769
148.98
149.201
149.434
149.679
149.936
150.205
150.485
150.775
151.075
151.382
151.698
152.021
152.355
152.702
153.067
153.452
153.858
154.289
154.746
155.231
155.743
156.284
156.853
157.451
158.076
158.726
159.402
160.1
160.816
161.547
162.291
163.052
163.833
164.638
165.463
166.329
167.191
168.304
168.082
335.388
335.298
335.211
335.122
335.028
334.928
334.828
334.738
334.668
334.619
334.587
334.565
334.545
334.521
289.501
289.3
289.132
288.989
288.872
288.795
288.75
288.747
288.767
288.828
288.947
289.129
289.326
289.548
289.822
290.171
290.629
291.05
291.431
291.811
292.184
292.498
292.607
292.541
292.189
291.289
289.556
286.646
282.147
275.573
266.388
254.196
239.304
222.76
206.316
192.24
181.323
172.52
165.412
159.939
155.88
152.852
150.609
148.992
147.842
147.012
146.404
145.958
145.632
145.394
145.219
145.091
145
144.935
144.888
144.854
144.83
144.814
144.804
144.798
144.796
144.797
144.8
144.805
144.812
144.821
144.831
144.843
144.856
144.87
144.885
144.901
144.918
144.935
144.954
144.973
144.992
145.013
145.034
145.055
145.077
145.1
145.124
145.148
145.173
145.198
145.225
145.252
145.281
145.31
145.34
145.372
145.404
145.438
145.473
145.51
145.547
145.586
145.627
145.669
145.712
145.758
145.806
145.856
145.909
145.964
146.022
146.084
146.15
146.219
146.293
146.371
146.454
146.542
146.635
146.734
146.838
146.948
147.063
147.184
147.311
147.444
147.582
147.726
147.877
148.035
148.2
148.374
148.556
148.747
148.949
149.162
149.386
149.621
149.87
150.13
150.404
150.691
150.991
151.303
151.627
151.964
152.311
152.672
153.045
153.432
153.835
154.255
154.693
155.152
155.634
156.141
156.678
157.244
157.843
158.476
159.144
159.846
160.582
161.348
162.14
162.95
163.774
164.613
165.47
166.351
167.262
168.207
169.189
170.207
171.256
172.335
173.442
174.585
175.77
177.008
178.311
179.692
181.163
182.731
184.396
186.152
187.979
189.818
191.613
193.348
194.987
196.548
197.988
199.374
200.656
202.194
202.405
337.794
337.732
337.685
337.647
337.612
337.575
337.534
337.492
337.456
337.43
337.419
337.422
337.431
291.358
291.1
290.87
290.668
290.496
290.354
290.242
290.167
290.141
290.151
290.205
290.306
290.451
290.639
290.872
291.166
291.512
291.881
292.284
292.739
293.264
293.868
294.41
294.917
295.461
296.023
296.508
296.721
296.671
296.254
295.079
292.739
288.756
282.554
273.536
261.232
245.802
228.416
210.963
195.771
184.21
175.124
167.807
162.094
157.817
154.602
152.157
150.331
149.005
148.045
147.337
146.812
146.425
146.144
145.939
145.789
145.68
145.603
145.55
145.517
145.499
145.494
145.496
145.504
145.519
145.541
145.568
145.6
145.636
145.675
145.717
145.763
145.811
145.862
145.916
145.971
146.028
146.087
146.148
146.21
146.274
146.339
146.407
146.476
146.547
146.621
146.696
146.774
146.855
146.939
147.026
147.116
147.209
147.306
147.407
147.511
147.62
147.732
147.848
147.969
148.094
148.225
148.361
148.503
148.651
148.808
148.972
149.145
149.328
149.522
149.728
149.946
150.177
150.424
150.686
150.964
151.259
151.571
151.901
152.247
152.609
152.985
153.375
153.779
154.198
154.632
155.083
155.551
156.039
156.548
157.08
157.637
158.22
158.832
159.474
160.149
160.858
161.601
162.378
163.189
164.033
164.904
165.797
166.709
167.641
168.595
169.573
170.58
171.618
172.692
173.805
174.959
176.154
177.391
178.669
179.99
181.36
182.787
184.282
185.857
187.521
189.277
191.08
192.88
194.645
196.336
197.921
199.387
200.746
202.023
203.251
204.456
205.668
206.904
208.169
209.443
210.719
211.981
213.152
214.152
214.945
215.549
216
216.337
216.607
216.844
217.091
217.374
217.747
218.194
218.767
219.53
219.836
340.446
340.412
340.394
340.392
340.397
340.408
340.42
340.431
340.443
340.456
340.476
340.503
340.538
292.596
292.328
292.086
291.868
291.675
291.513
291.39
291.307
291.274
291.281
291.32
291.405
291.539
291.714
291.929
292.183
292.481
292.83
293.248
293.73
294.241
294.78
295.368
296.03
296.774
297.434
298.067
298.755
299.456
300.006
300.145
299.934
298.996
296.811
292.907
286.801
277.927
265.848
250.752
233.8
216.675
201.276
189.199
179.913
172.347
166.208
161.433
157.836
155.09
152.977
151.392
150.236
149.402
148.792
148.337
148.002
147.76
147.593
147.484
147.421
147.397
147.399
147.418
147.458
147.518
147.594
147.684
147.785
147.896
148.017
148.146
148.283
148.427
148.578
148.734
148.896
149.062
149.232
149.408
149.587
149.771
149.96
150.154
150.353
150.558
150.77
150.988
151.214
151.449
151.693
151.948
152.213
152.489
152.777
153.076
153.386
153.706
154.036
154.376
154.727
155.09
155.465
155.855
156.26
156.681
157.122
157.582
158.066
158.573
159.108
159.672
160.268
160.898
161.565
162.27
163.015
163.8
164.625
165.489
166.387
167.312
168.26
169.231
170.225
171.241
172.281
173.346
174.439
175.563
176.72
177.916
179.153
180.435
181.765
183.143
184.571
186.048
187.575
189.149
190.77
192.416
194.05
195.664
197.252
198.805
200.31
201.755
203.129
204.429
205.653
206.812
207.921
208.995
210.05
211.098
212.141
213.166
214.154
215.066
215.828
216.403
216.81
217.096
217.31
217.503
217.723
218.029
218.463
219.019
219.645
220.28
220.842
221.258
221.5
221.587
221.528
221.385
221.225
221.138
221.11
221.097
221.141
221.282
221.505
221.804
222.153
222.538
222.89
223.172
223.385
223.359
343.294
343.311
343.342
343.383
343.432
343.487
343.545
343.603
343.661
343.72
343.781
343.845
294.21
293.869
293.547
293.245
292.964
292.708
292.482
292.287
292.13
292.01
291.917
291.866
291.867
291.899
291.977
292.115
292.31
292.557
292.855
293.203
293.606
294.063
294.581
295.151
295.75
296.368
297.022
297.732
298.482
299.207
299.829
300.504
301.265
301.886
302.078
301.893
300.967
298.792
295.012
289.324
281.418
270.919
257.721
242.559
226.659
211.405
198.213
188.036
180.061
173.491
168.159
164.014
160.908
158.582
156.791
155.409
154.368
153.609
153.076
152.72
152.502
152.393
152.37
152.399
152.487
152.631
152.821
153.05
153.311
153.603
153.921
154.264
154.629
155.014
155.415
155.829
156.254
156.688
157.132
157.584
158.045
158.514
158.992
159.479
159.977
160.486
161.007
161.543
162.095
162.664
163.253
163.862
164.493
165.149
165.829
166.535
167.266
168.018
168.787
169.573
170.377
171.2
172.043
172.908
173.797
174.71
175.65
176.619
177.62
178.656
179.73
180.846
182.008
183.219
184.483
185.804
187.184
188.623
190.121
191.676
193.256
194.827
196.377
197.9
199.393
200.851
202.268
203.641
204.963
206.23
207.434
208.573
209.643
210.646
211.585
212.464
213.289
214.064
214.792
215.469
216.097
216.676
217.198
217.656
218.053
218.395
218.699
218.984
219.269
219.57
219.897
220.248
220.607
220.957
221.268
221.498
221.635
221.693
221.673
221.613
221.555
221.499
221.482
221.545
221.737
222.033
222.39
222.746
223.016
223.152
223.167
223.087
222.929
222.768
222.633
222.536
222.447
222.396
222.412
222.496
222.636
222.822
223.043
223.271
223.483
223.659
223.798
223.889
223.947
223.951
223.807
346.345
346.406
346.475
346.553
346.639
346.731
346.828
346.927
347.025
347.123
295.593
295.17
294.76
294.364
293.985
293.625
293.286
292.967
292.673
292.411
292.184
291.994
291.849
291.756
291.718
291.723
291.761
291.846
291.985
292.177
292.422
292.722
293.071
293.464
293.901
294.387
294.929
295.525
296.158
296.835
297.57
298.335
299.119
299.847
300.428
300.89
301.346
301.749
301.857
301.685
300.92
299.16
296.136
291.639
285.461
277.359
267.068
254.592
240.781
226.74
213.541
202.144
193.16
186.468
181.128
176.748
173.226
170.48
168.4
166.872
165.793
165.072
164.639
164.428
164.406
164.506
164.758
165.13
165.6
166.154
166.779
167.465
168.207
168.998
169.829
170.69
171.573
172.473
173.386
174.311
175.246
176.189
177.14
178.097
179.06
180.03
181.007
181.993
182.993
184.011
185.052
186.119
187.215
188.342
189.502
190.7
191.94
193.209
194.48
195.744
197.001
198.249
199.485
200.709
201.917
203.107
204.276
205.421
206.54
207.628
208.682
209.699
210.677
211.613
212.504
213.347
214.14
214.881
215.569
216.205
216.797
217.353
217.875
218.362
218.816
219.234
219.616
219.961
220.27
220.546
220.793
221.02
221.232
221.436
221.636
221.829
222.013
222.179
222.322
222.437
222.522
222.582
222.624
222.657
222.69
222.737
222.806
222.902
223.021
223.153
223.283
223.388
223.45
223.463
223.437
223.372
223.283
223.194
223.108
223.023
222.992
223.021
223.137
223.332
223.554
223.743
223.866
223.908
223.87
223.751
223.595
223.441
223.295
223.173
223.089
223.047
223.053
223.115
223.235
223.39
223.561
223.734
223.898
224.043
224.158
224.227
224.241
224.196
224.065
223.897
223.648
349.655
349.766
349.883
350.006
350.133
350.264
350.397
350.531
350.663
296.107
295.603
295.105
294.617
294.143
293.687
293.25
292.834
292.445
292.098
291.791
291.516
291.274
291.072
290.905
290.773
290.679
290.649
290.662
290.716
290.821
290.975
291.177
291.432
291.745
292.109
292.517
292.984
293.513
294.103
294.733
295.388
296.05
296.724
297.435
298.126
298.652
299.086
299.368
299.453
299.542
299.683
299.649
299.28
298.244
296.236
293.037
288.516
282.59
275.239
266.503
256.611
246.183
235.909
226.272
217.62
210.193
204.085
199.251
195.555
192.827
190.873
189.501
188.618
188.118
187.999
188.123
188.504
189.106
189.872
190.774
191.795
192.924
194.148
195.431
196.739
198.054
199.365
200.664
201.944
203.197
204.42
205.611
206.767
207.888
208.975
210.024
211.031
211.989
212.892
213.737
214.525
215.263
215.957
216.61
217.224
217.802
218.352
218.871
219.359
219.817
220.245
220.643
221.012
221.352
221.664
221.947
222.204
222.437
222.647
222.839
223.012
223.17
223.313
223.444
223.565
223.678
223.784
223.882
223.971
224.052
224.122
224.182
224.232
224.271
224.302
224.326
224.348
224.37
224.397
224.429
224.466
224.504
224.541
224.568
224.581
224.579
224.564
224.536
224.501
224.466
224.436
224.421
224.422
224.442
224.479
224.522
224.558
224.577
224.577
224.551
224.491
224.404
224.3
224.188
224.09
224.018
223.966
223.957
223.994
224.088
224.217
224.342
224.436
224.487
224.478
224.406
224.284
224.138
223.984
223.846
223.746
223.695
223.69
223.732
223.835
223.979
224.139
224.296
224.436
224.548
224.625
224.664
224.664
224.618
224.51
224.365
224.205
224.053
223.848
353.039
353.19
296.579
295.985
295.396
294.811
294.233
293.673
293.139
292.627
292.133
291.657
291.208
290.783
290.383
290.011
289.672
289.368
289.103
288.887
288.715
288.583
288.493
288.47
288.488
288.556
288.683
288.862
289.093
289.378
289.721
290.123
290.575
291.065
291.589
292.148
292.737
293.311
293.832
294.279
294.669
295.096
295.55
295.931
296.214
296.293
296.235
296.091
295.991
295.676
294.862
293.353
291.027
287.864
283.918
279.26
273.97
268.153
262.037
255.814
249.665
243.78
238.335
233.482
229.344
225.953
223.275
221.252
219.823
218.818
218.193
217.9
217.849
217.943
218.184
218.515
218.904
219.333
219.781
220.237
220.691
221.138
221.576
222
222.409
222.8
223.166
223.502
223.804
224.076
224.324
224.561
224.793
225.024
225.247
225.458
225.648
225.816
225.961
226.084
226.188
226.276
226.347
226.402
226.443
226.47
226.484
226.487
226.485
226.479
226.467
226.451
226.432
226.411
226.389
226.365
226.341
226.316
226.291
226.264
226.234
226.202
226.166
226.129
226.09
226.051
226.014
225.98
225.952
225.931
225.917
225.909
225.904
225.898
225.889
225.871
225.843
225.804
225.758
225.708
225.659
225.615
225.579
225.555
225.546
225.547
225.551
225.557
225.56
225.55
225.517
225.463
225.387
225.295
225.192
225.091
225.004
224.947
224.927
224.934
224.978
225.063
225.167
225.257
225.308
225.314
225.267
225.156
225.005
224.847
224.709
224.605
224.543
224.528
224.551
224.623
224.737
224.87
224.993
225.087
225.148
225.175
225.174
225.146
225.086
224.993
224.872
224.74
224.612
224.497
224.415
224.358
296.599
295.927
295.262
294.601
293.945
293.293
292.648
292.02
291.406
290.803
290.212
289.64
289.091
288.568
288.076
287.618
287.198
286.819
286.483
286.187
285.938
285.745
285.603
285.51
285.487
285.506
285.575
285.703
285.888
286.128
286.419
286.756
287.134
287.548
287.984
288.412
288.794
289.124
289.448
289.807
290.172
290.5
290.793
291.101
291.474
291.853
292.075
292.125
291.905
291.378
290.712
290.008
289.023
287.654
285.894
283.776
281.314
278.48
275.273
271.741
267.924
263.879
259.694
255.489
251.395
247.548
244.047
240.941
238.256
235.982
234.084
232.523
231.261
230.253
229.458
228.853
228.387
228.04
227.801
227.646
227.553
227.508
227.496
227.504
227.529
227.567
227.615
227.677
227.753
227.838
227.921
227.988
228.035
228.066
228.09
228.108
228.121
228.127
228.127
228.12
228.104
228.08
228.05
228.015
227.977
227.936
227.893
227.849
227.804
227.757
227.708
227.658
227.607
227.555
227.503
227.452
227.401
227.346
227.292
227.239
227.186
227.135
227.088
227.046
227.01
226.981
226.958
226.941
226.927
226.916
226.905
226.889
226.866
226.835
226.797
226.754
226.711
226.673
226.642
226.619
226.607
226.604
226.604
226.606
226.605
226.595
226.57
226.526
226.462
226.384
226.297
226.21
226.131
226.071
226.039
226.034
226.053
226.099
226.162
226.225
226.266
226.275
226.248
226.169
226.048
225.904
225.761
225.646
225.572
225.542
225.546
225.586
225.657
225.746
225.835
225.908
225.952
225.972
225.97
225.941
225.882
225.793
225.68
225.546
225.405
225.281
225.191
225.145
225.141
225.168
296.242
295.487
294.732
293.982
293.235
292.489
291.746
291.006
290.275
289.554
288.845
288.154
287.485
286.843
286.231
285.653
285.112
284.61
284.149
283.733
283.366
283.052
282.792
282.585
282.434
282.336
282.31
282.328
282.394
282.519
282.701
282.933
283.204
283.505
283.816
284.105
284.356
284.583
284.811
285.044
285.267
285.483
285.725
286.025
286.396
286.794
287.132
287.332
287.439
287.478
287.461
287.258
286.787
286.177
285.51
284.846
284.072
283.136
282.03
280.716
279.145
277.292
275.121
272.613
269.777
266.651
263.293
259.786
256.227
252.717
249.351
246.211
243.354
240.813
238.598
236.698
235.09
233.747
232.639
231.735
231.004
230.421
229.962
229.607
229.341
229.151
229.016
228.926
228.867
228.829
228.805
228.79
228.784
228.785
228.79
228.793
228.792
228.783
228.768
228.747
228.722
228.694
228.663
228.629
228.593
228.556
228.518
228.479
228.437
228.394
228.351
228.308
228.264
228.217
228.171
228.126
228.081
228.036
227.992
227.95
227.912
227.877
227.848