/*--------------------------------*- C++ -*----------------------------------*\
| =========                 |                                                 |
| \\      /  F ield         | OpenFOAM: The Open Source CFD Toolbox           |
|  \\    /   O peration     | Version:  v1706                                 |
|   \\  /    A nd           | Web:      www.OpenFOAM.com                      |
|    \\/     M anipulation  |                                                 |
\*---------------------------------------------------------------------------*/
FoamFile
{
    version     2.0;
    format      ascii;
    class       volScalarField;
    location    "3.6e-05";
    object      wallHeatFlux;
}
// * * * * * * * * * * * * * * * * * * * * * * * * * * * * * * * * * * * * * //

dimensions      [1 0 -3 0 0 0 0];


internalField   uniform 0;

boundaryField
{
    cone
    {
        type            calculated;
        value           nonuniform List<scalar> 
147
(
24680.5
24676.8
24669.4
24662.7
24653.9
24643.4
24631
24616.4
24599.5
24580.5
24560.1
24538.7
24516.3
24492.4
24467
24440
24411.4
24381.2
24349.3
24315.9
24280.8
24244.1
24205.8
24165.9
24124.4
24081.3
24036.6
23990.3
23942.4
23892.9
23841.9
23789.4
23735.3
23679.6
23622.5
23563.8
23503.6
23441.9
23378.8
23314.1
23248
23180.5
23111.6
23041.2
22969.4
22896.2
22821.6
22745.7
22668.4
22589.8
22509.8
22428.6
22346
22262.2
22177.1
22090.7
22003.1
21914.3
21824.2
21733
21640.6
21547
21452.3
21356.5
21259.6
21161.5
21062.4
20962.3
20861
20758.8
20655.6
20551.4
20446.2
20340
20232.9
20125
20016.1
19906.3
19795.7
19684.2
19571.9
19458.9
19345
19230.4
19115
18998.9
18882.1
18764.6
18646.4
18527.6
18408.2
18288.1
18167.5
18046.3
17924.5
17802.3
17679.5
17556.2
17432.4
17308.2
17183.5
17058.5
16933
16807.2
16681
16554.5
16427.6
16300.5
16173.1
16045.4
15917.5
15789.4
15661.1
15532.5
15403.9
15275.1
15146.2
15017.2
14888.1
14758.9
14629.7
14500.4
14371.2
14242
14112.8
13983.6
13854.5
13725.6
13596.7
13467.9
13339.3
13210.8
13082.6
12954.5
12826.7
12699
12571.7
12444.6
12317.9
12191.6
12065.7
11940.4
11815.8
11691.6
11567.7
11443.7
24707.9
)
;
    }
    inlet
    {
        type            calculated;
        value           uniform 0;
    }
    rWedge
    {
        type            wedge;
    }
    lWedge
    {
        type            wedge;
    }
    outlet
    {
        type            calculated;
        value           nonuniform 0();
    }
    procBoundary3to2
    {
        type            processor;
        value           uniform 0;
    }
}


// ************************************************************************* //
