/*--------------------------------*- C++ -*----------------------------------*\
| =========                 |                                                 |
| \\      /  F ield         | OpenFOAM: The Open Source CFD Toolbox           |
|  \\    /   O peration     | Version:  v1706                                 |
|   \\  /    A nd           | Web:      www.OpenFOAM.com                      |
|    \\/     M anipulation  |                                                 |
\*---------------------------------------------------------------------------*/
FoamFile
{
    version     2.0;
    format      ascii;
    class       volScalarField;
    location    "3.3e-05";
    object      alpha;
}
// * * * * * * * * * * * * * * * * * * * * * * * * * * * * * * * * * * * * * //

dimensions      [1 -1 -1 0 0 0 0];


internalField   nonuniform List<scalar> 
29871
(
1.40478e-05
1.40478e-05
1.40478e-05
1.40478e-05
1.40478e-05
1.40478e-05
1.40478e-05
1.40478e-05
1.40478e-05
1.40478e-05
1.40478e-05
1.40478e-05
1.40478e-05
1.40478e-05
1.40478e-05
1.40478e-05
1.40478e-05
1.40478e-05
1.40478e-05
1.40478e-05
1.40478e-05
1.40478e-05
1.40478e-05
1.40478e-05
1.40478e-05
1.40478e-05
1.40478e-05
1.40478e-05
1.40478e-05
1.40478e-05
1.40478e-05
1.40478e-05
1.40478e-05
1.40478e-05
1.40478e-05
1.40478e-05
1.40478e-05
1.40478e-05
1.40478e-05
1.40478e-05
1.40478e-05
1.40478e-05
1.40478e-05
1.40478e-05
1.40478e-05
1.40478e-05
1.40478e-05
1.40478e-05
1.40478e-05
1.40478e-05
1.40478e-05
1.40478e-05
1.40478e-05
1.40478e-05
1.40478e-05
1.40478e-05
1.40478e-05
1.40478e-05
1.40478e-05
1.40478e-05
1.40478e-05
1.40478e-05
1.40478e-05
1.40478e-05
1.40478e-05
1.40478e-05
1.40478e-05
1.40478e-05
1.40478e-05
1.40478e-05
1.40478e-05
1.40478e-05
1.40478e-05
1.40478e-05
1.40478e-05
1.40478e-05
1.40478e-05
1.40478e-05
1.40478e-05
1.40478e-05
1.40478e-05
1.40478e-05
1.40478e-05
1.40478e-05
1.40478e-05
1.40478e-05
1.40478e-05
1.40478e-05
1.40478e-05
1.40478e-05
1.40478e-05
1.40478e-05
1.40478e-05
1.40478e-05
1.40478e-05
1.40478e-05
1.40478e-05
1.40478e-05
1.40478e-05
1.40478e-05
1.40478e-05
1.40478e-05
1.40478e-05
1.40478e-05
1.40478e-05
1.40478e-05
1.40478e-05
1.40478e-05
1.40478e-05
1.40478e-05
1.40478e-05
1.40478e-05
1.40478e-05
1.40478e-05
1.40478e-05
1.40478e-05
1.40478e-05
1.40478e-05
1.40478e-05
1.40478e-05
1.40478e-05
1.40478e-05
1.40478e-05
1.40478e-05
1.40478e-05
1.40478e-05
1.40478e-05
1.40478e-05
1.40478e-05
1.40478e-05
1.40478e-05
1.40478e-05
1.40478e-05
1.40478e-05
1.40478e-05
1.40478e-05
1.40478e-05
1.40478e-05
1.40478e-05
1.40478e-05
1.40478e-05
1.40478e-05
1.40478e-05
1.40478e-05
1.40478e-05
1.40478e-05
1.40478e-05
1.40478e-05
1.40478e-05
1.40478e-05
1.40478e-05
1.40478e-05
1.40478e-05
1.40478e-05
1.40478e-05
1.40478e-05
1.40478e-05
1.40478e-05
1.40478e-05
1.40478e-05
1.40478e-05
1.40478e-05
1.40478e-05
1.40478e-05
1.40478e-05
1.40478e-05
1.40478e-05
1.40478e-05
1.40478e-05
1.40478e-05
1.40478e-05
1.40478e-05
1.40478e-05
1.40478e-05
1.40478e-05
1.40478e-05
1.40478e-05
1.40478e-05
1.40478e-05
1.40478e-05
1.40478e-05
1.40478e-05
1.40478e-05
1.40478e-05
1.40478e-05
1.40478e-05
1.40478e-05
1.40478e-05
1.40478e-05
1.40478e-05
1.40478e-05
1.40478e-05
1.40478e-05
1.40478e-05
1.40478e-05
1.40478e-05
1.40478e-05
1.40478e-05
1.40478e-05
1.40478e-05
1.40478e-05
1.40478e-05
1.40478e-05
1.40478e-05
1.40478e-05
1.40478e-05
1.40478e-05
1.40478e-05
1.40478e-05
1.40478e-05
1.40478e-05
1.40478e-05
1.40478e-05
1.40478e-05
1.40478e-05
1.40478e-05
1.40478e-05
1.40478e-05
1.40478e-05
1.40478e-05
1.40478e-05
1.40478e-05
1.40478e-05
1.40478e-05
1.40478e-05
1.40478e-05
1.40478e-05
1.40478e-05
1.40478e-05
1.40478e-05
1.40478e-05
1.40478e-05
1.40478e-05
1.40478e-05
1.40478e-05
1.40478e-05
1.40478e-05
1.40478e-05
1.40478e-05
1.40478e-05
1.40478e-05
1.40478e-05
1.40478e-05
1.40478e-05
1.40478e-05
1.40478e-05
1.40478e-05
1.40478e-05
1.40478e-05
1.40478e-05
1.40478e-05
1.40478e-05
1.40478e-05
1.40478e-05
1.40478e-05
1.40478e-05
1.40478e-05
1.40478e-05
1.40478e-05
1.40478e-05
1.40478e-05
1.40478e-05
1.40478e-05
1.40478e-05
1.40478e-05
1.40478e-05
1.40478e-05
1.40478e-05
1.40478e-05
1.40478e-05
1.40478e-05
1.40478e-05
1.40478e-05
1.40478e-05
1.40478e-05
1.40478e-05
1.40478e-05
1.40478e-05
1.40478e-05
1.40478e-05
1.40478e-05
1.40478e-05
1.40478e-05
1.40478e-05
1.40478e-05
1.40478e-05
1.40478e-05
1.40478e-05
1.40478e-05
1.40478e-05
1.40478e-05
1.40478e-05
1.40478e-05
1.40478e-05
1.40478e-05
1.40478e-05
1.40478e-05
1.40478e-05
1.40478e-05
1.40478e-05
1.40478e-05
1.40478e-05
1.40478e-05
1.40478e-05
1.40478e-05
1.40478e-05
1.40478e-05
1.40478e-05
1.40478e-05
1.40478e-05
1.40478e-05
1.40478e-05
1.40478e-05
1.40478e-05
1.40478e-05
1.40478e-05
1.40478e-05
1.40478e-05
1.40478e-05
1.40478e-05
1.40478e-05
1.40478e-05
1.40478e-05
1.40478e-05
1.40478e-05
1.40478e-05
1.40478e-05
1.40478e-05
1.40478e-05
1.40478e-05
1.40478e-05
1.40478e-05
1.40478e-05
1.40478e-05
1.40478e-05
1.40478e-05
1.40478e-05
1.40478e-05
1.40478e-05
1.40478e-05
1.40478e-05
1.40478e-05
1.40478e-05
1.40478e-05
1.40478e-05
1.40478e-05
1.40478e-05
1.40478e-05
1.40478e-05
1.40478e-05
1.40478e-05
1.40478e-05
1.40478e-05
1.40478e-05
1.40478e-05
1.40478e-05
1.40478e-05
1.40478e-05
1.40478e-05
1.40478e-05
1.40478e-05
1.40478e-05
1.40478e-05
1.40478e-05
1.40478e-05
1.40478e-05
1.40478e-05
1.40478e-05
1.40478e-05
1.40478e-05
1.40478e-05
1.40478e-05
1.40478e-05
1.40478e-05
1.40478e-05
1.40478e-05
1.40478e-05
1.40478e-05
1.40478e-05
1.40478e-05
1.40478e-05
1.40478e-05
1.40478e-05
1.40478e-05
1.40478e-05
1.40478e-05
1.40478e-05
1.40478e-05
1.40478e-05
1.40478e-05
1.40478e-05
1.40478e-05
1.40478e-05
1.40478e-05
1.40478e-05
1.40478e-05
1.40478e-05
1.40478e-05
1.40478e-05
1.40478e-05
1.40478e-05
1.40478e-05
1.40478e-05
1.40478e-05
1.40478e-05
1.40478e-05
1.40478e-05
1.40478e-05
1.40478e-05
1.40478e-05
1.40478e-05
1.40478e-05
1.40478e-05
1.40478e-05
1.40478e-05
1.40478e-05
1.40478e-05
1.40478e-05
1.40478e-05
1.40478e-05
1.40478e-05
1.40478e-05
1.40478e-05
1.40478e-05
1.40478e-05
1.40478e-05
1.40478e-05
1.40478e-05
1.40478e-05
1.40478e-05
1.40478e-05
1.40478e-05
1.40478e-05
1.40478e-05
1.40478e-05
1.40478e-05
1.40478e-05
1.40478e-05
1.40478e-05
1.40478e-05
1.40478e-05
1.40478e-05
1.40478e-05
1.40478e-05
1.40478e-05
1.40478e-05
1.40478e-05
1.40478e-05
1.40478e-05
1.40478e-05
1.40478e-05
1.40478e-05
1.40478e-05
1.40478e-05
1.40478e-05
1.40478e-05
1.40478e-05
1.40478e-05
1.40478e-05
1.40478e-05
1.40478e-05
1.40478e-05
1.40478e-05
1.40478e-05
1.40478e-05
1.40478e-05
1.40478e-05
1.40478e-05
1.40478e-05
1.40478e-05
1.40478e-05
1.40478e-05
1.40478e-05
1.40478e-05
1.40478e-05
1.40478e-05
1.40478e-05
1.40478e-05
1.40478e-05
1.40478e-05
1.40478e-05
1.40478e-05
1.40478e-05
1.40478e-05
1.40478e-05
1.40478e-05
1.40478e-05
1.40478e-05
1.40478e-05
1.40478e-05
1.40478e-05
1.40478e-05
1.40478e-05
1.40478e-05
1.40478e-05
1.40478e-05
1.40478e-05
1.40478e-05
1.40478e-05
1.40478e-05
1.40478e-05
1.40478e-05
1.40478e-05
1.40478e-05
1.40478e-05
1.40478e-05
1.40478e-05
1.40478e-05
1.40478e-05
1.40478e-05
1.40478e-05
1.40478e-05
1.40478e-05
1.40478e-05
1.40478e-05
1.40478e-05
1.40478e-05
1.40478e-05
1.40478e-05
1.40478e-05
1.40478e-05
1.40478e-05
1.40478e-05
1.40478e-05
1.40478e-05
1.40478e-05
1.40478e-05
1.40478e-05
1.40478e-05
1.40478e-05
1.40478e-05
1.40478e-05
1.40478e-05
1.40478e-05
1.40478e-05
1.40478e-05
1.40478e-05
1.40478e-05
1.40478e-05
1.40478e-05
1.40478e-05
1.40478e-05
1.40478e-05
1.40478e-05
1.40478e-05
1.40478e-05
1.40478e-05
1.40478e-05
1.40478e-05
1.40478e-05
1.40478e-05
1.40478e-05
1.40478e-05
1.40478e-05
1.40478e-05
1.40478e-05
1.40478e-05
1.40478e-05
1.40478e-05
1.40478e-05
1.40478e-05
1.40478e-05
1.40478e-05
1.40478e-05
1.40478e-05
1.40478e-05
1.40478e-05
1.40478e-05
1.40478e-05
1.40478e-05
1.40478e-05
1.40478e-05
1.40478e-05
1.40478e-05
1.40478e-05
1.40478e-05
1.40478e-05
1.40478e-05
1.40478e-05
1.40478e-05
1.40478e-05
1.40478e-05
1.40478e-05
1.40478e-05
1.40478e-05
1.40478e-05
1.40478e-05
1.40478e-05
1.40478e-05
1.40478e-05
1.40478e-05
1.40478e-05
1.40478e-05
1.40478e-05
1.40478e-05
1.40478e-05
1.40478e-05
1.40478e-05
1.40478e-05
1.40478e-05
1.40478e-05
1.40478e-05
1.40478e-05
1.40478e-05
1.40478e-05
1.40478e-05
1.40478e-05
1.40478e-05
1.40478e-05
1.40478e-05
1.40478e-05
1.40478e-05
1.40478e-05
1.40478e-05
1.40478e-05
1.40478e-05
1.40478e-05
1.40478e-05
1.40478e-05
1.40478e-05
1.40478e-05
1.40478e-05
1.40478e-05
1.40478e-05
1.40478e-05
1.40478e-05
1.40478e-05
1.40478e-05
1.40478e-05
1.40478e-05
1.40478e-05
1.40478e-05
1.40478e-05
1.40478e-05
1.40478e-05
1.40478e-05
1.40478e-05
1.40478e-05
1.40478e-05
1.40478e-05
1.40478e-05
1.40478e-05
1.40478e-05
1.40478e-05
1.40478e-05
1.40478e-05
1.40478e-05
1.40478e-05
1.40478e-05
1.40478e-05
1.40478e-05
1.40478e-05
1.40478e-05
1.40478e-05
1.40478e-05
1.40478e-05
1.40478e-05
1.40478e-05
1.40478e-05
1.40478e-05
1.40478e-05
1.40478e-05
1.40478e-05
1.40478e-05
1.40478e-05
1.40478e-05
1.40478e-05
1.40478e-05
1.40478e-05
1.40478e-05
1.40478e-05
1.40478e-05
1.40478e-05
1.40478e-05
1.40478e-05
1.40478e-05
1.40478e-05
1.40478e-05
1.40478e-05
1.40478e-05
1.40478e-05
1.40478e-05
1.40478e-05
1.40478e-05
1.40478e-05
1.40478e-05
1.40478e-05
1.40478e-05
1.40478e-05
1.40478e-05
1.40478e-05
1.40478e-05
1.40478e-05
1.40478e-05
1.40478e-05
1.40478e-05
1.40478e-05
1.40478e-05
1.40478e-05
1.40478e-05
1.40478e-05
1.40478e-05
1.40478e-05
1.40478e-05
1.40478e-05
1.40478e-05
1.40478e-05
1.40478e-05
1.40478e-05
1.40478e-05
1.40478e-05
1.40478e-05
1.40478e-05
1.40478e-05
1.40478e-05
1.40478e-05
1.40478e-05
1.40478e-05
1.40478e-05
1.40478e-05
1.40478e-05
1.40478e-05
1.40478e-05
1.40478e-05
1.40478e-05
1.40478e-05
1.40478e-05
1.40478e-05
1.40478e-05
1.40478e-05
1.40478e-05
1.40478e-05
1.40478e-05
1.40478e-05
1.40478e-05
1.40478e-05
1.40478e-05
1.40478e-05
1.40478e-05
1.40478e-05
1.40478e-05
1.40478e-05
1.40478e-05
1.40478e-05
1.40478e-05
1.40478e-05
1.40478e-05
1.40478e-05
1.40478e-05
1.40478e-05
1.40478e-05
1.40478e-05
1.40478e-05
1.40478e-05
1.40478e-05
1.40478e-05
1.40478e-05
1.40478e-05
1.40478e-05
1.40478e-05
1.40478e-05
1.40478e-05
1.40478e-05
1.40478e-05
1.40478e-05
1.40478e-05
1.40478e-05
1.40478e-05
1.40478e-05
1.40478e-05
1.40478e-05
1.40478e-05
1.40478e-05
1.40478e-05
1.40478e-05
1.40478e-05
1.40478e-05
1.40478e-05
1.40478e-05
1.40478e-05
1.40478e-05
1.40478e-05
1.40478e-05
1.40478e-05
1.40478e-05
1.40478e-05
1.40478e-05
1.40478e-05
1.40478e-05
1.40478e-05
1.40478e-05
1.40478e-05
1.40478e-05
1.40478e-05
1.40478e-05
1.40478e-05
1.40478e-05
1.40478e-05
1.40478e-05
1.40478e-05
1.40478e-05
1.40478e-05
1.40478e-05
1.40478e-05
1.40478e-05
1.40478e-05
1.40478e-05
1.40478e-05
1.40478e-05
1.40478e-05
1.40478e-05
1.40478e-05
1.40478e-05
1.40478e-05
1.40478e-05
1.40478e-05
1.40478e-05
1.40478e-05
1.40478e-05
1.40478e-05
1.40478e-05
1.40478e-05
1.40478e-05
1.40478e-05
1.40478e-05
1.40478e-05
1.40478e-05
1.40478e-05
1.40478e-05
1.40478e-05
1.40478e-05
1.40478e-05
1.40478e-05
1.40478e-05
1.40478e-05
1.40478e-05
1.40478e-05
1.40478e-05
1.40478e-05
1.40478e-05
1.40478e-05
1.40478e-05
1.40478e-05
1.40478e-05
1.40478e-05
1.40478e-05
1.40478e-05
1.40478e-05
1.40478e-05
1.40478e-05
1.40478e-05
1.40478e-05
1.40478e-05
1.40478e-05
1.40478e-05
1.40478e-05
1.40478e-05
1.40478e-05
1.40478e-05
1.40478e-05
1.40478e-05
1.40478e-05
1.40478e-05
1.40478e-05
1.40478e-05
1.40478e-05
1.40478e-05
1.40478e-05
1.40478e-05
1.40478e-05
1.40478e-05
1.40478e-05
1.40478e-05
1.40478e-05
1.40478e-05
1.40478e-05
1.40478e-05
1.40478e-05
1.40478e-05
1.40478e-05
1.40478e-05
1.40478e-05
1.40478e-05
1.40478e-05
1.40478e-05
1.40478e-05
1.40478e-05
1.40478e-05
1.40478e-05
1.40478e-05
1.40478e-05
1.40478e-05
1.40478e-05
1.40478e-05
1.40478e-05
1.40478e-05
1.40478e-05
1.40478e-05
1.40478e-05
1.40478e-05
1.40478e-05
1.40478e-05
1.40478e-05
1.40478e-05
1.40478e-05
1.40478e-05
1.40478e-05
1.40478e-05
1.40478e-05
1.40478e-05
1.40478e-05
1.40478e-05
1.40478e-05
1.40478e-05
1.40478e-05
1.40478e-05
1.40478e-05
1.40478e-05
1.40478e-05
1.40478e-05
1.40478e-05
1.40478e-05
1.40478e-05
1.40478e-05
1.40478e-05
1.40478e-05
1.40478e-05
1.40478e-05
1.40478e-05
1.40478e-05
1.40478e-05
1.40478e-05
1.40478e-05
1.40478e-05
1.40478e-05
1.40478e-05
1.40478e-05
1.40478e-05
1.40478e-05
1.40478e-05
1.40478e-05
1.40478e-05
1.40478e-05
1.40478e-05
1.40478e-05
1.40478e-05
1.40478e-05
1.40478e-05
1.40478e-05
1.40478e-05
1.40478e-05
1.40478e-05
1.40478e-05
1.40478e-05
1.40478e-05
1.40478e-05
1.40478e-05
1.40478e-05
1.40478e-05
1.40478e-05
1.40478e-05
1.40478e-05
1.40478e-05
1.40478e-05
1.40478e-05
1.40478e-05
1.40478e-05
1.40478e-05
1.40478e-05
1.40478e-05
1.40478e-05
1.40478e-05
1.40478e-05
1.40478e-05
1.40478e-05
1.40478e-05
1.40478e-05
1.40478e-05
1.40478e-05
1.40478e-05
1.40478e-05
1.40478e-05
1.40478e-05
1.40478e-05
1.40478e-05
1.40478e-05
1.40478e-05
1.40478e-05
1.40478e-05
1.40478e-05
1.40478e-05
1.40478e-05
1.40478e-05
1.40478e-05
1.40478e-05
1.40478e-05
1.40478e-05
1.40478e-05
1.40478e-05
1.40478e-05
1.40478e-05
1.40478e-05
1.40478e-05
1.40478e-05
1.40478e-05
1.40478e-05
1.40478e-05
1.40478e-05
1.40478e-05
1.40478e-05
1.40478e-05
1.40478e-05
1.40478e-05
1.40478e-05
1.40478e-05
1.40478e-05
1.40478e-05
1.40478e-05
1.40478e-05
1.40478e-05
1.40478e-05
1.40478e-05
1.40478e-05
1.40478e-05
1.40478e-05
1.40478e-05
1.40478e-05
1.40478e-05
1.40478e-05
1.40478e-05
1.40478e-05
1.40478e-05
1.40478e-05
1.40478e-05
1.40478e-05
1.40478e-05
1.40478e-05
1.40478e-05
1.40478e-05
1.40478e-05
1.40478e-05
1.40478e-05
1.40478e-05
1.40478e-05
1.40478e-05
1.40478e-05
1.40478e-05
1.40478e-05
1.40478e-05
1.40478e-05
1.40478e-05
1.40478e-05
1.40478e-05
1.40478e-05
1.40478e-05
1.40478e-05
1.40478e-05
1.40478e-05
1.40478e-05
1.40478e-05
1.40478e-05
1.40478e-05
1.40478e-05
1.40478e-05
1.40478e-05
1.40478e-05
1.40478e-05
1.40478e-05
1.40478e-05
1.40478e-05
1.40478e-05
1.40478e-05
1.40478e-05
1.40478e-05
1.40478e-05
1.40478e-05
1.40478e-05
1.40478e-05
1.40478e-05
1.40478e-05
1.40478e-05
1.40478e-05
1.40478e-05
1.40478e-05
1.40478e-05
1.40478e-05
1.40478e-05
1.40478e-05
1.40478e-05
1.40478e-05
1.40478e-05
1.40478e-05
1.40478e-05
1.40478e-05
1.40478e-05
1.40478e-05
1.40478e-05
1.40478e-05
1.40478e-05
1.40478e-05
1.40478e-05
1.40478e-05
1.40478e-05
1.40478e-05
1.40478e-05
1.40478e-05
1.40478e-05
1.40478e-05
1.40478e-05
1.40478e-05
1.40478e-05
1.40478e-05
1.40478e-05
1.40478e-05
1.40478e-05
1.40478e-05
1.40478e-05
1.40478e-05
1.40478e-05
1.40478e-05
1.40478e-05
1.40478e-05
1.40478e-05
1.40478e-05
1.40478e-05
1.40478e-05
1.40478e-05
1.40478e-05
1.40478e-05
1.40478e-05
1.40478e-05
1.40478e-05
1.40478e-05
1.40478e-05
1.40478e-05
1.40478e-05
1.40478e-05
1.40478e-05
1.40478e-05
1.40478e-05
1.40478e-05
1.40478e-05
1.40478e-05
1.40478e-05
1.40478e-05
1.40478e-05
1.40478e-05
1.40478e-05
1.40478e-05
1.40478e-05
1.40478e-05
1.40478e-05
1.40478e-05
1.40478e-05
1.40478e-05
1.40478e-05
1.40478e-05
1.40478e-05
1.40478e-05
1.40478e-05
1.40478e-05
1.40478e-05
1.40478e-05
1.40478e-05
1.40478e-05
1.40478e-05
1.40478e-05
1.40478e-05
1.40478e-05
1.40478e-05
1.40478e-05
1.40478e-05
1.40478e-05
1.40478e-05
1.40478e-05
1.40478e-05
1.40478e-05
1.40478e-05
1.40478e-05
1.40479e-05
1.40479e-05
1.40479e-05
1.40479e-05
1.40479e-05
1.40479e-05
1.40479e-05
1.40478e-05
1.40478e-05
1.40478e-05
1.40478e-05
1.40478e-05
1.40478e-05
1.40478e-05
1.40478e-05
1.40478e-05
1.40478e-05
1.40478e-05
1.40478e-05
1.40478e-05
1.40478e-05
1.40478e-05
1.40478e-05
1.40478e-05
1.40478e-05
1.40478e-05
1.40478e-05
1.40478e-05
1.40478e-05
1.40478e-05
1.40478e-05
1.40478e-05
1.40478e-05
1.40478e-05
1.40478e-05
1.40478e-05
1.40478e-05
1.40478e-05
1.40478e-05
1.40478e-05
1.40478e-05
1.40478e-05
1.40478e-05
1.40478e-05
1.40478e-05
1.40478e-05
1.40478e-05
1.40478e-05
1.40478e-05
1.40478e-05
1.40478e-05
1.40478e-05
1.40478e-05
1.40478e-05
1.40478e-05
1.40478e-05
1.40478e-05
1.40478e-05
1.40478e-05
1.40478e-05
1.40478e-05
1.40478e-05
1.40478e-05
1.40478e-05
1.40478e-05
1.40478e-05
1.40478e-05
1.40478e-05
1.40478e-05
1.40478e-05
1.40478e-05
1.40478e-05
1.40478e-05
1.40478e-05
1.40478e-05
1.40478e-05
1.40478e-05
1.40478e-05
1.40478e-05
1.40478e-05
1.40478e-05
1.40478e-05
1.40478e-05
1.40478e-05
1.40478e-05
1.40478e-05
1.40478e-05
1.40478e-05
1.40478e-05
1.40478e-05
1.40478e-05
1.40478e-05
1.40478e-05
1.40478e-05
1.40478e-05
1.40478e-05
1.40479e-05
1.40479e-05
1.40479e-05
1.40479e-05
1.40479e-05
1.40479e-05
1.40479e-05
1.40479e-05
1.40479e-05
1.4048e-05
1.4048e-05
1.4048e-05
1.4048e-05
1.40481e-05
1.40481e-05
1.40481e-05
1.40482e-05
1.40482e-05
1.40483e-05
1.40484e-05
1.40485e-05
1.40485e-05
1.40478e-05
1.40478e-05
1.40478e-05
1.40478e-05
1.40478e-05
1.40478e-05
1.40478e-05
1.40478e-05
1.40478e-05
1.40478e-05
1.40478e-05
1.40478e-05
1.40478e-05
1.40478e-05
1.40478e-05
1.40478e-05
1.40478e-05
1.40478e-05
1.40478e-05
1.40478e-05
1.40478e-05
1.40478e-05
1.40478e-05
1.40478e-05
1.40478e-05
1.40478e-05
1.40478e-05
1.40478e-05
1.40478e-05
1.40478e-05
1.40478e-05
1.40478e-05
1.40478e-05
1.40478e-05
1.40478e-05
1.40478e-05
1.40478e-05
1.40478e-05
1.40478e-05
1.40478e-05
1.40478e-05
1.40478e-05
1.40478e-05
1.40478e-05
1.40478e-05
1.40478e-05
1.40478e-05
1.40478e-05
1.40478e-05
1.40478e-05
1.40478e-05
1.40478e-05
1.40478e-05
1.40478e-05
1.40478e-05
1.40478e-05
1.40478e-05
1.40478e-05
1.40478e-05
1.40478e-05
1.40478e-05
1.40478e-05
1.40478e-05
1.40478e-05
1.40478e-05
1.40478e-05
1.40478e-05
1.40478e-05
1.40478e-05
1.40478e-05
1.40478e-05
1.40478e-05
1.40478e-05
1.40479e-05
1.40479e-05
1.40479e-05
1.40479e-05
1.40479e-05
1.40479e-05
1.40479e-05
1.40479e-05
1.40479e-05
1.40479e-05
1.4048e-05
1.4048e-05
1.4048e-05
1.4048e-05
1.40481e-05
1.40481e-05
1.40481e-05
1.40482e-05
1.40482e-05
1.40483e-05
1.40483e-05
1.40484e-05
1.40484e-05
1.40485e-05
1.40486e-05
1.40487e-05
1.40488e-05
1.4049e-05
1.40491e-05
1.40493e-05
1.40495e-05
1.40497e-05
1.40499e-05
1.40502e-05
1.40506e-05
1.40509e-05
1.40514e-05
1.40519e-05
1.40524e-05
1.4053e-05
1.40478e-05
1.40478e-05
1.40478e-05
1.40478e-05
1.40478e-05
1.40478e-05
1.40478e-05
1.40478e-05
1.40478e-05
1.40478e-05
1.40478e-05
1.40478e-05
1.40478e-05
1.40478e-05
1.40478e-05
1.40478e-05
1.40478e-05
1.40478e-05
1.40478e-05
1.40478e-05
1.40478e-05
1.40478e-05
1.40478e-05
1.40478e-05
1.40478e-05
1.40478e-05
1.40478e-05
1.40478e-05
1.40478e-05
1.40478e-05
1.40478e-05
1.40478e-05
1.40478e-05
1.40478e-05
1.40478e-05
1.40478e-05
1.40478e-05
1.40478e-05
1.40478e-05
1.40478e-05
1.40478e-05
1.40478e-05
1.40478e-05
1.40478e-05
1.40478e-05
1.40478e-05
1.40478e-05
1.40478e-05
1.40478e-05
1.40478e-05
1.40478e-05
1.40478e-05
1.40478e-05
1.40479e-05
1.40479e-05
1.40479e-05
1.40479e-05
1.40479e-05
1.40479e-05
1.40479e-05
1.40479e-05
1.40479e-05
1.40479e-05
1.40479e-05
1.40479e-05
1.40479e-05
1.4048e-05
1.4048e-05
1.4048e-05
1.4048e-05
1.4048e-05
1.40481e-05
1.40481e-05
1.40481e-05
1.40481e-05
1.40482e-05
1.40482e-05
1.40483e-05
1.40483e-05
1.40484e-05
1.40484e-05
1.40485e-05
1.40486e-05
1.40487e-05
1.40488e-05
1.40489e-05
1.4049e-05
1.40491e-05
1.40493e-05
1.40495e-05
1.40497e-05
1.40499e-05
1.40502e-05
1.40504e-05
1.40508e-05
1.40512e-05
1.40516e-05
1.40521e-05
1.40527e-05
1.40533e-05
1.4054e-05
1.40548e-05
1.40556e-05
1.40566e-05
1.40577e-05
1.4059e-05
1.40606e-05
1.40624e-05
1.40645e-05
1.40668e-05
1.40694e-05
1.40722e-05
1.40753e-05
1.40478e-05
1.40478e-05
1.40478e-05
1.40478e-05
1.40478e-05
1.40478e-05
1.40478e-05
1.40478e-05
1.40478e-05
1.40478e-05
1.40478e-05
1.40478e-05
1.40478e-05
1.40478e-05
1.40478e-05
1.40478e-05
1.40478e-05
1.40478e-05
1.40478e-05
1.40478e-05
1.40478e-05
1.40478e-05
1.40478e-05
1.40478e-05
1.40478e-05
1.40478e-05
1.40478e-05
1.40478e-05
1.40479e-05
1.40479e-05
1.40479e-05
1.40479e-05
1.40479e-05
1.40479e-05
1.40479e-05
1.40479e-05
1.40479e-05
1.40479e-05
1.40479e-05
1.40479e-05
1.40479e-05
1.40479e-05
1.40479e-05
1.40479e-05
1.40479e-05
1.40479e-05
1.4048e-05
1.4048e-05
1.4048e-05
1.4048e-05
1.4048e-05
1.4048e-05
1.4048e-05
1.40481e-05
1.40481e-05
1.40481e-05
1.40481e-05
1.40481e-05
1.40482e-05
1.40482e-05
1.40482e-05
1.40482e-05
1.40483e-05
1.40483e-05
1.40484e-05
1.40484e-05
1.40485e-05
1.40485e-05
1.40486e-05
1.40487e-05
1.40488e-05
1.40488e-05
1.40489e-05
1.40491e-05
1.40492e-05
1.40493e-05
1.40495e-05
1.40497e-05
1.40499e-05
1.40501e-05
1.40503e-05
1.40506e-05
1.40509e-05
1.40512e-05
1.40516e-05
1.40521e-05
1.40526e-05
1.40531e-05
1.40538e-05
1.40545e-05
1.40554e-05
1.40563e-05
1.40573e-05
1.40584e-05
1.40596e-05
1.40611e-05
1.40628e-05
1.40647e-05
1.4067e-05
1.40696e-05
1.40725e-05
1.40757e-05
1.40793e-05
1.40832e-05
1.40875e-05
1.40925e-05
1.40984e-05
1.41054e-05
1.41136e-05
1.41231e-05
1.4134e-05
1.41462e-05
1.41595e-05
1.41741e-05
1.41901e-05
1.40478e-05
1.40478e-05
1.40478e-05
1.40478e-05
1.40478e-05
1.40478e-05
1.40479e-05
1.40479e-05
1.40479e-05
1.40479e-05
1.40479e-05
1.40479e-05
1.40479e-05
1.40479e-05
1.40479e-05
1.40479e-05
1.40479e-05
1.40479e-05
1.40479e-05
1.40479e-05
1.4048e-05
1.4048e-05
1.4048e-05
1.4048e-05
1.4048e-05
1.4048e-05
1.4048e-05
1.4048e-05
1.40481e-05
1.40481e-05
1.40481e-05
1.40481e-05
1.40481e-05
1.40481e-05
1.40482e-05
1.40482e-05
1.40482e-05
1.40482e-05
1.40483e-05
1.40483e-05
1.40483e-05
1.40484e-05
1.40484e-05
1.40484e-05
1.40485e-05
1.40485e-05
1.40485e-05
1.40486e-05
1.40486e-05
1.40487e-05
1.40488e-05
1.40488e-05
1.40489e-05
1.4049e-05
1.40491e-05
1.40491e-05
1.40492e-05
1.40493e-05
1.40495e-05
1.40496e-05
1.40497e-05
1.40499e-05
1.40501e-05
1.40503e-05
1.40505e-05
1.40507e-05
1.4051e-05
1.40512e-05
1.40516e-05
1.40519e-05
1.40523e-05
1.40527e-05
1.40532e-05
1.40537e-05
1.40543e-05
1.4055e-05
1.40558e-05
1.40567e-05
1.40576e-05
1.40587e-05
1.40599e-05
1.40612e-05
1.40626e-05
1.40643e-05
1.40662e-05
1.40684e-05
1.40709e-05
1.40737e-05
1.4077e-05
1.40806e-05
1.40846e-05
1.4089e-05
1.40939e-05
1.40993e-05
1.41056e-05
1.41128e-05
1.41213e-05
1.41313e-05
1.41427e-05
1.41558e-05
1.41703e-05
1.41864e-05
1.4204e-05
1.42232e-05
1.42447e-05
1.42694e-05
1.42989e-05
1.43339e-05
1.43752e-05
1.44227e-05
1.44764e-05
1.45359e-05
1.46008e-05
1.46708e-05
1.47464e-05
1.48303e-05
1.40479e-05
1.40479e-05
1.40479e-05
1.40479e-05
1.40479e-05
1.40479e-05
1.4048e-05
1.4048e-05
1.4048e-05
1.4048e-05
1.4048e-05
1.4048e-05
1.40481e-05
1.40481e-05
1.40481e-05
1.40481e-05
1.40481e-05
1.40482e-05
1.40482e-05
1.40482e-05
1.40483e-05
1.40483e-05
1.40483e-05
1.40484e-05
1.40484e-05
1.40484e-05
1.40485e-05
1.40485e-05
1.40486e-05
1.40486e-05
1.40487e-05
1.40487e-05
1.40488e-05
1.40488e-05
1.40489e-05
1.40489e-05
1.4049e-05
1.40491e-05
1.40492e-05
1.40492e-05
1.40493e-05
1.40494e-05
1.40495e-05
1.40496e-05
1.40497e-05
1.40498e-05
1.405e-05
1.40501e-05
1.40502e-05
1.40504e-05
1.40505e-05
1.40507e-05
1.40509e-05
1.4051e-05
1.40513e-05
1.40515e-05
1.40517e-05
1.4052e-05
1.40523e-05
1.40526e-05
1.4053e-05
1.40533e-05
1.40537e-05
1.40542e-05
1.40546e-05
1.40552e-05
1.40557e-05
1.40564e-05
1.40571e-05
1.40579e-05
1.40588e-05
1.40598e-05
1.40609e-05
1.40621e-05
1.40634e-05
1.40649e-05
1.40665e-05
1.40682e-05
1.40702e-05
1.40724e-05
1.40749e-05
1.40778e-05
1.40811e-05
1.40848e-05
1.40889e-05
1.40935e-05
1.40985e-05
1.41041e-05
1.41102e-05
1.4117e-05
1.41248e-05
1.41339e-05
1.41444e-05
1.41565e-05
1.41704e-05
1.4186e-05
1.42034e-05
1.42226e-05
1.42436e-05
1.42666e-05
1.42922e-05
1.43218e-05
1.43564e-05
1.43973e-05
1.44448e-05
1.44993e-05
1.45606e-05
1.46285e-05
1.47026e-05
1.47827e-05
1.48694e-05
1.49655e-05
1.50773e-05
1.52114e-05
1.53711e-05
1.55563e-05
1.57651e-05
1.59948e-05
1.62418e-05
1.65032e-05
1.67767e-05
1.70631e-05
1.73718e-05
1.40482e-05
1.40482e-05
1.40483e-05
1.40483e-05
1.40484e-05
1.40484e-05
1.40485e-05
1.40485e-05
1.40486e-05
1.40487e-05
1.40487e-05
1.40488e-05
1.40489e-05
1.4049e-05
1.40491e-05
1.40492e-05
1.40493e-05
1.40494e-05
1.40495e-05
1.40496e-05
1.40497e-05
1.40499e-05
1.405e-05
1.40501e-05
1.40503e-05
1.40505e-05
1.40506e-05
1.40508e-05
1.4051e-05
1.40512e-05
1.40514e-05
1.40516e-05
1.40518e-05
1.40521e-05
1.40523e-05
1.40526e-05
1.40529e-05
1.40532e-05
1.40535e-05
1.40539e-05
1.40542e-05
1.40546e-05
1.4055e-05
1.40554e-05
1.40559e-05
1.40564e-05
1.40569e-05
1.40574e-05
1.4058e-05
1.40586e-05
1.40592e-05
1.406e-05
1.40607e-05
1.40616e-05
1.40625e-05
1.40636e-05
1.40647e-05
1.40659e-05
1.40672e-05
1.40686e-05
1.40701e-05
1.40717e-05
1.40735e-05
1.40754e-05
1.40775e-05
1.40798e-05
1.40824e-05
1.40853e-05
1.40886e-05
1.40922e-05
1.40963e-05
1.41008e-05
1.41057e-05
1.41111e-05
1.4117e-05
1.41234e-05
1.41305e-05
1.41383e-05
1.41473e-05
1.41575e-05
1.41692e-05
1.41826e-05
1.41979e-05
1.42149e-05
1.42339e-05
1.42548e-05
1.42777e-05
1.43027e-05
1.43302e-05
1.4361e-05
1.43966e-05
1.4438e-05
1.4486e-05
1.45413e-05
1.46038e-05
1.46737e-05
1.47506e-05
1.48344e-05
1.49251e-05
1.50233e-05
1.51324e-05
1.52586e-05
1.54078e-05
1.55827e-05
1.57834e-05
1.6008e-05
1.62539e-05
1.65182e-05
1.6798e-05
1.7091e-05
1.73983e-05
1.77294e-05
1.81119e-05
1.85634e-05
1.90811e-05
1.9652e-05
2.02615e-05
2.08953e-05
2.15409e-05
2.21888e-05
2.2833e-05
2.34738e-05
2.41264e-05
1.40495e-05
1.40496e-05
1.40498e-05
1.405e-05
1.40502e-05
1.40504e-05
1.40506e-05
1.40509e-05
1.40511e-05
1.40514e-05
1.40517e-05
1.4052e-05
1.40523e-05
1.40526e-05
1.4053e-05
1.40534e-05
1.40538e-05
1.40542e-05
1.40547e-05
1.40552e-05
1.40557e-05
1.40562e-05
1.40568e-05
1.40574e-05
1.4058e-05
1.40587e-05
1.40594e-05
1.40601e-05
1.40608e-05
1.40616e-05
1.40624e-05
1.40633e-05
1.40642e-05
1.40652e-05
1.40663e-05
1.40674e-05
1.40686e-05
1.40698e-05
1.40712e-05
1.40726e-05
1.40741e-05
1.40757e-05
1.40774e-05
1.40792e-05
1.4081e-05
1.4083e-05
1.40851e-05
1.40873e-05
1.40897e-05
1.40922e-05
1.4095e-05
1.40981e-05
1.41014e-05
1.41051e-05
1.41091e-05
1.41135e-05
1.41182e-05
1.41233e-05
1.41289e-05
1.41348e-05
1.41412e-05
1.41481e-05
1.41556e-05
1.41637e-05
1.41727e-05
1.41828e-05
1.41942e-05
1.42071e-05
1.42215e-05
1.42376e-05
1.42555e-05
1.42752e-05
1.42967e-05
1.43201e-05
1.43455e-05
1.43731e-05
1.44034e-05
1.44372e-05
1.44758e-05
1.45202e-05
1.45712e-05
1.46292e-05
1.46945e-05
1.47671e-05
1.48469e-05
1.4934e-05
1.50281e-05
1.51297e-05
1.52404e-05
1.53647e-05
1.55086e-05
1.56761e-05
1.58688e-05
1.60862e-05
1.63265e-05
1.65874e-05
1.68662e-05
1.71607e-05
1.74692e-05
1.77937e-05
1.81446e-05
1.8547e-05
1.90125e-05
1.95369e-05
2.01091e-05
2.07163e-05
2.13462e-05
2.19882e-05
2.26336e-05
2.32763e-05
2.39171e-05
2.45716e-05
2.53437e-05
2.62545e-05
2.72371e-05
2.82325e-05
2.92032e-05
3.01257e-05
3.09845e-05
3.17722e-05
3.24893e-05
3.31355e-05
3.3713e-05
1.40546e-05
1.40552e-05
1.40559e-05
1.40566e-05
1.40574e-05
1.40583e-05
1.40592e-05
1.40601e-05
1.40611e-05
1.40622e-05
1.40633e-05
1.40645e-05
1.40658e-05
1.40672e-05
1.40686e-05
1.40701e-05
1.40717e-05
1.40734e-05
1.40753e-05
1.40772e-05
1.40792e-05
1.40814e-05
1.40836e-05
1.4086e-05
1.40885e-05
1.40911e-05
1.40938e-05
1.40966e-05
1.40996e-05
1.41027e-05
1.4106e-05
1.41095e-05
1.41131e-05
1.41171e-05
1.41213e-05
1.41257e-05
1.41305e-05
1.41356e-05
1.41409e-05
1.41467e-05
1.41527e-05
1.41591e-05
1.41659e-05
1.4173e-05
1.41804e-05
1.41883e-05
1.41966e-05
1.42055e-05
1.42152e-05
1.42257e-05
1.42372e-05
1.42498e-05
1.42637e-05
1.42789e-05
1.42955e-05
1.43136e-05
1.43332e-05
1.43543e-05
1.4377e-05
1.44014e-05
1.44276e-05
1.44556e-05
1.44858e-05
1.45189e-05
1.45557e-05
1.45972e-05
1.46441e-05
1.46967e-05
1.47554e-05
1.48205e-05
1.4892e-05
1.49701e-05
1.50548e-05
1.51461e-05
1.52441e-05
1.53496e-05
1.54644e-05
1.55928e-05
1.57397e-05
1.59085e-05
1.61001e-05
1.63144e-05
1.655e-05
1.68053e-05
1.70784e-05
1.73674e-05
1.7671e-05
1.79889e-05
1.8326e-05
1.8698e-05
1.91224e-05
1.96019e-05
2.01299e-05
2.06969e-05
2.12926e-05
2.19071e-05
2.25319e-05
2.31602e-05
2.37878e-05
2.44164e-05
2.50647e-05
2.58322e-05
2.67067e-05
2.76334e-05
2.85675e-05
2.94782e-05
3.03458e-05
3.11571e-05
3.19053e-05
3.25898e-05
3.32091e-05
3.37659e-05
3.42548e-05
3.46786e-05
3.50474e-05
3.53723e-05
3.56608e-05
3.59138e-05
3.61313e-05
3.63166e-05
3.64725e-05
3.65992e-05
3.6699e-05
3.67755e-05
3.68335e-05
1.40747e-05
1.40771e-05
1.40798e-05
1.40826e-05
1.40857e-05
1.40889e-05
1.40924e-05
1.40962e-05
1.41001e-05
1.41043e-05
1.41087e-05
1.41133e-05
1.41183e-05
1.41235e-05
1.4129e-05
1.41349e-05
1.41411e-05
1.41477e-05
1.41547e-05
1.41621e-05
1.41699e-05
1.41781e-05
1.41867e-05
1.41958e-05
1.42053e-05
1.42151e-05
1.42254e-05
1.42362e-05
1.42474e-05
1.42592e-05
1.42718e-05
1.42851e-05
1.42993e-05
1.43145e-05
1.43308e-05
1.43482e-05
1.43667e-05
1.43863e-05
1.44072e-05
1.44293e-05
1.44526e-05
1.44771e-05
1.45029e-05
1.45299e-05
1.45583e-05
1.45881e-05
1.46197e-05
1.46535e-05
1.46902e-05
1.47304e-05
1.47745e-05
1.48229e-05
1.48757e-05
1.49333e-05
1.49958e-05
1.50632e-05
1.51358e-05
1.52136e-05
1.52967e-05
1.53853e-05
1.54793e-05
1.55792e-05
1.56862e-05
1.58031e-05
1.59337e-05
1.60809e-05
1.6246e-05
1.64292e-05
1.66303e-05
1.68485e-05
1.70829e-05
1.73326e-05
1.75968e-05
1.78745e-05
1.81651e-05
1.84695e-05
1.87931e-05
1.91506e-05
1.95533e-05
2.00019e-05
2.04911e-05
2.10138e-05
2.15625e-05
2.21303e-05
2.27107e-05
2.32984e-05
2.38889e-05
2.44811e-05
2.50805e-05
2.57362e-05
2.64968e-05
2.73266e-05
2.81841e-05
2.90387e-05
2.98689e-05
3.06601e-05
3.14024e-05
3.20907e-05
3.27252e-05
3.33045e-05
3.38282e-05
3.42886e-05
3.46933e-05
3.50497e-05
3.53639e-05
3.56431e-05
3.58911e-05
3.61074e-05
3.6293e-05
3.64496e-05
3.65792e-05
3.6685e-05
3.67689e-05
3.68347e-05
3.68893e-05
3.69367e-05
3.69771e-05
3.70138e-05
3.70516e-05
3.70896e-05
3.71244e-05
3.71562e-05
3.71846e-05
3.72059e-05
3.72197e-05
1.41514e-05
1.41608e-05
1.41708e-05
1.41816e-05
1.41931e-05
1.42054e-05
1.42185e-05
1.42323e-05
1.42469e-05
1.42624e-05
1.42786e-05
1.42958e-05
1.43139e-05
1.43332e-05
1.43536e-05
1.43753e-05
1.43983e-05
1.44227e-05
1.44485e-05
1.44757e-05
1.45044e-05
1.45345e-05
1.45659e-05
1.45988e-05
1.46329e-05
1.46683e-05
1.47051e-05
1.47432e-05
1.47831e-05
1.48251e-05
1.48696e-05
1.4917e-05
1.49675e-05
1.50213e-05
1.50785e-05
1.51392e-05
1.52036e-05
1.52715e-05
1.53431e-05
1.54183e-05
1.54972e-05
1.55796e-05
1.56656e-05
1.57551e-05
1.58482e-05
1.59452e-05
1.60474e-05
1.61571e-05
1.62766e-05
1.64075e-05
1.65504e-05
1.67057e-05
1.68733e-05
1.70531e-05
1.72448e-05
1.74481e-05
1.76627e-05
1.78881e-05
1.81241e-05
1.83702e-05
1.86261e-05
1.88921e-05
1.91716e-05