/*--------------------------------*- C++ -*----------------------------------*\
| =========                 |                                                 |
| \\      /  F ield         | OpenFOAM: The Open Source CFD Toolbox           |
|  \\    /   O peration     | Version:  v1706                                 |
|   \\  /    A nd           | Web:      www.OpenFOAM.com                      |
|    \\/     M anipulation  |                                                 |
\*---------------------------------------------------------------------------*/
FoamFile
{
    version     2.0;
    format      ascii;
    class       volScalarField;
    location    "3.3e-05";
    object      kappatr;
}
// * * * * * * * * * * * * * * * * * * * * * * * * * * * * * * * * * * * * * //

dimensions      [1 1 -3 -1 0 0 0];


internalField   nonuniform List<scalar> 
29871
(
0.014593
0.014593
0.014593
0.014593
0.014593
0.014593
0.014593
0.014593
0.014593
0.014593
0.014593
0.014593
0.014593
0.014593
0.014593
0.014593
0.014593
0.014593
0.014593
0.014593
0.014593
0.014593
0.014593
0.014593
0.014593
0.014593
0.014593
0.014593
0.014593
0.014593
0.014593
0.014593
0.014593
0.014593
0.014593
0.014593
0.014593
0.014593
0.014593
0.014593
0.014593
0.014593
0.014593
0.014593
0.014593
0.014593
0.014593
0.014593
0.014593
0.014593
0.014593
0.014593
0.014593
0.014593
0.014593
0.014593
0.014593
0.014593
0.014593
0.014593
0.014593
0.014593
0.014593
0.014593
0.014593
0.014593
0.014593
0.014593
0.014593
0.014593
0.014593
0.014593
0.014593
0.014593
0.014593
0.014593
0.014593
0.014593
0.014593
0.014593
0.014593
0.014593
0.014593
0.014593
0.014593
0.014593
0.014593
0.014593
0.014593
0.014593
0.014593
0.014593
0.014593
0.014593
0.014593
0.014593
0.014593
0.014593
0.014593
0.014593
0.014593
0.014593
0.014593
0.014593
0.014593
0.014593
0.014593
0.014593
0.014593
0.014593
0.014593
0.014593
0.014593
0.014593
0.014593
0.014593
0.014593
0.014593
0.014593
0.014593
0.014593
0.014593
0.014593
0.014593
0.014593
0.014593
0.014593
0.014593
0.014593
0.014593
0.014593
0.014593
0.014593
0.014593
0.014593
0.014593
0.014593
0.014593
0.014593
0.014593
0.014593
0.014593
0.014593
0.014593
0.014593
0.014593
0.014593
0.014593
0.014593
0.014593
0.014593
0.014593
0.014593
0.014593
0.014593
0.014593
0.014593
0.014593
0.014593
0.014593
0.014593
0.014593
0.014593
0.014593
0.014593
0.014593
0.014593
0.014593
0.014593
0.014593
0.014593
0.014593
0.014593
0.014593
0.014593
0.014593
0.014593
0.014593
0.014593
0.014593
0.014593
0.014593
0.014593
0.014593
0.014593
0.014593
0.014593
0.014593
0.014593
0.014593
0.014593
0.014593
0.014593
0.014593
0.014593
0.014593
0.014593
0.014593
0.014593
0.014593
0.014593
0.014593
0.014593
0.014593
0.014593
0.014593
0.014593
0.014593
0.014593
0.014593
0.014593
0.014593
0.014593
0.014593
0.014593
0.014593
0.014593
0.014593
0.014593
0.014593
0.014593
0.014593
0.014593
0.014593
0.014593
0.014593
0.014593
0.014593
0.014593
0.014593
0.014593
0.014593
0.014593
0.014593
0.014593
0.014593
0.014593
0.014593
0.014593
0.014593
0.014593
0.014593
0.014593
0.014593
0.014593
0.014593
0.014593
0.014593
0.014593
0.014593
0.014593
0.014593
0.014593
0.014593
0.014593
0.014593
0.014593
0.014593
0.014593
0.014593
0.014593
0.014593
0.014593
0.014593
0.014593
0.014593
0.014593
0.014593
0.014593
0.014593
0.014593
0.014593
0.014593
0.014593
0.014593
0.014593
0.014593
0.014593
0.014593
0.014593
0.014593
0.014593
0.014593
0.014593
0.014593
0.014593
0.014593
0.014593
0.014593
0.014593
0.014593
0.014593
0.014593
0.014593
0.014593
0.014593
0.014593
0.014593
0.014593
0.014593
0.014593
0.014593
0.014593
0.014593
0.014593
0.014593
0.014593
0.014593
0.014593
0.014593
0.014593
0.014593
0.014593
0.014593
0.014593
0.014593
0.014593
0.014593
0.014593
0.014593
0.014593
0.014593
0.014593
0.014593
0.014593
0.014593
0.014593
0.014593
0.014593
0.014593
0.014593
0.014593
0.014593
0.014593
0.014593
0.014593
0.014593
0.014593
0.014593
0.014593
0.014593
0.014593
0.014593
0.014593
0.014593
0.014593
0.014593
0.014593
0.014593
0.014593
0.014593
0.014593
0.014593
0.014593
0.014593
0.014593
0.014593
0.014593
0.014593
0.014593
0.014593
0.014593
0.014593
0.014593
0.014593
0.014593
0.014593
0.014593
0.014593
0.014593
0.014593
0.014593
0.014593
0.014593
0.014593
0.014593
0.014593
0.014593
0.014593
0.014593
0.014593
0.014593
0.014593
0.014593
0.014593
0.014593
0.014593
0.014593
0.014593
0.014593
0.014593
0.014593
0.014593
0.014593
0.014593
0.014593
0.014593
0.014593
0.014593
0.014593
0.014593
0.014593
0.014593
0.014593
0.014593
0.014593
0.014593
0.014593
0.014593
0.014593
0.014593
0.014593
0.014593
0.014593
0.014593
0.014593
0.014593
0.014593
0.014593
0.014593
0.014593
0.014593
0.014593
0.014593
0.014593
0.014593
0.014593
0.014593
0.014593
0.014593
0.014593
0.014593
0.014593
0.014593
0.014593
0.014593
0.014593
0.014593
0.014593
0.014593
0.014593
0.014593
0.014593
0.014593
0.014593
0.014593
0.014593
0.014593
0.014593
0.014593
0.014593
0.014593
0.014593
0.014593
0.014593
0.014593
0.014593
0.014593
0.014593
0.014593
0.014593
0.014593
0.014593
0.014593
0.014593
0.014593
0.014593
0.014593
0.014593
0.014593
0.014593
0.014593
0.014593
0.014593
0.014593
0.014593
0.014593
0.014593
0.014593
0.014593
0.014593
0.014593
0.014593
0.014593
0.014593
0.014593
0.014593
0.014593
0.014593
0.014593
0.014593
0.014593
0.014593
0.014593
0.014593
0.014593
0.014593
0.014593
0.014593
0.014593
0.014593
0.014593
0.014593
0.014593
0.014593
0.014593
0.014593
0.014593
0.014593
0.014593
0.014593
0.014593
0.014593
0.014593
0.014593
0.014593
0.014593
0.014593
0.014593
0.014593
0.014593
0.014593
0.014593
0.014593
0.014593
0.014593
0.014593
0.014593
0.014593
0.014593
0.014593
0.014593
0.014593
0.014593
0.014593
0.014593
0.014593
0.014593
0.014593
0.014593
0.014593
0.014593
0.014593
0.014593
0.014593
0.014593
0.014593
0.014593
0.014593
0.014593
0.014593
0.014593
0.014593
0.014593
0.014593
0.014593
0.014593
0.014593
0.014593
0.014593
0.014593
0.014593
0.014593
0.014593
0.014593
0.014593
0.014593
0.014593
0.014593
0.014593
0.014593
0.014593
0.014593
0.014593
0.014593
0.014593
0.014593
0.014593
0.014593
0.014593
0.014593
0.014593
0.014593
0.014593
0.014593
0.014593
0.014593
0.014593
0.014593
0.014593
0.014593
0.014593
0.014593
0.014593
0.014593
0.014593
0.014593
0.014593
0.014593
0.014593
0.014593
0.014593
0.014593
0.014593
0.014593
0.014593
0.014593
0.014593
0.014593
0.014593
0.014593
0.014593
0.014593
0.014593
0.014593
0.014593
0.014593
0.014593
0.014593
0.014593
0.014593
0.014593
0.014593
0.014593
0.014593
0.014593
0.014593
0.014593
0.014593
0.014593
0.014593
0.014593
0.014593
0.014593
0.014593
0.014593
0.014593
0.014593
0.014593
0.014593
0.014593
0.014593
0.014593
0.014593
0.014593
0.014593
0.014593
0.014593
0.014593
0.014593
0.014593
0.014593
0.014593
0.014593
0.014593
0.014593
0.014593
0.014593
0.014593
0.014593
0.014593
0.014593
0.014593
0.014593
0.014593
0.014593
0.014593
0.014593
0.014593
0.014593
0.014593
0.014593
0.014593
0.014593
0.014593
0.014593
0.014593
0.014593
0.014593
0.014593
0.014593
0.014593
0.014593
0.014593
0.014593
0.014593
0.014593
0.014593
0.014593
0.014593
0.014593
0.014593
0.014593
0.014593
0.014593
0.014593
0.014593
0.014593
0.014593
0.014593
0.014593
0.014593
0.014593
0.014593
0.014593
0.014593
0.014593
0.014593
0.014593
0.014593
0.014593
0.014593
0.014593
0.014593
0.014593
0.014593
0.014593
0.014593
0.014593
0.014593
0.014593
0.014593
0.014593
0.014593
0.014593
0.014593
0.014593
0.014593
0.014593
0.014593
0.014593
0.014593
0.014593
0.014593
0.014593
0.014593
0.014593
0.014593
0.014593
0.014593
0.014593
0.014593
0.014593
0.014593
0.014593
0.014593
0.014593
0.014593
0.014593
0.014593
0.014593
0.014593
0.014593
0.014593
0.014593
0.014593
0.014593
0.014593
0.014593
0.014593
0.014593
0.014593
0.014593
0.014593
0.014593
0.014593
0.014593
0.014593
0.014593
0.014593
0.014593
0.014593
0.014593
0.014593
0.014593
0.014593
0.014593
0.014593
0.014593
0.014593
0.014593
0.014593
0.014593
0.014593
0.014593
0.014593
0.014593
0.014593
0.014593
0.014593
0.014593
0.014593
0.014593
0.014593
0.014593
0.014593
0.014593
0.014593
0.014593
0.014593
0.014593
0.014593
0.014593
0.014593
0.014593
0.014593
0.014593
0.014593
0.014593
0.014593
0.014593
0.014593
0.014593
0.014593
0.014593
0.014593
0.014593
0.014593
0.014593
0.014593
0.014593
0.014593
0.014593
0.014593
0.014593
0.014593
0.014593
0.014593
0.014593
0.014593
0.014593
0.014593
0.014593
0.014593
0.014593
0.014593
0.014593
0.014593
0.014593
0.014593
0.014593
0.014593
0.014593
0.014593
0.014593
0.014593
0.014593
0.014593
0.014593
0.014593
0.014593
0.014593
0.014593
0.014593
0.014593
0.014593
0.014593
0.014593
0.014593
0.014593
0.014593
0.014593
0.014593
0.014593
0.014593
0.014593
0.014593
0.014593
0.014593
0.014593
0.014593
0.014593
0.014593
0.014593
0.014593
0.014593
0.014593
0.014593
0.014593
0.014593
0.014593
0.014593
0.014593
0.014593
0.014593
0.014593
0.014593
0.014593
0.014593
0.014593
0.014593
0.014593
0.014593
0.014593
0.014593
0.014593
0.014593
0.014593
0.014593
0.014593
0.014593
0.014593
0.014593
0.014593
0.014593
0.014593
0.014593
0.014593
0.014593
0.014593
0.014593
0.014593
0.014593
0.014593
0.014593
0.014593
0.014593
0.014593
0.014593
0.014593
0.014593
0.014593
0.014593
0.014593
0.014593
0.014593
0.014593
0.014593
0.014593
0.014593
0.014593
0.014593
0.014593
0.014593
0.014593
0.014593
0.014593
0.014593
0.014593
0.014593
0.014593
0.014593
0.014593
0.014593
0.014593
0.014593
0.014593
0.014593
0.014593
0.014593
0.014593
0.014593
0.014593
0.014593
0.014593
0.014593
0.014593
0.014593
0.014593
0.014593
0.014593
0.014593
0.014593
0.014593
0.014593
0.014593
0.014593
0.014593
0.014593
0.014593
0.014593
0.014593
0.014593
0.014593
0.014593
0.014593
0.014593
0.014593
0.014593
0.014593
0.014593
0.014593
0.014593
0.014593
0.014593
0.014593
0.014593
0.014593
0.014593
0.014593
0.014593
0.014593
0.014593
0.014593
0.014593
0.014593
0.014593
0.014593
0.014593
0.014593
0.014593
0.014593
0.014593
0.014593
0.014593
0.014593
0.014593
0.014593
0.014593
0.014593
0.014593
0.014593
0.014593
0.014593
0.014593
0.014593
0.014593
0.014593
0.014593
0.014593
0.014593
0.014593
0.014593
0.014593
0.014593
0.014593
0.014593
0.014593
0.014593
0.014593
0.014593
0.014593
0.014593
0.014593
0.014593
0.014593
0.014593
0.014593
0.014593
0.014593
0.014593
0.014593
0.014593
0.014593
0.014593
0.014593
0.014593
0.014593
0.014593
0.014593
0.014593
0.014593
0.014593
0.014593
0.014593
0.014593
0.014593
0.014593
0.014593
0.014593
0.014593
0.014593
0.014593
0.014593
0.014593
0.014593
0.014593
0.014593
0.014593
0.014593
0.014593
0.014593
0.014593
0.014593
0.014593
0.014593
0.014593
0.014593
0.014593
0.014593
0.014593
0.014593
0.014593
0.014593
0.014593
0.014593
0.014593
0.014593
0.014593
0.014593
0.014593
0.014593
0.014593
0.014593
0.014593
0.014593
0.014593
0.014593
0.014593
0.014593
0.014593
0.014593
0.014593
0.014593
0.014593
0.014593
0.014593
0.014593
0.014593
0.014593
0.014593
0.014593
0.014593
0.014593
0.014593
0.014593
0.014593
0.014593
0.014593
0.014593
0.014593
0.014593
0.014593
0.014593
0.014593
0.014593
0.014593
0.014593
0.014593
0.014593
0.014593
0.014593
0.014593
0.014593
0.014593
0.014593
0.014593
0.014593
0.014593
0.014593
0.014593
0.014593
0.014593
0.014593
0.014593
0.014593
0.014593
0.014593
0.014593
0.014593
0.014593
0.014593
0.014593
0.014593
0.014593
0.014593
0.014593
0.014593
0.014593
0.014593
0.014593
0.014593
0.014593
0.014593
0.014593
0.014593
0.014593
0.014593
0.014593
0.014593
0.014593
0.014593
0.014593
0.014593
0.014593
0.014593
0.0145931
0.0145931
0.0145931
0.0145931
0.0145931
0.0145931
0.0145931
0.0145931
0.0145931
0.0145931
0.014593
0.014593
0.014593
0.014593
0.014593
0.014593
0.014593
0.014593
0.014593
0.014593
0.014593
0.014593
0.014593
0.014593
0.014593
0.014593
0.014593
0.014593
0.014593
0.014593
0.014593
0.014593
0.014593
0.014593
0.014593
0.014593
0.014593
0.014593
0.014593
0.014593
0.014593
0.014593
0.014593
0.014593
0.014593
0.014593
0.014593
0.014593
0.014593
0.014593
0.014593
0.014593
0.014593
0.014593
0.014593
0.014593
0.014593
0.014593
0.014593
0.014593
0.014593
0.014593
0.014593
0.014593
0.014593
0.014593
0.014593
0.014593
0.014593
0.014593
0.014593
0.014593
0.014593
0.014593
0.014593
0.014593
0.014593
0.014593
0.014593
0.014593
0.014593
0.014593
0.014593
0.014593
0.014593
0.014593
0.014593
0.014593
0.014593
0.014593
0.014593
0.014593
0.014593
0.014593
0.014593
0.014593
0.0145931
0.0145931
0.0145931
0.0145931
0.0145931
0.0145931
0.0145931
0.0145931
0.0145931
0.0145931
0.0145932
0.0145932
0.0145932
0.0145932
0.0145932
0.0145933
0.0145933
0.0145933
0.0145934
0.0145934
0.0145935
0.0145935
0.0145936
0.0145937
0.0145938
0.014593
0.014593
0.014593
0.014593
0.014593
0.014593
0.014593
0.014593
0.014593
0.014593
0.014593
0.014593
0.014593
0.014593
0.014593
0.014593
0.014593
0.014593
0.014593
0.014593
0.014593
0.014593
0.014593
0.014593
0.014593
0.014593
0.014593
0.014593
0.014593
0.014593
0.014593
0.014593
0.014593
0.014593
0.014593
0.014593
0.014593
0.014593
0.014593
0.014593
0.014593
0.014593
0.014593
0.014593
0.014593
0.014593
0.014593
0.014593
0.014593
0.014593
0.014593
0.014593
0.014593
0.014593
0.014593
0.014593
0.014593
0.014593
0.014593
0.014593
0.014593
0.014593
0.014593
0.014593
0.014593
0.014593
0.014593
0.014593
0.014593
0.0145931
0.0145931
0.0145931
0.0145931
0.0145931
0.0145931
0.0145931
0.0145931
0.0145931
0.0145931
0.0145931
0.0145931
0.0145932
0.0145932
0.0145932
0.0145932
0.0145932
0.0145933
0.0145933
0.0145933
0.0145934
0.0145934
0.0145934
0.0145935
0.0145935
0.0145936
0.0145937
0.0145938
0.0145939
0.014594
0.0145941
0.0145942
0.0145944
0.0145946
0.0145948
0.014595
0.0145952
0.0145955
0.0145959
0.0145963
0.0145967
0.0145972
0.0145978
0.0145984
0.014593
0.014593
0.014593
0.014593
0.014593
0.014593
0.014593
0.014593
0.014593
0.014593
0.014593
0.014593
0.014593
0.014593
0.014593
0.014593
0.014593
0.014593
0.014593
0.014593
0.014593
0.014593
0.014593
0.014593
0.014593
0.014593
0.014593
0.014593
0.014593
0.014593
0.014593
0.014593
0.014593
0.014593
0.014593
0.014593
0.014593
0.014593
0.014593
0.014593
0.014593
0.014593
0.014593
0.014593
0.014593
0.014593
0.014593
0.0145931
0.0145931
0.0145931
0.0145931
0.0145931
0.0145931
0.0145931
0.0145931
0.0145931
0.0145931
0.0145931
0.0145931
0.0145931
0.0145931
0.0145931
0.0145931
0.0145931
0.0145932
0.0145932
0.0145932
0.0145932
0.0145932
0.0145932
0.0145933
0.0145933
0.0145933
0.0145933
0.0145934
0.0145934
0.0145935
0.0145935
0.0145935
0.0145936
0.0145937
0.0145937
0.0145938
0.0145939
0.014594
0.0145941
0.0145943
0.0145944
0.0145946
0.0145948
0.014595
0.0145952
0.0145955
0.0145958
0.0145961
0.0145965
0.014597
0.0145975
0.0145981
0.0145987
0.0145994
0.0146002
0.0146011
0.0146021
0.0146033
0.0146047
0.0146063
0.0146082
0.0146103
0.0146127
0.0146154
0.0146183
0.0146216
0.014593
0.014593
0.014593
0.014593
0.014593
0.014593
0.014593
0.014593
0.014593
0.014593
0.014593
0.014593
0.014593
0.014593
0.014593
0.014593
0.014593
0.014593
0.014593
0.014593
0.014593
0.014593
0.0145931
0.0145931
0.0145931
0.0145931
0.0145931
0.0145931
0.0145931
0.0145931
0.0145931
0.0145931
0.0145931
0.0145931
0.0145931
0.0145931
0.0145931
0.0145931
0.0145931
0.0145931
0.0145931
0.0145931
0.0145931
0.0145932
0.0145932
0.0145932
0.0145932
0.0145932
0.0145932
0.0145932
0.0145932
0.0145932
0.0145933
0.0145933
0.0145933
0.0145933
0.0145933
0.0145934
0.0145934
0.0145934
0.0145934
0.0145935
0.0145935
0.0145936
0.0145936
0.0145937
0.0145937
0.0145938
0.0145939
0.0145939
0.014594
0.0145941
0.0145942
0.0145943
0.0145945
0.0145946
0.0145948
0.014595
0.0145952
0.0145954
0.0145956
0.0145959
0.0145962
0.0145966
0.014597
0.0145974
0.014598
0.0145986
0.0145993
0.0146
0.0146009
0.0146018
0.0146028
0.014604
0.0146053
0.0146068
0.0146086
0.0146106
0.014613
0.0146157
0.0146187
0.014622
0.0146257
0.0146298
0.0146343
0.0146395
0.0146456
0.0146528
0.0146614
0.0146713
0.0146826
0.0146952
0.0147091
0.0147243
0.0147408
0.014593
0.0145931
0.0145931
0.0145931
0.0145931
0.0145931
0.0145931
0.0145931
0.0145931
0.0145931
0.0145931
0.0145931
0.0145931
0.0145931
0.0145931
0.0145931
0.0145931
0.0145932
0.0145932
0.0145932
0.0145932
0.0145932
0.0145932
0.0145932
0.0145932
0.0145932
0.0145933
0.0145933
0.0145933
0.0145933
0.0145933
0.0145933
0.0145934
0.0145934
0.0145934
0.0145934
0.0145934
0.0145935
0.0145935
0.0145935
0.0145936
0.0145936
0.0145936
0.0145937
0.0145937
0.0145937
0.0145938
0.0145938
0.0145939
0.014594
0.014594
0.0145941
0.0145942
0.0145942
0.0145943
0.0145944
0.0145945
0.0145946
0.0145947
0.0145949
0.014595
0.0145952
0.0145954
0.0145956
0.0145958
0.014596
0.0145963
0.0145966
0.0145969
0.0145973
0.0145977
0.0145981
0.0145986
0.0145991
0.0145998
0.0146005
0.0146013
0.0146022
0.0146032
0.0146044
0.0146056
0.0146069
0.0146084
0.0146101
0.0146121
0.0146144
0.014617
0.0146199
0.0146233
0.0146271
0.0146312
0.0146358
0.0146409
0.0146466
0.014653
0.0146605
0.0146694
0.0146797
0.0146916
0.0147052
0.0147203
0.014737
0.0147552
0.0147752
0.0147975
0.0148233
0.0148538
0.0148902
0.0149331
0.0149825
0.0150383
0.0151001
0.0151675
0.0152402
0.0153188
0.0154059
0.0145931
0.0145931
0.0145931
0.0145931
0.0145931
0.0145932
0.0145932
0.0145932
0.0145932
0.0145932
0.0145932
0.0145933
0.0145933
0.0145933
0.0145933
0.0145933
0.0145934
0.0145934
0.0145934
0.0145935
0.0145935
0.0145935
0.0145936
0.0145936
0.0145936
0.0145937
0.0145937
0.0145938
0.0145938
0.0145939
0.0145939
0.014594
0.014594
0.0145941
0.0145941
0.0145942
0.0145943
0.0145944
0.0145944
0.0145945
0.0145946
0.0145947
0.0145948
0.0145949
0.014595
0.0145951
0.0145953
0.0145954
0.0145955
0.0145957
0.0145958
0.014596
0.0145962
0.0145964
0.0145966
0.0145969
0.0145971
0.0145974
0.0145977
0.014598
0.0145984
0.0145988
0.0145992
0.0145996
0.0146001
0.0146007
0.0146013
0.0146019
0.0146027
0.0146035
0.0146045
0.0146055
0.0146067
0.0146079
0.0146093
0.0146108
0.0146124
0.0146142
0.0146162
0.0146186
0.0146212
0.0146242
0.0146276
0.0146315
0.0146357
0.0146405
0.0146457
0.0146515
0.0146578
0.0146649
0.014673
0.0146824
0.0146933
0.014706
0.0147204
0.0147366
0.0147547
0.0147746
0.0147964
0.0148203
0.0148469
0.0148776
0.0149136
0.014956
0.0150055
0.0150621
0.0151258
0.0151963
0.0152733
0.0153565
0.0154466
0.0155463
0.0156625
0.0158018
0.0159676
0.01616
0.016377
0.0166155
0.0168722
0.0171437
0.0174278
0.0177253
0.018046
0.0145934
0.0145935
0.0145935
0.0145936
0.0145936
0.0145937
0.0145937
0.0145938
0.0145938
0.0145939
0.014594
0.0145941
0.0145942
0.0145942
0.0145943
0.0145944
0.0145945
0.0145946
0.0145948
0.0145949
0.014595
0.0145952
0.0145953
0.0145955
0.0145956
0.0145958
0.014596
0.0145961
0.0145963
0.0145965
0.0145968
0.014597
0.0145972
0.0145975
0.0145977
0.014598
0.0145983
0.0145986
0.014599
0.0145993
0.0145997
0.0146001
0.0146005
0.0146009
0.0146014
0.0146019
0.0146024
0.014603
0.0146036
0.0146042
0.0146049
0.0146056
0.0146065
0.0146074
0.0146083
0.0146094
0.0146105
0.0146118
0.0146131
0.0146146
0.0146162
0.0146179
0.0146197
0.0146216
0.0146238
0.0146262
0.0146289
0.014632
0.0146354
0.0146392
0.0146434
0.0146481
0.0146532
0.0146588
0.0146649
0.0146716
0.0146789
0.0146871
0.0146963
0.0147069
0.0147191
0.0147331
0.0147489
0.0147666
0.0147864
0.0148081
0.0148319
0.0148578
0.0148863
0.0149184
0.0149553
0.0149983
0.0150483
0.0151056
0.0151706
0.0152432
0.0153231
0.0154102
0.0155043
0.0156064
0.0157197
0.0158508
0.0160058
0.0161875
0.0163959
0.0166293
0.0168848
0.0171593
0.0174499
0.0177544
0.0180736
0.0184176
0.0188149
0.0192839
0.0198216
0.0204147
0.0210479
0.0217062
0.022377
0.02305
0.0237191
0.0243848
0.0250628
0.0145947
0.0145949
0.0145951
0.0145953
0.0145955
0.0145957
0.0145959
0.0145962
0.0145965
0.0145967
0.014597
0.0145974
0.0145977
0.014598
0.0145984
0.0145988
0.0145992
0.0145997
0.0146002
0.0146007
0.0146012
0.0146018
0.0146024
0.014603
0.0146036
0.0146043
0.014605
0.0146058
0.0146065
0.0146074
0.0146082
0.0146091
0.0146101
0.0146111
0.0146122
0.0146133
0.0146146
0.0146159
0.0146173
0.0146188
0.0146203
0.014622
0.0146238
0.0146256
0.0146275
0.0146296
0.0146317
0.014634
0.0146365
0.0146392
0.0146421
0.0146453
0.0146487
0.0146525
0.0146567
0.0146612
0.0146661
0.0146715
0.0146772
0.0146834
0.0146901
0.0146972
0.014705
0.0147134
0.0147228
0.0147333
0.0147451
0.0147585
0.0147735
0.0147902
0.0148088
0.0148292
0.0148516
0.0148759
0.0149023
0.014931
0.0149624
0.0149976
0.0150377
0.0150838
0.0151368
0.015197
0.0152648
0.0153402
0.0154232
0.0155136
0.0156114
0.0157169
0.0158319
0.0159611
0.0161105
0.0162845
0.0164847
0.0167105
0.0169602
0.0172312
0.0175208
0.0178267
0.0181473
0.0184843
0.0188488
0.0192669
0.0197504
0.0202952
0.0208896
0.0215203
0.0221747
0.0228416
0.023512
0.0241797
0.0248454
0.0255252
0.0263273
0.0272735
0.0282942
0.0293282
0.0303367
0.031295
0.0321871
0.0330053
0.0337503
0.0344216
0.0350215
0.0146001
0.0146007
0.0146014
0.0146022
0.014603
0.0146039
0.0146048
0.0146058
0.0146069
0.014608
0.0146092
0.0146104
0.0146117
0.0146131
0.0146146
0.0146162
0.0146179
0.0146197
0.0146215
0.0146235
0.0146257
0.0146279
0.0146302
0.0146327
0.0146353
0.014638
0.0146408
0.0146438
0.0146468
0.0146501
0.0146535
0.0146571
0.0146609
0.014665
0.0146693
0.014674
0.0146789
0.0146842
0.0146898
0.0146957
0.014702
0.0147087
0.0147157
0.014723
0.0147308
0.014739
0.0147476
0.0147569
0.0147669
0.0147778
0.0147897
0.0148029
0.0148173
0.0148331
0.0148504
0.0148691
0.0148895
0.0149114
0.014935
0.0149604
0.0149875
0.0150166
0.015048
0.0150824
0.0151207
0.0151638
0.0152124
0.0152671
0.0153281
0.0153957
0.01547
0.0155511
0.0156391
0.0157339
0.0158358
0.0159454
0.0160646
0.016198
0.0163506
0.0165259
0.016725
0.0169476
0.0171924
0.0174575
0.0177412
0.0180415
0.0183569
0.0186871
0.0190372
0.0194237
0.0198645
0.0203626
0.0209112
0.0215002
0.022119
0.0227573
0.0234064
0.024059
0.024711
0.0253641
0.0260375
0.0268348
0.0277432
0.0287059
0.0296763
0.0306223
0.0315236
0.0323664
0.0331436
0.0338546
0.034498
0.0350764
0.0355843
0.0360245
0.0364076
0.0367452
0.0370449
0.0373077
0.0375336
0.0377261
0.037888
0.0380196
0.0381233
0.0382029
0.038263
0.0146209
0.0146235
0.0146262
0.0146292
0.0146324
0.0146358
0.0146394
0.0146432
0.0146473
0.0146517
0.0146563
0.0146611
0.0146662
0.0146716
0.0146774
0.0146835
0.0146899
0.0146968
0.0147041
0.0147117
0.0147198
0.0147284
0.0147373
0.0147468
0.0147566
0.0147669
0.0147776
0.0147887
0.0148004
0.0148127
0.0148257
0.0148395
0.0148543
0.0148701
0.014887
0.014905
0.0149242
0.0149447
0.0149663
0.0149893
0.0150135
0.015039
0.0150658
0.0150939
0.0151234
0.0151543
0.0151871
0.0152222
0.0152604
0.0153021
0.0153479
0.0153982
0.0154531
0.0155129
0.0155778
0.0156478
0.0157232
0.0158041
0.0158904
0.0159824
0.0160801
0.0161839
0.016295
0.0164165
0.0165522
0.016705
0.0168765
0.0170669
0.0172757
0.0175024
0.0177459
0.0180054
0.0182798
0.0185683
0.0188702
0.0191864
0.0195225
0.0198938
0.0203122
0.0207782
0.0212864
0.0218294
0.0223994
0.0229892
0.0235921
0.0242026
0.0248161
0.0254312
0.0260539
0.026735
0.0275252
0.0283872
0.029278
0.0301657
0.0310282
0.0318501
0.0326211
0.0333362
0.0339953
0.0345971
0.0351412
0.0356194
0.0360398
0.0364101
0.0367365
0.0370265
0.0372841
0.0375088
0.0377015
0.0378643
0.0379989
0.0381088
0.0381959
0.0382643
0.038321
0.0383702
0.0384122
0.0384503
0.0384896
0.0385291
0.0385652
0.0385983
0.0386278
0.03865
0.0386643
0.0147006
0.0147104
0.0147208
0.014732
0.014744
0.0147568
0.0147703
0.0147847
0.0147999
0.0148159
0.0148328
0.0148506
0.0148695
0.0148895
0.0149107
0.0149332
0.0149571
0.0149825
0.0150093
0.0150376
0.0150673
0.0150986
0.0151313
0.0151654
0.0152008
0.0152376
0.0152758
0.0153154
0.0153568
0.0154004
0.0154467
0.0154959
0.0155484
0.0156043
0.0156637
0.0157268
0.0157936
0.0158642
0.0159386
0.0160167
0.0160986
0.0161843
0.0162736
0.0163666
0.0164633
0.0165641
0.0166703
0.0167842
0.0169084
0.0170443
0.0171928
0.0173541
0.0175282
0.0177149
0.0179141
0.0181253
0.0183482
0.0185824
0.0188276
0.0190832
0.019349
0.0196254
0.0199157
0.0202291
0.0205756
0.0209576
0.0213724
0.0218162
0.022285
0.0227745
0.023281
0.0238008
0.0243305
0.0248673
0.0254087
0.0259551
0.0265135
0.027136
0.0278429
0.0286038
0.0293884
0.0301738
0.0309432
0.031685
0.0323912
0.0330567
0.0336792
0.0342579
0.0347906
0.0352737
0.0357036
0.0360864
0.0364275
0.0367331
0.0370076
0.0372512
0.037464
0.0376489
0.0378088
0.0379439
0.038055
0.0381448
0.0382183
0.0382805
0.038336
0.0383862
0.0384299
0.0384702
0.038512
0.0385522
0.0385882
0.0386204
0.038647
0.038667
0.0386828
0.0386956
0.0387067
0.0387181
0.0387305
0.0387427
0.0387563
0.038772
0.0387869
0.0387989
0.0388079
0.0149599
0.0149927
0.0150278
0.0150654
0.0151055
0.0151482
0.0151935
0.0152414
0.0152918
0.0153447
0.0154001
0.0154582
0.0155192
0.0155834
0.0156512
0.0157228
0.0157984
0.0158779
0.0159615
0.016049
0.0161405
0.0162358
0.0163349
0.0164375
0.0165434
0.0166524
0.0167643
0.0168791
0.0169972
0.0171202
0.0172496
0.0173867
0.017532
0.0176858
0.0178481
0.0180188
0.0181975
0.0183839
0.0185777
0.0187784
0.0189857
0.0191991
0.0194183
0.0196428
0.0198724
0.0201067
0.020347
0.0205968
0.0208637
0.0211516
0.0214605
0.0217893
0.0221364
0.0225003
0.0228797
0.0232729
0.0236783
0.0240942
0.024519
0.0249511
0.025389
0.0258313
0.0262781
0.0267333
0.0272236
0.0277771
0.0283773
0.0290045
0.0296433
0.0302825
0.0309136
0.0315303
0.0321278
0.0327024
0.033251
0.0337724
0.0342653
0.0347279
0.035154
0.0355407
0.0358924
0.0362137
0.0365054
0.0367691
0.0370078
0.0372222
0.0374122
0.037579
0.0377237
0.0378471
0.0379517
0.0380402
0.0381152
0.0381813
0.0382415
0.0382945
0.038344
0.0383943
0.0384427
0.0384868
0.0385286
0.0385669
0.0385987
0.0386245
0.0386467
0.0386669
0.0386843
0.0387
0.038717
0.0387353
0.0387511
0.0387681
0.0387868
0.0388028
0.0388154
0.0388259
0.0388339
0.0388405
0.0388474
0.0388551
0.0388634
0.0388729
0.0388842
0.038896
0.0389073
0.0389169
0.0158763
0.0159829
0.016096
0.0162155
0.0163414
0.0164733
0.0166112
0.0167547
0.0169035
0.0170572
0.0172159
0.01738
0.0175507
0.017729
0.0179155
0.0181102
0.018313
0.0185234
0.018741
0.0189652
0.0191952
0.0194302
0.0196695
0.0199122
0.0201576
0.020405
0.0206535
0.0209033
0.0211562
0.0214173
0.0216895
0.0219731
0.0222672
0.0225709
0.0228833
0.0232036
0.0235309
0.0238643
0.0242028
0.0245452
0.0248907
0.0252383
0.0255871
0.0259365
0.0262857
0.0266344
0.0269839
0.02734
0.0277323
0.0281593
0.0286106
0.0290775
0.0295535
0.0300338
0.0305144
0.0309921
0.0314641
0.0319279
0.0323812
0.0328221
0.033249
0.0336606
0.0340563
0.0344347
0.0347918
0.0351235
0.035432
0.0357192
0.0359867
0.0362353
0.0364655
0.0366783
0.0368739
0.0370524
0.037215
0.0373623
0.037494
0.0376112
0.0377145
0.0378056
0.037888
0.0379613
0.0380272
0.038092
0.0381548
0.0382137
0.0382731
0.0383294
0.0383802
0.0384274
0.0384697
0.0385059
0.0385378
0.038566
0.0385909
0.0386135
0.0386369
0.0386592
0.0386791
0.0387008
0.038725
0.0387475
0.0387673
0.0387849
0.0388003
0.0388145
0.0388271
0.0388382
0.0388506
0.0388639
0.0388763
0.0388896
0.0389046
0.0389194
0.0389325
0.0389437
0.0389531
0.0389608
0.0389679
0.038975
0.0389823
0.0389902
0.0389991
0.0390088
0.039019
0.039029
0.039038
0.0390462
0.018488
0.0187599
0.0190424
0.0193346
0.0196355
0.0199437
0.0202579
0.0205767
0.0208987
0.0212226
0.0215485
0.0218787
0.0222163
0.0225615
0.0229134
0.0232704
0.0236313
0.0239947
0.0243597
0.0247252
0.02509
0.0254531
0.0258133
0.0261695
0.0265208
0.0268662
0.0272049
0.0275373
0.0278665
0.0282133
0.0285795
0.0289587
0.0293454
0.0297354
0.0301255
0.030513
0.0308958
0.0312725
0.0316414
0.0320017
0.0323524
0.0326927
0.033022
0.0333399
0.0336461
0.0339406
0.0342236
0.0344947
0.0347499
0.0349905
0.0352184
0.035435
0.035641
0.035837
0.0360231
0.0361994
0.036366
0.0365228
0.0366701
0.0368079
0.0369363
0.0370558
0.0371668
0.037269
0.0373629
0.0374493
0.0375294
0.0376057
0.0376802
0.0377529
0.0378256
0.0378967
0.0379644
0.0380315
0.0380954
0.0381535
0.0382102
0.0382633
0.0383093
0.0383518
0.0383913
0.0384249
0.0384566
0.0384868
0.0385126
0.0385403
0.0385707
0.0385967
0.0386222
0.0386515
0.0386778
0.0387015
0.0387244
0.0387451
0.0387623
0.0387797
0.0387994
0.0388168
0.0388329
0.0388482
0.0388673
0.0388863
0.0389042
0.038921
0.0389363
0.0389508
0.0389639
0.0389753
0.0389868
0.0389984
0.0390098
0.0390214
0.0390339
0.039047
0.0390597
0.0390714
0.0390817
0.0390905
0.0390983
0.0391056
0.0391131
0.0391211
0.0391298
0.0391393
0.0391495
0.0391599
0.0391701
0.0391797
0.0239152
0.0243775
0.0248402
0.0253014
0.0257591
0.0262119
0.0266581
0.0270963
0.0275252
0.0279438
0.0283526
0.0287616
0.0291819
0.029609
0.0300376
0.0304632
0.030882
0.0312911
0.0316881
0.0320712
0.0324394
0.0327915
0.033127
0.0334453
0.0337464
0.0340301
0.0342965
0.0345463
0.0347806
0.0349973
0.0351982
0.0353855
0.0355609
0.0357253
0.0358794
0.0360237
0.0361587
0.0362847
0.0364021
0.0365114
0.0366129
0.0367072
0.0367948
0.036876
0.0369514
0.0370217
0.037088
0.0371512
0.0372127
0.0372737
0.0373351
0.0373971
0.0374594
0.0375218
0.0375839
0.0376451
0.0377052
0.0377638
0.0378208
0.0378758
0.0379287
0.0379795
0.0380279
0.0380738
0.0381172
0.0381572
0.0381938
0.038228
0.0382596
0.0382908
0.0383237
0.0383559
0.0383897
0.0384248
0.0384567
0.0384898
0.0385252
0.0385554
0.0385846
0.0386159
0.0386425
0.038667
0.0386934
0.0387171
0.0387366
0.0387587
0.0387797
0.0387982
0.0388159
0.0388388
0.0388601
0.0388802
0.0389005
0.0389199
0.0389359
0.0389518
0.0389695
0.038986
0.0390002
0.0390135
0.0390285
0.0390444
0.0390605
0.0390763
0.0390914
0.0391059
0.0391194
0.0391315
0.0391426
0.0391537
0.039165
0.0391765
0.0391885
0.0392009
0.0392134
0.0392253
0.0392364
0.0392464
0.0392554
0.0392638
0.0392721
0.039281
0.0392906
0.039301
0.0393121
0.0393236
0.0393351
0.0393464
0.031227
0.0317394
0.0322358
0.0327128
0.0331674
0.0335979
0.0340029
0.0343818
0.0347345
0.0350611
0.0353615
0.0356344
0.0358794
0.0360996
0.036298
0.0364774
0.0366397
0.0367863
0.0369182
0.0370362
0.0371414
0.0372343
0.0373156
0.0373858
0.0374456
0.0374954
0.0375365
0.0375718
0.0376039
0.0376346
0.0376648
0.037695
0.0377254
0.0377559
0.0377863
0.0378164
0.0378459
0.0378746
0.0379025
0.0379293
0.037955
0.0379795
0.0380026
0.0380243
0.0380444
0.0380627
0.0380791
0.038094
0.0381086
0.0381238
0.03814
0.0381579
0.0381775
0.0381991
0.0382225
0.0382475
0.038274
0.0383018
0.0383305
0.0383598
0.0383897