/*--------------------------------*- C++ -*----------------------------------*\
| =========                 |                                                 |
| \\      /  F ield         | OpenFOAM: The Open Source CFD Toolbox           |
|  \\    /   O peration     | Version:  v1706                                 |
|   \\  /    A nd           | Web:      www.OpenFOAM.com                      |
|    \\/     M anipulation  |                                                 |
\*---------------------------------------------------------------------------*/
FoamFile
{
    version     2.0;
    format      ascii;
    class       volScalarField;
    location    "3.3e-05";
    object      Mach;
}
// * * * * * * * * * * * * * * * * * * * * * * * * * * * * * * * * * * * * * //

dimensions      [0 0 0 0 0 0 0];


internalField   nonuniform List<scalar> 
29871
(
7.18506
7.18506
7.18506
7.18506
7.18506
7.18506
7.18506
7.18506
7.18506
7.18506
7.18506
7.18506
7.18506
7.18506
7.18506
7.18506
7.18506
7.18506
7.18506
7.18506
7.18506
7.18506
7.18506
7.18506
7.18506
7.18506
7.18506
7.18506
7.18506
7.18506
7.18506
7.18506
7.18506
7.18506
7.18506
7.18506
7.18506
7.18506
7.18506
7.18506
7.18506
7.18506
7.18506
7.18506
7.18506
7.18506
7.18506
7.18506
7.18506
7.18506
7.18506
7.18506
7.18506
7.18506
7.18506
7.18506
7.18506
7.18506
7.18506
7.18506
7.18506
7.18506
7.18506
7.18506
7.18506
7.18506
7.18506
7.18506
7.18506
7.18506
7.18506
7.18506
7.18506
7.18506
7.18506
7.18506
7.18506
7.18506
7.18506
7.18506
7.18506
7.18506
7.18506
7.18506
7.18506
7.18506
7.18506
7.18506
7.18506
7.18506
7.18506
7.18506
7.18506
7.18506
7.18506
7.18506
7.18506
7.18506
7.18506
7.18506
7.18506
7.18506
7.18506
7.18506
7.18506
7.18506
7.18506
7.18506
7.18506
7.18506
7.18506
7.18506
7.18506
7.18506
7.18506
7.18506
7.18506
7.18506
7.18506
7.18506
7.18506
7.18506
7.18506
7.18506
7.18506
7.18506
7.18506
7.18506
7.18506
7.18506
7.18506
7.18506
7.18506
7.18506
7.18506
7.18506
7.18506
7.18506
7.18506
7.18506
7.18506
7.18506
7.18506
7.18506
7.18506
7.18506
7.18506
7.18506
7.18506
7.18506
7.18506
7.18506
7.18506
7.18506
7.18506
7.18506
7.18506
7.18506
7.18506
7.18506
7.18506
7.18506
7.18506
7.18506
7.18506
7.18506
7.18506
7.18506
7.18506
7.18506
7.18506
7.18506
7.18506
7.18506
7.18506
7.18506
7.18506
7.18506
7.18506
7.18506
7.18506
7.18506
7.18506
7.18506
7.18506
7.18506
7.18506
7.18506
7.18506
7.18506
7.18506
7.18506
7.18506
7.18506
7.18506
7.18506
7.18506
7.18506
7.18506
7.18506
7.18506
7.18506
7.18506
7.18506
7.18506
7.18506
7.18506
7.18506
7.18506
7.18506
7.18506
7.18506
7.18506
7.18506
7.18506
7.18506
7.18506
7.18506
7.18506
7.18506
7.18506
7.18506
7.18506
7.18506
7.18506
7.18506
7.18506
7.18506
7.18506
7.18506
7.18506
7.18506
7.18506
7.18506
7.18506
7.18506
7.18506
7.18506
7.18506
7.18506
7.18506
7.18506
7.18506
7.18506
7.18506
7.18506
7.18506
7.18506
7.18506
7.18506
7.18506
7.18506
7.18506
7.18506
7.18506
7.18506
7.18506
7.18506
7.18506
7.18506
7.18506
7.18506
7.18506
7.18506
7.18506
7.18506
7.18506
7.18506
7.18506
7.18506
7.18506
7.18506
7.18506
7.18506
7.18506
7.18506
7.18506
7.18506
7.18506
7.18506
7.18506
7.18506
7.18506
7.18506
7.18506
7.18506
7.18506
7.18506
7.18506
7.18506
7.18506
7.18506
7.18506
7.18506
7.18506
7.18506
7.18506
7.18506
7.18506
7.18506
7.18506
7.18506
7.18506
7.18506
7.18506
7.18506
7.18506
7.18506
7.18506
7.18506
7.18506
7.18506
7.18506
7.18506
7.18506
7.18506
7.18506
7.18506
7.18506
7.18506
7.18506
7.18506
7.18506
7.18506
7.18506
7.18506
7.18506
7.18506
7.18506
7.18506
7.18506
7.18506
7.18506
7.18506
7.18506
7.18506
7.18506
7.18506
7.18506
7.18506
7.18506
7.18506
7.18506
7.18506
7.18506
7.18506
7.18506
7.18506
7.18506
7.18506
7.18506
7.18506
7.18506
7.18506
7.18506
7.18506
7.18506
7.18506
7.18506
7.18506
7.18506
7.18506
7.18506
7.18506
7.18506
7.18506
7.18506
7.18506
7.18506
7.18506
7.18506
7.18506
7.18506
7.18506
7.18506
7.18506
7.18506
7.18506
7.18506
7.18506
7.18506
7.18506
7.18506
7.18506
7.18506
7.18506
7.18506
7.18506
7.18506
7.18506
7.18506
7.18506
7.18506
7.18506
7.18506
7.18506
7.18506
7.18506
7.18506
7.18506
7.18506
7.18506
7.18506
7.18506
7.18506
7.18506
7.18506
7.18506
7.18506
7.18506
7.18506
7.18506
7.18506
7.18506
7.18506
7.18506
7.18506
7.18506
7.18506
7.18506
7.18506
7.18506
7.18506
7.18506
7.18506
7.18506
7.18506
7.18506
7.18506
7.18506
7.18506
7.18506
7.18506
7.18506
7.18506
7.18506
7.18506
7.18506
7.18506
7.18506
7.18506
7.18506
7.18506
7.18506
7.18506
7.18506
7.18506
7.18506
7.18506
7.18506
7.18506
7.18506
7.18506
7.18506
7.18506
7.18506
7.18506
7.18506
7.18506
7.18506
7.18506
7.18506
7.18506
7.18506
7.18506
7.18506
7.18506
7.18506
7.18506
7.18506
7.18506
7.18506
7.18506
7.18506
7.18506
7.18506
7.18506
7.18506
7.18506
7.18506
7.18506
7.18506
7.18506
7.18506
7.18506
7.18506
7.18506
7.18506
7.18506
7.18506
7.18506
7.18506
7.18506
7.18506
7.18506
7.18506
7.18506
7.18506
7.18506
7.18506
7.18506
7.18506
7.18506
7.18506
7.18506
7.18506
7.18506
7.18506
7.18506
7.18506
7.18506
7.18506
7.18506
7.18506
7.18506
7.18506
7.18506
7.18506
7.18506
7.18506
7.18506
7.18506
7.18506
7.18506
7.18506
7.18506
7.18506
7.18506
7.18506
7.18506
7.18506
7.18506
7.18506
7.18506
7.18506
7.18506
7.18506
7.18506
7.18506
7.18506
7.18506
7.18506
7.18506
7.18506
7.18506
7.18506
7.18506
7.18506
7.18506
7.18506
7.18506
7.18506
7.18506
7.18506
7.18506
7.18506
7.18506
7.18506
7.18506
7.18506
7.18506
7.18506
7.18506
7.18506
7.18506
7.18506
7.18506
7.18506
7.18506
7.18506
7.18506
7.18506
7.18506
7.18506
7.18506
7.18506
7.18506
7.18506
7.18506
7.18506
7.18506
7.18506
7.18506
7.18506
7.18506
7.18506
7.18506
7.18506
7.18506
7.18506
7.18506
7.18506
7.18506
7.18506
7.18506
7.18506
7.18506
7.18506
7.18506
7.18506
7.18506
7.18506
7.18506
7.18506
7.18506
7.18506
7.18506
7.18506
7.18506
7.18506
7.18506
7.18506
7.18506
7.18506
7.18506
7.18506
7.18506
7.18506
7.18506
7.18506
7.18506
7.18506
7.18506
7.18506
7.18506
7.18506
7.18506
7.18506
7.18506
7.18506
7.18506
7.18506
7.18506
7.18506
7.18506
7.18506
7.18506
7.18506
7.18506
7.18506
7.18506
7.18506
7.18506
7.18506
7.18506
7.18506
7.18506
7.18506
7.18506
7.18506
7.18506
7.18506
7.18506
7.18506
7.18506
7.18506
7.18506
7.18506
7.18506
7.18506
7.18506
7.18506
7.18506
7.18506
7.18506
7.18506
7.18506
7.18506
7.18506
7.18506
7.18506
7.18506
7.18506
7.18506
7.18506
7.18506
7.18506
7.18506
7.18506
7.18506
7.18506
7.18506
7.18506
7.18506
7.18506
7.18506
7.18506
7.18506
7.18506
7.18506
7.18506
7.18506
7.18506
7.18506
7.18506
7.18506
7.18506
7.18506
7.18506
7.18506
7.18506
7.18506
7.18506
7.18506
7.18506
7.18506
7.18506
7.18506
7.18506
7.18506
7.18506
7.18506
7.18506
7.18506
7.18506
7.18506
7.18506
7.18506
7.18506
7.18506
7.18506
7.18506
7.18506
7.18506
7.18506
7.18506
7.18506
7.18506
7.18506
7.18506
7.18506
7.18506
7.18506
7.18506
7.18506
7.18506
7.18506
7.18506
7.18506
7.18506
7.18506
7.18506
7.18506
7.18506
7.18506
7.18506
7.18506
7.18506
7.18506
7.18506
7.18506
7.18506
7.18506
7.18506
7.18506
7.18506
7.18506
7.18506
7.18506
7.18506
7.18506
7.18506
7.18506
7.18506
7.18506
7.18506
7.18506
7.18506
7.18506
7.18506
7.18506
7.18506
7.18506
7.18506
7.18506
7.18506
7.18506
7.18506
7.18506
7.18506
7.18506
7.18506
7.18506
7.18506
7.18506
7.18506
7.18506
7.18506
7.18506
7.18506
7.18506
7.18506
7.18506
7.18506
7.18506
7.18506
7.18506
7.18506
7.18506
7.18506
7.18506
7.18506
7.18506
7.18506
7.18506
7.18506
7.18506
7.18506
7.18506
7.18506
7.18506
7.18506
7.18506
7.18506
7.18506
7.18506
7.18506
7.18506
7.18506
7.18506
7.18506
7.18506
7.18506
7.18506
7.18506
7.18506
7.18506
7.18506
7.18506
7.18506
7.18506
7.18506
7.18506
7.18506
7.18506
7.18506
7.18506
7.18506
7.18506
7.18506
7.18506
7.18506
7.18506
7.18506
7.18506
7.18506
7.18506
7.18506
7.18506
7.18506
7.18506
7.18506
7.18506
7.18506
7.18506
7.18506
7.18506
7.18506
7.18506
7.18506
7.18506
7.18506
7.18506
7.18506
7.18506
7.18506
7.18506
7.18506
7.18506
7.18506
7.18506
7.18506
7.18506
7.18506
7.18506
7.18506
7.18506
7.18506
7.18506
7.18506
7.18506
7.18506
7.18506
7.18506
7.18506
7.18506
7.18506
7.18506
7.18506
7.18506
7.18506
7.18506
7.18506
7.18506
7.18506
7.18506
7.18506
7.18506
7.18506
7.18506
7.18506
7.18506
7.18506
7.18506
7.18506
7.18506
7.18506
7.18506
7.18506
7.18506
7.18506
7.18506
7.18506
7.18506
7.18506
7.18506
7.18506
7.18506
7.18506
7.18506
7.18506
7.18506
7.18506
7.18506
7.18506
7.18506
7.18506
7.18506
7.18506
7.18506
7.18506
7.18506
7.18506
7.18506
7.18506
7.18506
7.18506
7.18506
7.18506
7.18506
7.18506
7.18506
7.18506
7.18506
7.18506
7.18506
7.18506
7.18506
7.18506
7.18506
7.18506
7.18506
7.18506
7.18506
7.18506
7.18506
7.18506
7.18506
7.18506
7.18506
7.18506
7.18506
7.18506
7.18506
7.18506
7.18506
7.18506
7.18506
7.18506
7.18506
7.18506
7.18506
7.18506
7.18506
7.18506
7.18506
7.18506
7.18506
7.18506
7.18506
7.18506
7.18506
7.18506
7.18506
7.18506
7.18506
7.18506
7.18506
7.18506
7.18506
7.18506
7.18506
7.18506
7.18506
7.18506
7.18506
7.18506
7.18506
7.18506
7.18506
7.18506
7.18506
7.18506
7.18506
7.18506
7.18506
7.18506
7.18506
7.18506
7.18506
7.18506
7.18506
7.18506
7.18506
7.18506
7.18506
7.18506
7.18506
7.18506
7.18506
7.18506
7.18506
7.18506
7.18506
7.18506
7.18506
7.18506
7.18506
7.18506
7.18506
7.18506
7.18506
7.18506
7.18506
7.18506
7.18506
7.18506
7.18506
7.18506
7.18506
7.18506
7.18506
7.18506
7.18506
7.18506
7.18506
7.18506
7.18506
7.18506
7.18506
7.18506
7.18506
7.18506
7.18506
7.18506
7.18506
7.18506
7.18506
7.18506
7.18506
7.18506
7.18506
7.18506
7.18506
7.18506
7.18506
7.18506
7.18506
7.18506
7.18506
7.18506
7.18506
7.18506
7.18506
7.18506
7.18505
7.18506
7.18506
7.18506
7.18506
7.18506
7.18506
7.18506
7.18506
7.18506
7.18506
7.18506
7.18506
7.18506
7.18506
7.18506
7.18506
7.18506
7.18506
7.18506
7.18506
7.18506
7.18506
7.18506
7.18506
7.18506
7.18506
7.18506
7.18506
7.18506
7.18506
7.18506
7.18506
7.18506
7.18506
7.18506
7.18506
7.18506
7.18506
7.18506
7.18506
7.18506
7.18506
7.18506
7.18506
7.18506
7.18506
7.18506
7.18506
7.18506
7.18506
7.18506
7.18506
7.18506
7.18506
7.18506
7.18506
7.18506
7.18506
7.18506
7.18506
7.18506
7.18506
7.18506
7.18506
7.18506
7.18506
7.18506
7.18506
7.18506
7.18506
7.18506
7.18506
7.18506
7.18506
7.18506
7.18506
7.18506
7.18506
7.18506
7.18506
7.18506
7.18506
7.18506
7.18506
7.18506
7.18506
7.18506
7.18506
7.18506
7.18506
7.18506
7.18506
7.18506
7.18506
7.18506
7.18505
7.18505
7.18505
7.18505
7.18505
7.18505
7.18504
7.18504
7.18504
7.18504
7.18503
7.18503
7.18502
7.18502
7.18501
7.18506
7.18506
7.18506
7.18506
7.18506
7.18506
7.18506
7.18506
7.18506
7.18506
7.18506
7.18506
7.18506
7.18506
7.18506
7.18506
7.18506
7.18506
7.18506
7.18506
7.18506
7.18506
7.18506
7.18506
7.18506
7.18506
7.18506
7.18506
7.18506
7.18506
7.18506
7.18506
7.18506
7.18506
7.18506
7.18506
7.18506
7.18506
7.18506
7.18506
7.18506
7.18506
7.18506
7.18506
7.18506
7.18506
7.18506
7.18506
7.18506
7.18506
7.18506
7.18506
7.18506
7.18506
7.18506
7.18506
7.18506
7.18506
7.18506
7.18506
7.18506
7.18506
7.18506
7.18506
7.18506
7.18506
7.18506
7.18506
7.18506
7.18506
7.18506
7.18506
7.18506
7.18506
7.18506
7.18506
7.18506
7.18506
7.18506
7.18506
7.18505
7.18505
7.18505
7.18505
7.18505
7.18505
7.18505
7.18504
7.18504
7.18504
7.18504
7.18503
7.18503
7.18503
7.18502
7.18502
7.18501
7.185
7.18499
7.18499
7.18498
7.18497
7.18495
7.18494
7.18492
7.18491
7.18489
7.18486
7.18483
7.1848
7.18477
7.18506
7.18506
7.18506
7.18506
7.18506
7.18506
7.18506
7.18506
7.18506
7.18506
7.18506
7.18506
7.18506
7.18506
7.18506
7.18506
7.18506
7.18506
7.18506
7.18506
7.18506
7.18506
7.18506
7.18506
7.18506
7.18506
7.18506
7.18506
7.18506
7.18506
7.18506
7.18506
7.18506
7.18506
7.18506
7.18506
7.18506
7.18506
7.18506
7.18506
7.18506
7.18506
7.18506
7.18506
7.18506
7.18506
7.18506
7.18506
7.18506
7.18506
7.18506
7.18506
7.18506
7.18506
7.18506
7.18506
7.18506
7.18506
7.18506
7.18506
7.18506
7.18506
7.18505
7.18505
7.18505
7.18505
7.18505
7.18505
7.18505
7.18505
7.18505
7.18504
7.18504
7.18504
7.18504
7.18503
7.18503
7.18503
7.18502
7.18502
7.18501
7.18501
7.185
7.185
7.18499
7.18498
7.18497
7.18496
7.18495
7.18493
7.18492
7.1849
7.18488
7.18486
7.18484
7.18481
7.18477
7.18474
7.18469
7.18465
7.18459
7.18454
7.18447
7.1844
7.18432
7.18422
7.1841
7.18397
7.18382
7.18366
7.18347
7.18326
7.18304
7.18506
7.18506
7.18506
7.18506
7.18506
7.18506
7.18506
7.18506
7.18506
7.18506
7.18506
7.18506
7.18506
7.18506
7.18506
7.18506
7.18506
7.18506
7.18506
7.18506
7.18506
7.18506
7.18506
7.18506
7.18506
7.18506
7.18506
7.18506
7.18506
7.18506
7.18506
7.18506
7.18506
7.18506
7.18506
7.18506
7.18506
7.18505
7.18505
7.18505
7.18505
7.18505
7.18505
7.18505
7.18505
7.18505
7.18505
7.18505
7.18505
7.18504
7.18504
7.18504
7.18504
7.18504
7.18504
7.18504
7.18503
7.18503
7.18503
7.18503
7.18502
7.18502
7.18502
7.18501
7.18501
7.185
7.185
7.18499
7.18498
7.18498
7.18497
7.18496
7.18495
7.18494
7.18493
7.18491
7.1849
7.18488
7.18486
7.18484
7.18482
7.18479
7.18476
7.18472
7.18469
7.18464
7.18459
7.18453
7.18447
7.1844
7.18432
7.18423
7.18413
7.18402
7.18389
7.18374
7.18357
7.18338
7.18316
7.18292
7.18265
7.18235
7.18202
7.18164
7.1812
7.18067
7.18006
7.17934
7.17853
7.17762
7.17661
7.1755
7.17429
7.18506
7.18506
7.18506
7.18506
7.18506
7.18506
7.18506
7.18506
7.18506
7.18506
7.18506
7.18506
7.18506
7.18505
7.18505
7.18505
7.18505
7.18505
7.18505
7.18505
7.18505
7.18505
7.18505
7.18505
7.18505
7.18504
7.18504
7.18504
7.18504
7.18504
7.18504
7.18504
7.18503
7.18503
7.18503
7.18503
7.18503
7.18502
7.18502
7.18502
7.18502
7.18501
7.18501
7.18501
7.18501
7.185
7.185
7.18499
7.18499
7.18498
7.18498
7.18497
7.18497
7.18496
7.18495
7.18495
7.18494
7.18493
7.18492
7.18491
7.1849
7.18488
7.18487
7.18485
7.18484
7.18482
7.1848
7.18477
7.18475
7.18472
7.18469
7.18465
7.18462
7.18457
7.18452
7.18447
7.1844
7.18433
7.18425
7.18417
7.18407
7.18397
7.18385
7.18372
7.18356
7.18339
7.18319
7.18297
7.18271
7.18243
7.18211
7.18177
7.18138
7.18095
7.18046
7.1799
7.17923
7.17846
7.17756
7.17655
7.17541
7.17415
7.17277
7.17125
7.16955
7.1676
7.16531
7.16261
7.15945
7.1558
7.15167
7.14707
7.142
7.13646
7.1304
7.18505
7.18505
7.18505
7.18504
7.18504
7.18504
7.18504
7.18504
7.18503
7.18503
7.18503
7.18503
7.18503
7.18502
7.18502
7.18502
7.18501
7.18501
7.18501
7.185
7.185
7.18499
7.18499
7.18499
7.18498
7.18498
7.18497
7.18497
7.18496
7.18495
7.18495
7.18494
7.18493
7.18492
7.18492
7.18491
7.1849
7.18489
7.18488
7.18487
7.18486
7.18485
7.18483
7.18482
7.1848
7.18479
7.18477
7.18475
7.18473
7.18471
7.18469
7.18466
7.18463
7.18461
7.18457
7.18454
7.1845
7.18446
7.18442
7.18437
7.18431
7.18425
7.18418
7.18411
7.18402
7.18393
7.18383
7.18372
7.18359
7.18346
7.18332
7.18315
7.18297
7.18276
7.18252
7.18225
7.18195
7.18161
7.18124
7.18082
7.18037
7.17987
7.17931
7.17867
7.17794
7.17708
7.1761
7.17497
7.1737
7.17229
7.17072
7.169
7.16711
7.165
7.16259
7.15978
7.15649
7.15268
7.14831
7.14337
7.13787
7.13181
7.12518
7.11791
7.10981
7.10042
7.08921
7.07581
7.06009
7.04212
7.02204
7.00001
6.97622
6.9508
6.9236
6.89362
7.18503
7.18502
7.18502
7.18502
7.18501
7.18501
7.185
7.185
7.18499
7.18498
7.18498
7.18497
7.18496
7.18495
7.18495
7.18494
7.18493
7.18492
7.18491
7.1849
7.18489
7.18487
7.18486
7.18485
7.18483
7.18482
7.1848
7.18478
7.18477
7.18475
7.18473
7.18471
7.18469
7.18466
7.18464
7.18462
7.18459
7.18456
7.18453
7.1845
7.18447
7.18443
7.1844
7.18436
7.18432
7.18427
7.18423
7.18418
7.18413
7.18407
7.18401
7.18395
7.18388
7.1838
7.18372
7.18363
7.18353
7.18342
7.18331
7.18318
7.18305
7.1829
7.18275
7.18258
7.1824
7.1822
7.18197
7.18172
7.18144
7.18112
7.18077
7.18039
7.17997
7.17951
7.17901
7.17846
7.17785
7.17718
7.17642
7.17556
7.17457
7.17343
7.17215
7.1707
7.16909
7.16731
7.16536
7.16322
7.16087
7.15823
7.15521
7.15172
7.14768
7.14305
7.13779
7.13189
7.12534
7.11815
7.11028
7.10164
7.09202
7.08091
7.06782
7.05236
7.03442
7.01405
6.99135
6.9665
6.93965
6.91094
6.88017
6.84634
6.8073
6.76115
6.70738
6.64653
6.57959
6.50772
6.43209
6.35387
6.27369
6.19173
6.10586
7.18491
7.18489
7.18488
7.18486
7.18484
7.18482
7.1848
7.18478
7.18475
7.18473
7.1847
7.18467
7.18464
7.18461
7.18457
7.18453
7.18449
7.18445
7.18441
7.18436
7.18432
7.18426
7.18421
7.18415
7.18409
7.18403
7.18397
7.1839
7.18383
7.18375
7.18367
7.18359
7.1835
7.18341
7.18331
7.18321
7.1831
7.18298
7.18285
7.18272
7.18258
7.18243
7.18227
7.1821
7.18193
7.18174
7.18155
7.18134
7.18112
7.18089
7.18063
7.18035
7.18005
7.17971
7.17935
7.17896
7.17854
7.17808
7.17758
7.17704
7.17647
7.17585
7.17518
7.17445
7.17364
7.17274
7.17174
7.1706
7.16932
7.16789
7.16631
7.16456
7.16265
7.16056
7.15829
7.15582
7.15311
7.15009
7.14666
7.14275
7.13826
7.13316
7.12741
7.12098
7.11387
7.10606
7.09752
7.08821
7.07797
7.06647
7.05321
7.03772
7.01973
6.99918
6.9761
6.95062
6.92286
6.89296
6.861
6.82671
6.789
6.74581
6.69559
6.63798
6.57355
6.50326
6.42819
6.34942
6.26804
6.18469
6.09951
6.01035
5.909
5.79158
5.66198
5.52618
5.38897
5.25382
5.12325
4.9987
4.88089
4.76872
4.65906
7.18442
7.18435
7.18429
7.18422
7.18414
7.18406
7.18397
7.18388
7.18378
7.18368
7.18357
7.18345
7.18332
7.18319
7.18305
7.18291
7.18275
7.18259
7.18241
7.18222
7.18203
7.18182
7.1816
7.18136
7.18112
7.18086
7.1806
7.18032
7.18003
7.17973
7.17941
7.17907
7.17871
7.17834
7.17793
7.1775
7.17705
7.17656
7.17605
7.17551
7.17493
7.17433
7.17369
7.17301
7.1723
7.17155
7.17075
7.16991
7.169
7.16802
7.16694
7.16575
7.16445
7.16303
7.16147
7.15978
7.15795
7.15597
7.15384
7.15154
7.14908
7.14644
7.1436
7.14049
7.13704
7.13319
7.12885
7.12397
7.11852
7.11248
7.10581
7.09849
7.0905
7.08181
7.0724
7.06218
7.05101
7.03852
7.02426
7.00783
6.98898
6.96765
6.94384
6.91765
6.88915
6.85844
6.82561
6.7906
6.75284
6.71088
6.66298
6.60822
6.5467
6.47907
6.40622
6.3291
6.24867
6.16585
6.08107
5.99438
5.90322
5.80045
5.68418
5.55806
5.42707
5.29522
5.16545
5.03982
4.91963
4.80563
4.69671
4.58987
4.46953
4.33401
4.19529
4.062
3.9383
3.82602
3.72579
3.63736
3.55962
3.49164
3.43287
7.18245
7.1822
7.18194
7.18166
7.18136
7.18104
7.18069
7.18033
7.17993
7.17952
7.17908
7.17861
7.17812
7.17759
7.17704
7.17645
7.17583
7.17518
7.17448
7.17374
7.17297
7.17215
7.17129
7.17039
7.16945
7.16846
7.16743
7.16636
7.16523
7.16405
7.16281
7.16149
7.16008
7.15857
7.15696
7.15523
7.15339
7.15144
7.14936
7.14716
7.14484
7.14239
7.13982
7.13711
7.13426
7.13128
7.12811
7.12474
7.12109
7.11712
7.11277
7.108
7.10279
7.09711
7.09094
7.08426
7.07704
7.06926
7.0609
7.05194
7.04235
7.03209
7.02105
7.00899
6.99556
6.98043
6.96335
6.94419
6.92292
6.89956
6.87413
6.84667
6.81721
6.78579
6.75242
6.71695
6.67876
6.63648
6.58876
6.53497
6.47523
6.41007
6.3402
6.26635
6.18923
6.10958
6.02795
5.94452
5.85868
5.76609
5.66236
5.54827
5.42755
5.30398
5.18048
5.05922
4.94179
4.82909
4.72163
4.61815
4.51567
4.3996
4.27315
4.1455
4.02297
3.90891
3.80475
3.71102
3.62767
3.55398
3.48913
3.43257
3.38464
3.34421
3.30939
3.27891
3.25218
3.22901
3.20924
3.19253
3.17856
3.16717
3.15824
3.15165
3.14672
7.17474
7.17379
7.17277
7.17167
7.1705
7.16925
7.16792
7.1665
7.16501
7.16343
7.16176
7.16
7.15814
7.15617
7.15408
7.15186
7.14949
7.14698
7.14431
7.14149
7.1385
7.13536
7.13207
7.12862
7.12502
7.12128
7.11738
7.11333
7.1091
7.10466
7.09996
7.09496
7.08964
7.08397
7.07793
7.07151
7.0647
7.05749
7.04987
7.04183
7.03336
7.02446
7.01512
7.00534
6.9951
6.98437
6.97305
6.96093
6.94777
6.93336
6.91755
6.90023
6.88138
6.86099
6.83904
6.81555
6.79051
6.76392
6.73581
6.70618
6.67503
6.64229
6.60757
6.57001
6.52852
6.48248
6.43178
6.37667
6.31754
6.25478
6.18882
6.12007
6.04894
5.97585
5.90107
5.82458
5.74549
5.65986
5.56504
5.46206
5.35372
5.24277
5.1314
5.02126
4.91359
4.8092
4.70868
4.61196
4.51729
4.41794
4.30726
4.19162
4.07733
3.96827
3.86652
3.77318
3.68866
3.61279
3.54492
3.48459
3.43168
3.38664
3.34799
3.31433
3.28477
3.25871
3.23593
3.21636
3.19967
3.18557
3.17386
3.16436
3.15696
3.1512
3.14648
3.14216
3.1378
3.13345
3.12908
3.12479
3.12089
3.11737
3.11429
3.11218
3.11106
7.1456
7.14206
7.13827
7.1342
7.12984
7.1252
7.12026
7.11502
7.1095
7.10369
7.09758
7.09115
7.08436
7.07719
7.0696
7.06156
7.05308
7.04412
7.03469
7.0248
7.01443
7.00361
6.99233
6.98061
6.96845
6.95587
6.94288
6.92942
6.9154
6.90066
6.88505
6.86846
6.8508
6.83203
6.81215
6.79116
6.7691
6.74599
6.72185
6.69673
6.67064
6.64364
6.61574
6.58698
6.55737
6.52681
6.4949
6.46097
6.4244
6.38489
6.34241
6.29706
6.24901
6.19842
6.14545
6.09028
6.03312
5.97416
5.91363
5.85174
5.78867
5.72437
5.6584
5.58854
5.51239
5.42988
5.34245
5.25188
5.15961
5.06681
4.97439
4.88306
4.79341
4.70581
4.62063
4.53757
4.45511
4.36651
4.26947
4.16894
4.06926
3.97319
3.88242
3.79782
3.71978
3.64842
3.58356
3.52482
3.47203
3.42553
3.38529
3.35015
3.3191
3.29144
3.26693
3.24543
3.22673
3.21053
3.19652
3.18461
3.17491
3.16718
3.16077
3.15518
3.15013
3.14534
3.14062
3.1361
3.13158
3.12731
3.12359
3.12035
3.11773
3.11599
3.11491
3.11415
3.11343
3.11264
3.11161
3.11004
3.1086
3.1072
3.10546
3.10403
3.10306
7.05229
7.04067
7.02827
7.01507
7.00106
6.98625
6.97064
6.95427
6.93714
6.91928
6.90068
6.88131
6.86107
6.83983
6.81751
6.79403
6.76936
6.74351
6.71652
6.68844
6.65935
6.62933
6.59847
6.56687
6.53461
6.5018
6.4685
6.43477
6.40042
6.36504
6.32822
6.28972
6.24948
6.20755
6.16405
6.1191
6.07284
6.02539
5.97688
5.92746
5.87726
5.82642
5.77508
5.72337
5.67141
5.61923
5.56666
5.51303
5.45644
5.39606
5.33209
5.26525
5.19632
5.12596
5.05471
4.98301
4.91126
4.83983
4.76901
4.69908
4.63021
4.56262
4.49631
4.43025
4.3611
4.28531
4.2056
4.12491
4.04524
3.96789
3.89368
3.82314
3.7566
3.69425
3.63615
3.58223
3.53237
3.48658
3.44552
3.40909
3.37645
3.34705
3.32064
3.29687
3.27553
3.25649
3.23962
3.22474
3.21168
3.20043
3.19095
3.18295
3.17609
3.17001
3.16433
3.15882
3.15357
3.14842
3.14359
3.13912
3.13486
3.13106
3.12813
3.12598
3.12424
3.12277
3.12138
3.11994
3.11865
3.11698
3.11462
3.11293
3.11138
3.10947
3.10826
3.10749
3.10669
3.10608
3.10561
3.10495
3.10401
3.10279
3.10149
3.10007
3.09871
3.09744
6.74456
6.71057
6.67482
6.63737
6.59833
6.55783
6.51603
6.47311
6.42926
6.38463
6.3393
6.29312
6.24582
6.19722
6.14728
6.09608
6.0438
5.99063
5.93678
5.88244
5.8278
5.77306
5.71837
5.66393
5.60988
5.55639
5.50359
5.45145
5.39962
5.3469
5.29258
5.23666
5.17944
5.12134
5.06275
5.004
4.94538
4.88711
4.82941
4.77243
4.71633
4.66122
4.6072
4.55434
4.50265
4.4522
4.40265
4.35302
4.29955
4.24263
4.18386
4.12447
4.06527
4.00685
3.94963
3.89394
3.84007
3.78823
3.73858
3.69126
3.64632
3.60384
3.56373
3.52605
3.49125
3.45964
3.4307
3.40405
3.37939
3.35658
3.33547
3.31599
3.29808
3.28164
3.26665
3.25303
3.24067
3.22962
3.21989
3.21133
3.2037
3.19672
3.19019
3.1839
3.17781
3.17206
3.16639
3.161
3.15623
3.1518
3.14782
3.14453
3.14172
3.13929
3.13709
3.13503
3.13311
3.13066
3.12816
3.12614
3.12405
3.12138
3.11921
3.1176
3.11628
3.11518
3.11389
3.11271
3.11179
3.11053
3.10888
3.10721
3.1056
3.10398
3.10251
3.10124
3.10021
3.09941
3.09879
3.09804
3.0971
3.09588
3.09441
3.09283
3.09128
3.08982
3.08852
3.08739
6.00037
5.93259
5.86394
5.79477
5.72544
5.65628
5.58759
5.51964
5.45267
5.38685
5.32214
5.25801
5.19372
5.12908
5.06431
4.99977
4.93583
4.87283
4.81104
4.75067
4.69189
4.63483
4.57959
4.52626
4.47488
4.42547
4.37807
4.33255
4.28816
4.24233
4.19489
4.14676
4.09866
4.05106
4.00431
3.95865
3.91426
3.8713
3.82989
3.7901
3.75198
3.71558
3.68091
3.64795
3.61667
3.58703
3.55893
3.53237
3.5078
3.48492
3.46338
3.44298
3.42361
3.40517
3.38766
3.37104
3.35532
3.34049
3.32654
3.31345
3.30122
3.28981
3.27916
3.2693
3.26026
3.25204
3.24446
3.23729
3.23035
3.2236
3.21693
3.21047
3.2043
3.19819
3.19243
3.18711
3.18182
3.17683
3.17253
3.16848
3.16467
3.16141
3.15842
3.1553
3.15227
3.14987
3.14702
3.14344
3.14107
3.13872
3.13552
3.13327
3.13116
3.12906
3.12706
3.12578
3.12422
3.12224
3.1201
3.1181
3.11673
3.11446
3.11241
3.11047
3.10878
3.10737
3.10604
3.1049
3.10377
3.10243
3.10097
3.09937
3.09758
3.09578
3.09408
3.09256
3.09124
3.09013
3.08919
3.08838
3.08756
3.08657
3.08536
3.08397
3.08247
3.08097
3.07953
3.0782
4.89155
4.814
4.73833
4.6649
4.594
4.52582
4.4605
4.3981
4.33864
4.28218
4.22831
4.17565
4.12286
4.07049
4.01918
3.96935
3.9213
3.87524
3.83129
3.78954
3.75002
3.71277
3.6778
3.64509
3.61458
3.58623
3.55998
3.53569
3.51319
3.49268
3.47387
3.45645
3.44019
3.42497
3.41069
3.39728
3.3847
3.3729
3.36185
3.35152
3.34185
3.33283
3.3244
3.31654
3.30919
3.30229
3.29578
3.28964
3.28384
3.27827
3.27284
3.26745
3.26207
3.2567
3.25133
3.24599
3.24069
3.23545
3.23029
3.22521
3.22024
3.21536
3.2106
3.20596
3.20148
3.19727
3.19338
3.1897
3.1862
3.18296
3.17953
3.17613
3.17316
3.16959
3.16601
3.16325
3.15988
3.15604
3.15339
3.15065
3.14724
3.14487
3.14283
3.13991
3.13756
3.13573
3.13301
3.13064
3.12868
3.12694
3.12434
3.12225
3.12023
3.11831
3.1163
3.11492
3.11341
3.11166
3.10975
3.10796
3.10591
3.10387
3.10186
3.09988
3.09802
3.09631
3.09478
3.09342
3.0922
3.09102
3.08979
3.08846
3.08696
3.08533
3.08369
3.08213
3.08069
3.07941
3.07831
3.07735
3.07646
3.07551
3.07441
3.07313
3.07172
3.07022
3.06871
3.06724
3.8846
3.82813
3.77471
3.72447
3.67749
3.63379
3.59333
3.55605
3.52186
3.49066
3.46237
3.43706
3.41472
3.39491
3.37725
3.3614
3.34715
3.33432
3.32277
3.31241
3.30312
3.29486
3.28755
3.28114
3.27555
3.27077
3.2668
3.26345
3.2605
3.25779
3.25525
3.25282
3.25044
3.24808
3.24573
3.24339
3.24105
3.23871
3.23636
3.23402
3.23167
3.22931
3.22693
3.22456
3.22219
3.21987
3.21759
3.21548
3.21349
3.21154
3.20956
3.20751
3.20534
3.20303
3.20057
3.19795
3.19518
3.19229
3.18929
3.1862
3.18305
3.17985
3.17664
3.17343
3.17022
3.1671
3.16414
3.16126
3.15859
3.15622
3.15347
3.15093
3.14894
3.14609
3.1435
3.14156
3.13893
3.13603
3.13405
3.13181
3.12912
3.12727
3.12556
3.12319
3.12126
3.11936
3.11694
3.11503
3.11311
3.11135
3.10922
3.10723
3.1053
3.10337
3.10147
3.09982
3.0983
3.0968
3.09531
3.09377
3.09206
3.09027
3.08842
3.08657
3.08474
3.08297
3.08133
3.07984
3.07851
3.07729
3.0761
3.07489
3.07356
3.07212
3.0706
3.06909
3.06763
3.06628
3.06505
3.06395
3.06291
3.06186
3.06073
3.05946
3.05806
3.05656
3.05499
3.05342
3.05188
3.26339
3.24761
3.23389
3.222
3.21175
3.20299
3.19558
3.1894
3.18437
3.18054
3.17788
3.17607
3.17481
3.17386
3.17314
3.17259
3.17218
3.17189
3.17176
3.17173
3.17181
3.17199
3.17222
3.17252
3.17302
3.17403
3.17536
3.17673
3.17802
3.17917
3.18017
3.18098
3.1816
3.182
3.18216
3.18211
3.18185
3.18133
3.18066
3.17984
3.17886
3.17775
3.17654
3.17525
3.17388
3.17247
3.171
3.16956
3.16815
3.16677
3.16538
3.16395
3.16244
3.16085
3.15915
3.15735
3.15545
3.15346
3.15139
3.14926
3.14706
3.14484
3.14261
3.14032
3.13809
3.13591
3.13372
3.1317
3.12973
3.12732
3.12527
3.12364
3.12113
3.11913
3.11753
3.11529
3.1131
3.11146
3.10937
3.10726
3.10558
3.10366
3.10197
3.10049
3.09887
3.09725
3.09564
3.09399
3.0924
3.09068
3.08892
3.08716
3.08538
3.08361
3.08193
3.08038
3.0789
3.07749
3.07607
3.07458
3.07299
3.07133
3.06964
3.06792
3.06621
3.06455
3.063
3.06158
3.06027
3.05904
3.05782
3.05656
3.05523
3.05383
3.0524
3.05098
3.04962
3.04833
3.04713
3.04599
3.04484
3.04364
3.04234
3.04092
3.03938
3.03775
3.03608
3.03441
3.07849
3.07824
3.07826
3.07873
3.07939
3.08023
3.08128
3.08259
3.08397
3.08595
3.08873
3.09177
3.09475
3.09762
3.10037
3.10303
3.10556
3.10791
3.11018
3.11229
3.11421
3.11601
3.11774
3.11938
3.12085
3.12212
3.12338
3.12478
3.12631
3.12789
3.12945
3.13093
3.1323
3.13352
3.13458
3.13545
3.13613
3.13661
3.1369
3.13701
3.13692
3.13666
3.13625
3.1357
3.13501
3.13419
3.13305
3.1317
3.13034
3.12903
3.12778
3.12654
3.12531
3.12405
3.12275
3.12139
3.11997
3.11847
3.11692
3.11529
3.11359
3.11186
3.11007
3.10817
3.1063
3.10437
3.10229
3.10052
3.09896
3.09712
3.09573
3.09457
3.0926
3.0912
3.09002
3.08821
3.08655
3.08537
3.08363
3.0819
3.08045
3.07885
3.0774
3.07611
3.07476
3.07343
3.07207
3.07067
3.06928
3.06783
3.06631
3.06474
3.06314
3.06153
3.05994
3.05842
3.05694
3.05551
3.05413
3.05273
3.05128
3.04979
3.04824
3.04667
3.04507
3.04349
3.04196
3.04053
3.03919
3.03792
3.0367
3.03548
3.03423
3.03292
3.03158
3.03022
3.02889
3.02759
3.02634
3.02513
3.02392
3.02266
3.02132
3.01987
3.01829
3.0166
3.01483
3.01303
3.00804
3.01128
3.015
3.01838
3.02139
3.02451
3.02788
3.03081
3.03386
3.03673
3.0396
3.04273
3.04611
3.04947
3.053
3.05657
3.05992
3.06331
3.06661
3.06976
3.07275
3.0756
3.07829
3.0807
3.0824
3.08363
3.08477
3.08603
3.08746
3.08899
3.09056
3.09208
3.09351
3.09479
3.09588
3.09674
3.09737
3.09777
3.09792
3.09784
3.09753
3.09696
3.09622
3.09527
3.09416
3.093
3.0918
3.09056
3.08935
3.0882
3.08712
3.08608
3.08506
3.08404
3.08299
3.08192
3.0808
3.07965
3.07844
3.07717
3.07589
3.07454
3.0731
3.0717
3.07019
3.0685
3.06707
3.0657
3.06414
3.06305
3.06213
3.06057
3.05954
3.0587
3.05722
3.05595
3.05509
3.05371
3.05229
3.0512
3.04985
3.04865
3.04744
3.04634
3.04518
3.04395
3.04273
3.04154
3.04029
3.03899
3.03763
3.03621
3.03477
3.03333
3.03189
3.03047
3.02907
3.02771
3.02636
3.02501
3.02364
3.02223
3.02079
3.01933
3.01786
3.01641
3.01503
3.01371
3.01247
3.01128
3.0101
3.00891
3.0077
3.00644
3.00516
3.00387
3.00258
3.00132
3.00007
2.99881
2.99752
2.99614
2.99466
2.99304
2.9913
2.98945
2.98754
2.96393
2.96854
2.97318
2.97764
2.98221
2.98688
2.99147
2.99544
2.999
3.00208
3.00558
3.00964
3.01272
3.01666
3.02086
3.02446
3.02754
3.03095
3.03433
3.03722
3.03961
3.04178
3.0436
3.04529
3.04664
3.04765
3.04849
3.04931
3.05018
3.05112
3.05211
3.05311
3.05407
3.05492
3.05562
3.05616
3.0565
3.05665
3.05659
3.05634
3.05584
3.05518
3.05433
3.05331
3.05218
3.05097
3.04971
3.04846
3.04727
3.04616
3.04514
3.04419
3.04329
3.04242
3.04155
3.04069
3.03981
3.0389
3.03796
3.03702
3.03601
3.03496
3.03395
3.03282
3.03155
3.03045
3.02929
3.02798
3.02705
3.02624
3.02501
3.02421
3.02359
3.0224
3.02142
3.02079
3.01968
3.01856
3.01775
3.01674
3.01565
3.0146
3.01366
3.01267
3.0116
3.01047
3.00941
3.00833
3.00719
3.00601
3.00478
3.00351
3.00221
3.00089
2.99956
2.99822
2.99691
2.99562
2.99434
2.99306
2.99177
2.99046
2.98912
2.98777
2.98644
2.98513
2.98388
2.98269
2.98155
2.98043
2.97933
2.9782
2.97704
2.97584
2.9746
2.97335
2.97208
2.97081
2.96952
2.96819
2.96678
2.96527
2.96363
2.96184
2.95993
2.95793
2.95589
2.95384
2.93087
2.93594
2.94094
2.9457
2.95031
2.9547
2.95872
2.96252
2.96611
2.96914
2.9726
2.97573
2.9784
2.98159
2.98502
2.98819
2.99066
2.99372
2.9965
2.9992
3.00153
3.00355
3.00528
3.00679
3.00801
3.00892