/*--------------------------------*- C++ -*----------------------------------*\
| =========                 |                                                 |
| \\      /  F ield         | OpenFOAM: The Open Source CFD Toolbox           |
|  \\    /   O peration     | Version:  v1706                                 |
|   \\  /    A nd           | Web:      www.OpenFOAM.com                      |
|    \\/     M anipulation  |                                                 |
\*---------------------------------------------------------------------------*/
FoamFile
{
    version     2.0;
    format      ascii;
    class       volScalarField;
    location    "3.3e-05";
    object      mu;
}
// * * * * * * * * * * * * * * * * * * * * * * * * * * * * * * * * * * * * * //

dimensions      [1 -1 -1 0 0 0 0];


internalField   nonuniform List<scalar> 
29871
(
1.0351e-05
1.0351e-05
1.0351e-05
1.0351e-05
1.0351e-05
1.0351e-05
1.0351e-05
1.0351e-05
1.0351e-05
1.0351e-05
1.0351e-05
1.0351e-05
1.0351e-05
1.0351e-05
1.0351e-05
1.0351e-05
1.0351e-05
1.0351e-05
1.0351e-05
1.0351e-05
1.0351e-05
1.0351e-05
1.0351e-05
1.0351e-05
1.0351e-05
1.0351e-05
1.0351e-05
1.0351e-05
1.0351e-05
1.0351e-05
1.0351e-05
1.0351e-05
1.0351e-05
1.0351e-05
1.0351e-05
1.0351e-05
1.0351e-05
1.0351e-05
1.0351e-05
1.0351e-05
1.0351e-05
1.0351e-05
1.0351e-05
1.0351e-05
1.0351e-05
1.0351e-05
1.0351e-05
1.0351e-05
1.0351e-05
1.0351e-05
1.0351e-05
1.0351e-05
1.0351e-05
1.0351e-05
1.0351e-05
1.0351e-05
1.0351e-05
1.0351e-05
1.0351e-05
1.0351e-05
1.0351e-05
1.0351e-05
1.0351e-05
1.0351e-05
1.0351e-05
1.0351e-05
1.0351e-05
1.0351e-05
1.0351e-05
1.0351e-05
1.0351e-05
1.0351e-05
1.0351e-05
1.0351e-05
1.0351e-05
1.0351e-05
1.0351e-05
1.0351e-05
1.0351e-05
1.0351e-05
1.0351e-05
1.0351e-05
1.0351e-05
1.0351e-05
1.0351e-05
1.0351e-05
1.0351e-05
1.0351e-05
1.0351e-05
1.0351e-05
1.0351e-05
1.0351e-05
1.0351e-05
1.0351e-05
1.0351e-05
1.0351e-05
1.0351e-05
1.0351e-05
1.0351e-05
1.0351e-05
1.0351e-05
1.0351e-05
1.0351e-05
1.0351e-05
1.0351e-05
1.0351e-05
1.0351e-05
1.0351e-05
1.0351e-05
1.0351e-05
1.0351e-05
1.0351e-05
1.0351e-05
1.0351e-05
1.0351e-05
1.0351e-05
1.0351e-05
1.0351e-05
1.0351e-05
1.0351e-05
1.0351e-05
1.0351e-05
1.0351e-05
1.0351e-05
1.0351e-05
1.0351e-05
1.0351e-05
1.0351e-05
1.0351e-05
1.0351e-05
1.0351e-05
1.0351e-05
1.0351e-05
1.0351e-05
1.0351e-05
1.0351e-05
1.0351e-05
1.0351e-05
1.0351e-05
1.0351e-05
1.0351e-05
1.0351e-05
1.0351e-05
1.0351e-05
1.0351e-05
1.0351e-05
1.0351e-05
1.0351e-05
1.0351e-05
1.0351e-05
1.0351e-05
1.0351e-05
1.0351e-05
1.0351e-05
1.0351e-05
1.0351e-05
1.0351e-05
1.0351e-05
1.0351e-05
1.0351e-05
1.0351e-05
1.0351e-05
1.0351e-05
1.0351e-05
1.0351e-05
1.0351e-05
1.0351e-05
1.0351e-05
1.0351e-05
1.0351e-05
1.0351e-05
1.0351e-05
1.0351e-05
1.0351e-05
1.0351e-05
1.0351e-05
1.0351e-05
1.0351e-05
1.0351e-05
1.0351e-05
1.0351e-05
1.0351e-05
1.0351e-05
1.0351e-05
1.0351e-05
1.0351e-05
1.0351e-05
1.0351e-05
1.0351e-05
1.0351e-05
1.0351e-05
1.0351e-05
1.0351e-05
1.0351e-05
1.0351e-05
1.0351e-05
1.0351e-05
1.0351e-05
1.0351e-05
1.0351e-05
1.0351e-05
1.0351e-05
1.0351e-05
1.0351e-05
1.0351e-05
1.0351e-05
1.0351e-05
1.0351e-05
1.0351e-05
1.0351e-05
1.0351e-05
1.0351e-05
1.0351e-05
1.0351e-05
1.0351e-05
1.0351e-05
1.0351e-05
1.0351e-05
1.0351e-05
1.0351e-05
1.0351e-05
1.0351e-05
1.0351e-05
1.0351e-05
1.0351e-05
1.0351e-05
1.0351e-05
1.0351e-05
1.0351e-05
1.0351e-05
1.0351e-05
1.0351e-05
1.0351e-05
1.0351e-05
1.0351e-05
1.0351e-05
1.0351e-05
1.0351e-05
1.0351e-05
1.0351e-05
1.0351e-05
1.0351e-05
1.0351e-05
1.0351e-05
1.0351e-05
1.0351e-05
1.0351e-05
1.0351e-05
1.0351e-05
1.0351e-05
1.0351e-05
1.0351e-05
1.0351e-05
1.0351e-05
1.0351e-05
1.0351e-05
1.0351e-05
1.0351e-05
1.0351e-05
1.0351e-05
1.0351e-05
1.0351e-05
1.0351e-05
1.0351e-05
1.0351e-05
1.0351e-05
1.0351e-05
1.0351e-05
1.0351e-05
1.0351e-05
1.0351e-05
1.0351e-05
1.0351e-05
1.0351e-05
1.0351e-05
1.0351e-05
1.0351e-05
1.0351e-05
1.0351e-05
1.0351e-05
1.0351e-05
1.0351e-05
1.0351e-05
1.0351e-05
1.0351e-05
1.0351e-05
1.0351e-05
1.0351e-05
1.0351e-05
1.0351e-05
1.0351e-05
1.0351e-05
1.0351e-05
1.0351e-05
1.0351e-05
1.0351e-05
1.0351e-05
1.0351e-05
1.0351e-05
1.0351e-05
1.0351e-05
1.0351e-05
1.0351e-05
1.0351e-05
1.0351e-05
1.0351e-05
1.0351e-05
1.0351e-05
1.0351e-05
1.0351e-05
1.0351e-05
1.0351e-05
1.0351e-05
1.0351e-05
1.0351e-05
1.0351e-05
1.0351e-05
1.0351e-05
1.0351e-05
1.0351e-05
1.0351e-05
1.0351e-05
1.0351e-05
1.0351e-05
1.0351e-05
1.0351e-05
1.0351e-05
1.0351e-05
1.0351e-05
1.0351e-05
1.0351e-05
1.0351e-05
1.0351e-05
1.0351e-05
1.0351e-05
1.0351e-05
1.0351e-05
1.0351e-05
1.0351e-05
1.0351e-05
1.0351e-05
1.0351e-05
1.0351e-05
1.0351e-05
1.0351e-05
1.0351e-05
1.0351e-05
1.0351e-05
1.0351e-05
1.0351e-05
1.0351e-05
1.0351e-05
1.0351e-05
1.0351e-05
1.0351e-05
1.0351e-05
1.0351e-05
1.0351e-05
1.0351e-05
1.0351e-05
1.0351e-05
1.0351e-05
1.0351e-05
1.0351e-05
1.0351e-05
1.0351e-05
1.0351e-05
1.0351e-05
1.0351e-05
1.0351e-05
1.0351e-05
1.0351e-05
1.0351e-05
1.0351e-05
1.0351e-05
1.0351e-05
1.0351e-05
1.0351e-05
1.0351e-05
1.0351e-05
1.0351e-05
1.0351e-05
1.0351e-05
1.0351e-05
1.0351e-05
1.0351e-05
1.0351e-05
1.0351e-05
1.0351e-05
1.0351e-05
1.0351e-05
1.0351e-05
1.0351e-05
1.0351e-05
1.0351e-05
1.0351e-05
1.0351e-05
1.0351e-05
1.0351e-05
1.0351e-05
1.0351e-05
1.0351e-05
1.0351e-05
1.0351e-05
1.0351e-05
1.0351e-05
1.0351e-05
1.0351e-05
1.0351e-05
1.0351e-05
1.0351e-05
1.0351e-05
1.0351e-05
1.0351e-05
1.0351e-05
1.0351e-05
1.0351e-05
1.0351e-05
1.0351e-05
1.0351e-05
1.0351e-05
1.0351e-05
1.0351e-05
1.0351e-05
1.0351e-05
1.0351e-05
1.0351e-05
1.0351e-05
1.0351e-05
1.0351e-05
1.0351e-05
1.0351e-05
1.0351e-05
1.0351e-05
1.0351e-05
1.0351e-05
1.0351e-05
1.0351e-05
1.0351e-05
1.0351e-05
1.0351e-05
1.0351e-05
1.0351e-05
1.0351e-05
1.0351e-05
1.0351e-05
1.0351e-05
1.0351e-05
1.0351e-05
1.0351e-05
1.0351e-05
1.0351e-05
1.0351e-05
1.0351e-05
1.0351e-05
1.0351e-05
1.0351e-05
1.0351e-05
1.0351e-05
1.0351e-05
1.0351e-05
1.0351e-05
1.0351e-05
1.0351e-05
1.0351e-05
1.0351e-05
1.0351e-05
1.0351e-05
1.0351e-05
1.0351e-05
1.0351e-05
1.0351e-05
1.0351e-05
1.0351e-05
1.0351e-05
1.0351e-05
1.0351e-05
1.0351e-05
1.0351e-05
1.0351e-05
1.0351e-05
1.0351e-05
1.0351e-05
1.0351e-05
1.0351e-05
1.0351e-05
1.0351e-05
1.0351e-05
1.0351e-05
1.0351e-05
1.0351e-05
1.0351e-05
1.0351e-05
1.0351e-05
1.0351e-05
1.0351e-05
1.0351e-05
1.0351e-05
1.0351e-05
1.0351e-05
1.0351e-05
1.0351e-05
1.0351e-05
1.0351e-05
1.0351e-05
1.0351e-05
1.0351e-05
1.0351e-05
1.0351e-05
1.0351e-05
1.0351e-05
1.0351e-05
1.0351e-05
1.0351e-05
1.0351e-05
1.0351e-05
1.0351e-05
1.0351e-05
1.0351e-05
1.0351e-05
1.0351e-05
1.0351e-05
1.0351e-05
1.0351e-05
1.0351e-05
1.0351e-05
1.0351e-05
1.0351e-05
1.0351e-05
1.0351e-05
1.0351e-05
1.0351e-05
1.0351e-05
1.0351e-05
1.0351e-05
1.0351e-05
1.0351e-05
1.0351e-05
1.0351e-05
1.0351e-05
1.0351e-05
1.0351e-05
1.0351e-05
1.0351e-05
1.0351e-05
1.0351e-05
1.0351e-05
1.0351e-05
1.0351e-05
1.0351e-05
1.0351e-05
1.0351e-05
1.0351e-05
1.0351e-05
1.0351e-05
1.0351e-05
1.0351e-05
1.0351e-05
1.0351e-05
1.0351e-05
1.0351e-05
1.0351e-05
1.0351e-05
1.0351e-05
1.0351e-05
1.0351e-05
1.0351e-05
1.0351e-05
1.0351e-05
1.0351e-05
1.0351e-05
1.0351e-05
1.0351e-05
1.0351e-05
1.0351e-05
1.0351e-05
1.0351e-05
1.0351e-05
1.0351e-05
1.0351e-05
1.0351e-05
1.0351e-05
1.0351e-05
1.0351e-05
1.0351e-05
1.0351e-05
1.0351e-05
1.0351e-05
1.0351e-05
1.0351e-05
1.0351e-05
1.0351e-05
1.0351e-05
1.0351e-05
1.0351e-05
1.0351e-05
1.0351e-05
1.0351e-05
1.0351e-05
1.0351e-05
1.0351e-05
1.0351e-05
1.0351e-05
1.0351e-05
1.0351e-05
1.0351e-05
1.0351e-05
1.0351e-05
1.0351e-05
1.0351e-05
1.0351e-05
1.0351e-05
1.0351e-05
1.0351e-05
1.0351e-05
1.0351e-05
1.0351e-05
1.0351e-05
1.0351e-05
1.0351e-05
1.0351e-05
1.0351e-05
1.0351e-05
1.0351e-05
1.0351e-05
1.0351e-05
1.0351e-05
1.0351e-05
1.0351e-05
1.0351e-05
1.0351e-05
1.0351e-05
1.0351e-05
1.0351e-05
1.0351e-05
1.0351e-05
1.0351e-05
1.0351e-05
1.0351e-05
1.0351e-05
1.0351e-05
1.0351e-05
1.0351e-05
1.0351e-05
1.0351e-05
1.0351e-05
1.0351e-05
1.0351e-05
1.0351e-05
1.0351e-05
1.0351e-05
1.0351e-05
1.0351e-05
1.0351e-05
1.0351e-05
1.0351e-05
1.0351e-05
1.0351e-05
1.0351e-05
1.0351e-05
1.0351e-05
1.0351e-05
1.0351e-05
1.0351e-05
1.0351e-05
1.0351e-05
1.0351e-05
1.0351e-05
1.0351e-05
1.0351e-05
1.0351e-05
1.0351e-05
1.0351e-05
1.0351e-05
1.0351e-05
1.0351e-05
1.0351e-05
1.0351e-05
1.0351e-05
1.0351e-05
1.0351e-05
1.0351e-05
1.0351e-05
1.0351e-05
1.0351e-05
1.0351e-05
1.0351e-05
1.0351e-05
1.0351e-05
1.0351e-05
1.0351e-05
1.0351e-05
1.0351e-05
1.0351e-05
1.0351e-05
1.0351e-05
1.0351e-05
1.0351e-05
1.0351e-05
1.0351e-05
1.0351e-05
1.0351e-05
1.0351e-05
1.0351e-05
1.0351e-05
1.0351e-05
1.0351e-05
1.0351e-05
1.0351e-05
1.0351e-05
1.0351e-05
1.0351e-05
1.0351e-05
1.0351e-05
1.0351e-05
1.0351e-05
1.0351e-05
1.0351e-05
1.0351e-05
1.0351e-05
1.0351e-05
1.0351e-05
1.0351e-05
1.0351e-05
1.0351e-05
1.0351e-05
1.0351e-05
1.0351e-05
1.0351e-05
1.0351e-05
1.0351e-05
1.0351e-05
1.0351e-05
1.0351e-05
1.0351e-05
1.0351e-05
1.0351e-05
1.0351e-05
1.0351e-05
1.0351e-05
1.0351e-05
1.0351e-05
1.0351e-05
1.0351e-05
1.0351e-05
1.0351e-05
1.0351e-05
1.0351e-05
1.0351e-05
1.0351e-05
1.0351e-05
1.0351e-05
1.0351e-05
1.0351e-05
1.0351e-05
1.0351e-05
1.0351e-05
1.0351e-05
1.0351e-05
1.0351e-05
1.0351e-05
1.0351e-05
1.0351e-05
1.0351e-05
1.0351e-05
1.0351e-05
1.0351e-05
1.0351e-05
1.0351e-05
1.0351e-05
1.0351e-05
1.0351e-05
1.0351e-05
1.0351e-05
1.0351e-05
1.0351e-05
1.0351e-05
1.0351e-05
1.0351e-05
1.0351e-05
1.0351e-05
1.0351e-05
1.0351e-05
1.0351e-05
1.0351e-05
1.0351e-05
1.0351e-05
1.0351e-05
1.0351e-05
1.0351e-05
1.0351e-05
1.0351e-05
1.0351e-05
1.0351e-05
1.0351e-05
1.0351e-05
1.0351e-05
1.0351e-05
1.0351e-05
1.0351e-05
1.0351e-05
1.0351e-05
1.0351e-05
1.0351e-05
1.0351e-05
1.0351e-05
1.0351e-05
1.0351e-05
1.0351e-05
1.0351e-05
1.0351e-05
1.0351e-05
1.0351e-05
1.0351e-05
1.0351e-05
1.0351e-05
1.0351e-05
1.0351e-05
1.0351e-05
1.0351e-05
1.0351e-05
1.0351e-05
1.0351e-05
1.0351e-05
1.0351e-05
1.0351e-05
1.0351e-05
1.0351e-05
1.0351e-05
1.0351e-05
1.0351e-05
1.0351e-05
1.0351e-05
1.0351e-05
1.0351e-05
1.0351e-05
1.0351e-05
1.0351e-05
1.0351e-05
1.0351e-05
1.0351e-05
1.0351e-05
1.0351e-05
1.0351e-05
1.0351e-05
1.0351e-05
1.0351e-05
1.0351e-05
1.0351e-05
1.0351e-05
1.0351e-05
1.0351e-05
1.0351e-05
1.0351e-05
1.0351e-05
1.0351e-05
1.0351e-05
1.0351e-05
1.0351e-05
1.0351e-05
1.0351e-05
1.0351e-05
1.0351e-05
1.0351e-05
1.0351e-05
1.0351e-05
1.0351e-05
1.0351e-05
1.0351e-05
1.0351e-05
1.0351e-05
1.0351e-05
1.0351e-05
1.0351e-05
1.0351e-05
1.0351e-05
1.0351e-05
1.0351e-05
1.0351e-05
1.0351e-05
1.0351e-05
1.0351e-05
1.0351e-05
1.0351e-05
1.0351e-05
1.0351e-05
1.0351e-05
1.0351e-05
1.0351e-05
1.0351e-05
1.0351e-05
1.0351e-05
1.0351e-05
1.0351e-05
1.0351e-05
1.0351e-05
1.0351e-05
1.0351e-05
1.0351e-05
1.0351e-05
1.0351e-05
1.0351e-05
1.0351e-05
1.0351e-05
1.0351e-05
1.0351e-05
1.0351e-05
1.0351e-05
1.0351e-05
1.0351e-05
1.0351e-05
1.0351e-05
1.0351e-05
1.0351e-05
1.0351e-05
1.0351e-05
1.0351e-05
1.0351e-05
1.0351e-05
1.0351e-05
1.0351e-05
1.0351e-05
1.0351e-05
1.0351e-05
1.0351e-05
1.0351e-05
1.0351e-05
1.0351e-05
1.0351e-05
1.0351e-05
1.0351e-05
1.0351e-05
1.0351e-05
1.0351e-05
1.0351e-05
1.0351e-05
1.0351e-05
1.0351e-05
1.0351e-05
1.0351e-05
1.0351e-05
1.0351e-05
1.0351e-05
1.0351e-05
1.0351e-05
1.0351e-05
1.0351e-05
1.0351e-05
1.0351e-05
1.0351e-05
1.0351e-05
1.0351e-05
1.0351e-05
1.0351e-05
1.0351e-05
1.0351e-05
1.0351e-05
1.0351e-05
1.0351e-05
1.0351e-05
1.0351e-05
1.0351e-05
1.0351e-05
1.0351e-05
1.0351e-05
1.0351e-05
1.0351e-05
1.0351e-05
1.0351e-05
1.0351e-05
1.0351e-05
1.0351e-05
1.0351e-05
1.0351e-05
1.0351e-05
1.0351e-05
1.0351e-05
1.0351e-05
1.0351e-05
1.0351e-05
1.0351e-05
1.0351e-05
1.0351e-05
1.0351e-05
1.0351e-05
1.0351e-05
1.0351e-05
1.0351e-05
1.0351e-05
1.0351e-05
1.0351e-05
1.0351e-05
1.0351e-05
1.0351e-05
1.0351e-05
1.0351e-05
1.0351e-05
1.0351e-05
1.0351e-05
1.0351e-05
1.0351e-05
1.0351e-05
1.0351e-05
1.0351e-05
1.0351e-05
1.0351e-05
1.0351e-05
1.0351e-05
1.0351e-05
1.0351e-05
1.0351e-05
1.0351e-05
1.0351e-05
1.0351e-05
1.0351e-05
1.0351e-05
1.0351e-05
1.0351e-05
1.0351e-05
1.0351e-05
1.0351e-05
1.0351e-05
1.0351e-05
1.0351e-05
1.0351e-05
1.0351e-05
1.0351e-05
1.0351e-05
1.0351e-05
1.0351e-05
1.0351e-05
1.0351e-05
1.0351e-05
1.0351e-05
1.0351e-05
1.0351e-05
1.0351e-05
1.0351e-05
1.0351e-05
1.0351e-05
1.0351e-05
1.0351e-05
1.0351e-05
1.0351e-05
1.0351e-05
1.0351e-05
1.0351e-05
1.0351e-05
1.0351e-05
1.0351e-05
1.0351e-05
1.0351e-05
1.0351e-05
1.0351e-05
1.0351e-05
1.0351e-05
1.0351e-05
1.0351e-05
1.0351e-05
1.0351e-05
1.0351e-05
1.0351e-05
1.0351e-05
1.0351e-05
1.0351e-05
1.0351e-05
1.0351e-05
1.0351e-05
1.0351e-05
1.0351e-05
1.0351e-05
1.0351e-05
1.0351e-05
1.0351e-05
1.0351e-05
1.0351e-05
1.0351e-05
1.0351e-05
1.0351e-05
1.0351e-05
1.0351e-05
1.0351e-05
1.0351e-05
1.0351e-05
1.0351e-05
1.0351e-05
1.0351e-05
1.0351e-05
1.0351e-05
1.0351e-05
1.0351e-05
1.0351e-05
1.0351e-05
1.0351e-05
1.0351e-05
1.0351e-05
1.0351e-05
1.0351e-05
1.0351e-05
1.0351e-05
1.0351e-05
1.0351e-05
1.0351e-05
1.0351e-05
1.0351e-05
1.0351e-05
1.0351e-05
1.0351e-05
1.0351e-05
1.0351e-05
1.0351e-05
1.0351e-05
1.0351e-05
1.0351e-05
1.0351e-05
1.0351e-05
1.0351e-05
1.0351e-05
1.0351e-05
1.0351e-05
1.0351e-05
1.0351e-05
1.0351e-05
1.0351e-05
1.0351e-05
1.0351e-05
1.0351e-05
1.0351e-05
1.0351e-05
1.0351e-05
1.0351e-05
1.0351e-05
1.0351e-05
1.0351e-05
1.0351e-05
1.0351e-05
1.0351e-05
1.0351e-05
1.0351e-05
1.0351e-05
1.0351e-05
1.0351e-05
1.0351e-05
1.0351e-05
1.0351e-05
1.0351e-05
1.0351e-05
1.0351e-05
1.0351e-05
1.0351e-05
1.0351e-05
1.0351e-05
1.0351e-05
1.0351e-05
1.0351e-05
1.0351e-05
1.0351e-05
1.0351e-05
1.0351e-05
1.0351e-05
1.0351e-05
1.0351e-05
1.0351e-05
1.0351e-05
1.0351e-05
1.0351e-05
1.0351e-05
1.0351e-05
1.0351e-05
1.0351e-05
1.0351e-05
1.0351e-05
1.0351e-05
1.0351e-05
1.0351e-05
1.0351e-05
1.0351e-05
1.0351e-05
1.0351e-05
1.03511e-05
1.03511e-05
1.03511e-05
1.03511e-05
1.03511e-05
1.03511e-05
1.03511e-05
1.0351e-05
1.0351e-05
1.0351e-05
1.0351e-05
1.0351e-05
1.0351e-05
1.0351e-05
1.0351e-05
1.0351e-05
1.0351e-05
1.0351e-05
1.0351e-05
1.0351e-05
1.0351e-05
1.0351e-05
1.0351e-05
1.0351e-05
1.0351e-05
1.0351e-05
1.0351e-05
1.0351e-05
1.0351e-05
1.0351e-05
1.0351e-05
1.0351e-05
1.0351e-05
1.0351e-05
1.0351e-05
1.0351e-05
1.0351e-05
1.0351e-05
1.0351e-05
1.0351e-05
1.0351e-05
1.0351e-05
1.0351e-05
1.0351e-05
1.0351e-05
1.0351e-05
1.0351e-05
1.0351e-05
1.0351e-05
1.0351e-05
1.0351e-05
1.0351e-05
1.0351e-05
1.0351e-05
1.0351e-05
1.0351e-05
1.0351e-05
1.0351e-05
1.0351e-05
1.0351e-05
1.0351e-05
1.0351e-05
1.0351e-05
1.0351e-05
1.0351e-05
1.0351e-05
1.0351e-05
1.0351e-05
1.0351e-05
1.0351e-05
1.0351e-05
1.0351e-05
1.0351e-05
1.0351e-05
1.0351e-05
1.0351e-05
1.0351e-05
1.0351e-05
1.0351e-05
1.0351e-05
1.0351e-05
1.0351e-05
1.0351e-05
1.0351e-05
1.0351e-05
1.0351e-05
1.0351e-05
1.0351e-05
1.0351e-05
1.0351e-05
1.0351e-05
1.0351e-05
1.0351e-05
1.0351e-05
1.0351e-05
1.0351e-05
1.0351e-05
1.03511e-05
1.03511e-05
1.03511e-05
1.03511e-05
1.03511e-05
1.03511e-05
1.03511e-05
1.03511e-05
1.03511e-05
1.03511e-05
1.03512e-05
1.03512e-05
1.03512e-05
1.03512e-05
1.03513e-05
1.03513e-05
1.03513e-05
1.03514e-05
1.03514e-05
1.03515e-05
1.03516e-05
1.0351e-05
1.0351e-05
1.0351e-05
1.0351e-05
1.0351e-05
1.0351e-05
1.0351e-05
1.0351e-05
1.0351e-05
1.0351e-05
1.0351e-05
1.0351e-05
1.0351e-05
1.0351e-05
1.0351e-05
1.0351e-05
1.0351e-05
1.0351e-05
1.0351e-05
1.0351e-05
1.0351e-05
1.0351e-05
1.0351e-05
1.0351e-05
1.0351e-05
1.0351e-05
1.0351e-05
1.0351e-05
1.0351e-05
1.0351e-05
1.0351e-05
1.0351e-05
1.0351e-05
1.0351e-05
1.0351e-05
1.0351e-05
1.0351e-05
1.0351e-05
1.0351e-05
1.0351e-05
1.0351e-05
1.0351e-05
1.0351e-05
1.0351e-05
1.0351e-05
1.0351e-05
1.0351e-05
1.0351e-05
1.0351e-05
1.0351e-05
1.0351e-05
1.0351e-05
1.0351e-05
1.0351e-05
1.0351e-05
1.0351e-05
1.0351e-05
1.0351e-05
1.0351e-05
1.0351e-05
1.0351e-05
1.0351e-05
1.0351e-05
1.0351e-05
1.0351e-05
1.0351e-05
1.0351e-05
1.0351e-05
1.0351e-05
1.0351e-05
1.0351e-05
1.0351e-05
1.0351e-05
1.0351e-05
1.03511e-05
1.03511e-05
1.03511e-05
1.03511e-05
1.03511e-05
1.03511e-05
1.03511e-05
1.03511e-05
1.03511e-05
1.03511e-05
1.03511e-05
1.03512e-05
1.03512e-05
1.03512e-05
1.03512e-05
1.03512e-05
1.03513e-05
1.03513e-05
1.03513e-05
1.03514e-05
1.03514e-05
1.03515e-05
1.03515e-05
1.03516e-05
1.03517e-05
1.03518e-05
1.03519e-05
1.0352e-05
1.03521e-05
1.03522e-05
1.03524e-05
1.03526e-05
1.03528e-05
1.0353e-05
1.03533e-05
1.03536e-05
1.0354e-05
1.03544e-05
1.03548e-05
1.0351e-05
1.0351e-05
1.0351e-05
1.0351e-05
1.0351e-05
1.0351e-05
1.0351e-05
1.0351e-05
1.0351e-05
1.0351e-05
1.0351e-05
1.0351e-05
1.0351e-05
1.0351e-05
1.0351e-05
1.0351e-05
1.0351e-05
1.0351e-05
1.0351e-05
1.0351e-05
1.0351e-05
1.0351e-05
1.0351e-05
1.0351e-05
1.0351e-05
1.0351e-05
1.0351e-05
1.0351e-05
1.0351e-05
1.0351e-05
1.0351e-05
1.0351e-05
1.0351e-05
1.0351e-05
1.0351e-05
1.0351e-05
1.0351e-05
1.0351e-05
1.0351e-05
1.0351e-05
1.0351e-05
1.0351e-05
1.0351e-05
1.0351e-05
1.0351e-05
1.0351e-05
1.0351e-05
1.0351e-05
1.0351e-05
1.0351e-05
1.0351e-05
1.0351e-05
1.0351e-05
1.03511e-05
1.03511e-05
1.03511e-05
1.03511e-05
1.03511e-05
1.03511e-05
1.03511e-05
1.03511e-05
1.03511e-05
1.03511e-05
1.03511e-05
1.03511e-05
1.03511e-05
1.03511e-05
1.03511e-05
1.03512e-05
1.03512e-05
1.03512e-05
1.03512e-05
1.03512e-05
1.03512e-05
1.03513e-05
1.03513e-05
1.03513e-05
1.03514e-05
1.03514e-05
1.03514e-05
1.03515e-05
1.03515e-05
1.03516e-05
1.03516e-05
1.03517e-05
1.03518e-05
1.03519e-05
1.0352e-05
1.03521e-05
1.03523e-05
1.03524e-05
1.03526e-05
1.03527e-05
1.0353e-05
1.03532e-05
1.03535e-05
1.03538e-05
1.03542e-05
1.03546e-05
1.03551e-05
1.03556e-05
1.03561e-05
1.03568e-05
1.03575e-05
1.03583e-05
1.03593e-05
1.03604e-05
1.03618e-05
1.03633e-05
1.0365e-05
1.03669e-05
1.0369e-05
1.03713e-05
1.0351e-05
1.0351e-05
1.0351e-05
1.0351e-05
1.0351e-05
1.0351e-05
1.0351e-05
1.0351e-05
1.0351e-05
1.0351e-05
1.0351e-05
1.0351e-05
1.0351e-05
1.0351e-05
1.0351e-05
1.0351e-05
1.0351e-05
1.0351e-05
1.0351e-05
1.0351e-05
1.0351e-05
1.0351e-05
1.0351e-05
1.0351e-05
1.0351e-05
1.0351e-05
1.0351e-05
1.0351e-05
1.0351e-05
1.03511e-05
1.03511e-05
1.03511e-05
1.03511e-05
1.03511e-05
1.03511e-05
1.03511e-05
1.03511e-05
1.03511e-05
1.03511e-05
1.03511e-05
1.03511e-05
1.03511e-05
1.03511e-05
1.03511e-05
1.03511e-05
1.03511e-05
1.03511e-05
1.03511e-05
1.03511e-05
1.03512e-05
1.03512e-05
1.03512e-05
1.03512e-05
1.03512e-05
1.03512e-05
1.03512e-05
1.03512e-05
1.03513e-05
1.03513e-05
1.03513e-05
1.03513e-05
1.03513e-05
1.03514e-05
1.03514e-05
1.03514e-05
1.03515e-05
1.03515e-05
1.03516e-05
1.03516e-05
1.03517e-05
1.03517e-05
1.03518e-05
1.03519e-05
1.03519e-05
1.0352e-05
1.03521e-05
1.03523e-05
1.03524e-05
1.03525e-05
1.03527e-05
1.03529e-05
1.03531e-05
1.03533e-05
1.03535e-05
1.03538e-05
1.03541e-05
1.03545e-05
1.03549e-05
1.03554e-05
1.0356e-05
1.03566e-05
1.03572e-05
1.0358e-05
1.03588e-05
1.03597e-05
1.03608e-05
1.0362e-05
1.03635e-05
1.03652e-05
1.03671e-05
1.03692e-05
1.03716e-05
1.03742e-05
1.03771e-05
1.03803e-05
1.0384e-05
1.03883e-05
1.03934e-05
1.03995e-05
1.04065e-05
1.04145e-05
1.04235e-05
1.04333e-05
1.04441e-05
1.04559e-05
1.0351e-05
1.0351e-05
1.0351e-05
1.0351e-05
1.0351e-05
1.0351e-05
1.03511e-05
1.03511e-05
1.03511e-05
1.03511e-05
1.03511e-05
1.03511e-05
1.03511e-05
1.03511e-05
1.03511e-05
1.03511e-05
1.03511e-05
1.03511e-05
1.03511e-05
1.03511e-05
1.03511e-05
1.03511e-05
1.03511e-05
1.03512e-05
1.03512e-05
1.03512e-05
1.03512e-05
1.03512e-05
1.03512e-05
1.03512e-05
1.03512e-05
1.03512e-05
1.03513e-05
1.03513e-05
1.03513e-05
1.03513e-05
1.03513e-05
1.03513e-05
1.03514e-05
1.03514e-05
1.03514e-05
1.03514e-05
1.03514e-05
1.03515e-05
1.03515e-05
1.03515e-05
1.03516e-05
1.03516e-05
1.03516e-05
1.03517e-05
1.03517e-05
1.03518e-05
1.03518e-05
1.03519e-05
1.03519e-05
1.0352e-05
1.03521e-05
1.03521e-05
1.03522e-05
1.03523e-05
1.03524e-05
1.03525e-05
1.03527e-05
1.03528e-05
1.0353e-05
1.03531e-05
1.03533e-05
1.03535e-05
1.03538e-05
1.0354e-05
1.03543e-05
1.03546e-05
1.0355e-05
1.03554e-05
1.03558e-05
1.03563e-05
1.03569e-05
1.03575e-05
1.03583e-05
1.0359e-05
1.03599e-05
1.03609e-05
1.03619e-05
1.03632e-05
1.03645e-05
1.03662e-05
1.0368e-05
1.03701e-05
1.03725e-05
1.03752e-05
1.03781e-05
1.03814e-05
1.0385e-05
1.0389e-05
1.03936e-05
1.03989e-05
1.04052e-05
1.04125e-05
1.0421e-05
1.04306e-05
1.04413e-05
1.04531e-05
1.04661e-05
1.04803e-05
1.04961e-05
1.05143e-05
1.0536e-05
1.05618e-05
1.05922e-05
1.06273e-05
1.06668e-05
1.07107e-05
1.07585e-05
1.08101e-05
1.08658e-05
1.09276e-05
1.03511e-05
1.03511e-05
1.03511e-05
1.03511e-05
1.03511e-05
1.03511e-05
1.03511e-05
1.03511e-05
1.03511e-05
1.03512e-05
1.03512e-05
1.03512e-05
1.03512e-05
1.03512e-05
1.03512e-05
1.03512e-05
1.03513e-05
1.03513e-05
1.03513e-05
1.03513e-05
1.03513e-05
1.03514e-05
1.03514e-05
1.03514e-05
1.03514e-05
1.03515e-05
1.03515e-05
1.03515e-05
1.03516e-05
1.03516e-05
1.03516e-05
1.03517e-05
1.03517e-05
1.03518e-05
1.03518e-05
1.03519e-05
1.03519e-05
1.0352e-05
1.0352e-05
1.03521e-05
1.03521e-05
1.03522e-05
1.03523e-05
1.03523e-05
1.03524e-05
1.03525e-05
1.03526e-05
1.03527e-05
1.03528e-05
1.03529e-05
1.0353e-05
1.03531e-05
1.03533e-05
1.03534e-05
1.03536e-05
1.03537e-05
1.03539e-05
1.03541e-05
1.03543e-05
1.03546e-05
1.03548e-05
1.03551e-05
1.03554e-05
1.03557e-05
1.03561e-05
1.03564e-05
1.03569e-05
1.03573e-05
1.03579e-05
1.03585e-05
1.03591e-05
1.03599e-05
1.03607e-05
1.03616e-05
1.03625e-05
1.03636e-05
1.03648e-05
1.0366e-05
1.03675e-05
1.03691e-05
1.0371e-05
1.03731e-05
1.03756e-05
1.03783e-05
1.03813e-05
1.03847e-05
1.03884e-05
1.03925e-05
1.0397e-05
1.0402e-05
1.04077e-05
1.04144e-05
1.04222e-05
1.04311e-05
1.04413e-05
1.04529e-05
1.04657e-05
1.04798e-05
1.04953e-05
1.05122e-05
1.05311e-05
1.05529e-05
1.05784e-05
1.06085e-05
1.06436e-05
1.06837e-05
1.07289e-05
1.07789e-05
1.08335e-05
1.08925e-05
1.09564e-05
1.10272e-05
1.11096e-05
1.12084e-05
1.1326e-05
1.14625e-05
1.16164e-05
1.17856e-05
1.19676e-05
1.21602e-05
1.23618e-05
1.25728e-05
1.28003e-05
1.03513e-05
1.03513e-05
1.03514e-05
1.03514e-05
1.03514e-05
1.03515e-05
1.03515e-05
1.03516e-05
1.03516e-05
1.03516e-05
1.03517e-05
1.03518e-05
1.03518e-05
1.03519e-05
1.03519e-05
1.0352e-05
1.03521e-05
1.03522e-05
1.03522e-05
1.03523e-05
1.03524e-05
1.03525e-05
1.03526e-05
1.03527e-05
1.03529e-05
1.0353e-05
1.03531e-05
1.03532e-05
1.03534e-05
1.03535e-05
1.03537e-05
1.03538e-05
1.0354e-05
1.03542e-05
1.03543e-05
1.03545e-05
1.03548e-05
1.0355e-05
1.03552e-05
1.03555e-05
1.03557e-05
1.0356e-05
1.03563e-05
1.03566e-05
1.0357e-05
1.03573e-05
1.03577e-05
1.03581e-05
1.03585e-05
1.03589e-05
1.03594e-05
1.036e-05
1.03605e-05
1.03612e-05
1.03619e-05
1.03626e-05
1.03634e-05
1.03643e-05
1.03653e-05
1.03663e-05
1.03674e-05
1.03686e-05
1.03699e-05
1.03713e-05
1.03729e-05
1.03746e-05
1.03765e-05
1.03786e-05
1.03811e-05
1.03838e-05
1.03868e-05
1.03901e-05
1.03937e-05
1.03977e-05
1.0402e-05
1.04067e-05
1.04119e-05
1.04177e-05
1.04243e-05
1.04318e-05
1.04405e-05
1.04504e-05
1.04616e-05
1.04742e-05
1.04882e-05
1.05036e-05
1.05204e-05
1.05388e-05
1.05591e-05
1.05818e-05
1.0608e-05
1.06385e-05
1.06739e-05
1.07146e-05
1.07607e-05
1.08122e-05
1.08689e-05
1.09306e-05
1.09974e-05
1.10698e-05
1.11502e-05
1.12432e-05
1.13531e-05
1.1482e-05
1.16298e-05
1.17954e-05
1.19766e-05
1.21713e-05
1.23775e-05
1.25934e-05
1.28198e-05
1.30638e-05
1.33456e-05
1.36783e-05
1.40597e-05
1.44804e-05
1.49295e-05
1.53965e-05
1.58723e-05
1.63497e-05
1.68243e-05
1.72965e-05
1.77774e-05
1.03522e-05
1.03524e-05
1.03525e-05
1.03526e-05
1.03528e-05
1.03529e-05
1.03531e-05
1.03533e-05
1.03534e-05
1.03536e-05
1.03539e-05
1.03541e-05
1.03543e-05
1.03546e-05
1.03548e-05
1.03551e-05
1.03554e-05
1.03557e-05
1.03561e-05
1.03564e-05
1.03568e-05
1.03572e-05
1.03576e-05
1.03581e-05
1.03585e-05
1.0359e-05
1.03595e-05
1.03601e-05
1.03606e-05
1.03612e-05
1.03618e-05
1.03624e-05
1.03631e-05
1.03638e-05
1.03646e-05
1.03654e-05
1.03663e-05
1.03672e-05
1.03682e-05
1.03693e-05
1.03704e-05
1.03716e-05
1.03728e-05
1.03741e-05
1.03755e-05
1.03769e-05
1.03785e-05
1.03801e-05
1.03819e-05
1.03837e-05
1.03858e-05
1.03881e-05
1.03905e-05
1.03932e-05
1.03962e-05
1.03994e-05
1.04029e-05
1.04067e-05
1.04107e-05
1.04151e-05
1.04199e-05
1.04249e-05
1.04304e-05
1.04364e-05
1.04431e-05
1.04505e-05
1.04589e-05
1.04684e-05
1.0479e-05
1.04909e-05
1.05041e-05
1.05185e-05
1.05344e-05
1.05517e-05
1.05704e-05
1.05907e-05
1.0613e-05
1.0638e-05
1.06664e-05
1.06991e-05
1.07367e-05
1.07794e-05
1.08275e-05
1.0881e-05
1.09399e-05
1.1004e-05
1.10733e-05
1.11482e-05
1.12298e-05
1.13214e-05
1.14274e-05
1.15508e-05
1.16928e-05
1.1853e-05
1.20301e-05
1.22223e-05
1.24277e-05
1.26447e-05
1.28721e-05
1.31111e-05
1.33697e-05
1.36662e-05
1.40092e-05
1.43956e-05
1.48172e-05
1.52646e-05
1.57288e-05
1.62018e-05
1.66774e-05
1.71509e-05
1.76232e-05
1.81054e-05
1.86743e-05
1.93455e-05
2.00694e-05
2.08029e-05
2.15182e-05
2.21979e-05
2.28307e-05
2.34111e-05
2.39395e-05
2.44157e-05
2.48412e-05
1.0356e-05
1.03565e-05
1.0357e-05
1.03575e-05
1.03581e-05
1.03587e-05
1.03594e-05
1.03601e-05
1.03608e-05
1.03616e-05
1.03625e-05
1.03634e-05
1.03643e-05
1.03653e-05
1.03663e-05
1.03675e-05
1.03686e-05
1.03699e-05
1.03712e-05
1.03727e-05
1.03742e-05
1.03757e-05
1.03774e-05
1.03792e-05
1.0381e-05
1.03829e-05
1.03849e-05
1.0387e-05
1.03892e-05
1.03915e-05
1.03939e-05
1.03964e-05
1.03992e-05
1.04021e-05
1.04051e-05
1.04084e-05
1.04119e-05
1.04157e-05
1.04196e-05
1.04239e-05
1.04283e-05
1.0433e-05
1.0438e-05
1.04432e-05
1.04487e-05
1.04545e-05
1.04607e-05
1.04672e-05
1.04743e-05
1.04821e-05
1.04905e-05
1.04999e-05
1.05101e-05
1.05213e-05
1.05336e-05
1.05469e-05
1.05613e-05
1.05768e-05
1.05936e-05
1.06116e-05
1.06308e-05
1.06515e-05
1.06738e-05
1.06981e-05
1.07253e-05
1.07559e-05
1.07904e-05
1.08291e-05
1.08724e-05
1.09204e-05
1.09731e-05
1.10306e-05
1.1093e-05
1.11602e-05
1.12325e-05
1.13103e-05
1.13948e-05
1.14894e-05
1.15977e-05
1.1722e-05
1.18633e-05
1.20211e-05
1.21948e-05
1.23828e-05
1.25841e-05
1.27971e-05
1.30207e-05
1.3255e-05
1.35034e-05
1.37775e-05
1.40902e-05
1.44435e-05
1.48326e-05
1.52504e-05
1.56893e-05
1.61421e-05
1.66025e-05
1.70654e-05
1.75278e-05
1.79911e-05
1.84687e-05
1.90342e-05
1.96786e-05
2.03615e-05
2.10497e-05
2.17208e-05
2.23601e-05
2.29579e-05
2.35092e-05
2.40135e-05
2.44699e-05
2.48801e-05
2.52404e-05
2.55526e-05
2.58244e-05
2.60638e-05
2.62764e-05
2.64628e-05
2.6623e-05
2.67596e-05
2.68744e-05
2.69678e-05
2.70414e-05
2.70978e-05
2.71404e-05
1.03708e-05
1.03726e-05
1.03746e-05
1.03767e-05
1.03789e-05
1.03813e-05
1.03839e-05
1.03866e-05
1.03895e-05
1.03926e-05
1.03959e-05
1.03993e-05
1.04029e-05
1.04068e-05
1.04108e-05
1.04152e-05
1.04198e-05
1.04246e-05
1.04298e-05
1.04352e-05
1.0441e-05
1.0447e-05
1.04534e-05
1.04601e-05
1.0467e-05
1.04743e-05
1.04819e-05
1.04898e-05
1.04981e-05
1.05068e-05
1.0516e-05
1.05259e-05
1.05363e-05
1.05475e-05
1.05595e-05
1.05723e-05
1.0586e-05
1.06004e-05
1.06158e-05
1.06321e-05
1.06492e-05
1.06673e-05
1.06863e-05
1.07063e-05
1.07272e-05
1.07491e-05
1.07724e-05
1.07973e-05
1.08244e-05
1.0854e-05
1.08865e-05
1.09221e-05
1.09611e-05
1.10035e-05
1.10495e-05
1.10992e-05
1.11527e-05
1.121e-05
1.12713e-05
1.13365e-05
1.14058e-05
1.14794e-05
1.15583e-05
1.16444e-05
1.17407e-05
1.18491e-05
1.19707e-05
1.21057e-05
1.22539e-05
1.24147e-05
1.25874e-05
1.27714e-05
1.29661e-05
1.31707e-05
1.33848e-05
1.36091e-05
1.38476e-05
1.4111e-05
1.44077e-05
1.47382e-05
1.50987e-05
1.54838e-05
1.58882e-05
1.63065e-05
1.67342e-05
1.71672e-05
1.76024e-05
1.80387e-05
1.84804e-05
1.89635e-05
1.9524e-05
2.01354e-05
2.07672e-05
2.13969e-05
2.20087e-05
2.25917e-05
2.31386e-05
2.36458e-05
2.41133e-05
2.45401e-05
2.49261e-05
2.52653e-05
2.55634e-05
2.58261e-05
2.60576e-05
2.62633e-05
2.64461e-05
2.66055e-05
2.67422e-05
2.68576e-05
2.69531e-05
2.70311e-05
2.70929e-05
2.71414e-05
2.71816e-05
2.72165e-05
2.72463e-05
2.72733e-05
2.73011e-05
2.73292e-05
2.73548e-05
2.73782e-05
2.73992e-05
2.74149e-05
2.74251e-05
1.04273e-05
1.04342e-05
1.04417e-05
1.04496e-05
1.04581e-05
1.04672e-05
1.04768e-05
1.0487e-05
1.04977e-05
1.05091e-05
1.05211e-05
1.05337e-05
1.05471e-05
1.05613e-05
1.05763e-05
1.05923e-05
1.06093e-05
1.06273e-05
1.06463e-05
1.06663e-05
1.06874e-05
1.07096e-05
1.07328e-05
1.0757e-05
1.07821e-05
1.08082e-05
1.08353e-05
1.08634e-05
1.08928e-05
1.09237e-05
1.09565e-05
1.09915e-05
1.10287e-05
1.10683e-05
1.11105e-05
1.11552e-05
1.12026e-05
1.12527e-05
1.13054e-05
1.13609e-05
1.1419e-05
1.14797e-05
1.15431e-05
1.1609e-05
1.16776e-05
1.17491e-05
1.18244e-05
1.19053e-05
1.19933e-05
1.20897e-05
1.2195e-05
1.23095e-05
1.2433e-05
1.25654e-05
1.27067e-05
1.28565e-05
1.30146e-05
1.31807e-05
1.33546e-05
1.35359e-05
1.37245e-05
1.39205e-05
1.41265e-05
1.43488e-05
1.45946e-05
1.48655e-05
1.51597e-05
1.54745e-05
1.5807e-05
1.61543e-05
1.65135e-05
1.68822e-05
1.7258e-05
1.76387e-05
1.80227e-05
1.84103e-05
1.88063e-05
1.92479e-05
1.97493e-05
2.0289e-05
2.08456e-05
2.14026e-05
2.19484e-05
2.24746e-05
2.29755e-05
2.34475e-05
2.38891e-05
2.42995e-05
2.46774e-05
2.50201e-05
2.5325e-05
2.55966e-05
2.58385e-05
2.60552e-05
2.625e-05
2.64227e-05
2.65737e-05
2.67048e-05
2.68182e-05
2.69141e-05
2.69929e-05
2.70566e-05
2.71087e-05
2.71528e-05
2.71922e-05
2.72278e-05
2.72588e-05
2.72874e-05
2.7317e-05
2.73455e-05
2.73711e-05
2.7394e-05
2.74128e-05
2.7427e-05
2.74382e-05
2.74473e-05
2.74552e-05
2.74632e-05
2.7472e-05
2.74807e-05
2.74904e-05
2.75015e-05
2.75121e-05
2.75205e-05
2.7527e-05
1.06113e-05
1.06345e-05
1.06594e-05
1.06861e-05
1.07145e-05
1.07448e-05
1.0777e-05
1.08109e-05
1.08467e-05
1.08842e-05
1.09235e-05
1.09647e-05
1.10079e-05
1.10535e-05
1.11016e-05
1.11524e-05
1.1206e-05
1.12624e-05
1.13217e-05
1.13838e-05
1.14487e-05
1.15163e-05
1.15865e-05
1.16593e-05
1.17344e-05
1.18118e-05
1.18912e-05
1.19726e-05
1.20564e-05
1.21436e-05
1.22354e-05
1.23326e-05
1.24357e-05
1.25448e-05
1.26599e-05
1.2781e-05
1.29077e-05
1.30399e-05
1.31774e-05
1.33198e-05
1.34668e-05
1.36182e-05
1.37736e-05
1.39329e-05
1.40957e-05
1.4262e-05
1.44324e-05
1.46096e-05
1.47989e-05
1.50031e-05
1.52222e-05
1.54554e-05
1.57016e-05
1.59598e-05
1.62288e-05
1.65077e-05