/*--------------------------------*- C++ -*----------------------------------*\
| =========                 |                                                 |
| \\      /  F ield         | OpenFOAM: The Open Source CFD Toolbox           |
|  \\    /   O peration     | Version:  v1706                                 |
|   \\  /    A nd           | Web:      www.OpenFOAM.com                      |
|    \\/     M anipulation  |                                                 |
\*---------------------------------------------------------------------------*/
FoamFile
{
    version     2.0;
    format      ascii;
    class       volScalarField;
    location    "3.3e-05";
    object      Tv;
}
// * * * * * * * * * * * * * * * * * * * * * * * * * * * * * * * * * * * * * //

dimensions      [0 0 0 1 0 0 0];


internalField   nonuniform List<scalar> 
29871
(
144.4
144.4
144.4
144.4
144.4
144.4
144.4
144.4
144.4
144.4
144.4
144.4
144.4
144.4
144.4
144.4
144.4
144.4
144.4
144.4
144.4
144.4
144.4
144.4
144.4
144.4
144.4
144.4
144.4
144.4
144.4
144.4
144.4
144.4
144.4
144.4
144.4
144.4
144.4
144.4
144.4
144.4
144.4
144.4
144.4
144.4
144.4
144.4
144.4
144.4
144.4
144.4
144.4
144.4
144.4
144.4
144.4
144.4
144.4
144.4
144.4
144.4
144.4
144.4
144.4
144.4
144.4
144.4
144.4
144.4
144.4
144.4
144.4
144.4
144.4
144.4
144.4
144.4
144.4
144.4
144.4
144.4
144.4
144.4
144.4
144.4
144.4
144.4
144.4
144.4
144.4
144.4
144.4
144.4
144.4
144.4
144.4
144.4
144.4
144.4
144.4
144.4
144.4
144.4
144.4
144.4
144.4
144.4
144.4
144.4
144.4
144.4
144.4
144.4
144.4
144.4
144.4
144.4
144.4
144.4
144.4
144.4
144.4
144.4
144.4
144.4
144.4
144.4
144.4
144.4
144.4
144.4
144.4
144.4
144.4
144.4
144.4
144.4
144.4
144.4
144.4
144.4
144.4
144.4
144.4
144.4
144.4
144.4
144.4
144.4
144.4
144.4
144.4
144.4
144.4
144.4
144.4
144.4
144.4
144.4
144.4
144.4
144.4
144.4
144.4
144.4
144.4
144.4
144.4
144.4
144.4
144.4
144.4
144.4
144.4
144.4
144.4
144.4
144.4
144.4
144.4
144.4
144.4
144.4
144.4
144.4
144.4
144.4
144.4
144.4
144.4
144.4
144.4
144.4
144.4
144.4
144.4
144.4
144.4
144.4
144.4
144.4
144.4
144.4
144.4
144.4
144.4
144.4
144.4
144.4
144.4
144.4
144.4
144.4
144.4
144.4
144.4
144.4
144.4
144.4
144.4
144.4
144.4
144.4
144.4
144.4
144.4
144.4
144.4
144.4
144.4
144.4
144.4
144.4
144.4
144.4
144.4
144.4
144.4
144.4
144.4
144.4
144.4
144.4
144.4
144.4
144.4
144.4
144.4
144.4
144.4
144.4
144.4
144.4
144.4
144.4
144.4
144.4
144.4
144.4
144.4
144.4
144.4
144.4
144.4
144.4
144.4
144.4
144.4
144.4
144.4
144.4
144.4
144.4
144.4
144.4
144.4
144.4
144.4
144.4
144.4
144.4
144.4
144.4
144.4
144.4
144.4
144.4
144.4
144.4
144.4
144.4
144.4
144.4
144.4
144.4
144.4
144.4
144.4
144.4
144.4
144.4
144.4
144.4
144.4
144.4
144.4
144.4
144.4
144.4
144.4
144.4
144.4
144.4
144.4
144.4
144.4
144.4
144.4
144.4
144.4
144.4
144.4
144.4
144.4
144.4
144.4
144.4
144.4
144.4
144.4
144.4
144.4
144.4
144.4
144.4
144.4
144.4
144.4
144.4
144.4
144.4
144.4
144.4
144.4
144.4
144.4
144.4
144.4
144.4
144.4
144.4
144.4
144.4
144.4
144.4
144.4
144.4
144.4
144.4
144.4
144.4
144.4
144.4
144.4
144.4
144.4
144.4
144.4
144.4
144.4
144.4
144.4
144.4
144.4
144.4
144.4
144.4
144.4
144.4
144.4
144.4
144.4
144.4
144.4
144.4
144.4
144.4
144.4
144.4
144.4
144.4
144.4
144.4
144.4
144.4
144.4
144.4
144.4
144.4
144.4
144.4
144.4
144.4
144.4
144.4
144.4
144.4
144.4
144.4
144.4
144.4
144.4
144.4
144.4
144.4
144.4
144.4
144.4
144.4
144.4
144.4
144.4
144.4
144.4
144.4
144.4
144.4
144.4
144.4
144.4
144.4
144.4
144.4
144.4
144.4
144.4
144.4
144.4
144.4
144.4
144.4
144.4
144.4
144.4
144.4
144.4
144.4
144.4
144.4
144.4
144.4
144.4
144.4
144.4
144.4
144.4
144.4
144.4
144.4
144.4
144.4
144.4
144.4
144.4
144.4
144.4
144.4
144.4
144.4
144.4
144.4
144.4
144.4
144.4
144.4
144.4
144.4
144.4
144.4
144.4
144.4
144.4
144.4
144.4
144.4
144.4
144.4
144.4
144.4
144.4
144.4
144.4
144.4
144.4
144.4
144.4
144.4
144.4
144.4
144.4
144.4
144.4
144.4
144.4
144.4
144.4
144.4
144.4
144.4
144.4
144.4
144.4
144.4
144.4
144.4
144.4
144.4
144.4
144.4
144.4
144.4
144.4
144.4
144.4
144.4
144.4
144.4
144.4
144.4
144.4
144.4
144.4
144.4
144.4
144.4
144.4
144.4
144.4
144.4
144.4
144.4
144.4
144.4
144.4
144.4
144.4
144.4
144.4
144.4
144.4
144.4
144.4
144.4
144.4
144.4
144.4
144.4
144.4
144.4
144.4
144.4
144.4
144.4
144.4
144.4
144.4
144.4
144.4
144.4
144.4
144.4
144.4
144.4
144.4
144.4
144.4
144.4
144.4
144.4
144.4
144.4
144.4
144.4
144.4
144.4
144.4
144.4
144.4
144.4
144.4
144.4
144.4
144.4
144.4
144.4
144.4
144.4
144.4
144.4
144.4
144.4
144.4
144.4
144.4
144.4
144.4
144.4
144.4
144.4
144.4
144.4
144.4
144.4
144.4
144.4
144.4
144.4
144.4
144.4
144.4
144.4
144.4
144.4
144.4
144.4
144.4
144.4
144.4
144.4
144.4
144.4
144.4
144.4
144.4
144.4
144.4
144.4
144.4
144.4
144.4
144.4
144.4
144.4
144.4
144.4
144.4
144.4
144.4
144.4
144.4
144.4
144.4
144.4
144.4
144.4
144.4
144.4
144.4
144.4
144.4
144.4
144.4
144.4
144.4
144.4
144.4
144.4
144.4
144.4
144.4
144.4
144.4
144.4
144.4
144.4
144.4
144.4
144.4
144.4
144.4
144.4
144.4
144.4
144.4
144.4
144.4
144.4
144.4
144.4
144.4
144.4
144.4
144.4
144.4
144.4
144.4
144.4
144.4
144.4
144.4
144.4
144.4
144.4
144.4
144.4
144.4
144.4
144.4
144.4
144.4
144.4
144.4
144.4
144.4
144.4
144.4
144.4
144.4
144.4
144.4
144.4
144.4
144.4
144.4
144.4
144.4
144.4
144.4
144.4
144.4
144.4
144.4
144.4
144.4
144.4
144.4
144.4
144.4
144.4
144.4
144.4
144.4
144.4
144.4
144.4
144.4
144.4
144.4
144.4
144.4
144.4
144.4
144.4
144.4
144.4
144.4
144.4
144.4
144.4
144.4
144.4
144.4
144.4
144.4
144.4
144.4
144.4
144.4
144.4
144.4
144.4
144.4
144.4
144.4
144.4
144.4
144.4
144.4
144.4
144.4
144.4
144.4
144.4
144.4
144.4
144.4
144.4
144.4
144.4
144.4
144.4
144.4
144.4
144.4
144.4
144.4
144.4
144.4
144.4
144.4
144.4
144.4
144.4
144.4
144.4
144.4
144.4
144.4
144.4
144.4
144.4
144.4
144.4
144.4
144.4
144.4
144.4
144.4
144.4
144.4
144.4
144.4
144.4
144.4
144.4
144.4
144.4
144.4
144.4
144.4
144.4
144.4
144.4
144.4
144.4
144.4
144.4
144.4
144.4
144.4
144.4
144.4
144.4
144.4
144.4
144.4
144.4
144.4
144.4
144.4
144.4
144.4
144.4
144.4
144.4
144.4
144.4
144.4
144.4
144.4
144.4
144.4
144.4
144.4
144.4
144.4
144.4
144.4
144.4
144.4
144.4
144.4
144.4
144.4
144.4
144.4
144.4
144.4
144.4
144.4
144.4
144.4
144.4
144.4
144.4
144.4
144.4
144.4
144.4
144.4
144.4
144.4
144.4
144.4
144.4
144.4
144.4
144.4
144.4
144.4
144.4
144.4
144.4
144.4
144.4
144.4
144.4
144.4
144.4
144.4
144.4
144.4
144.4
144.4
144.4
144.4
144.4
144.4
144.4
144.4
144.4
144.4
144.4
144.4
144.4
144.4
144.4
144.4
144.4
144.4
144.4
144.4
144.4
144.4
144.4
144.4
144.4
144.4
144.4
144.4
144.4
144.4
144.4
144.4
144.4
144.4
144.4
144.4
144.4
144.4
144.4
144.4
144.4
144.4
144.4
144.4
144.4
144.4
144.4
144.4
144.4
144.4
144.4
144.4
144.4
144.4
144.4
144.4
144.4
144.4
144.4
144.4
144.4
144.4
144.4
144.4
144.4
144.4
144.4
144.4
144.4
144.4
144.4
144.4
144.4
144.4
144.4
144.4
144.4
144.4
144.4
144.4
144.4
144.4
144.4
144.4
144.4
144.4
144.4
144.4
144.4
144.4
144.4
144.4
144.4
144.4
144.4
144.4
144.4
144.4
144.4
144.4
144.4
144.4
144.4
144.4
144.4
144.4
144.4
144.4
144.4
144.4
144.4
144.4
144.4
144.4
144.4
144.4
144.4
144.4
144.4
144.4
144.4
144.4
144.4
144.4
144.4
144.4
144.4
144.4
144.4
144.4
144.4
144.4
144.4
144.4
144.4
144.4
144.4
144.4
144.4
144.4
144.4
144.4
144.4
144.4
144.4
144.4
144.4
144.4
144.4
144.4
144.4
144.4
144.4
144.4
144.4
144.4
144.4
144.4
144.4
144.4
144.4
144.4
144.4
144.4
144.4
144.4
144.4
144.4
144.4
144.4
144.4
144.4
144.4
144.4
144.4
144.4
144.4
144.4
144.4
144.4
144.4
144.4
144.4
144.4
144.4
144.4
144.4
144.4
144.4
144.4
144.4
144.4
144.4
144.4
144.4
144.4
144.4
144.4
144.4
144.4
144.4
144.4
144.4
144.4
144.4
144.4
144.4
144.4
144.4
144.4
144.4
144.4
144.4
144.4
144.4
144.4
144.4
144.4
144.4
144.4
144.4
144.4
144.4
144.4
144.4
144.4
144.4
144.4
144.4
144.4
144.4
144.4
144.4
144.4
144.4
144.4
144.4
144.4
144.4
144.4
144.4
144.4
144.4
144.4
144.4
144.4
144.4
144.4
144.4
144.4
144.4
144.4
144.4
144.4
144.4
144.4
144.4
144.4
144.4
144.4
144.4
144.4
144.4
144.4
144.4
144.4
144.4
144.4
144.4
144.4
144.4
144.4
144.4
144.4
144.4
144.4
144.4
144.4
144.4
144.4
144.4
144.4
144.4
144.4
144.4
144.4
144.4
144.4
144.4
144.4
144.4
144.4
144.4
144.4
144.4
144.4
144.4
144.4
144.4
144.4
144.4
144.4
144.4
144.4
144.4
144.4
144.4
144.4
144.4
144.4
144.4
144.4
144.4
144.4
144.4
144.4
144.4
144.4
144.4
144.4
144.4
144.4
144.4
144.4
144.4
144.4
144.4
144.4
144.4
144.4
144.4
144.4
144.4
144.4
144.4
144.4
144.4
144.4
144.4
144.4
144.4
144.4
144.4
144.4
144.4
144.4
144.4
144.4
144.4
144.4
144.4
144.4
144.4
144.4
144.4
144.4
144.4
144.4
144.4
144.4
144.4
144.4
144.4
144.4
144.4
144.4
144.4
144.4
144.4
144.4
144.4
144.4
144.4
144.4
144.4
144.4
144.4
144.4
144.4
144.4
144.4
144.4
144.4
144.4
144.4
144.4
144.4
144.4
144.4
144.4
144.4
144.4
144.4
144.4
144.4
144.4
144.4
144.4
144.4
144.4
144.4
144.4
144.4
144.4
144.4
144.4
144.4
144.4
144.4
144.4
144.4
144.4
144.4
144.4
144.4
144.4
144.4
144.4
144.4
144.4
144.4
144.4
144.4
144.4
144.4
144.4
144.4
144.4
144.4
144.4
144.4
144.4
144.4
144.4
144.4
144.4
144.4
144.4
144.4
144.4
144.4
144.4
144.4
144.4
144.4
144.4
144.4
144.4
144.4
144.4
144.4
144.4
144.4
144.4
144.4
144.4
144.4
144.4
144.4
144.4
144.4
144.4
144.4
144.4
144.4
144.4
144.4
144.4
144.4
144.4
144.4
144.4
144.4
144.4
144.4
144.4
144.4
144.4
144.4
144.4
144.4
144.4
144.4
144.4
144.4
144.4
144.4
144.4
144.4
144.4
144.4
144.4
144.4
144.4
144.4
144.4
144.4
144.4
144.4
144.4
144.4
144.4
144.4
144.4
144.4
144.4
144.4
144.4
144.4
144.4
144.4
144.4
144.4
144.4
144.4
144.4
144.4
144.4
144.4
144.4
144.4
144.4
144.4
144.4
144.4
144.4
144.4
144.4
144.4
144.4
144.4
144.4
144.4
144.4
144.4
144.4
144.4
144.4
144.4
144.4
144.4
144.4
144.4
144.4
144.4
144.4
144.4
144.4
144.4
144.4
144.4
144.4
144.4
144.4
144.4
144.4
144.4
144.4
144.4
144.4
144.4
144.4
144.4
144.4
144.4
144.4
144.4
144.4
144.4
144.4
144.4
144.4
144.4
144.4
144.4
144.4
144.4
144.4
144.4
144.4
144.4
144.4
144.4
144.4
144.4
144.4
144.4
144.4
144.4
144.4
144.4
144.4
144.4
144.4
144.4
144.4
144.4
144.4
144.4
144.4
144.4
144.4
144.4
144.4
144.4
144.4
144.4
144.4
144.4
144.4
144.4
144.4
144.4
144.4
144.4
144.4
144.4
144.4
144.4
144.4
144.4
144.4
144.4
144.4
144.4
144.4
144.4
144.4
144.4
144.4
144.4
144.4
144.4
144.4
144.4
144.4
144.4
144.4
144.4
144.4
144.4
144.4
144.4
144.4
144.4
144.4
144.4
144.4
144.4
144.4
144.4
144.4
144.4
144.4
144.4
144.4
144.4
144.4
144.4
144.4
144.4
144.4
144.4
144.4
144.4
144.4
144.4
144.4
144.4
144.4
144.4
144.4
144.4
144.4
144.4
144.4
144.4
144.4
144.4
144.4
144.4
144.4
144.4
144.4
144.4
144.4
144.4
144.4
144.4
144.4
144.4
144.4
144.4
144.4
144.4
144.4
144.4
144.4
144.4
144.4
144.4
144.4
144.4
144.4
144.4
144.4
144.4
144.4
144.4
144.4
144.4
144.4
144.4
144.4
144.4
144.4
144.4
144.4
144.4
144.4
144.4
144.4
144.4
144.4
144.4
144.4
144.4
144.4
144.4
144.4
144.4
144.4
144.4
144.4
144.4
144.4
144.4
144.4
144.4
144.4
144.4
144.4
144.4
144.4
144.4
144.4
144.4
144.4
144.4
144.4
144.4
144.4
144.4
144.4
144.4
144.4
144.4
144.4
144.4
144.4
144.4
144.4
144.4
144.4
144.4
144.4
144.4
144.4
144.4
144.4
144.4
144.4
144.4
144.4
144.4
144.4
144.4
144.4
144.4
144.4
144.4
144.4
144.4
144.4
144.4
144.4
144.4
144.4
144.4
144.4
144.4
144.4
144.4
144.4
144.4
144.4
144.4
144.4
144.4
144.4
144.4
144.4
144.4
144.4
144.4
144.4
144.4
144.4
144.4
144.4
144.4
144.4
144.4
144.4
144.4
144.4
144.4
144.4
144.4
144.4
144.4
144.4
144.4
144.4
144.4
144.4
144.4
144.4
144.4
144.4
144.4
144.4
144.4
144.4
144.4
144.4
144.4
144.4
144.4
144.4
144.4
144.4
144.4
144.4
144.4
144.4
144.4
144.4
144.4
144.4
144.4
144.4
144.4
144.4
144.4
144.4
144.4
144.4
144.4
144.4
144.4
144.4
144.4
144.4
144.4
144.4
144.4
144.4
144.4
144.4
144.4
144.4
144.4
144.4
144.4
144.4
144.4
144.4
144.4
144.4
144.4
144.4
144.4
144.4
144.4
144.4
144.4
144.4
144.4
144.4
144.4
144.4
144.4
144.4
144.4
144.4
144.4
144.4
144.4
144.4
144.4
144.4
144.4
144.4
144.4
144.4
144.4
144.4
144.4
144.4
144.4
144.4
144.4
144.4
144.4
144.4
144.4
144.4
144.4
144.4
144.4
144.4
144.4
144.4
144.4
144.4
144.4
144.4
144.4
144.4
144.4
144.4
144.4
144.4
144.4
144.4
144.4
144.4
144.4
144.4
144.4
144.4
144.4
144.4
144.4
144.4
144.4
144.4
144.4
144.4
144.4
144.4
144.401
144.401
144.401
144.401
144.401
144.401
144.401
144.401
144.402
144.402
144.402
144.402
144.4
144.4
144.4
144.4
144.4
144.4
144.4
144.4
144.4
144.4
144.4
144.4
144.4
144.4
144.4
144.4
144.4
144.4
144.4
144.4
144.4
144.4
144.4
144.4
144.4
144.4
144.4
144.4
144.4
144.4
144.4
144.4
144.4
144.4
144.4
144.4
144.4
144.4
144.4
144.4
144.4
144.4
144.4
144.4
144.4
144.4
144.4
144.4
144.4
144.4
144.4
144.4
144.4
144.4
144.4
144.4
144.4
144.4
144.4
144.4
144.4
144.4
144.4
144.4
144.4
144.4
144.4
144.4
144.4
144.4
144.4
144.4
144.4
144.4
144.4
144.4
144.4
144.4
144.4
144.4
144.4
144.4
144.4
144.4
144.4
144.4
144.4
144.4
144.4
144.4
144.4
144.4
144.4
144.4
144.4
144.401
144.401
144.401
144.401
144.401
144.401
144.401
144.401
144.401
144.402
144.402
144.402
144.402
144.403
144.403
144.403
144.404
144.404
144.405
144.405
144.406
144.407
144.408
144.409
144.41
144.411
144.412
144.413
144.4
144.4
144.4
144.4
144.4
144.4
144.4
144.4
144.4
144.4
144.4
144.4
144.4
144.4
144.4
144.4
144.4
144.4
144.4
144.4
144.4
144.4
144.4
144.4
144.4
144.4
144.4
144.4
144.4
144.4
144.4
144.4
144.4
144.4
144.4
144.4
144.4
144.4
144.4
144.4
144.4
144.4
144.4
144.4
144.4
144.4
144.4
144.4
144.4
144.4
144.4
144.4
144.4
144.4
144.4
144.4
144.4
144.4
144.4
144.4
144.4
144.4
144.4
144.4
144.4
144.4
144.4
144.4
144.4
144.4
144.4
144.4
144.4
144.4
144.4
144.4
144.4
144.401
144.401
144.401
144.401
144.401
144.401
144.401
144.401
144.401
144.401
144.401
144.402
144.402
144.402
144.402
144.403
144.403
144.403
144.404
144.404
144.405
144.405
144.406
144.406
144.407
144.408
144.409
144.41
144.411
144.412
144.414
144.415
144.417
144.418
144.42
144.422
144.424
144.427
144.429
144.432
144.435
144.438
144.441
144.445
144.448
144.452
144.4
144.4
144.4
144.4
144.4
144.4
144.4
144.4
144.4
144.4
144.4
144.4
144.4
144.4
144.4
144.4
144.4
144.4
144.4
144.4
144.4
144.4
144.4
144.4
144.4
144.4
144.4
144.4
144.4
144.4
144.4
144.4
144.4
144.4
144.4
144.4
144.4
144.4
144.4
144.4
144.4
144.4
144.4
144.4
144.4
144.4
144.4
144.4
144.4
144.4
144.4
144.4
144.4
144.4
144.401
144.401
144.401
144.401
144.401
144.401
144.401
144.401
144.401
144.401
144.401
144.401
144.401
144.401
144.401
144.402
144.402
144.402
144.402
144.402
144.403
144.403
144.403
144.403
144.404
144.404
144.404
144.405
144.405
144.406
144.407
144.407
144.408
144.409
144.41
144.411
144.412
144.413
144.415
144.416
144.418
144.42
144.422
144.424
144.427
144.429
144.431
144.434
144.437
144.441
144.445
144.448
144.453
144.457
144.462
144.466
144.471
144.477
144.482
144.488
144.495
144.501
144.509
144.516
144.524
144.533
144.542
144.551
144.56
144.57
144.58
144.4
144.4
144.4
144.4
144.4
144.4
144.4
144.4
144.4
144.4
144.4
144.4
144.4
144.4
144.4
144.4
144.4
144.4
144.4
144.4
144.401
144.401
144.401
144.401
144.401
144.401
144.401
144.401
144.401
144.401
144.401
144.401
144.401
144.401
144.401
144.401
144.401
144.401
144.401
144.401
144.402
144.402
144.402
144.402
144.402
144.402
144.402
144.402
144.402
144.402
144.403
144.403
144.403
144.403
144.403
144.403
144.404
144.404
144.404
144.405
144.405
144.405
144.406
144.406
144.406
144.407
144.407
144.408
144.409
144.41
144.41
144.411
144.412
144.413
144.414
144.416
144.417
144.418
144.42
144.422
144.424
144.426
144.429
144.431
144.434
144.437
144.44
144.443
144.447
144.451
144.455
144.459
144.464
144.469
144.475
144.481
144.487
144.493
144.5
144.507
144.514
144.522
144.53
144.539
144.548
144.558
144.568
144.579
144.591
144.603
144.615
144.628
144.641
144.655
144.67
144.685
144.701
144.718
144.735
144.754
144.773
144.793
144.814
144.835
144.857
144.401
144.401
144.401
144.401
144.401
144.401
144.401
144.401
144.401
144.402
144.402
144.402
144.402
144.402
144.402
144.402
144.402
144.403
144.403
144.403
144.403
144.403
144.404
144.404
144.404
144.404
144.404
144.405
144.405
144.405
144.405
144.406
144.406
144.406
144.406
144.407
144.407
144.408
144.408
144.408
144.409
144.409
144.41
144.41
144.411
144.411
144.412
144.412
144.413
144.414
144.414
144.415
144.416
144.417
144.418
144.419
144.42
144.422
144.423
144.424
144.426
144.428
144.429
144.431
144.433
144.435
144.438
144.441
144.444
144.447
144.45
144.454
144.457
144.461
144.466
144.47
144.475
144.48
144.485
144.491
144.498
144.505
144.512
144.519
144.527
144.536
144.545
144.554
144.563
144.573
144.584
144.595
144.607
144.62
144.633
144.647
144.662
144.677
144.693
144.709
144.726
144.744
144.763
144.782
144.803
144.824
144.847
144.871
144.895
144.921
144.947
144.975
145.003
145.033
145.063
145.095
145.128
145.162
145.198
145.236
145.275
145.315
145.357
145.4
145.444
144.404
144.404
144.405
144.405
144.406
144.406
144.407
144.407
144.408
144.408
144.409
144.409
144.41
144.411
144.411
144.412
144.413
144.414
144.415
144.416
144.416
144.417
144.418
144.419
144.42
144.422
144.423
144.424
144.425
144.426
144.427
144.428
144.43
144.431
144.432
144.434
144.435
144.437
144.439
144.44
144.442
144.444
144.446
144.448
144.45
144.452
144.454
144.457
144.459
144.462
144.464
144.467
144.471
144.474
144.478
144.481
144.485
144.49
144.494
144.499
144.504
144.509
144.514
144.52
144.526
144.532
144.539
144.547
144.555
144.563
144.572
144.581
144.591
144.601
144.611
144.622
144.634
144.646
144.658
144.672
144.686
144.702
144.718
144.734
144.752
144.77
144.789
144.809
144.83
144.852
144.874
144.898
144.922
144.948
144.975
145.003
145.033
145.063
145.095
145.129
145.163
145.199
145.236
145.275
145.314
145.356
145.399
145.443
145.49
145.538
145.589
145.641
145.695
145.751
145.808
145.867
145.928
145.991
146.056
146.124
146.194
146.266
146.341
146.418
146.496
146.578
144.422
144.424
144.426
144.428
144.43
144.433
144.435
144.438
144.441
144.443
144.446
144.449
144.452
144.455
144.459
144.462
144.466
144.469
144.473
144.477
144.48
144.484
144.488
144.492
144.496
144.5
144.504
144.508
144.512
144.517
144.521
144.525
144.53
144.535
144.539
144.544
144.549
144.555
144.56
144.566
144.571
144.577
144.583
144.588
144.594
144.601
144.607
144.613
144.62
144.627
144.635
144.643
144.652
144.66
144.67
144.679
144.69
144.7
144.711
144.722
144.734
144.747
144.76
144.773
144.787
144.802
144.818
144.834
144.852
144.87
144.889
144.909
144.93
144.952
144.976
145
145.025
145.051
145.078
145.106
145.136
145.168
145.201
145.235
145.271
145.308
145.347
145.388
145.43
145.474
145.519
145.565
145.614
145.664
145.716
145.77
145.826
145.884
145.945
146.008
146.073
146.14
146.21
146.281
146.354
146.43
146.508
146.589
146.672
146.758
146.847
146.939
147.034
147.131
147.23
147.332
147.436
147.543
147.653
147.765
147.881
148
148.122
148.246
148.373
148.503
148.636
148.772
144.508
144.516
144.525
144.534
144.543
144.552
144.562
144.572
144.582
144.592
144.602
144.612
144.622
144.633
144.644
144.654
144.665
144.676
144.687
144.698
144.71
144.721
144.731
144.742
144.753
144.764
144.774
144.784
144.794
144.805
144.815
144.826
144.837
144.848
144.859
144.87
144.881
144.893
144.904
144.916
144.928
144.94
144.952
144.965
144.978
144.991
145.004
145.017
145.031
145.046
145.061
145.078
145.094
145.112
145.13
145.15
145.17
145.191
145.213
145.236
145.26
145.285
145.311
145.338
145.366
145.396
145.427
145.46
145.494
145.53
145.567
145.607
145.648
145.691
145.736
145.782
145.831
145.881
145.933
145.987
146.043
146.102
146.162
146.225
146.291
146.359
146.429
146.502
146.578
146.655
146.735
146.818
146.903
146.99
147.079
147.172
147.267
147.365
147.467
147.572
147.679
147.79
147.903
148.019
148.138
148.26
148.385
148.513
148.643
148.777
148.915
149.056
149.2
149.347
149.496
149.648
149.802
149.959
150.119
150.282
150.448
150.617
150.789
150.963
151.14
151.319
151.501
151.686
144.824
144.849
144.874
144.899
144.925
144.95
144.975
145
145.025
145.05
145.074
145.098
145.122
145.146
145.169
145.193
145.216
145.239
145.261
145.283
145.305
145.326
145.347
145.367
145.387
145.407
145.426
145.445
145.463
145.481
145.499
145.517
145.535
145.554
145.572
145.591
145.61
145.63
145.649
145.669
145.69
145.71
145.732
145.754
145.776
145.799
145.822
145.846
145.871
145.897
145.924
145.953
145.983
146.014
146.047
146.082
146.118
146.156
146.195
146.237
146.28
146.326
146.373
146.422
146.473
146.526
146.581
146.639
146.699
146.762
146.828
146.896
146.967
147.041
147.118
147.197
147.279
147.364
147.451
147.541
147.634
147.73
147.828
147.93
148.035
148.143
148.254
148.369
148.487
148.607
148.731
148.857
148.987
149.119
149.254
149.392
149.533
149.677
149.825
149.977
150.132
150.29
150.45
150.614
150.781
150.951
151.124
151.3
151.478
151.66
151.845
152.033
152.224
152.417
152.613
152.81
153.01
153.212
153.416
153.622
153.831
154.043
154.256
154.471
154.689
154.908
155.129
155.353
145.65
145.7
145.749
145.797
145.845
145.892
145.937
145.982
146.026
146.068
146.109
146.149
146.188
146.226
146.263
146.299
146.335
146.369
146.403
146.436
146.469
146.5
146.531
146.561
146.591
146.62
146.648
146.675
146.701
146.727
146.754
146.78
146.806
146.833
146.861
146.889
146.917
146.946
146.976
147.006
147.037
147.069
147.103
147.137
147.172
147.209
147.246
147.285
147.326
147.368
147.412
147.459
147.507
147.558
147.612
147.668
147.726
147.787
147.851
147.918
147.988
148.06
148.135
148.214
148.295
148.38
148.467
148.557
148.651
148.747
148.848
148.952
149.059
149.17
149.284
149.402
149.523
149.647
149.775
149.905
150.039
150.177
150.317
150.46
150.607
150.757
150.91
151.067
151.227
151.39
151.556
151.726
151.898
152.073
152.251
152.431
152.615
152.801
152.991
153.185
153.381
153.58
153.782
153.986
154.194
154.404
154.617
154.832
155.049
155.269
155.492
155.716
155.944
156.173
156.404
156.636
156.869
157.104
157.34
157.578
157.818
158.059
158.302
158.546
158.791
159.038
159.287
159.537
159.789
147.277
147.349
147.418
147.485
147.55
147.614
147.676
147.736
147.793
147.849
147.902
147.953
148.003
148.05
148.097
148.142
148.186
148.23
148.272
148.313
148.353
148.393
148.431
148.469
148.506
148.542
148.576
148.61
148.644
148.679
148.713
148.748
148.784
148.821
148.859
148.898
148.938
148.98
149.022
149.067
149.113
149.161
149.21
149.262
149.316
149.371
149.429
149.489
149.551
149.617
149.685
149.756
149.831
149.909
149.991
150.076
150.164
150.256
150.352
150.451
150.554
150.661
150.771
150.886
151.003
151.125
151.25
151.378
151.51
151.646
151.785
151.928
152.075
152.226
152.38
152.538
152.699
152.863
153.031
153.201
153.375
153.552
153.732
153.915
154.101
154.29
154.482
154.677
154.875
155.076
155.279
155.485
155.694
155.906
156.12
156.336
156.555
156.777
157.002
157.229
157.459
157.691
157.926
158.163
158.402
158.643
158.886
159.131
159.378
159.627
159.878
160.13
160.384
160.638
160.894
161.15
161.406
161.664
161.922
162.182
162.442
162.704
162.966
163.229
163.494
163.759
164.026
164.294
149.588
149.674
149.756
149.836
149.914
149.989
150.061
150.131
150.199
150.263
150.323
150.38
150.436
150.489
150.541
150.592
150.642
150.691
150.739
150.786
150.832
150.878
150.923
150.968
151.011
151.054
151.096
151.138
151.179
151.222
151.265
151.309
151.354
151.401
151.45
151.501
151.554
151.609
151.666
151.725
151.788
151.853
151.92
151.991
152.064
152.141
152.22
152.302
152.387
152.475
152.568
152.664
152.763
152.867
152.975
153.087
153.203
153.323
153.447
153.576
153.708
153.845
153.985
154.13
154.278
154.43
154.587
154.746
154.909
155.076
155.246
155.419
155.596
155.777
155.96
156.148
156.339
156.532
156.729
156.928
157.13
157.336
157.543
157.754
157.967
158.182
158.4
158.621
158.844
159.07
159.299
159.529
159.763
159.998
160.236
160.475
160.718
160.962
161.209
161.458
161.709
161.962
162.217
162.474
162.733
162.994
163.256
163.52
163.785
164.051
164.319
164.588
164.857
165.127
165.398
165.668
165.939
166.21
166.481
166.753
167.025
167.298
167.571
167.845
168.12
168.396
168.672
168.95
152.546
152.633
152.717
152.798
152.877
152.953
153.026
153.097
153.165
153.229
153.289
153.346
153.402
153.456
153.509
153.562
153.613
153.665
153.715
153.766
153.817
153.868
153.919
153.971
154.022
154.073
154.124
154.176
154.228
154.281
154.336
154.392
154.451
154.513
154.577
154.644
154.714
154.787
154.863
154.943
155.027
155.114
155.204
155.299
155.397
155.499
155.604
155.712
155.825
155.941
156.061
156.185
156.314
156.446
156.584
156.725
156.871
157.021
157.175
157.333
157.496
157.662
157.833
158.006
158.184
158.366
158.551
158.739
158.93
159.125
159.321
159.522
159.726
159.933
160.143
160.356
160.572
160.79
161.01
161.234
161.459
161.687
161.918
162.151
162.385
162.622
162.861
163.102
163.346
163.592
163.84
164.091
164.343
164.597
164.853
165.111
165.372
165.634
165.898
166.164
166.431
166.701
166.972
167.245
167.519
167.794
168.07
168.347
168.625
168.903
169.183
169.463
169.743
170.023
170.303
170.582
170.861
171.14
171.419
171.698
171.977
172.256
172.536
172.817
173.098
173.38
173.662
155.819
155.901
155.98
156.058
156.133
156.206
156.277
156.346
156.413
156.476
156.537
156.595
156.652
156.708
156.763
156.818
156.872
156.927
156.983
157.039
157.097
157.155
157.215
157.276
157.338
157.401
157.464
157.529
157.596
157.664
157.734
157.807
157.883
157.963
158.046
158.133
158.223
158.317
158.416
158.519
158.626
158.737
158.852
158.972
159.096
159.224
159.355
159.491
159.63
159.773
159.92
160.071
160.227
160.387
160.551
160.719
160.892
161.068
161.249
161.433
161.621
161.813
162.008
162.206
162.409
162.613
162.821
163.032
163.246
163.462
163.681
163.903
164.127
164.354
164.584
164.816
165.051
165.288
165.527
165.768
166.011
166.256
166.503
166.752
167.003
167.255
167.509
167.766
168.025
168.286
168.549
168.813
169.08
169.348
169.617
169.889
170.162
170.437
170.713
170.992
171.271
171.552
171.834
172.118
172.402
172.686
172.971
173.257
173.543
173.829
174.116
174.402
174.688
174.973
175.257
175.541
175.824
176.106
176.389
176.67
176.952
177.235
177.518
177.801
178.085
178.369
178.655
178.942
159.144
159.224
159.301
159.377
159.45
159.522
159.593
159.662
159.731
159.797
159.862
159.925
159.987
160.048
160.109
160.169
160.23
160.292
160.354
160.418
160.484
160.551
160.621
160.692
160.766
160.842
160.92
161
161.082
161.166
161.253
161.342
161.435
161.532
161.633
161.737
161.846
161.959
162.077
162.199
162.326
162.457
162.593
162.734
162.879
163.028
163.181
163.338
163.499
163.664
163.832
164.004
164.18
164.36
164.544
164.732
164.924
165.12
165.319
165.522
165.729
165.939
166.151
166.367
166.586
166.807
167.031
167.259
167.488
167.719
167.953
168.189
168.427
168.668
168.911
169.156
169.404
169.653
169.904
170.157
170.412
170.668
170.927
171.187
171.448
171.711
171.976
172.242
172.511
172.782
173.054
173.328
173.603
173.88
174.158
174.438
174.72
175.003
175.287
175.572
175.859
176.147
176.436
176.726
177.016
177.307
177.597
177.888
178.178
178.469
178.759
179.048
179.337
179.625
179.912
180.198
180.482
180.766
181.048
181.33
181.612
181.894
182.177
182.459
182.742
183.026
183.311
183.597
162.507
162.586
162.664
162.739
162.813
162.885
162.957
163.028
163.099
163.17
163.24
163.309
163.378
163.447
163.516
163.584
163.654
163.725
163.797
163.871
163.947
164.026
164.107
164.191
164.278
164.368
164.461
164.557
164.656
164.758
164.863
164.971
165.082
165.197
165.316
165.44
165.568
165.7
165.837
165.978
166.125
166.276
166.432
166.592
166.757
166.926
167.099
167.276
167.457
167.641
167.829
168.02
168.215
168.413
168.615
168.82
169.029
169.242
169.458
169.677
169.899
170.124
170.352
170.582
170.816
171.051
171.289
171.529
171.771
172.015
172.261
172.509
172.759
173.01
173.265
173.52
173.778
174.037
174.299
174.561
174.826
175.091
175.359
175.627
175.897
176.169
176.442
176.716
176.993
177.271
177.551
177.831
178.114
178.397
178.682
178.969
179.257
179.545
179.836
180.127
180.419
180.712
181.005
181.299
181.594
181.888
182.182
182.475
182.768
183.061
183.352
183.643
183.932
184.221
184.507
184.793
185.077
185.359
185.64
185.921
186.2
186.48
186.759
187.038
187.318
187.599
187.88
188.163
165.936
166.016
166.094
166.17
166.246
166.322
166.397
166.473
166.548
166.625
166.702
166.779
166.857
166.936
167.015
167.096
167.179
167.263
167.349
167.438
167.53
167.625
167.723
167.825
167.93
168.039
168.152
168.268
168.388
168.511
168.638
168.769
168.903
169.041
169.184
169.331
169.482
169.638
169.799
169.964
170.134
170.308
170.487
170.671
170.858
171.05
171.245
171.444
171.647
171.852
172.061
172.272
172.487
172.705
172.926
173.15
173.377
173.607
173.84
174.076
174.314
174.555
174.798
175.044
175.291
175.541
175.793
176.046
176.3
176.556
176.815
177.074
177.335
177.598
177.863
178.129
178.397
178.666
178.937
179.209
179.482
179.757
180.033
180.31
180.588
180.868
181.149
181.432
181.716
182.001
182.287
182.575
182.864
183.154
183.445
183.738
184.031
184.325
184.62
184.916
185.212
185.509
185.805
186.102
186.398
186.693
186.988
187.282
187.574
187.865
188.155
188.444
188.73
189.015
189.298
189.58
189.859
190.137
190.413
190.689
190.963
191.238
191.512
191.786
192.061
192.337
192.614
169.25
169.333
169.416
169.498
169.579
169.661
169.743
169.825
169.908
169.993
170.078
170.165
170.254
170.344
170.436
170.53
170.625
170.724
170.824
170.927
171.034
171.144
171.258
171.375
171.497
171.622
171.752
171.886
172.024
172.165
172.311
172.461
172.614
172.772
172.933
173.099
173.269
173.443
173.622
173.805
173.993
174.185
174.381
174.582
174.786
174.995
175.207
175.422
175.641
175.862
176.087
176.313
176.543
176.775
177.01
177.247
177.487
177.73
177.975
178.223
178.473
178.725
178.979
179.236
179.493
179.753
180.015
180.277
180.541
180.806
181.073
181.341
181.61
181.88
182.152
182.426
182.701
182.977
183.254
183.532
183.812
184.093
184.375
184.657
184.941
185.226
185.512
185.8
186.088
186.378
186.669
186.96
187.253
187.547
187.842
188.137
188.434
188.73
189.028
189.325
189.623
189.921
190.219
190.516
190.813
191.108
191.402
191.695
191.986
192.275
192.563
192.848
193.132
193.413
193.692
193.968
194.243
194.515
194.786
195.055
195.324
195.591
195.858
196.125
196.392
196.66
196.929
197.199
197.47
172.516
172.605
172.694
172.783
172.872
172.962
173.052
173.143
173.236
173.33
173.426
173.524
173.624
173.727
173.832
173.939
174.049
174.162
174.278
174.397
174.519
174.646
174.775
174.909
175.047
175.19
175.337
175.488
175.643
175.803
175.967
176.135
176.307
176.483
176.663
176.847