/*--------------------------------*- C++ -*----------------------------------*\
| =========                 |                                                 |
| \\      /  F ield         | OpenFOAM: The Open Source CFD Toolbox           |
|  \\    /   O peration     | Version:  v1706                                 |
|   \\  /    A nd           | Web:      www.OpenFOAM.com                      |
|    \\/     M anipulation  |                                                 |
\*---------------------------------------------------------------------------*/
FoamFile
{
    version     2.0;
    format      ascii;
    class       volScalarField;
    location    "3.3e-05";
    object      wallHeatFlux;
}
// * * * * * * * * * * * * * * * * * * * * * * * * * * * * * * * * * * * * * //

dimensions      [1 0 -3 0 0 0 0];


internalField   uniform 0;

boundaryField
{
    cone
    {
        type            calculated;
        value           nonuniform List<scalar> 
181
(
29572.3
29215.8
28861.3
28509.1
28159.1
27811.6
27466.7
27124.5
26785.2
26448.8
26115.6
25785.7
25459.2
25136.3
24817.1
24501.8
24190.5
23883.2
23580.2
23281.6
22987.5
22697.9
22413.1
22133.1
21857.9
21587.8
21322.8
21062.9
20808.3
20559
20314.9
20076.3
19843.1
19615.4
19393.2
19176.5
18965.3
18759.6
18559.5
18365
18176.1
17992.8
17815.2
17643.1
17476.6
17315.6
17159.9
17009.4
16863.8
16722.8
16585.9
16452.8
16323
16196.4
16072.5
15951.4
15833.4
15719
15608.9
15504.4
15407
15318.3
15240.3
15174.9
15124.2
15090.9
15076.7
15079.4
15097.7
15131.9
15181.4
15242.6
15311
15381.1
15446.9
15502.8
15544.2
15563.2
15549.7
15496.7
15396.7
15244.2
15034.8
14766.1
14438.5
14055.7
13625.4
13158.5
12669.5
12175
11692
11236.9
10827.3
10475.8
10194.5
10000
9904.13
9916.3
10051.7
10323.7
10743.9
11322.9
12068.8
12985.5
14071.7
15318.2
16705.1
18199.7
19754.1
21307.3
22789.5
24127.9
25253.3
26113.6
26664.5
26885.2
26780.8
26356.2
25618
24586.3
23287.8
21758.5
20047.5
18216.5
16334.9
14471.1
12685.1
11022.4
9512.27
8168.35
6992.16
5976.65
5109.65
4376.71
3762.79
3255.99
2843.61
2515.94
2267.36
2090.4
1979.6
1931.3
1942.33
2012.44
2140.89
2325.7
2566.49
2862.77
3213.68
3617.91
4073.47
4577.59
5126.55
5715.71
6339.5
6991.62
7665.27
8353.42
9049.16
9745.92
10437.7
11119.3
11785.9
12433.6
13058.8
13658.3
14228.9
14767.4
15270.4
15734.4
16155.8
16529.2
16850.7
17117
17323.6
17467.7
17547.3
17561
17507.7
17387.5
17201.4
)
;
    }
    inlet
    {
        type            calculated;
        value           uniform 0;
    }
    rWedge
    {
        type            wedge;
    }
    lWedge
    {
        type            wedge;
    }
    outlet
    {
        type            calculated;
        value           nonuniform 0();
    }
    procBoundary1to0
    {
        type            processor;
        value           uniform 0;
    }
    procBoundary1to2
    {
        type            processor;
        value           uniform 0;
    }
}


// ************************************************************************* //
