/*--------------------------------*- C++ -*----------------------------------*\
| =========                 |                                                 |
| \\      /  F ield         | OpenFOAM: The Open Source CFD Toolbox           |
|  \\    /   O peration     | Version:  v1706                                 |
|   \\  /    A nd           | Web:      www.OpenFOAM.com                      |
|    \\/     M anipulation  |                                                 |
\*---------------------------------------------------------------------------*/
FoamFile
{
    version     2.0;
    format      ascii;
    class       volScalarField;
    location    "3.3e-05";
    object      alpha;
}
// * * * * * * * * * * * * * * * * * * * * * * * * * * * * * * * * * * * * * //

dimensions      [1 -1 -1 0 0 0 0];


internalField   nonuniform List<scalar> 
29871
(
1.44431e-05
1.449e-05
1.45413e-05
1.45966e-05
1.46555e-05
1.4718e-05
1.47851e-05
1.48585e-05
1.49395e-05
1.50276e-05
1.51219e-05
1.5221e-05
1.53238e-05
1.54295e-05
1.55372e-05
1.56459e-05
1.57547e-05
1.58625e-05
1.59685e-05
1.60721e-05
1.61747e-05
1.62848e-05
1.64209e-05
1.65774e-05
1.67456e-05
1.69185e-05
1.70908e-05
1.72586e-05
1.74194e-05
1.75711e-05
1.77126e-05
1.78434e-05
1.79637e-05
1.80738e-05
1.81744e-05
1.8266e-05
1.83491e-05
1.84241e-05
1.84914e-05
1.85513e-05
1.86038e-05
1.86494e-05
1.86883e-05
1.87205e-05
1.87463e-05
1.87661e-05
1.87803e-05
1.87893e-05
1.87926e-05
1.87904e-05
1.87844e-05
1.87756e-05
1.87631e-05
1.8746e-05
1.87244e-05
1.86989e-05
1.86721e-05
1.86441e-05
1.86142e-05
1.85832e-05
1.8551e-05
1.8517e-05
1.84811e-05
1.84436e-05
1.84038e-05
1.8361e-05
1.83154e-05
1.82669e-05
1.82156e-05
1.81613e-05
1.8104e-05
1.80437e-05
1.798e-05
1.79129e-05
1.78421e-05
1.77675e-05
1.76888e-05
1.76057e-05
1.75179e-05
1.74252e-05
1.73272e-05
1.72237e-05
1.71142e-05
1.69984e-05
1.68759e-05
1.67464e-05
1.661e-05
1.64673e-05
1.63182e-05
1.61629e-05
1.60036e-05
1.5849e-05
1.57244e-05
1.56268e-05
1.55379e-05
1.54497e-05
1.536e-05
1.52686e-05
1.51759e-05
1.50825e-05
1.49893e-05
1.48968e-05
1.48054e-05
1.47173e-05
1.46365e-05
1.62317e-05
1.64516e-05
1.66813e-05
1.69184e-05
1.71607e-05
1.74071e-05
1.76596e-05
1.7935e-05
1.82401e-05
1.85695e-05
1.8915e-05
1.92678e-05
1.96198e-05
1.99637e-05
2.0294e-05
2.06063e-05
2.08976e-05
2.11661e-05
2.14108e-05
2.16319e-05
2.18301e-05
2.20053e-05
2.21554e-05
2.22822e-05
2.23875e-05
2.24735e-05
2.25423e-05
2.2596e-05
2.26361e-05
2.26642e-05
2.26826e-05
2.26939e-05
2.27004e-05
2.2704e-05
2.2706e-05
2.27065e-05
2.27062e-05
2.27054e-05
2.27039e-05
2.27017e-05
2.26986e-05
2.26947e-05
2.26896e-05
2.26829e-05
2.26744e-05
2.2664e-05
2.26517e-05
2.26374e-05
2.26212e-05
2.26027e-05
2.25821e-05
2.25601e-05
2.25362e-05
2.2511e-05
2.24862e-05
2.24591e-05
2.24317e-05
2.2404e-05
2.23748e-05
2.23452e-05
2.23158e-05
2.22865e-05
2.22574e-05
2.22281e-05
2.21978e-05
2.21666e-05
2.2135e-05
2.21026e-05
2.20694e-05
2.20353e-05
2.20005e-05
2.19648e-05
2.19283e-05
2.18908e-05
2.18523e-05
2.18129e-05
2.17723e-05
2.17307e-05
2.16881e-05
2.16443e-05
2.15995e-05
2.15538e-05
2.15073e-05
2.14603e-05
2.14131e-05
2.13659e-05
2.13182e-05
2.12692e-05
2.12165e-05
2.11564e-05
2.10843e-05
2.09919e-05
2.08696e-05
2.0717e-05
2.05389e-05
2.03377e-05
2.01134e-05
1.9865e-05
1.95918e-05
1.92934e-05
1.89709e-05
1.86259e-05
1.82607e-05
1.78788e-05
1.74888e-05
1.93855e-05
1.98185e-05
2.02538e-05
2.06811e-05
2.10919e-05
2.14796e-05
2.18397e-05
2.21692e-05
2.24633e-05
2.27215e-05
2.29462e-05
2.31407e-05
2.33086e-05
2.34534e-05
2.35783e-05
2.36856e-05
2.3777e-05
2.38535e-05
2.39155e-05
2.39632e-05
2.3998e-05
2.40223e-05
2.40387e-05
2.40491e-05
2.40554e-05
2.40554e-05
2.40527e-05
2.40467e-05
2.40366e-05
2.40218e-05
2.4002e-05
2.39779e-05
2.39502e-05
2.39199e-05
2.38879e-05
2.38549e-05
2.38216e-05
2.37883e-05
2.37555e-05
2.37234e-05
2.36921e-05
2.36619e-05
2.36328e-05
2.36047e-05
2.35776e-05
2.35513e-05
2.35255e-05
2.35e-05
2.34747e-05
2.34495e-05
2.34239e-05
2.33981e-05
2.33721e-05
2.33451e-05
2.33167e-05
2.32879e-05
2.32597e-05
2.32306e-05
2.32025e-05
2.31764e-05
2.31435e-05
2.31127e-05
2.30851e-05
2.30567e-05
2.30237e-05
2.29915e-05
2.29617e-05
2.2932e-05
2.29017e-05
2.28713e-05
2.2841e-05
2.28109e-05
2.27811e-05
2.27516e-05
2.27228e-05
2.26946e-05
2.26672e-05
2.26407e-05
2.26154e-05
2.25916e-05
2.25695e-05
2.25496e-05
2.2532e-05
2.25171e-05
2.2505e-05
2.24958e-05
2.24886e-05
2.24826e-05
2.2477e-05
2.24703e-05
2.24613e-05
2.24484e-05
2.24296e-05
2.24032e-05
2.23687e-05
2.2326e-05
2.22752e-05
2.22163e-05
2.21492e-05
2.20743e-05
2.19909e-05
2.18981e-05
2.17927e-05
2.16696e-05
2.15218e-05
2.13417e-05
2.3368e-05
2.35974e-05
2.37942e-05
2.39618e-05
2.41036e-05
2.42226e-05
2.43215e-05
2.4402e-05
2.44659e-05
2.45146e-05
2.45499e-05
2.45739e-05
2.45897e-05
2.46006e-05
2.46088e-05
2.46159e-05
2.46223e-05
2.46279e-05
2.46318e-05
2.46309e-05
2.46267e-05
2.46186e-05
2.46072e-05
2.45936e-05
2.45783e-05
2.45614e-05
2.45438e-05
2.45258e-05
2.45084e-05
2.44919e-05
2.44763e-05
2.44601e-05
2.44422e-05
2.44216e-05
2.43981e-05
2.43718e-05
2.43432e-05
2.43129e-05
2.42813e-05
2.42491e-05
2.42165e-05
2.41839e-05
2.41516e-05
2.41197e-05
2.40884e-05
2.40578e-05
2.40279e-05
2.39985e-05
2.39697e-05
2.39414e-05
2.39133e-05
2.38852e-05
2.38572e-05
2.38286e-05
2.37987e-05
2.37682e-05
2.37383e-05
2.37074e-05
2.36775e-05
2.36507e-05
2.3616e-05
2.35835e-05
2.35541e-05
2.35238e-05
2.34877e-05
2.34518e-05
2.34191e-05
2.33869e-05
2.3354e-05
2.3321e-05
2.32884e-05
2.32562e-05
2.32244e-05
2.3193e-05
2.31624e-05
2.31327e-05
2.31038e-05
2.30758e-05
2.3049e-05
2.30236e-05
2.29998e-05
2.29779e-05
2.29581e-05
2.29404e-05
2.29249e-05
2.29111e-05
2.28988e-05
2.28866e-05
2.28731e-05
2.28587e-05
2.28438e-05
2.2828e-05
2.28111e-05
2.27928e-05
2.27734e-05
2.2753e-05
2.27317e-05
2.27097e-05
2.26867e-05
2.2662e-05
2.26347e-05
2.26049e-05
2.2571e-05
2.25315e-05
2.2486e-05
2.2434e-05
2.47919e-05
2.48465e-05
2.4888e-05
2.49184e-05
2.49408e-05
2.49579e-05
2.49714e-05
2.49824e-05
2.49911e-05
2.49976e-05
2.50003e-05
2.49985e-05
2.49928e-05
2.49832e-05
2.49708e-05
2.49568e-05
2.49425e-05
2.4929e-05
2.49172e-05
2.49083e-05
2.4903e-05
2.49e-05
2.48966e-05
2.48909e-05
2.4882e-05
2.48698e-05
2.48548e-05
2.48378e-05
2.48193e-05
2.48004e-05
2.47824e-05
2.47657e-05
2.47496e-05
2.47334e-05
2.47162e-05
2.46975e-05
2.46767e-05
2.46538e-05
2.46287e-05
2.46016e-05
2.4573e-05
2.45429e-05
2.45119e-05
2.44803e-05
2.44483e-05
2.44159e-05
2.43837e-05
2.43516e-05
2.43196e-05
2.42877e-05
2.42565e-05
2.42254e-05
2.41936e-05
2.41627e-05
2.41329e-05
2.41017e-05
2.40698e-05
2.40391e-05
2.40086e-05
2.39779e-05
2.39476e-05
2.39149e-05
2.38839e-05
2.38538e-05
2.38252e-05
2.37875e-05
2.37495e-05
2.37164e-05
2.36841e-05
2.36501e-05
2.36159e-05
2.35831e-05
2.3551e-05
2.35191e-05
2.34876e-05
2.3457e-05
2.34273e-05
2.33985e-05
2.33704e-05
2.33433e-05
2.33173e-05
2.32925e-05
2.3269e-05
2.32468e-05
2.32256e-05
2.32051e-05
2.31853e-05
2.31657e-05
2.31464e-05
2.31271e-05
2.31076e-05
2.30875e-05
2.30668e-05
2.30456e-05
2.30242e-05
2.30026e-05
2.29808e-05
2.29591e-05
2.29376e-05
2.29158e-05
2.2893e-05
2.28696e-05
2.28442e-05
2.28163e-05
2.27871e-05
2.27596e-05
2.27352e-05
2.52464e-05
2.52531e-05
2.52549e-05
2.5253e-05
2.52481e-05
2.52408e-05
2.52321e-05
2.5223e-05
2.52141e-05
2.52057e-05
2.51982e-05
2.51922e-05
2.51872e-05
2.51811e-05
2.51725e-05
2.51607e-05
2.51469e-05
2.51316e-05
2.51158e-05
2.51013e-05
2.50899e-05
2.50815e-05
2.50752e-05
2.50694e-05
2.50627e-05
2.50541e-05
2.50431e-05
2.50298e-05
2.50142e-05
2.49974e-05
2.49793e-05
2.49614e-05
2.49446e-05
2.49288e-05
2.49139e-05
2.48992e-05
2.48839e-05
2.48677e-05
2.48501e-05
2.48308e-05
2.481e-05
2.47874e-05
2.47633e-05
2.4738e-05
2.4712e-05
2.46841e-05
2.46555e-05
2.4627e-05
2.45975e-05
2.4567e-05
2.45371e-05
2.45074e-05
2.44755e-05
2.4444e-05
2.4414e-05
2.43834e-05
2.43504e-05
2.43192e-05
2.42893e-05
2.42592e-05
2.42265e-05
2.41946e-05
2.41644e-05
2.41339e-05
2.41059e-05
2.40679e-05
2.40282e-05
2.39936e-05
2.39609e-05
2.39248e-05
2.38876e-05
2.38536e-05
2.38205e-05
2.37863e-05
2.3752e-05
2.3719e-05
2.3687e-05
2.36551e-05
2.36234e-05
2.35923e-05
2.3562e-05
2.35324e-05
2.35036e-05
2.34754e-05
2.34477e-05
2.34204e-05
2.33933e-05
2.33665e-05
2.33399e-05
2.33141e-05
2.32893e-05
2.3265e-05
2.3241e-05
2.32174e-05
2.31944e-05
2.31717e-05
2.31491e-05
2.31266e-05
2.3104e-05
2.30806e-05
2.30563e-05
2.30321e-05
2.30081e-05
2.29828e-05
2.29571e-05
2.29337e-05
2.29129e-05
2.54502e-05
2.54432e-05
2.54358e-05
2.54294e-05
2.54234e-05
2.54183e-05
2.54144e-05
2.54101e-05
2.54034e-05
2.53946e-05
2.53838e-05
2.53719e-05
2.53592e-05
2.5347e-05
2.53368e-05
2.53287e-05
2.53214e-05
2.53138e-05
2.53048e-05
2.5294e-05
2.52815e-05
2.52674e-05
2.52527e-05
2.52383e-05
2.52258e-05
2.52161e-05
2.5209e-05
2.52029e-05
2.51973e-05
2.51912e-05
2.51837e-05
2.51746e-05
2.5164e-05
2.51513e-05
2.51374e-05
2.51232e-05
2.51086e-05
2.50949e-05
2.50818e-05
2.50687e-05
2.50557e-05
2.50424e-05
2.5028e-05
2.50125e-05
2.49962e-05
2.49777e-05
2.49578e-05
2.49374e-05
2.49149e-05
2.48903e-05
2.4866e-05
2.48409e-05
2.48127e-05
2.47849e-05
2.47582e-05
2.4728e-05
2.4697e-05
2.46677e-05
2.46392e-05
2.46054e-05
2.45738e-05
2.45441e-05
2.45159e-05
2.44809e-05
2.44484e-05
2.44189e-05
2.43885e-05
2.43608e-05
2.43217e-05
2.42822e-05
2.42476e-05
2.42146e-05
2.41768e-05
2.41372e-05
2.41015e-05
2.4068e-05
2.4032e-05
2.39946e-05
2.396e-05
2.39264e-05
2.38915e-05
2.38564e-05
2.3822e-05
2.37878e-05
2.37542e-05
2.37213e-05
2.36887e-05
2.3656e-05
2.36236e-05
2.35917e-05
2.35598e-05
2.35276e-05
2.34962e-05
2.34666e-05
2.34372e-05
2.3408e-05
2.33801e-05
2.3353e-05
2.33265e-05
2.33005e-05
2.32747e-05
2.32486e-05
2.32224e-05
2.31961e-05
2.317e-05
2.31445e-05
2.31194e-05
2.30951e-05
2.30722e-05
2.30516e-05
2.56016e-05
2.55914e-05
2.55798e-05
2.55687e-05
2.55574e-05
2.55474e-05
2.55393e-05
2.55327e-05
2.55258e-05
2.55178e-05
2.55088e-05
2.54983e-05
2.54865e-05
2.54742e-05
2.54621e-05
2.54511e-05
2.54419e-05
2.54342e-05
2.54273e-05
2.542e-05
2.5412e-05
2.54026e-05
2.53923e-05
2.53811e-05
2.53698e-05
2.53594e-05
2.53508e-05
2.53441e-05
2.53386e-05
2.5334e-05
2.53295e-05
2.53244e-05
2.53186e-05
2.53109e-05
2.53018e-05
2.5292e-05
2.528e-05
2.52675e-05
2.52558e-05
2.52434e-05
2.52308e-05
2.52189e-05
2.52064e-05
2.51929e-05
2.51796e-05
2.5165e-05
2.51482e-05
2.51315e-05
2.51139e-05
2.50926e-05
2.50713e-05
2.50508e-05
2.50255e-05
2.49998e-05
2.49759e-05
2.49489e-05
2.49188e-05
2.48907e-05
2.48646e-05
2.48313e-05
2.47997e-05
2.47703e-05
2.47432e-05
2.47075e-05
2.46742e-05
2.46451e-05
2.4615e-05
2.45864e-05
2.45456e-05
2.45078e-05
2.44738e-05
2.44407e-05
2.44015e-05
2.43597e-05
2.43227e-05
2.42884e-05
2.42519e-05
2.42123e-05
2.41756e-05
2.41407e-05
2.4104e-05
2.4067e-05
2.40299e-05
2.3992e-05
2.39555e-05
2.39204e-05
2.38848e-05
2.38483e-05
2.38122e-05
2.37773e-05
2.3742e-05
2.37064e-05
2.36718e-05
2.36382e-05
2.36054e-05
2.35733e-05
2.35421e-05
2.3512e-05
2.34826e-05
2.34537e-05
2.34251e-05
2.33965e-05
2.33679e-05
2.33395e-05
2.33114e-05
2.32837e-05
2.32566e-05
2.32303e-05
2.32052e-05
2.3182e-05
2.57177e-05
2.57083e-05
2.56978e-05
2.56866e-05
2.56748e-05
2.56632e-05
2.56526e-05
2.56437e-05
2.56363e-05
2.56295e-05
2.56231e-05
2.56162e-05
2.56083e-05
2.55996e-05
2.55903e-05
2.55808e-05
2.5572e-05
2.55644e-05
2.5558e-05
2.55522e-05
2.55467e-05
2.55408e-05
2.55343e-05
2.55269e-05
2.55186e-05
2.55098e-05
2.55014e-05
2.54938e-05
2.54873e-05
2.5482e-05
2.54775e-05
2.54733e-05
2.54693e-05
2.54646e-05
2.54587e-05
2.54525e-05
2.54443e-05
2.54341e-05
2.54244e-05
2.54138e-05
2.54011e-05
2.53895e-05
2.53781e-05
2.53645e-05
2.53514e-05
2.53389e-05
2.53233e-05
2.53076e-05
2.52929e-05
2.5274e-05
2.52544e-05
2.52364e-05
2.52143e-05
2.51901e-05
2.51676e-05
2.51442e-05
2.51152e-05
2.50881e-05
2.50636e-05
2.50321e-05
2.50007e-05
2.49718e-05
2.4945e-05
2.49097e-05
2.48763e-05
2.48473e-05
2.48179e-05
2.47866e-05
2.47451e-05
2.47093e-05
2.4676e-05
2.46429e-05
2.46022e-05
2.45588e-05
2.4521e-05
2.44858e-05
2.44494e-05
2.44083e-05
2.43697e-05
2.43332e-05
2.42962e-05
2.4259e-05
2.42189e-05
2.41784e-05
2.41401e-05
2.4103e-05
2.40658e-05
2.4027e-05
2.39887e-05
2.39512e-05
2.39138e-05
2.38766e-05
2.38399e-05
2.38041e-05
2.37692e-05
2.37352e-05
2.37021e-05
2.36699e-05
2.36384e-05
2.36075e-05
2.3577e-05
2.35467e-05
2.35165e-05
2.34866e-05
2.3457e-05
2.34276e-05
2.33987e-05
2.33707e-05
2.33437e-05
2.33179e-05
2.5824e-05
2.5817e-05
2.58098e-05
2.5802e-05
2.57935e-05
2.57846e-05
2.57756e-05
2.57672e-05
2.57599e-05
2.57538e-05
2.57486e-05
2.57438e-05
2.57389e-05
2.57335e-05
2.57274e-05
2.57208e-05
2.57139e-05
2.57072e-05
2.57012e-05
2.56959e-05
2.56913e-05
2.56869e-05
2.56826e-05
2.56779e-05
2.56725e-05
2.56664e-05
2.56597e-05
2.56528e-05
2.56462e-05
2.56401e-05
2.56348e-05
2.56298e-05
2.56257e-05
2.56217e-05
2.56167e-05
2.5612e-05
2.56066e-05
2.55986e-05
2.55906e-05
2.55824e-05
2.55708e-05
2.55593e-05
2.55488e-05
2.55352e-05
2.55214e-05
2.55092e-05
2.5494e-05
2.54778e-05
2.54634e-05
2.54462e-05
2.54267e-05
2.54089e-05
2.53896e-05
2.53659e-05
2.53437e-05
2.53225e-05
2.52949e-05
2.52683e-05
2.52443e-05
2.52149e-05
2.51837e-05
2.51552e-05
2.51286e-05
2.50939e-05
2.50607e-05
2.50314e-05
2.50029e-05
2.49683e-05
2.49275e-05
2.48934e-05
2.48605e-05
2.48274e-05
2.47848e-05
2.47408e-05
2.47028e-05
2.46669e-05
2.46301e-05
2.45877e-05
2.45483e-05
2.4511e-05
2.44735e-05
2.44359e-05
2.43928e-05
2.43509e-05
2.43115e-05
2.4273e-05
2.42345e-05
2.41952e-05
2.41558e-05
2.41167e-05
2.40781e-05
2.40399e-05
2.40023e-05
2.39655e-05
2.39297e-05
2.38947e-05
2.38606e-05
2.38272e-05
2.37946e-05
2.37625e-05
2.37307e-05
2.36992e-05
2.36679e-05
2.36367e-05
2.36058e-05
2.35751e-05
2.35448e-05
2.35151e-05
2.34862e-05
2.34581e-05
2.59438e-05
2.5938e-05
2.59327e-05
2.59274e-05
2.5922e-05
2.59161e-05
2.59098e-05
2.59034e-05
2.58973e-05
2.58919e-05
2.58874e-05
2.58835e-05
2.58802e-05
2.5877e-05
2.58735e-05
2.58697e-05
2.58655e-05
2.5861e-05
2.58564e-05
2.58521e-05
2.58482e-05
2.58447e-05
2.58414e-05
2.58382e-05
2.58348e-05
2.58309e-05
2.58263e-05
2.58211e-05
2.58155e-05
2.58098e-05
2.58041e-05
2.57985e-05
2.57934e-05
2.57887e-05
2.57834e-05
2.57784e-05
2.57737e-05
2.57667e-05
2.57595e-05
2.57526e-05
2.57426e-05
2.57315e-05
2.57216e-05
2.57088e-05
2.56943e-05
2.56815e-05
2.56668e-05
2.56495e-05
2.56339e-05
2.56175e-05
2.55972e-05
2.55782e-05
2.556e-05
2.55365e-05
2.55136e-05
2.54927e-05
2.54666e-05
2.54395e-05
2.54151e-05
2.53876e-05
2.53564e-05
2.53275e-05
2.53008e-05
2.52669e-05
2.52336e-05
2.52035e-05
2.51751e-05
2.51389e-05
2.50995e-05
2.50662e-05
2.5033e-05
2.49995e-05
2.49555e-05
2.49119e-05
2.48741e-05
2.48375e-05
2.48e-05
2.47562e-05
2.47163e-05
2.46789e-05
2.46411e-05
2.46027e-05
2.4557e-05
2.4514e-05
2.44741e-05
2.44351e-05
2.4396e-05
2.43565e-05
2.43168e-05
2.42772e-05
2.42382e-05
2.41997e-05
2.41619e-05
2.41249e-05
2.40888e-05
2.40536e-05
2.4019e-05
2.3985e-05
2.39517e-05
2.39189e-05
2.38863e-05
2.38539e-05
2.38215e-05
2.37893e-05
2.37572e-05
2.37252e-05
2.36935e-05
2.36623e-05
2.36317e-05
2.36018e-05
2.60825e-05
2.60767e-05
2.60716e-05
2.60674e-05
2.60637e-05
2.60603e-05
2.60569e-05
2.60533e-05
2.60495e-05
2.60457e-05
2.60421e-05
2.60388e-05
2.60361e-05
2.6034e-05
2.60322e-05
2.60307e-05
2.60291e-05
2.60273e-05
2.60252e-05
2.60228e-05
2.60202e-05
2.60176e-05
2.60151e-05
2.60128e-05
2.60105e-05
2.60083e-05
2.60058e-05
2.60028e-05
2.59993e-05
2.59951e-05
2.59903e-05
2.5985e-05
2.59794e-05
2.59738e-05
2.59682e-05
2.59621e-05
2.59561e-05
2.59505e-05
2.59435e-05
2.59358e-05
2.5929e-05
2.59197e-05
2.59086e-05
2.58988e-05
2.58867e-05
2.58719e-05
2.58584e-05
2.58439e-05
2.58258e-05
2.58087e-05
2.57921e-05
2.57713e-05
2.57505e-05
2.57315e-05
2.57084e-05
2.56839e-05
2.56618e-05
2.56368e-05
2.56086e-05
2.55826e-05
2.55563e-05
2.5525e-05
2.54951e-05
2.54676e-05
2.54346e-05
2.54006e-05
2.53695e-05
2.53404e-05
2.53037e-05
2.52652e-05
2.5232e-05
2.51983e-05
2.51641e-05
2.5119e-05
2.50766e-05
2.50392e-05
2.50023e-05
2.49634e-05
2.49182e-05
2.48779e-05
2.48406e-05
2.48026e-05
2.47634e-05
2.4716e-05
2.46726e-05
2.46326e-05
2.45935e-05
2.45543e-05
2.45149e-05
2.44753e-05
2.44359e-05
2.4397e-05
2.43587e-05
2.43211e-05
2.42844e-05
2.42481e-05
2.42129e-05
2.41783e-05
2.4144e-05
2.41102e-05
2.40766e-05
2.40432e-05
2.40099e-05
2.39765e-05
2.39432e-05
2.39099e-05
2.38767e-05
2.38437e-05
2.38112e-05
2.37792e-05
2.3748e-05
2.62239e-05
2.622e-05
2.62165e-05
2.62137e-05
2.62114e-05
2.62096e-05
2.62082e-05
2.62069e-05
2.62057e-05
2.62044e-05
2.62031e-05
2.62019e-05
2.62009e-05
2.62002e-05
2.62e-05
2.62e-05
2.62002e-05
2.62004e-05
2.62003e-05
2.62001e-05
2.61995e-05
2.61986e-05
2.61976e-05
2.61964e-05
2.61951e-05
2.61937e-05
2.61921e-05
2.61901e-05
2.61877e-05
2.61847e-05
2.61809e-05
2.61765e-05
2.61713e-05
2.61657e-05
2.61595e-05
2.61527e-05
2.61458e-05
2.61388e-05
2.61308e-05
2.61222e-05
2.61142e-05
2.61044e-05
2.60928e-05
2.60823e-05
2.60701e-05
2.60549e-05
2.60405e-05
2.60257e-05
2.60072e-05
2.59886e-05
2.59711e-05
2.59501e-05
2.59273e-05
2.59068e-05
2.58838e-05
2.58575e-05
2.58333e-05
2.58087e-05
2.57795e-05
2.57514e-05
2.57249e-05
2.56937e-05
2.5662e-05
2.5633e-05
2.56009e-05
2.55659e-05
2.55333e-05
2.5503e-05
2.54661e-05
2.54278e-05
2.5394e-05
2.536e-05
2.53245e-05
2.52789e-05
2.5238e-05
2.52009e-05
2.51639e-05
2.5123e-05
2.50766e-05
2.5036e-05
2.49984e-05
2.49598e-05
2.4921e-05
2.48737e-05
2.48303e-05
2.47902e-05
2.4751e-05
2.47119e-05
2.46726e-05
2.46334e-05
2.45944e-05
2.45559e-05
2.45179e-05
2.44805e-05
2.4444e-05
2.44081e-05
2.43727e-05
2.43377e-05
2.43031e-05
2.42686e-05
2.42342e-05
2.41999e-05
2.41655e-05
2.41311e-05
2.40966e-05
2.40622e-05
2.40279e-05
2.39939e-05
2.39603e-05
2.39274e-05
2.38952e-05
2.38639e-05
2.38336e-05
2.63742e-05
2.63727e-05
2.63714e-05
2.63705e-05
2.637e-05
2.63701e-05
2.63705e-05
2.63712e-05
2.63722e-05
2.63733e-05
2.63744e-05
2.63756e-05
2.63767e-05
2.6378e-05
2.63795e-05
2.63811e-05
2.63829e-05
2.63848e-05
2.63865e-05
2.63881e-05
2.63894e-05
2.63903e-05
2.63908e-05
2.63909e-05
2.63907e-05
2.63902e-05
2.63893e-05
2.6388e-05
2.63862e-05
2.63839e-05
2.63808e-05
2.6377e-05
2.63723e-05
2.63668e-05
2.63604e-05
2.63533e-05
2.63455e-05
2.63372e-05
2.6328e-05
2.63182e-05
2.63084e-05
2.62972e-05
2.62845e-05
2.62727e-05
2.62593e-05
2.62433e-05
2.62276e-05
2.62119e-05
2.61928e-05
2.61724e-05
2.61538e-05
2.61323e-05
2.61079e-05
2.60853e-05
2.60619e-05
2.60345e-05
2.60076e-05
2.59823e-05
2.59529e-05
2.59222e-05
2.5894e-05
2.58634e-05
2.58298e-05
2.57982e-05
2.57668e-05
2.5731e-05
2.56963e-05
2.56641e-05
2.56276e-05
2.55887e-05
2.55536e-05
2.55189e-05
2.54822e-05
2.54368e-05
2.53967e-05
2.53596e-05
2.53228e-05
2.52795e-05
2.52329e-05
2.51921e-05
2.51535e-05
2.51144e-05
2.50746e-05
2.50309e-05
2.49881e-05
2.49474e-05
2.49078e-05
2.48686e-05
2.48295e-05
2.47905e-05
2.47518e-05
2.47134e-05
2.46758e-05
2.46388e-05
2.46022e-05
2.45661e-05
2.45304e-05
2.44949e-05
2.44595e-05
2.44242e-05
2.43888e-05
2.43535e-05
2.4318e-05
2.42825e-05
2.4247e-05
2.42116e-05
2.41764e-05
2.41416e-05
2.41073e-05
2.40738e-05
2.4041e-05
2.40091e-05
2.3978e-05
2.65328e-05
2.6533e-05
2.65336e-05
2.65345e-05
2.65356e-05
2.6537e-05
2.65387e-05
2.65408e-05
2.65433e-05
2.65461e-05
2.65492e-05
2.65525e-05
2.65559e-05
2.65593e-05
2.65627e-05
2.65661e-05
2.65695e-05
2.65729e-05
2.65763e-05
2.65797e-05
2.6583e-05
2.65861e-05
2.65889e-05
2.65913e-05
2.65933e-05
2.65947e-05
2.65956e-05
2.65958e-05
2.65955e-05
2.65947e-05
2.65933e-05
2.65912e-05
2.65884e-05
2.65848e-05
2.65802e-05
2.65746e-05
2.65681e-05
2.65605e-05
2.65521e-05
2.65427e-05
2.65323e-05
2.65212e-05
2.65095e-05
2.64965e-05
2.64824e-05
2.64685e-05
2.64533e-05
2.64358e-05
2.64183e-05
2.64009e-05
2.63807e-05
2.63585e-05
2.63381e-05
2.63156e-05
2.62898e-05
2.62647e-05
2.62403e-05
2.62122e-05
2.61826e-05
2.61554e-05
2.61259e-05
2.60932e-05
2.60621e-05
2.60316e-05
2.59971e-05
2.59625e-05
2.593e-05
2.58946e-05
2.58575e-05
2.58224e-05
2.57867e-05
2.57471e-05
2.57098e-05
2.56737e-05
2.56366e-05
2.5592e-05
2.55515e-05
2.55133e-05
2.54763e-05
2.5432e-05
2.53865e-05
2.53452e-05
2.53056e-05
2.52658e-05
2.52254e-05
2.51838e-05
2.51419e-05
2.51011e-05
2.50611e-05
2.50216e-05
2.49824e-05
2.49434e-05
2.49047e-05
2.48667e-05
2.48291e-05
2.47919e-05
2.4755e-05
2.47184e-05
2.4682e-05
2.46457e-05
2.46095e-05
2.45732e-05
2.45368e-05
2.45004e-05
2.44639e-05
2.44275e-05
2.43911e-05
2.43549e-05
2.43191e-05
2.42837e-05
2.4249e-05
2.42149e-05
2.41816e-05
2.4149e-05
2.41171e-05
2.66968e-05
2.66992e-05
2.67021e-05
2.67053e-05
2.67088e-05
2.67126e-05
2.67167e-05
2.6721e-05
2.67257e-05
2.67306e-05
2.67358e-05
2.67411e-05
2.67467e-05
2.67522e-05
2.67577e-05
2.67632e-05
2.67685e-05
2.67737e-05
2.67787e-05
2.67835e-05
2.67882e-05
2.67925e-05
2.67965e-05
2.68001e-05
2.68031e-05
2.68055e-05
2.68072e-05
2.68081e-05
2.68081e-05
2.68076e-05
2.68063e-05
2.68042e-05
2.68012e-05
2.67973e-05
2.67924e-05
2.67865e-05
2.67794e-05
2.67712e-05
2.67619e-05
2.67514e-05
2.67398e-05
2.67272e-05
2.67136e-05
2.66988e-05
2.66829e-05
2.66666e-05
2.66491e-05
2.66298e-05
2.66101e-05
2.65903e-05
2.65683e-05
2.65441e-05
2.65212e-05
2.64971e-05
2.64698e-05
2.64419e-05
2.64157e-05
2.63866e-05
2.63547e-05
2.63247e-05
2.62946e-05
2.62607e-05
2.62264e-05
2.61944e-05
2.61598e-05
2.61226e-05
2.60872e-05
2.60523e-05
2.60137e-05
2.59754e-05
2.59387e-05
2.58996e-05
2.58599e-05
2.58215e-05
2.57834e-05
2.57412e-05
2.56996e-05
2.56594e-05
2.56198e-05
2.55779e-05
2.55342e-05
2.54919e-05
2.5451e-05
2.54104e-05
2.53696e-05
2.53285e-05
2.52873e-05
2.52464e-05
2.52061e-05
2.51663e-05
2.51267e-05
2.50876e-05
2.50489e-05
2.50107e-05
2.49727e-05
2.4935e-05
2.48976e-05
2.48603e-05
2.4823e-05
2.47858e-05
2.47486e-05
2.47113e-05
2.4674e-05
2.46367e-05
2.45993e-05
2.45621e-05
2.45251e-05
2.44884e-05
2.44521e-05
2.44163e-05
2.43811e-05
2.43465e-05
2.43125e-05
2.42791e-05
2.4246e-05
2.42134e-05
2.68492e-05
2.68507e-05
2.68527e-05
2.68551e-05
2.6858e-05
2.68612e-05
2.6865e-05
2.68692e-05
2.68738e-05
2.6879e-05
2.68845e-05
2.68903e-05
2.68965e-05
2.69029e-05
2.69095e-05
2.69164e-05
2.69235e-05
2.69307e-05
2.69381e-05
2.69455e-05
2.6953e-05
2.69604e-05
2.69676e-05
2.69746e-05
2.69814e-05
2.69879e-05
2.6994e-05
2.69997e-05
2.70051e-05
2.70099e-05
2.70142e-05
2.70179e-05
2.70208e-05
2.7023e-05
2.70242e-05
2.70243e-05
2.70237e-05
2.70222e-05
2.70197e-05
2.70161e-05
2.70115e-05
2.70058e-05
2.6999e-05
2.69909e-05
2.69816e-05
2.69711e-05
2.69593e-05
2.69462e-05
2.69319e-05
2.69164e-05
2.68996e-05
2.68817e-05
2.68629e-05
2.68429e-05
2.68213e-05
2.67991e-05
2.67764e-05
2.67519e-05
2.67255e-05
2.66997e-05
2.66732e-05
2.6644e-05
2.66132e-05
2.65843e-05
2.65536e-05
2.65199e-05
2.64864e-05
2.64546e-05
2.64198e-05
2.63828e-05
2.63476e-05
2.63127e-05
2.6274e-05
2.62354e-05
2.61987e-05
2.61602e-05
2.61192e-05
2.60797e-05
2.60408e-05
2.59999e-05
2.59592e-05
2.59192e-05
2.58781e-05
2.58362e-05
2.57944e-05
2.5753e-05
2.57113e-05
2.56687e-05
2.56261e-05
2.55843e-05
2.55429e-05
2.55017e-05
2.54604e-05
2.54192e-05
2.53782e-05
2.53375e-05
2.52972e-05
2.52574e-05
2.5218e-05
2.5179e-05
2.51402e-05
2.51017e-05
2.50633e-05
2.50251e-05
2.4987e-05
2.49489e-05
2.49108e-05
2.48727e-05
2.48345e-05
2.47964e-05
2.47583e-05
2.47203e-05
2.46825e-05
2.4645e-05
2.46078e-05
2.45711e-05
2.45348e-05
2.4499e-05
2.44636e-05
2.44287e-05
2.4394e-05
2.43595e-05
2.43251e-05
2.7013e-05
2.70167e-05
2.70209e-05
2.70256e-05
2.70308e-05
2.70365e-05
2.70426e-05
2.70491e-05
2.7056e-05
2.70634e-05
2.70712e-05
2.70793e-05
2.70877e-05
2.70963e-05
2.71051e-05
2.71141e-05
2.71231e-05
2.71323e-05
2.71415e-05
2.71507e-05
2.71597e-05
2.71687e-05
2.71774e-05
2.71858e-05
2.71938e-05
2.72014e-05
2.72085e-05
2.7215e-05
2.7221e-05
2.72263e-05
2.72309e-05
2.72347e-05
2.72377e-05
2.72398e-05
2.72407e-05
2.72405e-05
2.72395e-05
2.72373e-05
2.7234e-05
2.72294e-05
2.72237e-05
2.72167e-05
2.72084e-05
2.71988e-05
2.71879e-05
2.71757e-05
2.71621e-05
2.71471e-05
2.71308e-05
2.71132e-05
2.70941e-05
2.70738e-05
2.70524e-05
2.70297e-05
2.70055e-05
2.69805e-05
2.69548e-05
2.69274e-05
2.68984e-05
2.68694e-05
2.68398e-05
2.68082e-05
2.67746e-05
2.67423e-05
2.67094e-05
2.66737e-05
2.66367e-05
2.6602e-05
2.65659e-05
2.65267e-05
2.64879e-05
2.64511e-05
2.64116e-05
2.637e-05
2.63302e-05
2.62912e-05
2.62488e-05
2.62066e-05
2.61657e-05
2.61245e-05
2.60823e-05
2.60403e-05
2.59984e-05
2.59559e-05
2.59133e-05
2.58707e-05
2.58283e-05
2.57856e-05
2.57428e-05
2.57004e-05
2.56583e-05
2.56164e-05
2.55748e-05
2.55332e-05
2.54917e-05
2.54506e-05
2.541e-05
2.53699e-05
2.533e-05
2.52903e-05
2.52509e-05
2.52117e-05
2.51727e-05
2.51337e-05
2.50948e-05
2.50559e-05
2.5017e-05
2.49782e-05
2.49393e-05
2.49006e-05
2.48619e-05
2.48234e-05
2.47851e-05
2.47471e-05
2.47094e-05
2.4672e-05
2.4635e-05
2.45982e-05
2.45617e-05
2.45254e-05
2.4489e-05
2.44527e-05
2.44163e-05
2.71832e-05
2.71892e-05
2.71957e-05
2.72027e-05
2.72102e-05
2.72182e-05
2.72266e-05
2.72354e-05
2.72446e-05
2.72541e-05
2.7264e-05
2.72742e-05
2.72847e-05
2.72953e-05
2.73061e-05
2.73169e-05
2.73278e-05
2.73386e-05
2.73493e-05
2.73599e-05
2.73703e-05
2.73804e-05
2.73902e-05
2.73995e-05
2.74083e-05
2.74166e-05
2.74242e-05
2.74311e-05
2.74372e-05
2.74425e-05
2.74469e-05
2.74504e-05
2.74529e-05
2.74543e-05
2.74543e-05
2.74535e-05
2.74514e-05
2.7448e-05
2.74433e-05
2.74373e-05
2.74298e-05
2.7421e-05
2.74108e-05
2.73992e-05
2.73862e-05
2.73717e-05
2.73558e-05
2.73385e-05
2.73197e-05
2.72995e-05
2.72778e-05
2.72548e-05
2.72305e-05
2.72048e-05
2.71778e-05
2.71497e-05
2.71206e-05
2.70901e-05
2.70582e-05
2.70257e-05
2.69928e-05
2.69582e-05
2.69218e-05
2.68855e-05
2.68498e-05
2.68117e-05
2.67717e-05
2.67331e-05
2.66951e-05
2.66539e-05
2.66116e-05
2.65715e-05
2.6531e-05
2.64872e-05
2.64439e-05
2.64027e-05
2.63597e-05
2.63152e-05
2.62719e-05
2.62292e-05
2.61859e-05
2.61423e-05
2.60989e-05
2.60555e-05
2.60119e-05
2.59684e-05
2.5925e-05
2.58817e-05
2.58385e-05
2.57954e-05
2.57527e-05
2.57102e-05
2.56678e-05
2.56256e-05
2.55837e-05
2.55424e-05
2.55014e-05
2.54607e-05
2.54203e-05
2.538e-05
2.534e-05
2.53001e-05
2.52604e-05
2.52207e-05
2.51812e-05
2.51416e-05
2.51021e-05
2.50627e-05
2.50233e-05
2.4984e-05
2.49448e-05
2.49058e-05
2.48669e-05
2.48282e-05
2.47898e-05
2.47515e-05
2.47133e-05
2.46753e-05
2.46372e-05
2.45991e-05
2.45608e-05
2.45222e-05
2.44834e-05
2.73592e-05
2.73674e-05
2.73761e-05
2.73854e-05
2.73951e-05
2.74052e-05
2.74158e-05
2.74268e-05
2.7438e-05
2.74496e-05
2.74615e-05
2.74736e-05
2.74858e-05
2.74981e-05
2.75105e-05
2.75229e-05
2.75352e-05
2.75473e-05
2.75592e-05
2.75708e-05
2.7582e-05
2.75929e-05
2.76032e-05
2.7613e-05
2.76221e-05
2.76305e-05
2.76381e-05
2.76448e-05
2.76505e-05
2.76553e-05
2.7659e-05
2.76615e-05
2.76629e-05
2.76629e-05
2.76618e-05
2.76595e-05
2.76557e-05
2.76505e-05
2.76439e-05
2.76358e-05
2.76261e-05
2.7615e-05
2.76023e-05
2.75882e-05
2.75724e-05
2.75552e-05
2.75365e-05
2.75162e-05
2.74944e-05
2.74712e-05
2.74465e-05
2.74203e-05
2.73928e-05
2.73639e-05
2.73336e-05
2.73021e-05
2.72695e-05
2.72356e-05
2.72004e-05
2.71643e-05
2.71277e-05
2.70899e-05
2.70505e-05
2.70103e-05
2.69712e-05
2.69304e-05
2.68874e-05
2.68447e-05
2.68039e-05
2.67606e-05
2.67151e-05
2.66713e-05
2.66288e-05
2.65834e-05
2.65369e-05
2.64924e-05
2.64483e-05
2.64023e-05
2.63566e-05
2.63118e-05
2.6267e-05
2.62221e-05
2.61772e-05
2.61324e-05
2.60878e-05
2.60434e-05
2.5999e-05
2.5955e-05
2.59111e-05
2.58674e-05
2.5824e-05
2.57808e-05
2.57377e-05
2.5695e-05
2.56529e-05
2.56111e-05
2.55697e-05
2.55285e-05
2.54875e-05
2.54467e-05
2.54061e-05
2.53657e-05
2.53254e-05
2.52852e-05
2.52451e-05
2.5205e-05
2.5165e-05
2.51251e-05
2.50852e-05
2.50453e-05
2.50056e-05
2.49659e-05
2.49263e-05
2.48867e-05
2.48471e-05
2.48075e-05
2.47679e-05
2.47281e-05
2.46881e-05
2.46479e-05
2.46074e-05
2.45665e-05
2.45252e-05
2.44835e-05
2.44415e-05
2.75397e-05
2.75501e-05
2.7561e-05
2.75723e-05
2.75841e-05
2.75963e-05
2.76088e-05
2.76217e-05
2.76348e-05
2.76481e-05
2.76617e-05
2.76753e-05
2.7689e-05
2.77026e-05
2.77163e-05
2.77297e-05
2.77429e-05
2.77559e-05
2.77685e-05
2.77806e-05
2.77922e-05
2.78033e-05
2.78136e-05
2.78233e-05
2.78321e-05
2.784e-05
2.78469e-05
2.78528e-05
2.78576e-05
2.78612e-05
2.78635e-05
2.78644e-05
2.78641e-05
2.78625e-05
2.78594e-05
2.78549e-05
2.78489e-05
2.78413e-05
2.78321e-05
2.78213e-05
2.78089e-05
2.77948e-05
2.77792e-05
2.77619e-05
2.7743e-05
2.77225e-05
2.77004e-05
2.76767e-05
2.76515e-05
2.76247e-05
2.75964e-05
2.75667e-05
2.75356e-05
2.7503e-05
2.74691e-05
2.7434e-05
2.73977e-05
2.73601e-05
2.73214e-05
2.72816e-05
2.72411e-05
2.71998e-05
2.71571e-05
2.71132e-05
2.70703e-05
2.70265e-05
2.69805e-05
2.69338e-05
2.68896e-05
2.68439e-05
2.67958e-05
2.67482e-05
2.67029e-05
2.66559e-05
2.66069e-05
2.65593e-05
2.6513e-05
2.64658e-05
2.6418e-05
2.6371e-05
2.63245e-05
2.62781e-05
2.62318e-05
2.61858e-05
2.614e-05
2.60945e-05
2.60494e-05
2.60045e-05
2.596e-05
2.59157e-05
2.58716e-05
2.58277e-05
2.57841e-05
2.57412e-05
2.56988e-05
2.56567e-05
2.56149e-05
2.55732e-05
2.55319e-05
2.54907e-05
2.54497e-05
2.54089e-05
2.53681e-05
2.53275e-05
2.52869e-05
2.52464e-05
2.52059e-05
2.51655e-05
2.5125e-05
2.50846e-05
2.50441e-05
2.50036e-05
2.49631e-05
2.49223e-05
2.48814e-05
2.48403e-05
2.47988e-05
2.47571e-05
2.4715e-05
2.46724e-05
2.46295e-05
2.45862e-05
2.45426e-05
2.44986e-05
2.44542e-05
2.77237e-05
2.77361e-05
2.77489e-05
2.77621e-05
2.77757e-05
2.77897e-05
2.78039e-05
2.78183e-05
2.78329e-05
2.78477e-05
2.78625e-05
2.78772e-05
2.78919e-05
2.79065e-05
2.79208e-05
2.79349e-05
2.79486e-05
2.79618e-05
2.79745e-05
2.79866e-05
2.7998e-05
2.80086e-05
2.80184e-05
2.80273e-05
2.80351e-05
2.80419e-05
2.80476e-05
2.8052e-05
2.80551e-05
2.80569e-05
2.80571e-05
2.80561e-05
2.80535e-05
2.80494e-05
2.80437e-05
2.80364e-05
2.80275e-05
2.80169e-05
2.80045e-05
2.79905e-05
2.79747e-05
2.79573e-05
2.79381e-05
2.79171e-05
2.78945e-05
2.78702e-05
2.78443e-05
2.78167e-05
2.77876e-05
2.77569e-05
2.77247e-05
2.7691e-05
2.76558e-05
2.76193e-05
2.75815e-05
2.75424e-05
2.75021e-05
2.74607e-05
2.74181e-05
2.73744e-05
2.73301e-05
2.72851e-05
2.72389e-05
2.71913e-05
2.71447e-05
2.70977e-05
2.70485e-05
2.69984e-05
2.69506e-05
2.69022e-05
2.68514e-05
2.68006e-05
2.67522e-05
2.67034e-05
2.66524e-05
2.66022e-05
2.65534e-05
2.65046e-05