/*--------------------------------*- C++ -*----------------------------------*\
| =========                 |                                                 |
| \\      /  F ield         | OpenFOAM: The Open Source CFD Toolbox           |
|  \\    /   O peration     | Version:  v1706                                 |
|   \\  /    A nd           | Web:      www.OpenFOAM.com                      |
|    \\/     M anipulation  |                                                 |
\*---------------------------------------------------------------------------*/
FoamFile
{
    version     2.0;
    format      ascii;
    class       volScalarField;
    location    "3.3e-05";
    object      kappave;
}
// * * * * * * * * * * * * * * * * * * * * * * * * * * * * * * * * * * * * * //

dimensions      [1 1 -3 -1 0 0 0];


internalField   nonuniform List<scalar> 
29871
(
1.50147e-10
1.50635e-10
1.51168e-10
1.51743e-10
1.52356e-10
1.53005e-10
1.53702e-10
1.54466e-10
1.55308e-10
1.56224e-10
1.57204e-10
1.58234e-10
1.59304e-10
1.60402e-10
1.61522e-10
1.62652e-10
1.63783e-10
1.64904e-10
1.66005e-10
1.67083e-10
1.68149e-10
1.69294e-10
1.70709e-10
1.72336e-10
1.74084e-10
1.75882e-10
1.77673e-10
1.79418e-10
1.81089e-10
1.82666e-10
1.84138e-10
1.85498e-10
1.86748e-10
1.87893e-10
1.88939e-10
1.89892e-10
1.90755e-10
1.91535e-10
1.92235e-10
1.92857e-10
1.93404e-10
1.93878e-10
1.94281e-10
1.94616e-10
1.94885e-10
1.9509e-10
1.95238e-10
1.95332e-10
1.95366e-10
1.95343e-10
1.95281e-10
1.95189e-10
1.95059e-10
1.94881e-10
1.94656e-10
1.94392e-10
1.94113e-10
1.93822e-10
1.93511e-10
1.93189e-10
1.92854e-10
1.925e-10
1.92127e-10
1.91737e-10
1.91323e-10
1.90879e-10
1.90404e-10
1.899e-10
1.89366e-10
1.88802e-10
1.88206e-10
1.87579e-10
1.86917e-10
1.86219e-10
1.85484e-10
1.84708e-10
1.83889e-10
1.83025e-10
1.82113e-10
1.81149e-10
1.8013e-10
1.79054e-10
1.77916e-10
1.76712e-10
1.75438e-10
1.74092e-10
1.72674e-10
1.7119e-10
1.69641e-10
1.68026e-10
1.6637e-10
1.64762e-10
1.63467e-10
1.62453e-10
1.61529e-10
1.60612e-10
1.59679e-10
1.58729e-10
1.57765e-10
1.56795e-10
1.55826e-10
1.54864e-10
1.53914e-10
1.52998e-10
1.52158e-10
1.68742e-10
1.71028e-10
1.73416e-10
1.75881e-10
1.784e-10
1.80962e-10
1.83587e-10
1.8645e-10
1.89623e-10
1.93047e-10
1.96639e-10
2.00307e-10
2.03966e-10
2.07543e-10
2.10977e-10
2.14224e-10
2.17253e-10
2.20044e-10
2.22589e-10
2.24888e-10
2.26949e-10
2.28771e-10
2.30332e-10
2.31651e-10
2.32746e-10
2.33641e-10
2.34357e-10
2.34916e-10
2.35333e-10
2.35626e-10
2.35818e-10
2.35937e-10
2.36005e-10
2.36042e-10
2.36064e-10
2.3607e-10
2.36067e-10
2.36059e-10
2.36044e-10
2.36021e-10
2.3599e-10
2.3595e-10
2.35897e-10
2.35827e-10
2.35739e-10
2.35631e-10
2.35502e-10
2.35354e-10
2.35185e-10
2.34993e-10
2.34779e-10
2.3455e-10
2.34301e-10
2.34039e-10
2.3378e-10
2.33498e-10
2.33212e-10
2.32924e-10
2.3262e-10
2.32312e-10
2.32006e-10
2.31701e-10
2.31397e-10
2.31092e-10
2.30776e-10
2.30451e-10
2.30122e-10
2.29785e-10
2.29439e-10
2.29084e-10
2.28721e-10
2.28349e-10
2.27969e-10
2.27579e-10
2.27179e-10
2.26768e-10
2.26346e-10
2.25913e-10
2.25469e-10
2.25014e-10
2.24548e-10
2.24072e-10
2.23588e-10
2.23099e-10
2.22609e-10
2.22117e-10
2.21621e-10
2.21112e-10
2.20563e-10
2.19939e-10
2.19189e-10
2.18228e-10
2.16956e-10
2.1537e-10
2.13519e-10
2.11426e-10
2.09094e-10
2.06513e-10
2.03672e-10
2.0057e-10
1.97218e-10
1.93631e-10
1.89834e-10
1.85864e-10
1.8181e-10
2.01532e-10
2.06033e-10
2.10559e-10
2.15002e-10
2.19273e-10
2.23304e-10
2.2705e-10
2.30476e-10
2.33534e-10
2.3622e-10
2.38557e-10
2.40581e-10
2.42328e-10
2.43835e-10
2.45135e-10
2.46252e-10
2.47205e-10
2.48002e-10
2.48649e-10
2.49147e-10
2.49511e-10
2.49766e-10
2.49939e-10
2.5005e-10
2.50117e-10
2.5012e-10
2.50095e-10
2.50035e-10
2.49933e-10
2.49782e-10
2.49578e-10
2.4933e-10
2.49045e-10
2.48732e-10
2.48402e-10
2.48062e-10
2.47718e-10
2.47374e-10
2.47034e-10
2.46702e-10
2.46378e-10
2.46066e-10
2.45764e-10
2.45473e-10
2.45192e-10
2.44919e-10
2.44651e-10
2.44386e-10
2.44123e-10
2.4386e-10
2.43594e-10
2.43325e-10
2.43053e-10
2.42771e-10
2.42474e-10
2.42173e-10
2.41878e-10
2.41574e-10
2.41279e-10
2.41006e-10
2.40662e-10
2.40339e-10
2.40049e-10
2.39752e-10
2.39405e-10
2.39068e-10
2.38756e-10
2.38445e-10
2.38127e-10
2.37808e-10
2.3749e-10
2.37175e-10
2.36862e-10
2.36554e-10
2.36252e-10
2.35956e-10
2.35669e-10
2.35392e-10
2.35127e-10
2.34877e-10
2.34646e-10
2.34437e-10
2.34252e-10
2.34096e-10
2.33969e-10
2.33872e-10
2.33795e-10
2.33732e-10
2.33673e-10
2.33603e-10
2.33509e-10
2.33374e-10
2.33177e-10
2.32902e-10
2.32543e-10
2.32099e-10
2.3157e-10
2.30957e-10
2.3026e-10
2.2948e-10
2.28614e-10
2.27649e-10
2.26553e-10
2.25272e-10
2.23736e-10
2.21864e-10
2.42946e-10
2.45334e-10
2.47382e-10
2.49127e-10
2.50604e-10
2.51844e-10
2.52875e-10
2.53716e-10
2.54384e-10
2.54895e-10
2.55266e-10
2.5552e-10
2.5569e-10
2.55808e-10
2.559e-10
2.55979e-10
2.56053e-10
2.56118e-10
2.56165e-10
2.56164e-10
2.56128e-10
2.56051e-10
2.55942e-10
2.55808e-10
2.55658e-10
2.55492e-10
2.55317e-10
2.5514e-10
2.54968e-10
2.54807e-10
2.54654e-10
2.54495e-10
2.54317e-10
2.54112e-10
2.53877e-10
2.53611e-10
2.53322e-10
2.53013e-10
2.52692e-10
2.52363e-10
2.5203e-10
2.51696e-10
2.51364e-10
2.51037e-10
2.50714e-10
2.50398e-10
2.50088e-10
2.49783e-10
2.49483e-10
2.49188e-10
2.48893e-10
2.48599e-10
2.48304e-10
2.48002e-10
2.47686e-10
2.47364e-10
2.47047e-10
2.46719e-10
2.46401e-10
2.46114e-10
2.45744e-10
2.45399e-10
2.45084e-10
2.44759e-10
2.44375e-10
2.43993e-10
2.43643e-10
2.43298e-10
2.42947e-10
2.42595e-10
2.42247e-10
2.41903e-10
2.41563e-10
2.41229e-10
2.40902e-10
2.40584e-10
2.40276e-10
2.39978e-10
2.39692e-10
2.39421e-10
2.39167e-10
2.38933e-10
2.38721e-10
2.38532e-10
2.38366e-10
2.38218e-10
2.38085e-10
2.37954e-10
2.3781e-10
2.37657e-10
2.37499e-10
2.37332e-10
2.37154e-10
2.36962e-10
2.36759e-10
2.36544e-10
2.36322e-10
2.36091e-10
2.35852e-10
2.35593e-10
2.35309e-10
2.34998e-10
2.34646e-10
2.34235e-10
2.33761e-10
2.3322e-10
2.57788e-10
2.58363e-10
2.588e-10
2.59124e-10
2.59365e-10
2.59551e-10
2.59701e-10
2.59825e-10
2.59928e-10
2.60007e-10
2.60048e-10
2.60043e-10
2.59998e-10
2.59913e-10
2.59801e-10
2.59674e-10
2.59544e-10
2.59423e-10
2.59321e-10
2.59252e-10
2.5922e-10
2.59213e-10
2.59203e-10
2.5917e-10
2.59104e-10
2.59005e-10
2.58877e-10
2.58729e-10
2.58566e-10
2.58399e-10
2.58241e-10
2.58098e-10
2.57961e-10
2.57821e-10
2.57672e-10
2.57505e-10
2.57316e-10
2.57103e-10
2.56865e-10
2.56606e-10
2.56329e-10
2.56035e-10
2.55729e-10
2.55415e-10
2.55095e-10
2.54768e-10
2.5444e-10
2.54112e-10
2.5378e-10
2.53448e-10
2.53121e-10
2.52792e-10
2.52453e-10
2.52121e-10
2.51798e-10
2.51459e-10
2.51109e-10
2.50771e-10
2.50433e-10
2.50091e-10
2.49751e-10
2.49385e-10
2.49036e-10
2.48694e-10
2.48367e-10
2.47946e-10
2.47521e-10
2.47147e-10
2.46781e-10
2.46397e-10
2.46011e-10
2.4564e-10
2.45277e-10
2.44917e-10
2.44561e-10
2.44215e-10
2.43881e-10
2.43555e-10
2.43239e-10
2.42933e-10
2.42641e-10
2.42362e-10
2.42098e-10
2.41847e-10
2.41609e-10
2.4138e-10
2.41158e-10
2.40941e-10
2.40726e-10
2.40514e-10
2.403e-10
2.40081e-10
2.39857e-10
2.39628e-10
2.39398e-10
2.39167e-10
2.38935e-10
2.38704e-10
2.38477e-10
2.38246e-10
2.38007e-10
2.3776e-10
2.37493e-10
2.37201e-10
2.36897e-10
2.3661e-10
2.36354e-10
2.62633e-10
2.62721e-10
2.6276e-10
2.62761e-10
2.62733e-10
2.62682e-10
2.62619e-10
2.62553e-10
2.62492e-10
2.62439e-10
2.62398e-10
2.62376e-10
2.62366e-10
2.62347e-10
2.62305e-10
2.62233e-10
2.62145e-10
2.62042e-10
2.61939e-10
2.61852e-10
2.61801e-10
2.61785e-10
2.61793e-10
2.6181e-10
2.61819e-10
2.6181e-10
2.61779e-10
2.61724e-10
2.61648e-10
2.61559e-10
2.61459e-10
2.61361e-10
2.61274e-10
2.61197e-10
2.61128e-10
2.61057e-10
2.60979e-10
2.60888e-10
2.60778e-10
2.60645e-10
2.60492e-10
2.60315e-10
2.60115e-10
2.59897e-10
2.59665e-10
2.59406e-10
2.59132e-10
2.58853e-10
2.58556e-10
2.58238e-10
2.57921e-10
2.57597e-10
2.57243e-10
2.56887e-10
2.5654e-10
2.56179e-10
2.55786e-10
2.55406e-10
2.55034e-10
2.54656e-10
2.54244e-10
2.53836e-10
2.53443e-10
2.53041e-10
2.52664e-10
2.52181e-10
2.51679e-10
2.5123e-10
2.50799e-10
2.50334e-10
2.49856e-10
2.49413e-10
2.48982e-10
2.4854e-10
2.48099e-10
2.47674e-10
2.47261e-10
2.46853e-10
2.4645e-10
2.46056e-10
2.45673e-10
2.45301e-10
2.44941e-10
2.44592e-10
2.4425e-10
2.43915e-10
2.43587e-10
2.43265e-10
2.42948e-10
2.42643e-10
2.42352e-10
2.42069e-10
2.41791e-10
2.41522e-10
2.41261e-10
2.41005e-10
2.40753e-10
2.40505e-10
2.40256e-10
2.40002e-10
2.39739e-10
2.39479e-10
2.39222e-10
2.38952e-10
2.3868e-10
2.38432e-10
2.38212e-10
2.64953e-10
2.64918e-10
2.64883e-10
2.64862e-10
2.64849e-10
2.6485e-10
2.64869e-10
2.64887e-10
2.64886e-10
2.64869e-10
2.64836e-10
2.64799e-10
2.64759e-10
2.64732e-10
2.64733e-10
2.64764e-10
2.64812e-10
2.64863e-10
2.64909e-10
2.64944e-10
2.64969e-10
2.64988e-10
2.65008e-10
2.65042e-10
2.65104e-10
2.65203e-10
2.65338e-10
2.6549e-10
2.65654e-10
2.65818e-10
2.65973e-10
2.66113e-10
2.66241e-10
2.66348e-10
2.66445e-10
2.66537e-10
2.66624e-10
2.66715e-10
2.66809e-10
2.66896e-10
2.66975e-10
2.67041e-10
2.67082e-10
2.67099e-10
2.67092e-10
2.67045e-10
2.66965e-10
2.66864e-10
2.6672e-10
2.66534e-10
2.66331e-10
2.66101e-10
2.65811e-10
2.65507e-10
2.65196e-10
2.64826e-10
2.64428e-10
2.6403e-10
2.63619e-10
2.63135e-10
2.62658e-10
2.62187e-10
2.61715e-10
2.61157e-10
2.60613e-10
2.60091e-10
2.59547e-10
2.59022e-10
2.58373e-10
2.57718e-10
2.57111e-10
2.56517e-10
2.55873e-10
2.55211e-10
2.54592e-10
2.53999e-10
2.53386e-10
2.52762e-10
2.52174e-10
2.51604e-10
2.51027e-10
2.50456e-10
2.499e-10
2.49356e-10
2.48828e-10
2.48316e-10
2.47816e-10
2.47326e-10
2.46848e-10
2.46385e-10
2.45931e-10
2.45484e-10
2.45053e-10
2.44652e-10
2.44259e-10
2.43878e-10
2.43517e-10
2.43173e-10
2.42842e-10
2.42523e-10
2.42211e-10
2.41902e-10
2.41595e-10
2.41293e-10
2.40997e-10
2.4071e-10
2.4043e-10
2.40162e-10
2.39911e-10
2.39686e-10
2.6717e-10
2.67165e-10
2.67154e-10
2.67157e-10
2.67169e-10
2.67205e-10
2.67274e-10
2.67371e-10
2.67478e-10
2.67587e-10
2.67701e-10
2.67815e-10
2.67932e-10
2.68063e-10
2.68213e-10
2.68396e-10
2.68618e-10
2.68876e-10
2.69163e-10
2.69468e-10
2.69786e-10
2.70112e-10
2.70451e-10
2.70802e-10
2.71174e-10
2.71578e-10
2.72022e-10
2.72505e-10
2.73018e-10
2.73555e-10
2.74105e-10
2.74658e-10
2.7521e-10
2.75746e-10
2.76267e-10
2.76779e-10
2.77262e-10
2.77731e-10
2.78195e-10
2.78636e-10
2.79052e-10
2.79453e-10
2.79815e-10
2.80133e-10
2.80416e-10
2.80643e-10
2.80802e-10
2.80916e-10
2.80971e-10
2.80934e-10
2.80849e-10
2.80723e-10
2.80471e-10
2.8017e-10
2.7984e-10
2.79423e-10
2.78921e-10
2.78395e-10
2.77841e-10
2.77161e-10
2.76459e-10
2.75743e-10
2.75009e-10
2.74146e-10
2.73281e-10
2.72431e-10
2.71538e-10
2.70637e-10
2.69592e-10
2.68574e-10
2.67587e-10
2.66597e-10
2.6554e-10
2.64458e-10
2.63435e-10
2.62449e-10
2.61448e-10
2.60429e-10
2.59455e-10
2.58519e-10
2.57583e-10
2.56663e-10
2.55763e-10
2.54878e-10
2.5403e-10
2.53223e-10
2.52433e-10
2.51661e-10
2.50916e-10
2.50209e-10
2.49523e-10
2.48856e-10
2.48223e-10
2.47625e-10
2.47055e-10
2.46515e-10
2.46005e-10
2.45525e-10
2.4507e-10
2.44638e-10
2.44223e-10
2.43822e-10
2.43434e-10
2.43059e-10
2.42699e-10
2.42351e-10
2.42018e-10
2.41701e-10
2.41403e-10
2.4113e-10
2.69974e-10
2.70128e-10
2.70291e-10
2.70471e-10
2.70671e-10
2.70899e-10
2.71168e-10
2.71486e-10
2.71852e-10
2.7226e-10
2.72708e-10
2.73189e-10
2.737e-10
2.74246e-10
2.74829e-10
2.75457e-10
2.76142e-10
2.7689e-10
2.777e-10
2.78569e-10
2.79494e-10
2.80465e-10
2.81481e-10
2.82539e-10
2.83637e-10
2.8478e-10
2.85973e-10
2.87221e-10
2.88522e-10
2.8987e-10
2.91257e-10
2.9267e-10
2.94101e-10
2.9553e-10
2.96946e-10
2.98352e-10
2.99718e-10
3.01036e-10
3.02329e-10
3.0357e-10
3.04734e-10
3.05853e-10
3.06903e-10
3.07848e-10
3.08712e-10
3.09485e-10
3.10117e-10
3.1064e-10
3.11058e-10
3.11304e-10
3.11427e-10
3.11451e-10
3.11248e-10
3.10913e-10
3.10489e-10
3.09928e-10
3.09178e-10
3.08342e-10
3.07418e-10
3.06302e-10
3.05089e-10
3.03811e-10
3.02462e-10
3.00929e-10
2.99348e-10
2.97746e-10
2.96061e-10
2.943e-10
2.92392e-10
2.90528e-10
2.88664e-10
2.86768e-10
2.84779e-10
2.8277e-10
2.80843e-10
2.78961e-10
2.77084e-10
2.75187e-10
2.73357e-10
2.71591e-10
2.69863e-10
2.68176e-10
2.6651e-10
2.64894e-10
2.63359e-10
2.61894e-10
2.60486e-10
2.59119e-10
2.57818e-10
2.56584e-10
2.55409e-10
2.54293e-10
2.5324e-10
2.5225e-10
2.51324e-10
2.50458e-10
2.4965e-10
2.48898e-10
2.48196e-10
2.47541e-10
2.46926e-10
2.46348e-10
2.45803e-10
2.45289e-10
2.44805e-10
2.44345e-10
2.43912e-10
2.43507e-10
2.4313e-10
2.42779e-10
2.74859e-10
2.75389e-10
2.75967e-10
2.76595e-10
2.77274e-10
2.78011e-10
2.78816e-10
2.797e-10
2.80672e-10
2.81737e-10
2.82897e-10
2.8415e-10
2.85494e-10
2.86929e-10
2.88458e-10
2.90085e-10
2.91817e-10
2.93665e-10
2.95632e-10
2.97724e-10
2.99937e-10
3.02269e-10
3.04712e-10
3.07263e-10
3.09913e-10
3.12658e-10
3.15495e-10
3.18423e-10
3.21438e-10
3.24534e-10
3.27699e-10
3.30915e-10
3.34171e-10
3.37442e-10
3.40695e-10
3.43926e-10
3.47106e-10
3.50188e-10
3.53191e-10
3.56092e-10
3.58825e-10
3.61424e-10
3.63877e-10
3.66109e-10
3.68145e-10
3.69988e-10
3.7156e-10
3.72878e-10
3.73965e-10
3.74748e-10
3.75241e-10
3.75495e-10
3.75327e-10
3.74876e-10
3.742e-10
3.73267e-10
3.71974e-10
3.70447e-10
3.68703e-10
3.66642e-10
3.64337e-10
3.6186e-10
3.59198e-10
3.56247e-10
3.53155e-10
3.49957e-10
3.46595e-10
3.43042e-10
3.39333e-10
3.35653e-10
3.31906e-10
3.28081e-10
3.24124e-10
3.2017e-10
3.1633e-10
3.12544e-10
3.08788e-10
3.05028e-10
3.01389e-10
2.97867e-10
2.94431e-10
2.91091e-10
2.87801e-10
2.8465e-10
2.81653e-10
2.78793e-10
2.76059e-10
2.73446e-10
2.70963e-10
2.68616e-10
2.66404e-10
2.64325e-10
2.62379e-10
2.60566e-10
2.58882e-10
2.57323e-10
2.55883e-10
2.54555e-10
2.53333e-10
2.52208e-10
2.51172e-10
2.50217e-10
2.49337e-10
2.48525e-10
2.47775e-10
2.47083e-10
2.46445e-10
2.45858e-10
2.45319e-10
2.44823e-10
2.84671e-10
2.8599e-10
2.87429e-10
2.88992e-10
2.90683e-10
2.92508e-10
2.94477e-10
2.96602e-10
2.98898e-10
3.01377e-10
3.04051e-10
3.06925e-10
3.10004e-10
3.13292e-10
3.16792e-10
3.20507e-10
3.24444e-10
3.28609e-10
3.33009e-10
3.3765e-10
3.42533e-10
3.47656e-10
3.53011e-10
3.58589e-10
3.64376e-10
3.70358e-10
3.76519e-10
3.82844e-10
3.89318e-10
3.95923e-10
4.02639e-10
4.09433e-10
4.1628e-10
4.23145e-10
4.29973e-10
4.36737e-10
4.43398e-10
4.49877e-10
4.56161e-10
4.62221e-10
4.67964e-10
4.73385e-10
4.78478e-10
4.83148e-10
4.87376e-10
4.91185e-10
4.94487e-10
4.97243e-10
4.99506e-10
5.01217e-10
5.02329e-10
5.02886e-10
5.02644e-10
5.01897e-10
5.00644e-10
4.98874e-10
4.96458e-10
4.93505e-10
4.90089e-10
4.86129e-10
4.81644e-10
4.76776e-10
4.71521e-10
4.6577e-10
4.59689e-10
4.53339e-10
4.46675e-10
4.39653e-10
4.3241e-10
4.25116e-10
4.1764e-10
4.10004e-10
4.0218e-10
3.94406e-10
3.86782e-10
3.7922e-10
3.71715e-10
3.64255e-10
3.57019e-10
3.49999e-10
3.43142e-10
3.36473e-10
3.2995e-10
3.23723e-10
3.17797e-10
3.12138e-10
3.06737e-10
3.01595e-10
2.96721e-10
2.92122e-10
2.87799e-10
2.83754e-10
2.79981e-10
2.76477e-10
2.73235e-10
2.70245e-10
2.67496e-10
2.64974e-10
2.6267e-10
2.60567e-10
2.58649e-10
2.56903e-10
2.55316e-10
2.53875e-10
2.52567e-10
2.51383e-10
2.50312e-10
2.49344e-10
2.48472e-10
2.47686e-10
3.01898e-10
3.04622e-10
3.07584e-10
3.10798e-10
3.14277e-10
3.18034e-10
3.22081e-10
3.26433e-10
3.31108e-10
3.36124e-10
3.41501e-10
3.47258e-10
3.53413e-10
3.59979e-10
3.66967e-10
3.74384e-10
3.82236e-10
3.90528e-10
3.99264e-10
4.08449e-10
4.18084e-10
4.28169e-10
4.38696e-10
4.49654e-10
4.61024e-10
4.7278e-10
4.84891e-10
4.97321e-10
5.10032e-10
5.22984e-10
5.36133e-10
5.49432e-10
5.62826e-10
5.76258e-10
5.89668e-10
6.02975e-10
6.16103e-10
6.2899e-10
6.41529e-10
6.53639e-10
6.65277e-10
6.76319e-10
6.86685e-10
6.96369e-10
7.05256e-10
7.13251e-10
7.2039e-10
7.26581e-10
7.31716e-10
7.3586e-10
7.38983e-10
7.41e-10
7.41744e-10
7.41176e-10
7.39718e-10
7.37214e-10
7.33707e-10
7.29084e-10
7.23377e-10
7.16765e-10
7.09216e-10
7.00662e-10
6.91334e-10
6.8127e-10
6.70356e-10
6.58759e-10
6.46612e-10
6.3389e-10
6.20545e-10
6.06798e-10
5.92846e-10
5.78511e-10
5.63883e-10
5.48983e-10
5.34199e-10
5.19599e-10
5.05053e-10
4.90601e-10
4.76285e-10
4.6238e-10
4.48852e-10
4.35612e-10
4.22723e-10
4.1017e-10
3.98189e-10
3.86763e-10
3.7584e-10
3.65407e-10
3.55472e-10
3.46052e-10
3.37157e-10
3.28796e-10
3.20969e-10
3.13671e-10
3.06892e-10
3.00617e-10
2.94833e-10
2.89519e-10
2.8465e-10
2.80205e-10
2.76157e-10
2.72483e-10
2.69155e-10
2.66148e-10
2.63439e-10
2.61004e-10
2.58821e-10
2.5687e-10
2.5513e-10
2.53584e-10
2.52212e-10
3.38786e-10
3.44564e-10
3.50805e-10
3.57539e-10
3.64797e-10
3.72604e-10
3.80988e-10
3.89974e-10
3.99591e-10
4.09866e-10
4.20827e-10
4.32505e-10
4.44926e-10
4.58113e-10
4.72087e-10
4.86859e-10
5.02438e-10
5.18827e-10
5.36024e-10
5.54027e-10
5.72824e-10
5.92403e-10
6.12742e-10
6.33812e-10
6.55573e-10
6.77977e-10
7.00963e-10
7.2446e-10
7.48389e-10
7.72664e-10
7.97195e-10
8.21887e-10
8.46635e-10
8.71331e-10
8.95867e-10
9.2011e-10
9.43926e-10
9.67201e-10
9.89785e-10
1.01151e-09
1.03228e-09
1.05196e-09
1.07034e-09
1.0874e-09
1.10299e-09
1.11695e-09
1.12926e-09
1.13985e-09
1.14855e-09
1.15538e-09
1.16038e-09
1.16342e-09
1.16375e-09
1.16235e-09
1.15928e-09
1.15421e-09
1.1473e-09
1.13853e-09
1.1278e-09
1.11539e-09
1.1014e-09
1.08568e-09
1.06849e-09
1.05e-09
1.03012e-09
1.00895e-09
9.86758e-10
9.63582e-10
9.39357e-10
9.14375e-10
8.88926e-10
8.62792e-10
8.36155e-10
8.09109e-10
7.82265e-10
7.55615e-10
7.28985e-10
7.02491e-10
6.7631e-10
6.50844e-10
6.25998e-10
6.01647e-10
5.77931e-10
5.54865e-10
5.32804e-10
5.11709e-10
4.91511e-10
4.72191e-10
4.53765e-10
4.36261e-10
4.19702e-10
4.04104e-10
3.89472e-10
3.75798e-10
3.63074e-10
3.51273e-10
3.40368e-10
3.30327e-10
3.21113e-10
3.12689e-10
3.05011e-10
2.98038e-10
2.91725e-10
2.86029e-10
2.80907e-10
2.76316e-10
2.72216e-10
2.68569e-10
2.65335e-10
2.62479e-10
2.59965e-10
2.5776e-10
2.55831e-10
4.10509e-10
4.22072e-10
4.34504e-10
4.47853e-10
4.62173e-10
4.77511e-10
4.93914e-10
5.11427e-10
5.30095e-10
5.4996e-10
5.71061e-10
5.93439e-10
6.17128e-10
6.42161e-10
6.68564e-10
6.96351e-10
7.2553e-10
7.56096e-10
7.88035e-10
8.21324e-10
8.55929e-10
8.91805e-10
9.28899e-10
9.6714e-10
1.00645e-09
1.04674e-09
1.08788e-09
1.12975e-09
1.17221e-09
1.21509e-09
1.25823e-09
1.30144e-09
1.34454e-09
1.38733e-09
1.42963e-09
1.47121e-09
1.51185e-09
1.55137e-09
1.58953e-09
1.62606e-09
1.6608e-09
1.69355e-09
1.724e-09
1.75202e-09
1.77748e-09
1.8001e-09
1.81977e-09
1.83645e-09
1.84995e-09
1.86013e-09
1.86715e-09
1.87061e-09
1.86938e-09
1.86597e-09
1.85943e-09
1.84945e-09
1.83625e-09
1.82e-09
1.80056e-09
1.77815e-09
1.75313e-09
1.72539e-09
1.69504e-09
1.66249e-09
1.6278e-09
1.59086e-09
1.55215e-09
1.51184e-09
1.46986e-09
1.42652e-09
1.38228e-09
1.33697e-09
1.29086e-09
1.24411e-09
1.19764e-09
1.15133e-09
1.10503e-09
1.05887e-09
1.01338e-09
9.69034e-10
9.25665e-10
8.83152e-10
8.41678e-10
8.01441e-10
7.62755e-10
7.25657e-10
6.90085e-10
6.56014e-10
6.23466e-10
5.92479e-10
5.63094e-10
5.35339e-10
5.09234e-10
4.8477e-10
4.61926e-10
4.40673e-10
4.2097e-10
4.02771e-10
3.86019e-10
3.70654e-10
3.56613e-10
3.43826e-10
3.32224e-10
3.21736e-10
3.1229e-10
3.03817e-10
2.96246e-10
2.89508e-10
2.83537e-10
2.78267e-10
2.73635e-10
2.69578e-10
2.66038e-10
5.05063e-10
5.24138e-10
5.44609e-10
5.66545e-10
5.90025e-10
6.15129e-10
6.41935e-10
6.70521e-10
7.00961e-10
7.33325e-10
7.67679e-10
8.04081e-10
8.42587e-10
8.83244e-10
9.26094e-10
9.71169e-10
1.01849e-09
1.06808e-09
1.11991e-09
1.17398e-09
1.23022e-09
1.2886e-09
1.34901e-09
1.41136e-09
1.47553e-09
1.54139e-09
1.60876e-09
1.67747e-09
1.74732e-09
1.81807e-09
1.88948e-09
1.96127e-09
2.03315e-09
2.1048e-09
2.17592e-09
2.24616e-09
2.3152e-09
2.3827e-09
2.44832e-09
2.51174e-09
2.5726e-09
2.63054e-09
2.68527e-09
2.7365e-09
2.7838e-09
2.82695e-09
2.86577e-09
2.8999e-09
2.92905e-09
2.95325e-09
2.97233e-09
2.98592e-09
2.99417e-09
2.99568e-09
2.99169e-09
2.98347e-09
2.97008e-09
2.95116e-09
2.92692e-09
2.89785e-09
2.86386e-09
2.82504e-09
2.78198e-09
2.73488e-09
2.68357e-09
2.62862e-09
2.57043e-09
2.50884e-09
2.44418e-09
2.37701e-09
2.30744e-09
2.23553e-09
2.16205e-09
2.08706e-09
2.0109e-09
1.93376e-09
1.85684e-09
1.78006e-09
1.70336e-09
1.62687e-09
1.55155e-09
1.47791e-09
1.40579e-09
1.33513e-09
1.26614e-09
1.19916e-09
1.13453e-09
1.07238e-09
1.0127e-09
9.55475e-10
9.00724e-10
8.48499e-10
7.98869e-10
7.51879e-10
7.07544e-10
6.65863e-10
6.26814e-10
5.90361e-10
5.56449e-10
5.25011e-10
4.95968e-10
4.69232e-10
4.44707e-10
4.22293e-10
4.01883e-10
3.8337e-10
3.66642e-10
3.51588e-10
3.38096e-10
3.26055e-10
3.15354e-10
3.05884e-10
2.97539e-10
2.90214e-10
2.8381e-10
7.12901e-10
7.47615e-10
7.84711e-10
8.24304e-10
8.66509e-10
9.11442e-10
9.59218e-10
1.00995e-09
1.06374e-09
1.12069e-09
1.18088e-09
1.2444e-09
1.31132e-09
1.38167e-09
1.45551e-09
1.53284e-09
1.61368e-09
1.698e-09
1.78576e-09
1.87689e-09
1.97129e-09
2.06882e-09
2.16932e-09
2.27259e-09
2.37839e-09
2.48646e-09
2.59651e-09
2.7082e-09
2.82116e-09
2.93506e-09
3.04944e-09
3.16386e-09
3.27784e-09
3.39089e-09
3.50249e-09
3.61213e-09
3.71928e-09
3.82341e-09
3.924e-09
4.02057e-09
4.11259e-09
4.19956e-09
4.28106e-09
4.35666e-09
4.42582e-09
4.48819e-09
4.54356e-09
4.59146e-09
4.63146e-09
4.66359e-09
4.68777e-09
4.70342e-09
4.70976e-09
4.70583e-09
4.69591e-09
4.67799e-09
4.65196e-09
4.61757e-09
4.57496e-09
4.52493e-09
4.46768e-09
4.40313e-09
4.33191e-09
4.25476e-09
4.17151e-09
4.08244e-09
3.98847e-09
3.88983e-09
3.7863e-09
3.67883e-09
3.56798e-09
3.45373e-09
3.33677e-09
3.21775e-09
3.09716e-09
2.97529e-09
2.85322e-09
2.73131e-09
2.60969e-09
2.4888e-09
2.36948e-09
2.25239e-09
2.13765e-09
2.0253e-09
1.9156e-09
1.80896e-09
1.70578e-09
1.60631e-09
1.51064e-09
1.4188e-09
1.33083e-09
1.24682e-09
1.16683e-09
1.0909e-09
1.01908e-09
9.51371e-10
8.87744e-10
8.28158e-10
7.72541e-10
7.20802e-10
6.72834e-10
6.28511e-10
5.877e-10
5.50256e-10
5.16026e-10
4.84851e-10
4.56567e-10
4.31008e-10
4.08003e-10
3.87384e-10
3.68978e-10
3.52617e-10
3.38134e-10
3.25365e-10
3.14153e-10
3.04345e-10
7.44278e-10
7.82118e-10
8.22685e-10
8.66133e-10
9.12622e-10
9.62318e-10
1.01539e-09
1.07201e-09
1.13234e-09
1.19656e-09
1.26483e-09
1.33732e-09
1.41419e-09
1.49559e-09
1.58167e-09
1.67257e-09
1.76841e-09
1.8693e-09
1.97533e-09
2.08655e-09
2.20302e-09
2.32474e-09
2.45168e-09
2.58381e-09
2.72104e-09
2.86323e-09
3.01023e-09
3.16183e-09
3.31775e-09
3.47769e-09
3.64129e-09
3.80814e-09
3.97776e-09
4.14965e-09
4.32326e-09
4.49795e-09
4.67318e-09
4.84826e-09
5.02245e-09
5.19504e-09
5.36526e-09
5.53235e-09
5.69552e-09
5.85399e-09
6.007e-09
6.15378e-09
6.29363e-09
6.42582e-09
6.54967e-09
6.6646e-09
6.77002e-09
6.86529e-09
6.94993e-09
7.02368e-09
7.086e-09
7.13632e-09
7.17466e-09
7.20108e-09
7.21446e-09
7.2116e-09
7.19944e-09
7.17616e-09
7.14033e-09
7.0925e-09
7.03262e-09
6.96095e-09
6.87818e-09
6.78519e-09
6.68183e-09
6.56856e-09
6.44665e-09
6.31644e-09
6.17769e-09
6.03156e-09
5.87896e-09
5.71971e-09
5.55428e-09
5.38402e-09
5.20936e-09
5.03063e-09
4.84894e-09
4.66512e-09
4.47979e-09
4.2938e-09
4.10797e-09
3.92285e-09
3.73904e-09
3.55741e-09
3.37876e-09
3.20353e-09
3.032e-09
2.86451e-09
2.70154e-09
2.54356e-09
2.39094e-09
2.24391e-09
2.1026e-09
1.96714e-09
1.8376e-09
1.71406e-09
1.59659e-09
1.48522e-09
1.37996e-09
1.28081e-09
1.18769e-09
1.10053e-09
1.01919e-09
9.43535e-10
8.73395e-10
8.08583e-10
7.48899e-10
6.94127e-10
6.44043e-10
5.98412e-10
5.56995e-10
5.19547e-10
4.85817e-10
4.55558e-10
4.28518e-10
4.04453e-10
3.83119e-10
3.64282e-10
3.47714e-10
1.11349e-09
1.17829e-09
1.2475e-09
1.32135e-09
1.40006e-09
1.48389e-09
1.57306e-09
1.66783e-09
1.76843e-09
1.87509e-09
1.98805e-09
2.10752e-09
2.23372e-09
2.36683e-09
2.50703e-09
2.65449e-09
2.80934e-09
2.97169e-09
3.1416e-09
3.31911e-09
3.50422e-09
3.69686e-09
3.89694e-09
4.10428e-09
4.31868e-09
4.53986e-09
4.76749e-09
5.00116e-09
5.2404e-09
5.48466e-09
5.73332e-09
5.9857e-09
6.24102e-09
6.49847e-09
6.75714e-09
7.01611e-09
7.27447e-09
7.53116e-09
7.78509e-09
8.0352e-09
8.28038e-09
8.51954e-09
8.75155e-09
8.97533e-09
9.1898e-09
9.39394e-09
9.58677e-09
9.76732e-09
9.93474e-09
1.00883e-08
1.02271e-08
1.03506e-08
1.04581e-08
1.05493e-08
1.06236e-08
1.06805e-08
1.07199e-08
1.07416e-08
1.07419e-08
1.07254e-08
1.06946e-08
1.06464e-08
1.05804e-08
1.04973e-08
1.03976e-08
1.02818e-08
1.01501e-08
1.00044e-08
9.84464e-09
9.67109e-09
9.48517e-09
9.28819e-09
9.07973e-09
8.86052e-09
8.63238e-09
8.39575e-09
8.15033e-09
7.89801e-09
7.63996e-09
7.37669e-09
7.1092e-09
6.83885e-09
6.56663e-09
6.29353e-09
6.02065e-09
5.74897e-09
5.47938e-09
5.21284e-09
4.95033e-09
4.69262e-09
4.44029e-09
4.19388e-09
3.95395e-09
3.72107e-09
3.49575e-09
3.27841e-09
3.06932e-09
2.86866e-09
2.67653e-09
2.49307e-09
2.31834e-09
2.15241e-09
1.99529e-09
1.84695e-09
1.70733e-09
1.5763e-09
1.4537e-09
1.33935e-09
1.23303e-09
1.13447e-09
1.04341e-09
9.59545e-10
8.82572e-10
8.12165e-10
7.47989e-10
6.89698e-10
6.36946e-10
5.89379e-10
5.46648e-10
5.08402e-10
4.74301e-10
4.4401e-10
4.17205e-10
1.71787e-09
1.82462e-09
1.9382e-09
2.05896e-09
2.18721e-09
2.32328e-09
2.4675e-09
2.62018e-09
2.78165e-09
2.95221e-09
3.13215e-09
3.32173e-09
3.52121e-09
3.73081e-09
3.9507e-09
4.18106e-09
4.42198e-09
4.67354e-09
4.93573e-09
5.20851e-09
5.49177e-09
5.78531e-09
6.08885e-09
6.40205e-09
6.72447e-09
7.05559e-09
7.39478e-09
7.74135e-09
8.09447e-09
8.45326e-09
8.81671e-09
9.18373e-09
9.55313e-09
9.92365e-09
1.02939e-08
1.06626e-08
1.10283e-08
1.13894e-08
1.17445e-08
1.2092e-08
1.24304e-08
1.27581e-08
1.30737e-08
1.33758e-08
1.36628e-08
1.39335e-08
1.41867e-08
1.44211e-08
1.46357e-08
1.48295e-08
1.50018e-08
1.51516e-08
1.52784e-08
1.53817e-08
1.54611e-08
1.5516e-08
1.55458e-08
1.55484e-08
1.55261e-08
1.54842e-08
1.54184e-08
1.53287e-08
1.52152e-08
1.50783e-08
1.49194e-08
1.4739e-08
1.45376e-08
1.4317e-08
1.40782e-08
1.38212e-08
1.35472e-08
1.32585e-08
1.29554e-08
1.26376e-08
1.23075e-08
1.19667e-08
1.16147e-08
1.12531e-08
1.0884e-08
1.05085e-08
1.01276e-08
9.7429e-09
9.35595e-09
8.96807e-09
8.58064e-09
8.19502e-09
7.81247e-09
7.43424e-09
7.0615e-09
6.69534e-09
6.33666e-09
5.98625e-09
5.64487e-09
5.31326e-09
4.99217e-09
4.68217e-09
4.3836e-09
4.09674e-09
3.82181e-09
3.55898e-09
3.30836e-09
3.07002e-09
2.84398e-09
2.63019e-09
2.42857e-09
2.23896e-09
2.06117e-09
1.89492e-09
1.73994e-09
1.59589e-09
1.4624e-09
1.33907e-09
1.22549e-09
1.12122e-09
1.0258e-09
9.38769e-10
8.59653e-10
7.87972e-10
7.23248e-10
6.65007e-10
6.12781e-10
5.66115e-10
5.24563e-10
2.67309e-09
2.84277e-09
3.02269e-09
3.21328e-09
3.41497e-09
3.62819e-09
3.85334e-09
4.09083e-09
4.34104e-09
4.60434e-09
4.88106e-09
5.17149e-09
5.4759e-09
5.79449e-09
6.12741e-09
6.47477e-09
6.83658e-09
7.21279e-09
7.60328e-09
8.00781e-09
8.42607e-09
8.85761e-09
9.3019e-09
9.75826e-09
1.02259e-08
1.07039e-08
1.11913e-08
1.16868e-08
1.21892e-08
1.26971e-08
1.32089e-08
1.3723e-08
1.42376e-08
1.47508e-08
1.52609e-08
1.57658e-08
1.62634e-08
1.67517e-08
1.72286e-08
1.7692e-08
1.81399e-08
1.85703e-08
1.89813e-08
1.93711e-08
1.97379e-08
2.00801e-08
2.03963e-08
2.0685e-08
2.09451e-08
2.11755e-08
2.13753e-08
2.15437e-08
2.16801e-08
2.17842e-08
2.18554e-08
2.18928e-08
2.1894e-08
2.1862e-08
2.1804e-08
2.17141e-08
2.15916e-08
2.1438e-08
2.12539e-08
2.10393e-08
2.07963e-08
2.05256e-08
2.02282e-08
1.99054e-08
1.95598e-08
1.9191e-08
1.88e-08
1.83899e-08
1.79621e-08
1.75155e-08
1.70524e-08
1.65758e-08
1.6086e-08
1.55835e-08
1.50713e-08
1.45514e-08
1.4025e-08
1.3494e-08
1.29604e-08
1.24259e-08
1.18924e-08
1.13615e-08
1.0835e-08
1.03144e-08
9.80138e-09
9.2972e-09
8.8031e-09
8.32018e-09
7.8495e-09
7.39219e-09
6.94916e-09
6.52104e-09
6.10834e-09
5.71149e-09
5.33081e-09
4.96653e-09
4.61883e-09
4.28778e-09
3.9734e-09
3.67564e-09
3.39436e-09
3.12936e-09
2.88039e-09
2.64711e-09
2.42913e-09
2.22602e-09
2.03731e-09
1.86246e-09
1.70094e-09
1.55216e-09
1.41553e-09
1.29043e-09
1.17623e-09
1.0723e-09
9.78016e-10
8.92749e-10
8.15881e-10
7.46805e-10
6.84933e-10
6.2969e-10
5.80526e-10
4.1346e-09
4.39559e-09
4.67136e-09
4.96243e-09
5.26935e-09
5.59263e-09
5.93275e-09
6.29017e-09
6.66533e-09
7.0586e-09
7.47033e-09
7.90078e-09
8.35017e-09
8.81861e-09
9.30617e-09
9.81277e-09
1.03383e-08
1.08824e-08
1.14447e-08
1.20248e-08
1.26218e-08
1.32351e-08
1.38636e-08
1.45062e-08
1.51616e-08
1.58283e-08
1.65046e-08
1.71889e-08
1.7879e-08
1.85729e-08
1.92683e-08
1.99629e-08
2.06542e-08
2.13398e-08
2.20167e-08
2.26825e-08
2.33342e-08
2.39692e-08
2.45849e-08
2.51784e-08
2.57473e-08
2.62891e-08
2.68015e-08
2.72823e-08
2.77295e-08
2.81412e-08
2.85158e-08
2.88518e-08
2.91481e-08
2.94035e-08
2.96174e-08
2.97888e-08
2.99175e-08
3.00031e-08
3.00446e-08
3.0039e-08
2.99912e-08
2.99087e-08
2.9785e-08
2.96194e-08
2.94128e-08
2.9167e-08
2.88834e-08
2.85616e-08
2.82041e-08
2.78123e-08
2.73873e-08
2.69302e-08
2.64451e-08
2.59313e-08
2.539e-08
2.48243e-08
2.42369e-08
2.3627e-08
2.2996e-08
2.23479e-08
2.16844e-08
2.10056e-08
2.03146e-08
1.96142e-08
1.89065e-08
1.81935e-08
1.74776e-08
1.67612e-08
1.60466e-08
1.53358e-08
1.46311e-08
1.39345e-08
1.3248e-08
1.25733e-08
1.19119e-08
1.12652e-08
1.0635e-08
1.00225e-08
9.4289e-09
8.85491e-09
8.30124e-09
7.76848e-09
7.25707e-09
6.76733e-09
6.29947e-09
5.8536e-09
5.42972e-09
5.02774e-09
4.64749e-09
4.2887e-09
3.95102e-09
3.63404e-09
3.33725e-09
3.0601e-09
2.80197e-09
2.56219e-09
2.34006e-09
2.13482e-09
1.94572e-09
1.77196e-09
1.61274e-09
1.46724e-09
1.33467e-09
1.21421e-09
1.10507e-09
1.00647e-09
9.17645e-10
8.37861e-10
7.66394e-10
6.30423e-09
6.6935e-09
7.10332e-09
7.53434e-09
7.98717e-09
8.46236e-09
8.96047e-09
9.48194e-09
1.00272e-08
1.05966e-08
1.11904e-08
1.18087e-08
1.24516e-08
1.31191e-08
1.38109e-08
1.45268e-08
1.52662e-08
1.60285e-08
1.68129e-08
1.76184e-08
1.84437e-08
1.92876e-08
2.01483e-08
2.10241e-08
2.1913e-08
2.28126e-08
2.37205e-08
2.46342e-08
2.55507e-08
2.64671e-08
2.738e-08
2.82867e-08
2.91835e-08
3.00669e-08
3.09334e-08
3.17795e-08
3.26018e-08
3.33967e-08
3.41609e-08
3.48911e-08
3.55844e-08
3.62378e-08
3.68486e-08
3.74144e-08
3.79331e-08
3.84026e-08
3.88214e-08
3.91881e-08
3.95016e-08
3.97612e-08
3.99661e-08
4.01159e-08
4.02104e-08
4.02489e-08
4.02268e-08
4.01548e-08
4.00365e-08
3.98656e-08
3.96425e-08
3.93684e-08
3.90443e-08
3.86726e-08
3.82551e-08
3.77914e-08
3.72844e-08
3.67359e-08
3.61474e-08
3.55197e-08
3.48581e-08
3.41623e-08
3.34331e-08
3.26739e-08
3.18887e-08
3.10769e-08
3.02396e-08
2.93814e-08