/*--------------------------------*- C++ -*----------------------------------*\
| =========                 |                                                 |
| \\      /  F ield         | OpenFOAM: The Open Source CFD Toolbox           |
|  \\    /   O peration     | Version:  v1706                                 |
|   \\  /    A nd           | Web:      www.OpenFOAM.com                      |
|    \\/     M anipulation  |                                                 |
\*---------------------------------------------------------------------------*/
FoamFile
{
    version     2.0;
    format      ascii;
    class       volScalarField;
    location    "3.3e-05";
    object      kappatr;
}
// * * * * * * * * * * * * * * * * * * * * * * * * * * * * * * * * * * * * * //

dimensions      [1 1 -3 -1 0 0 0];


internalField   nonuniform List<scalar> 
29871
(
0.0150036
0.0150524
0.0151057
0.0151631
0.0152243
0.0152893
0.0153589
0.0154352
0.0155193
0.0156109
0.0157088
0.0158117
0.0159186
0.0160284
0.0161402
0.0162532
0.0163661
0.0164781
0.0165882
0.0166959
0.0168024
0.0169168
0.0170583
0.0172208
0.0173955
0.0175751
0.0177541
0.0179285
0.0180954
0.018253
0.0184
0.0185359
0.0186609
0.0187753
0.0188798
0.018975
0.0190613
0.0191392
0.0192091
0.0192713
0.0193259
0.0193733
0.0194136
0.019447
0.0194739
0.0194944
0.0195092
0.0195186
0.019522
0.0195197
0.0195135
0.0195043
0.0194913
0.0194735
0.0194511
0.0194247
0.0193968
0.0193678
0.0193367
0.0193044
0.019271
0.0192357
0.0191984
0.0191595
0.0191181
0.0190737
0.0190262
0.0189759
0.0189225
0.0188662
0.0188067
0.018744
0.0186778
0.0186081
0.0185346
0.0184571
0.0183753
0.018289
0.0181978
0.0181015
0.0179997
0.0178922
0.0177785
0.0176582
0.0175309
0.0173963
0.0172547
0.0171064
0.0169515
0.0167902
0.0166247
0.0164641
0.0163346
0.0162333
0.016141
0.0160494
0.0159561
0.0158612
0.0157649
0.0156679
0.0155711
0.015475
0.0153801
0.0152885
0.0152046
0.0168617
0.0170901
0.0173287
0.0175751
0.0178267
0.0180827
0.018345
0.0186311
0.0189481
0.0192903
0.0196491
0.0200156
0.0203812
0.0207386
0.0210817
0.0214061
0.0217087
0.0219876
0.0222418
0.0224715
0.0226774
0.0228594
0.0230153
0.0231471
0.0232564
0.0233457
0.0234172
0.023473
0.0235146
0.0235438
0.0235629
0.0235747
0.0235815
0.0235851
0.0235872
0.0235878
0.0235875
0.0235866
0.0235851
0.0235828
0.0235796
0.0235755
0.0235702
0.0235633
0.0235544
0.0235436
0.0235308
0.023516
0.0234991
0.0234799
0.0234586
0.0234357
0.0234109
0.0233847
0.0233589
0.0233308
0.0233023
0.0232735
0.0232432
0.0232125
0.0231819
0.0231515
0.0231212
0.0230908
0.0230593
0.0230269
0.0229941
0.0229605
0.0229259
0.0228905
0.0228543
0.0228173
0.0227793
0.0227404
0.0227005
0.0226595
0.0226174
0.0225742
0.0225298
0.0224844
0.0224378
0.0223903
0.022342
0.0222932
0.0222442
0.0221952
0.0221456
0.0220947
0.0220399
0.0219776
0.0219026
0.0218067
0.0216795
0.0215211
0.0213361
0.021127
0.020894
0.020636
0.0203522
0.0200422
0.0197072
0.0193489
0.0189694
0.0185727
0.0181676
0.0201379
0.0205877
0.0210398
0.0214838
0.0219105
0.0223132
0.0226874
0.0230296
0.0233351
0.0236033
0.0238368
0.0240389
0.0242132
0.0243637
0.0244934
0.0246049
0.0246999
0.0247793
0.0248437
0.0248933
0.0249294
0.0249547
0.0249717
0.0249825
0.024989
0.024989
0.0249863
0.02498
0.0249695
0.0249541
0.0249336
0.0249085
0.0248797
0.0248482
0.024815
0.0247808
0.0247462
0.0247116
0.0246775
0.0246441
0.0246116
0.0245802
0.02455
0.0245209
0.0244927
0.0244653
0.0244385
0.0244121
0.0243858
0.0243596
0.024333
0.0243063
0.0242792
0.0242511
0.0242216
0.0241918
0.0241624
0.0241323
0.024103
0.0240759
0.0240418
0.0240098
0.023981
0.0239516
0.0239172
0.0238838
0.0238529
0.023822
0.0237906
0.023759
0.0237275
0.0236962
0.0236652
0.0236347
0.0236047
0.0235754
0.0235469
0.0235194
0.0234932
0.0234684
0.0234455
0.0234247
0.0234065
0.023391
0.0233785
0.0233689
0.0233614
0.0233552
0.0233493
0.0233424
0.0233331
0.0233197
0.0233001
0.0232727
0.0232369
0.0231925
0.0231398
0.0230785
0.0230089
0.022931
0.0228444
0.022748
0.0226385
0.0225106
0.0223571
0.02217
0.0242749
0.0245133
0.0247177
0.0248918
0.0250391
0.0251628
0.0252654
0.0253491
0.0254154
0.025466
0.0255027
0.0255276
0.0255441
0.0255553
0.0255639
0.0255713
0.0255779
0.0255838
0.0255878
0.0255869
0.0255826
0.0255741
0.0255623
0.0255481
0.0255322
0.0255147
0.0254963
0.0254777
0.0254596
0.0254425
0.0254263
0.0254094
0.0253908
0.0253695
0.025345
0.0253177
0.025288
0.0252565
0.0252237
0.0251902
0.0251563
0.0251225
0.0250889
0.0250558
0.0250233
0.0249916
0.0249605
0.0249299
0.0249
0.0248706
0.0248414
0.0248123
0.0247832
0.0247534
0.0247223
0.0246907
0.0246596
0.0246276
0.0245965
0.0245687
0.0245326
0.0244989
0.0244683
0.0244368
0.0243993
0.024362
0.0243281
0.0242945
0.0242604
0.0242262
0.0241923
0.0241588
0.0241257
0.0240932
0.0240614
0.0240305
0.0240005
0.0239714
0.0239436
0.0239172
0.0238925
0.0238697
0.0238491
0.0238308
0.0238147
0.0238004
0.0237875
0.0237748
0.0237608
0.0237459
0.0237304
0.023714
0.0236964
0.0236775
0.0236573
0.0236361
0.023614
0.0235911
0.0235672
0.0235415
0.0235132
0.0234822
0.023447
0.023406
0.0233587
0.0233046
0.0257541
0.0258109
0.0258539
0.0258856
0.0259088
0.0259265
0.0259406
0.025952
0.0259611
0.0259678
0.0259706
0.0259688
0.0259628
0.0259528
0.02594
0.0259254
0.0259106
0.0258965
0.0258843
0.0258751
0.0258696
0.0258664
0.0258629
0.025857
0.0258477
0.025835
0.0258195
0.0258018
0.0257826
0.0257629
0.0257442
0.0257269
0.0257102
0.0256933
0.0256755
0.025656
0.0256345
0.0256107
0.0255846
0.0255564
0.0255267
0.0254955
0.0254632
0.0254304
0.0253972
0.0253635
0.02533
0.0252968
0.0252634
0.0252303
0.0251979
0.0251656
0.0251325
0.0251005
0.0250695
0.0250371
0.0250039
0.0249721
0.0249404
0.0249085
0.024877
0.0248431
0.0248109
0.0247796
0.0247498
0.0247108
0.0246713
0.0246369
0.0246033
0.024568
0.0245325
0.0244984
0.024465
0.0244319
0.0243992
0.0243674
0.0243366
0.0243066
0.0242775
0.0242493
0.0242223
0.0241965
0.0241721
0.024149
0.024127
0.0241058
0.0240851
0.0240648
0.0240447
0.0240247
0.0240045
0.0239836
0.0239621
0.0239401
0.0239178
0.0238953
0.0238727
0.0238502
0.0238278
0.0238052
0.0237816
0.0237572
0.0237308
0.0237018
0.0236715
0.023643
0.0236176
0.0262262
0.0262332
0.0262351
0.0262331
0.026228
0.0262205
0.0262114
0.0262019
0.0261927
0.026184
0.0261762
0.02617
0.0261648
0.0261584
0.0261495
0.0261372
0.0261229
0.026107
0.0260905
0.0260755
0.0260637
0.0260549
0.0260484
0.0260424
0.0260354
0.0260265
0.0260151
0.0260012
0.0259851
0.0259675
0.0259488
0.0259302
0.0259128
0.0258964
0.0258809
0.0258655
0.0258496
0.0258328
0.0258146
0.0257945
0.0257729
0.0257494
0.0257244
0.0256982
0.0256711
0.0256421
0.0256124
0.0255828
0.0255522
0.0255205
0.0254894
0.0254586
0.0254254
0.0253927
0.0253616
0.0253297
0.0252955
0.025263
0.025232
0.0252008
0.0251668
0.0251336
0.0251023
0.0250705
0.0250415
0.025002
0.0249608
0.0249248
0.0248908
0.0248534
0.0248147
0.0247794
0.024745
0.0247095
0.0246738
0.0246396
0.0246063
0.0245732
0.0245402
0.0245079
0.0244764
0.0244457
0.0244158
0.0243866
0.0243578
0.0243293
0.0243013
0.0242734
0.0242458
0.0242189
0.0241932
0.024168
0.024143
0.0241185
0.0240946
0.024071
0.0240476
0.0240242
0.0240007
0.0239764
0.0239512
0.0239261
0.0239011
0.0238748
0.0238481
0.0238238
0.0238022
0.026438
0.0264306
0.026423
0.0264163
0.0264101
0.0264048
0.0264008
0.0263963
0.0263893
0.0263802
0.026369
0.0263566
0.0263434
0.0263307
0.0263201
0.0263117
0.0263042
0.0262963
0.0262869
0.0262757
0.0262627
0.0262481
0.0262328
0.0262179
0.0262049
0.0261948
0.0261874
0.026181
0.0261752
0.0261689
0.0261612
0.0261517
0.0261406
0.0261274
0.0261131
0.0260983
0.0260832
0.0260688
0.0260552
0.0260417
0.0260282
0.0260144
0.0259994
0.0259833
0.0259664
0.0259471
0.0259264
0.0259053
0.0258819
0.0258564
0.025831
0.025805
0.0257757
0.0257469
0.0257191
0.0256878
0.0256556
0.0256251
0.0255955
0.0255604
0.0255275
0.0254967
0.0254674
0.025431
0.0253972
0.0253667
0.0253351
0.0253062
0.0252657
0.0252247
0.0251887
0.0251544
0.0251152
0.025074
0.0250369
0.0250021
0.0249647
0.0249259
0.0248899
0.0248551
0.0248188
0.0247823
0.0247466
0.024711
0.0246761
0.024642
0.0246081
0.0245742
0.0245405
0.0245073
0.0244742
0.0244408
0.0244081
0.0243774
0.0243468
0.0243165
0.0242875
0.0242593
0.0242318
0.0242048
0.024178
0.024151
0.0241237
0.0240963
0.0240693
0.0240428
0.0240167
0.0239914
0.0239677
0.0239463
0.0265952
0.0265846
0.0265726
0.0265611
0.0265494
0.0265389
0.0265306
0.0265237
0.0265165
0.0265082
0.0264988
0.0264879
0.0264757
0.0264629
0.0264503
0.0264389
0.0264294
0.0264214
0.0264142
0.0264066
0.0263983
0.0263885
0.0263778
0.0263662
0.0263544
0.0263436
0.0263347
0.0263277
0.0263221
0.0263173
0.0263126
0.0263073
0.0263012
0.0262933
0.0262838
0.0262736
0.0262612
0.0262482
0.026236
0.0262232
0.0262101
0.0261977
0.0261847
0.0261707
0.0261568
0.0261417
0.0261243
0.0261069
0.0260886
0.0260665
0.0260444
0.0260231
0.0259967
0.0259701
0.0259452
0.0259172
0.0258859
0.0258567
0.0258296
0.025795
0.0257622
0.0257317
0.0257035
0.0256664
0.0256319
0.0256016
0.0255704
0.0255407
0.0254982
0.025459
0.0254237
0.0253893
0.0253486
0.0253052
0.0252667
0.0252311
0.0251931
0.0251521
0.0251139
0.0250776
0.0250395
0.0250011
0.0249626
0.0249232
0.0248852
0.0248488
0.0248118
0.0247739
0.0247363
0.0247001
0.0246635
0.0246265
0.0245905
0.0245557
0.0245215
0.0244882
0.0244558
0.0244245
0.024394
0.024364
0.0243343
0.0243045
0.0242748
0.0242453
0.0242162
0.0241874
0.0241592
0.0241319
0.0241058
0.0240817
0.0267158
0.0267061
0.0266952
0.0266835
0.0266713
0.0266593
0.0266482
0.026639
0.0266313
0.0266243
0.0266176
0.0266104
0.0266022
0.0265932
0.0265835
0.0265736
0.0265645
0.0265566
0.0265499
0.0265439
0.0265382
0.0265321
0.0265253
0.0265177
0.026509
0.0264999
0.0264911
0.0264832
0.0264765
0.026471
0.0264663
0.0264619
0.0264578
0.0264529
0.0264467
0.0264403
0.0264319
0.0264212
0.0264111
0.0264002
0.026387
0.0263749
0.026363
0.0263489
0.0263354
0.0263223
0.0263061
0.0262899
0.0262746
0.0262549
0.0262346
0.0262159
0.0261929
0.0261677
0.0261444
0.0261201
0.0260899
0.0260618
0.0260363
0.0260036
0.025971
0.025941
0.0259132
0.0258764
0.0258418
0.0258117
0.0257811
0.0257486
0.0257055
0.0256683
0.0256337
0.0255994
0.025557
0.0255119
0.0254727
0.0254362
0.0253983
0.0253556
0.0253156
0.0252776
0.0252392
0.0252005
0.0251588
0.0251168
0.025077
0.0250385
0.0249999
0.0249595
0.0249197
0.0248808
0.024842
0.0248033
0.0247652
0.024728
0.0246917
0.0246564
0.024622
0.0245886
0.0245559
0.0245238
0.0244921
0.0244605
0.0244292
0.0243982
0.0243674
0.0243368
0.0243068
0.0242778
0.0242497
0.0242229
0.0268263
0.026819
0.0268115
0.0268034
0.0267946
0.0267853
0.026776
0.0267673
0.0267597
0.0267533
0.0267479
0.0267429
0.0267378
0.0267322
0.0267259
0.026719
0.0267119
0.026705
0.0266987
0.0266932
0.0266884
0.0266839
0.0266793
0.0266745
0.0266689
0.0266625
0.0266556
0.0266484
0.0266415
0.0266353
0.0266298
0.0266246
0.0266203
0.0266161
0.0266109
0.026606
0.0266005
0.0265921
0.0265838
0.0265753
0.0265632
0.0265513
0.0265404
0.0265263
0.026512
0.0264992
0.0264835
0.0264667
0.0264517
0.0264338
0.0264135
0.026395
0.026375
0.0263504
0.0263273
0.0263053
0.0262766
0.026249
0.0262241
0.0261935
0.0261612
0.0261315
0.0261038
0.0260678
0.0260333
0.0260029
0.0259733
0.0259374
0.025895
0.0258596
0.0258254
0.025791
0.0257467
0.025701
0.0256616
0.0256242
0.0255861
0.025542
0.025501
0.0254623
0.0254233
0.0253843
0.0253395
0.025296
0.0252551
0.0252151
0.0251751
0.0251342
0.0250933
0.0250527
0.0250126
0.0249729
0.0249339
0.0248957
0.0248584
0.0248221
0.0247866
0.024752
0.0247181
0.0246848
0.0246518
0.024619
0.0245864
0.0245541
0.024522
0.0244901
0.0244586
0.0244278
0.0243977
0.0243685
0.0269507
0.0269447
0.0269392
0.0269337
0.026928
0.0269219
0.0269154
0.0269088
0.0269025
0.0268968
0.0268921
0.0268881
0.0268846
0.0268813
0.0268777
0.0268738
0.0268694
0.0268647
0.0268599
0.0268555
0.0268514
0.0268477
0.0268444
0.0268411
0.0268375
0.0268334
0.0268287
0.0268233
0.0268175
0.0268115
0.0268056
0.0267998
0.0267945
0.0267896
0.026784
0.0267789
0.026774
0.0267668
0.0267593
0.0267521
0.0267417
0.0267302
0.0267199
0.0267066
0.0266916
0.0266783
0.026663
0.026645
0.0266288
0.0266117
0.0265907
0.026571
0.026552
0.0265276
0.0265038
0.0264821
0.026455
0.0264269
0.0264015
0.0263729
0.0263405
0.0263105
0.0262827
0.0262475
0.0262129
0.0261817
0.0261522
0.0261146
0.0260737
0.026039
0.0260046
0.0259698
0.025924
0.0258787
0.0258395
0.0258015
0.0257625
0.0257171
0.0256755
0.0256368
0.0255975
0.0255576
0.0255101
0.0254654
0.025424
0.0253835
0.0253429
0.0253018
0.0252605
0.0252195
0.0251789
0.0251389
0.0250997
0.0250613
0.0250237
0.0249871
0.0249512
0.0249159
0.0248813
0.0248473
0.0248134
0.0247797
0.0247461
0.0247126
0.0246792
0.024646
0.0246131
0.0245807
0.0245489
0.0245178
0.0270948
0.0270887
0.0270835
0.0270791
0.0270753
0.0270717
0.0270682
0.0270645
0.0270606
0.0270566
0.0270528
0.0270494
0.0270466
0.0270444
0.0270426
0.027041
0.0270394
0.0270375
0.0270353
0.0270328
0.0270301
0.0270274
0.0270248
0.0270224
0.02702
0.0270177
0.0270151
0.027012
0.0270083
0.027004
0.026999
0.0269936
0.0269877
0.0269819
0.0269761
0.0269697
0.0269635
0.0269577
0.0269504
0.0269424
0.0269353
0.0269256
0.0269142
0.026904
0.0268914
0.026876
0.0268621
0.0268469
0.0268281
0.0268104
0.0267931
0.0267715
0.0267499
0.0267302
0.0267062
0.0266807
0.0266578
0.0266318
0.0266025
0.0265755
0.0265482
0.0265156
0.0264846
0.0264561
0.0264218
0.0263865
0.0263541
0.026324
0.0262857
0.0262458
0.0262113
0.0261763
0.0261408
0.0260939
0.0260499
0.026011
0.0259727
0.0259322
0.0258853
0.0258434
0.0258047
0.0257652
0.0257245
0.0256753
0.0256302
0.0255887
0.0255481
0.0255073
0.0254663
0.0254252
0.0253843
0.0253439
0.0253041
0.0252651
0.0252269
0.0251893
0.0251526
0.0251167
0.0250811
0.0250459
0.0250111
0.0249764
0.0249417
0.0249071
0.0248725
0.0248378
0.0248034
0.0247691
0.0247354
0.0247022
0.0246697
0.0272417
0.0272376
0.027234
0.027231
0.0272287
0.0272269
0.0272254
0.0272241
0.0272228
0.0272214
0.02722
0.0272188
0.0272178
0.0272171
0.0272168
0.0272169
0.0272171
0.0272173
0.0272172
0.0272169
0.0272163
0.0272155
0.0272144
0.0272131
0.0272117
0.0272103
0.0272086
0.0272066
0.0272041
0.027201
0.0271971
0.0271924
0.0271871
0.0271812
0.0271748
0.0271678
0.0271606
0.0271533
0.0271449
0.027136
0.0271277
0.0271175
0.0271055
0.0270946
0.0270819
0.0270661
0.0270512
0.0270358
0.0270166
0.0269972
0.0269791
0.0269572
0.0269336
0.0269123
0.0268884
0.0268611
0.0268359
0.0268103
0.0267801
0.0267508
0.0267233
0.0266909
0.026658
0.0266279
0.0265945
0.0265582
0.0265243
0.0264928
0.0264545
0.0264147
0.0263796
0.0263442
0.0263074
0.02626
0.0262175
0.026179
0.0261405
0.0260981
0.0260498
0.0260077
0.0259686
0.0259286
0.0258882
0.0258391
0.025794
0.0257523
0.0257116
0.025671
0.0256302
0.0255895
0.0255489
0.0255089
0.0254695
0.0254306
0.0253927
0.0253554
0.0253186
0.0252823
0.0252463
0.0252105
0.0251748
0.0251391
0.0251034
0.0250676
0.0250318
0.0249961
0.0249604
0.0249251
0.0248902
0.024856
0.0248226
0.0247901
0.0247586
0.0273979
0.0273963
0.0273949
0.027394
0.0273935
0.0273935
0.027394
0.0273947
0.0273958
0.0273969
0.0273981
0.0273992
0.0274005
0.0274018
0.0274033
0.027405
0.0274069
0.0274088
0.0274106
0.0274123
0.0274136
0.0274146
0.0274151
0.0274152
0.027415
0.0274144
0.0274135
0.0274122
0.0274103
0.0274079
0.0274047
0.0274007
0.0273958
0.0273901
0.0273835
0.0273761
0.0273681
0.0273594
0.0273498
0.0273397
0.0273295
0.0273179
0.0273047
0.0272923
0.0272785
0.0272618
0.0272455
0.0272292
0.0272094
0.0271882
0.0271689
0.0271466
0.0271212
0.0270977
0.0270734
0.0270449
0.027017
0.0269907
0.0269602
0.0269283
0.026899
0.0268672
0.0268323
0.0267994
0.0267668
0.0267297
0.0266937
0.0266602
0.0266222
0.0265818
0.0265453
0.0265094
0.0264712
0.026424
0.0263824
0.0263438
0.0263056
0.0262606
0.0262122
0.0261699
0.0261298
0.0260891
0.0260478
0.0260023
0.0259579
0.0259157
0.0258745
0.0258338
0.0257931
0.0257526
0.0257124
0.0256725
0.0256335
0.025595
0.0255571
0.0255196
0.0254824
0.0254456
0.0254088
0.0253721
0.0253354
0.0252987
0.0252618
0.025225
0.0251881
0.0251513
0.0251147
0.0250786
0.025043
0.0250081
0.0249741
0.0249409
0.0249086
0.0275625
0.0275628
0.0275635
0.0275644
0.0275655
0.027567
0.0275687
0.0275709
0.0275735
0.0275764
0.0275796
0.027583
0.0275866
0.0275901
0.0275937
0.0275972
0.0276007
0.0276042
0.0276078
0.0276113
0.0276147
0.027618
0.0276209
0.0276234
0.0276254
0.0276269
0.0276278
0.027628
0.0276277
0.0276269
0.0276254
0.0276233
0.0276204
0.0276166
0.0276118
0.0276061
0.0275992
0.0275914
0.0275826
0.0275729
0.0275621
0.0275505
0.0275384
0.0275249
0.0275102
0.0274957
0.02748
0.0274618
0.0274437
0.0274256
0.0274046
0.0273816
0.0273603
0.027337
0.0273101
0.0272841
0.0272588
0.0272295
0.0271988
0.0271705
0.0271399
0.0271059
0.0270736
0.027042
0.027006
0.0269701
0.0269364
0.0268996
0.0268611
0.0268246
0.0267875
0.0267464
0.0267076
0.0266701
0.0266316
0.0265853
0.0265432
0.0265035
0.0264651
0.0264191
0.0263718
0.0263289
0.0262877
0.0262464
0.0262044
0.0261612
0.0261177
0.0260753
0.0260338
0.0259928
0.025952
0.0259114
0.0258713
0.0258318
0.0257927
0.0257541
0.0257158
0.0256778
0.02564
0.0256023
0.0255646
0.0255269
0.0254892
0.0254513
0.0254134
0.0253755
0.0253378
0.0253002
0.025263
0.0252262
0.0251901
0.0251548
0.0251202
0.0250863
0.0250532
0.0277329
0.0277354
0.0277384
0.0277418
0.0277454
0.0277494
0.0277536
0.0277581
0.0277629
0.027768
0.0277734
0.027779
0.0277847
0.0277905
0.0277963
0.0278019
0.0278074
0.0278128
0.027818
0.027823
0.0278278
0.0278324
0.0278365
0.0278402
0.0278434
0.0278459
0.0278476
0.0278486
0.0278486
0.0278481
0.0278467
0.0278445
0.0278414
0.0278374
0.0278323
0.0278261
0.0278188
0.0278102
0.0278006
0.0277897
0.0277776
0.0277645
0.0277504
0.027735
0.0277185
0.0277016
0.0276834
0.0276634
0.0276429
0.0276224
0.0275994
0.0275743
0.0275506
0.0275255
0.0274971
0.0274681
0.0274409
0.0274107
0.0273776
0.0273464
0.0273151
0.0272799
0.0272443
0.027211
0.0271751
0.0271364
0.0270997
0.0270635
0.0270233
0.0269836
0.0269454
0.0269048
0.0268635
0.0268236
0.0267841
0.0267403
0.0266971
0.0266552
0.0266142
0.0265707
0.0265252
0.0264813
0.0264388
0.0263966
0.0263543
0.0263116
0.0262687
0.0262262
0.0261844
0.026143
0.0261019
0.0260613
0.0260211
0.0259814
0.025942
0.0259028
0.0258639
0.0258251
0.0257865
0.0257478
0.0257091
0.0256704
0.0256317
0.0255929
0.0255541
0.0255154
0.025477
0.0254388
0.0254011
0.0253639
0.0253274
0.0252914
0.0252561
0.0252214
0.0251871
0.0251531
0.0278912
0.0278928
0.0278949
0.0278974
0.0279004
0.0279038
0.0279076
0.027912
0.0279169
0.0279222
0.0279279
0.027934
0.0279404
0.0279471
0.027954
0.0279611
0.0279684
0.0279759
0.0279836
0.0279913
0.0279991
0.0280067
0.0280143
0.0280216
0.0280286
0.0280353
0.0280417
0.0280476
0.0280532
0.0280582
0.0280627
0.0280665
0.0280695
0.0280718
0.0280731
0.0280731
0.0280725
0.028071
0.0280684
0.0280647
0.0280599
0.028054
0.0280468
0.0280385
0.0280288
0.0280179
0.0280056
0.027992
0.0279772
0.0279611
0.0279436
0.027925
0.0279055
0.0278847
0.0278623
0.0278392
0.0278157
0.0277902
0.0277628
0.027736
0.0277084
0.0276781
0.0276461
0.0276161
0.0275842
0.0275492
0.0275144
0.0274814
0.0274452
0.0274067
0.0273702
0.0273339
0.0272937
0.0272536
0.0272156
0.0271755
0.0271329
0.0270919
0.0270514
0.027009
0.0269667
0.0269251
0.0268825
0.0268389
0.0267955
0.0267525
0.0267092
0.0266649
0.0266207
0.0265772
0.0265343
0.0264914
0.0264486
0.0264058
0.0263631
0.0263209
0.026279
0.0262377
0.0261968
0.0261562
0.0261159
0.0260759
0.0260361
0.0259964
0.0259568
0.0259172
0.0258776
0.025838
0.0257984
0.0257588
0.0257192
0.0256798
0.0256405
0.0256015
0.0255629
0.0255247
0.0254871
0.0254499
0.0254131
0.0253768
0.0253407
0.0253049
0.0252692
0.0280614
0.0280652
0.0280696
0.0280745
0.0280799
0.0280858
0.0280921
0.0280989
0.0281061
0.0281138
0.0281218
0.0281303
0.028139
0.0281479
0.0281571
0.0281664
0.0281758
0.0281853
0.0281949
0.0282044
0.0282139
0.0282232
0.0282322
0.0282409
0.0282493
0.0282571
0.0282645
0.0282713
0.0282775
0.028283
0.0282878
0.0282917
0.0282949
0.028297
0.028298
0.0282978
0.0282967
0.0282945
0.028291
0.0282863
0.0282803
0.028273
0.0282644
0.0282545
0.0282431
0.0282304
0.0282163
0.0282007
0.0281838
0.0281655
0.0281457
0.0281246
0.0281024
0.0280788
0.0280537
0.0280277
0.0280009
0.0279725
0.0279424
0.0279122
0.0278815
0.0278486
0.0278138
0.0277802
0.027746
0.027709
0.0276705
0.0276345
0.027597
0.0275563
0.027516
0.0274778
0.0274367
0.0273935
0.0273521
0.0273116
0.0272676
0.0272237
0.0271813
0.0271384
0.0270946
0.0270509
0.0270074
0.0269633
0.026919
0.0268748
0.0268307
0.0267864
0.026742
0.0266978
0.0266541
0.0266107
0.0265673
0.0265241
0.026481
0.0264384
0.0263962
0.0263545
0.0263131
0.0262719
0.026231
0.0261902
0.0261497
0.0261092
0.0260687
0.0260283
0.025988
0.0259476
0.0259073
0.025867
0.0258268
0.0257868
0.025747
0.0257076
0.0256684
0.0256296
0.0255911
0.0255529
0.025515
0.0254772
0.0254395
0.0254017
0.0253639
0.0282383
0.0282445
0.0282512
0.0282585
0.0282663
0.0282746
0.0282833
0.0282924
0.028302
0.0283119
0.0283222
0.0283328
0.0283436
0.0283547
0.0283659
0.0283771
0.0283884
0.0283996
0.0284108
0.0284218
0.0284326
0.0284431
0.0284532
0.0284629
0.0284721
0.0284807
0.0284886
0.0284957
0.0285021
0.0285076
0.0285122
0.0285158
0.0285184
0.0285198
0.0285199
0.028519
0.0285168
0.0285133
0.0285084
0.0285021
0.0284944
0.0284853
0.0284747
0.0284626
0.0284491
0.0284341
0.0284175
0.0283995
0.02838
0.028359
0.0283365
0.0283126
0.0282874
0.0282607
0.0282326
0.0282034
0.0281732
0.0281415
0.0281084
0.0280746
0.0280404
0.0280045
0.0279667
0.027929
0.0278919
0.0278523
0.0278107
0.0277707
0.0277312
0.0276884
0.0276444
0.0276028
0.0275607
0.0275152
0.0274703
0.0274274
0.0273827
0.0273365
0.0272915
0.0272472
0.0272022
0.0271569
0.0271118
0.0270667
0.0270215
0.0269763
0.0269312
0.0268862
0.0268413
0.0267966
0.0267522
0.026708
0.0266641
0.0266202
0.0265767
0.0265337
0.0264912
0.0264489
0.0264069
0.0263651
0.0263235
0.0262821
0.0262408
0.0261996
0.0261585
0.0261174
0.0260764
0.0260354
0.0259945
0.0259537
0.025913
0.0258724
0.025832
0.0257919
0.0257519
0.0257121
0.0256725
0.0256329
0.0255934
0.0255538
0.025514
0.025474
0.0254337
0.028421
0.0284296
0.0284386
0.0284482
0.0284583
0.0284689
0.0284799
0.0284912
0.028503
0.028515
0.0285273
0.0285398
0.0285526
0.0285654
0.0285782
0.0285911
0.0286038
0.0286164
0.0286288
0.0286408
0.0286525
0.0286638
0.0286745
0.0286847
0.0286942
0.0287029
0.0287107
0.0287177
0.0287237
0.0287286
0.0287324
0.0287351
0.0287365
0.0287365
0.0287354
0.028733
0.0287291
0.0287237
0.0287168
0.0287084
0.0286984
0.0286868
0.0286736
0.0286589
0.0286426
0.0286247
0.0286052
0.0285842
0.0285615
0.0285374
0.0285117
0.0284845
0.0284559
0.0284259
0.0283944
0.0283617
0.0283279
0.0282927
0.0282561
0.0282186
0.0281806
0.0281413
0.0281003
0.0280586
0.028018
0.0279756
0.0279309
0.0278866
0.0278442
0.0277992
0.027752
0.0277064
0.0276623
0.0276151
0.0275668
0.0275206
0.0274748
0.027427
0.0273795
0.027333
0.0272865
0.0272398
0.0271931
0.0271467
0.0271004
0.0270541
0.0270081
0.0269623
0.0269167
0.0268714
0.0268263
0.0267814
0.0267366
0.0266923
0.0266485
0.0266051
0.0265621
0.0265193
0.0264767
0.0264344
0.0263922
0.0263502
0.0263083
0.0262666
0.0262249
0.0261833
0.0261417
0.0261002
0.0260588
0.0260174
0.0259761
0.0259349
0.0258937
0.0258526
0.0258115
0.0257704
0.0257292
0.0256878
0.0256463
0.0256045
0.0255624
0.02552
0.025477
0.0254337
0.0253901
0.0286086
0.0286194
0.0286307
0.0286425
0.0286547
0.0286673
0.0286804
0.0286937
0.0287074
0.0287212
0.0287352
0.0287494
0.0287636
0.0287778
0.028792
0.0288059
0.0288197
0.0288331
0.0288462
0.0288588
0.0288709
0.0288823
0.0288931
0.0289031
0.0289123
0.0289205
0.0289277
0.0289338
0.0289388
0.0289425
0.0289449
0.0289459
0.0289455
0.0289439
0.0289407
0.028936
0.0289297
0.0289218
0.0289123
0.0289011
0.0288882
0.0288736
0.0288573
0.0288394
0.0288197
0.0287984
0.0287755
0.0287509
0.0287247
0.0286969
0.0286675
0.0286366
0.0286043
0.0285705
0.0285352
0.0284988
0.028461
0.028422
0.0283818
0.0283404
0.0282984
0.0282555
0.0282111
0.0281655
0.028121
0.0280754
0.0280276
0.0279792
0.0279333
0.0278858
0.0278358
0.0277864
0.0277393
0.0276905
0.0276395
0.0275901
0.027542
0.0274929
0.0274434
0.0273945
0.0273462
0.0272979
0.0272499
0.0272021
0.0271545
0.0271073
0.0270604
0.0270138
0.0269675
0.0269215
0.0268758
0.0268301
0.0267849
0.0267403
0.0266962
0.0266525
0.026609
0.0265658
0.0265228
0.02648
0.0264374
0.026395
0.0263527
0.0263105
0.0262684
0.0262263
0.0261842
0.0261422
0.0261002
0.0260581
0.0260161
0.0259741
0.0259319
0.0258896
0.0258471
0.0258044
0.0257613
0.025718
0.0256742
0.02563
0.0255854
0.0255405
0.0254951
0.0254494
0.0254033
0.0287997
0.0288126
0.0288259
0.0288396
0.0288538
0.0288682
0.028883
0.028898
0.0289132
0.0289285
0.0289438
0.0289592
0.0289745
0.0289896
0.0290045
0.0290191
0.0290333
0.0290471
0.0290602
0.0290728
0.0290846
0.0290957
0.0291058
0.0291151
0.0291232
0.0291303
0.0291362
0.0291408
0.029144
0.0291458
0.029146
0.029145
0.0291423
0.0291381
0.0291322
0.0291246
0.0291153
0.0291042
0.0290914
0.0290769
0.0290605
0.0290423
0.0290224
0.0290007
0.0289772
0.0289519
0.028925
0.0288964
0.0288661
0.0288342
0.0288007
0.0287657
0.0287292
0.0286913
0.028652
0.0286114
0.0285695
0.0285265
0.0284823
0.0284369
0.0283908
0.0283441
0.028296
0.0282467
0.0281983
0.0281494
0.0280983
0.0280462
0.0279966
0.0279463
0.0278936
0.0278408
0.0277905
0.0277398
0.0276869
0.0276346
0.0275839
0.0275333
0.0274822
0.0274314
0.0273813
0.0273315
0.0272822
0.0272332
0.0271846
0.0271365
0.0270888
0.0270416
0.0269947
0.0269482
0.0269019
0.0268558
0.0268104
0.0267657
0.0267214
0.0266775
0.0266337
0.0265903
0.0265471
0.026504
0.0264612
0.0264185
0.0263759
0.0263334
0.0262908
0.0262483
0.0262058
0.0261633
0.0261206
0.0260778
0.0260349
0.0259919
0.0259486
0.0259051
0.0258613
0.025817
0.0257723
0.0257272
0.0256815
0.0256352
0.0255885
0.0255413
0.0254938
0.0254459
0.0253975
0.0289787
0.0289929
0.0290076
0.0290226
0.029038
0.0290537
0.0290696
0.0290857
0.029102
0.0291183
0.0291345
0.0291507
0.0291668
0.0291826
0.0291981
0.0292132
0.0292278
0.0292419
0.0292553
0.029268
0.0292798
0.0292908
0.0293008
0.0293097
0.0293174
0.0293239
0.0293291
0.0293329
0.0293353
0.029336
0.0293353
0.0293331
0.0293291
0.0293234
0.0293159
0.0293067
0.0292956
0.0292827
0.0292679
0.0292512
0.0292327
0.0292123
0.02919
0.0291658
0.0291398
0.029112
0.0290824
0.029051
0.0290179
0.0289832
0.0289468
0.0289089
0.0288694
0.0288284
0.028786
0.0287423
0.0286974
0.0286513
0.028604
0.0285556
0.0285061
0.0284559
0.0284053
0.0283534
0.0283004
0.0282483
0.028196
0.0281417
0.0280864
0.0280334
0.0279801
0.0279248
0.0278693
0.0278159
0.0277629
0.0277085
0.0276543
0.0276015
0.0275494
0.0274972
0.0274452
0.0273938
0.027343
0.0272927
0.0272429
0.0271937
0.0271449
0.0270968
0.0270492
0.0270021
0.0269553
0.0269087
0.0268625
0.0268172
0.0267725
0.0267282
0.0266842
0.0266405
0.026597
0.0265537
0.0265106
0.0264677
0.0264249
0.0263822
0.0263395
0.0262967
0.026254
0.0262111
0.0261681
0.0261249
0.0260814
0.0260377
0.0259937
0.0259494
0.0259047
0.0258597
0.0258141
0.025768
0.0257213
0.025674
0.0256261
0.0255777
0.0255286
0.0254788
0.0254284
0.0253774
0.0291706
0.0291864
0.0292026
0.029219
0.0292356
0.0292525
0.0292694
0.0292864
0.0293034
0.0293203
0.029337
0.0293535
0.0293697
0.0293854
0.0294007
0.0294154
0.0294294
0.0294427
0.0294551
0.0294666
0.0294771
0.0294865
0.0294947
0.0295016
0.0295072
0.0295113
0.029514
0.0295151
0.0295145
0.0295124
0.0295085
0.0295029
0.0294953
0.029486
0.0294747
0.0294615
0.0294463
0.0294292
0.0294101
0.0293891
0.0293661
0.0293411
0.0293142
0.0292854
0.0292547
0.0292221
0.0291877
0.0291516
0.0291136
0.0290741
0.0290329
0.0289902
0.028946
0.0289002
0.0288531
0.0288048
0.0287554
0.0287049
0.0286534
0.0286008
0.0285472
0.028493
0.0284384
0.0283828
0.0283263
0.0282708
0.0282154
0.0281586
0.0281011
0.0280455
0.0279896
0.0279324
0.0278753
0.0278194
0.0277644
0.027709
0.0276534
0.027599
0.0275456
0.0274925
0.0274397
0.0273876
0.0273361
0.0272853
0.0272351
0.0271856
0.0271367
0.0270885
0.0270409
0.0269938
0.0269471
0.0269006
0.0268546
0.0268096
0.0267652
0.0267212
0.0266774
0.0266339
0.0265906
0.0265475
0.0265047
0.0264619
0.0264192
0.0263765
0.0263338
0.026291
0.0262481
0.026205
0.0261617
0.0261181
0.0260742
0.0260299
0.0259851
0.0259399
0.0258941
0.0258478
0.0258008
0.0257532
0.025705
0.025656
0.0256064
0.0255561
0.0255051
0.0254534
0.025401
0.0253478
0.025294
0.0252395
0.0293615
0.0293785
0.0293957
0.029413
0.0294305
0.029448
0.0294654
0.0294828
0.0295
0.0295169
0.0295335
0.0295497
0.0295654
0.0295804
0.0295948
0.0296084
0.0296212
0.029633
0.0296438
0.0296534
0.0296619
0.029669
0.0296747
0.029679
0.0296818
0.0296829
0.0296823
0.0296802
0.0296762
0.0296703
0.0296626
0.0296529
0.0296413
0.0296277
0.029612
0.0295943
0.0295746
0.0295528
0.0295289
0.029503
0.0294751
0.0294452
0.0294133
0.0293794
0.0293436
0.0293059
0.0292665
0.0292252
0.0291821
0.0291374
0.0290912
0.0290436
0.0289945
0.0289439
0.0288921
0.0288391
0.028785
0.0287301
0.0286747
0.0286186
0.0285616
0.0285042
0.0284465
0.0283878
0.0283286
0.0282702
0.028212
0.0281528
0.0280936
0.0280358
0.0279777
0.0279192
0.0278611
0.0278035
0.027747
0.0276908
0.0276344
0.0275787
0.0275242
0.0274704
0.0274172
0.0273647
0.027313
0.027262
0.0272118
0.0271624
0.0271137
0.0270658
0.0270186
0.026972
0.0269258
0.0268798
0.0268345
0.0267901
0.0267464
0.026703
0.0266598
0.0266169
0.0265742
0.0265316
0.0264892
0.0264469
0.0264045
0.0263621
0.0263197
0.026277
0.0262342
0.0261911
0.0261476
0.0261038
0.0260595
0.0260147
0.0259694
0.0259235
0.025877
0.0258298
0.0257819
0.0257333
0.0256839
0.0256339
0.0255831
0.0255315
0.0254792
0.0254262
0.0253723
0.0253178
0.0252625
0.0252065
0.0295495
0.0295671
0.0295849
0.0296027
0.0296204
0.029638
0.0296554
0.0296726
0.0296894
0.0297058
0.0297216
0.0297368
0.0297514
0.0297651
0.029778
0.0297899
0.0298007
0.0298104
0.0298188
0.029826
0.0298317
0.0298359
0.0298386
0.0298395
0.0298388
0.0298364
0.0298321
0.0298259
0.0298178
0.0298077
0.0297956
0.0297814
0.0297651
0.0297467
0.0297262
0.0297036
0.0296788
0.0296519
0.0296229
0.0295917
0.0295585
0.0295233
0.029486
0.0294467
0.0294055
0.0293625
0.0293177
0.0292711
0.0292228
0.0291729
0.0291216
0.0290689
0.0290152
0.0289605
0.0289047
0.0288479
0.02879
0.0287314
0.0286723
0.0286128
0.0285527
0.0284924
0.0284319
0.0283707