/*--------------------------------*- C++ -*----------------------------------*\
| =========                 |                                                 |
| \\      /  F ield         | OpenFOAM: The Open Source CFD Toolbox           |
|  \\    /   O peration     | Version:  v1706                                 |
|   \\  /    A nd           | Web:      www.OpenFOAM.com                      |
|    \\/     M anipulation  |                                                 |
\*---------------------------------------------------------------------------*/
FoamFile
{
    version     2.0;
    format      ascii;
    class       volScalarField;
    location    "3.3e-05";
    object      Mach;
}
// * * * * * * * * * * * * * * * * * * * * * * * * * * * * * * * * * * * * * //

dimensions      [0 0 0 0 0 0 0];


internalField   nonuniform List<scalar> 
29871
(
3.89489
3.88342
3.87124
3.85844
3.84512
3.83119
3.81642
3.80015
3.7818
3.76122
3.73865
3.71454
3.68949
3.66405
3.63863
3.61354
3.58898
3.56514
3.54215
3.52018
3.49881
3.47623
3.44878
3.41779
3.38522
3.35256
3.32082
3.29062
3.26233
3.23619
3.21225
3.19046
3.17068
3.15271
3.13637
3.12148
3.10792
3.09557
3.08437
3.07426
3.06523
3.05723
3.05026
3.04431
3.03935
3.03536
3.03228
3.03006
3.02877
3.02837
3.02867
3.02967
3.03121
3.03376
3.03719
3.04121
3.04539
3.04982
3.05475
3.05999
3.06551
3.07149
3.0779
3.08458
3.0917
3.0994
3.10769
3.11656
3.12604
3.13615
3.1469
3.15833
3.17046
3.18334
3.197
3.21148
3.22682
3.24307
3.26028
3.2785
3.29775
3.31809
3.33955
3.36219
3.38604
3.41113
3.43742
3.46483
3.49341
3.52315
3.55364
3.58332
3.60745
3.62729
3.64617
3.66536
3.68515
3.70551
3.72635
3.7476
3.76911
3.79054
3.81176
3.83321
3.85422
3.48563
3.43812
3.3892
3.33968
3.29018
3.24133
3.19206
3.14007
3.08438
3.02634
2.96771
2.90996
2.85418
2.80121
2.75163
2.70581
2.66397
2.62617
2.59239
2.56249
2.53627
2.51375
2.49509
2.47973
2.46719
2.45706
2.44903
2.44287
2.43843
2.43563
2.43422
2.43394
2.43448
2.43561
2.43714
2.43899
2.44109
2.44338
2.44585
2.44848
2.45126
2.45415
2.45717
2.46032
2.46359
2.46696
2.47042
2.47393
2.47752
2.48119
2.48502
2.489
2.49276
2.49734
2.50228
2.50609
2.50973
2.51361
2.51771
2.52178
2.52566
2.52934
2.53285
2.5365
2.54041
2.54438
2.54841
2.55259
2.5569
2.56131
2.5658
2.57036
2.57504
2.57982
2.58474
2.5898
2.59501
2.6004
2.60597
2.61173
2.61771
2.62391
2.63037
2.63715
2.64439
2.65243
2.66179
2.67245
2.68449
2.69818
2.71402
2.73288
2.75586
2.78283
2.81305
2.84625
2.88254
2.9221
2.96516
3.01192
3.0625
3.11698
3.17544
3.23772
3.30229
2.8881
2.8181
2.74992
2.68489
2.62396
2.56776
2.51665
2.47088
2.43107
2.39711
2.36838
2.34427
2.32417
2.30746
2.29362
2.28219
2.27287
2.26543
2.25973
2.25575
2.2534
2.25243
2.25255
2.25357
2.25531
2.25777
2.26068
2.26399
2.26766
2.27175
2.27651
2.28179
2.28738
2.29312
2.29888
2.3046
2.31025
2.31581
2.32129
2.32666
2.33194
2.33714
2.34226
2.34732
2.35235
2.35737
2.3624
2.36745
2.37253
2.37766
2.38287
2.3881
2.39339
2.39873
2.40419
2.4099
2.41564
2.42111
2.4271
2.43262
2.43689
2.44264
2.44804
2.45243
2.45749
2.4632
2.46859
2.47377
2.47905
2.48436
2.48961
2.49479
2.49995
2.50506
2.51012
2.51511
2.52003
2.52487
2.52961
2.53424
2.53872
2.54306
2.54724
2.55127
2.55521
2.55911
2.5631
2.56749
2.57226
2.57722
2.58231
2.58766
2.59347
2.59975
2.60641
2.61335
2.62067
2.6285
2.6371
2.64686
2.65858
2.67263
2.6892
2.70873
2.73194
2.75959
2.30732
2.27882
2.25495
2.23509
2.21866
2.20515
2.19412
2.18524
2.17833
2.17328
2.16989
2.16796
2.16717
2.16712
2.16752
2.16815
2.16897
2.17
2.17131
2.17323
2.17585
2.17899
2.18239
2.18593
2.18962
2.19345
2.19742
2.20148
2.20556
2.20956
2.21347
2.21752
2.22186
2.2266
2.23172
2.2372
2.24295
2.24892
2.25505
2.2613
2.26764
2.27404
2.28049
2.28697
2.29347
2.29999
2.30652
2.31307
2.31963
2.32622
2.33274
2.33902
2.3452
2.35131
2.35748
2.36389
2.37024
2.37638
2.38306
2.38942
2.39421
2.40087
2.40704
2.41241
2.41794
2.42448
2.43082
2.43674
2.44274
2.44879
2.45474
2.46063
2.4665
2.47235
2.47814
2.48389
2.48962
2.49532
2.50102
2.5067
2.51239
2.51812
2.52391
2.52983
2.53587
2.54205
2.54811
2.55317
2.55757
2.5618
2.56612
2.57066
2.57545
2.58044
2.5855
2.59056
2.5956
2.6007
2.60596
2.61157
2.61796
2.62518
2.63292
2.64092
2.649
2.65716
2.13096
2.12517
2.12094
2.11806
2.11622
2.11511
2.11447
2.11416
2.11415
2.11446
2.1152
2.11644
2.11839
2.12088
2.12363
2.12649
2.12939
2.1322
2.13487
2.13731
2.13939
2.14129
2.14343
2.14604
2.14918
2.15279
2.15682
2.16118
2.16582
2.17071
2.17551
2.17975
2.18362
2.18739
2.1913
2.19551
2.20011
2.2051
2.21044
2.21608
2.22196
2.22804
2.23427
2.24059
2.24698
2.25343
2.25992
2.26643
2.27301
2.27962
2.28631
2.29307
2.29992
2.30689
2.31389
2.32074
2.32783
2.33483
2.34178
2.349
2.35586
2.36241
2.36955
2.37639
2.38333
2.38891
2.39629
2.40364
2.41032
2.41693
2.42383
2.43054
2.43703
2.4435
2.44997
2.45633
2.46257
2.46877
2.47493
2.48104
2.48707
2.49303
2.49891
2.50476
2.51058
2.51634
2.52194
2.52729
2.53275
2.53827
2.54378
2.54934
2.55499
2.56076
2.56663
2.57263
2.57881
2.58527
2.59206
2.59927
2.60691
2.61389
2.61981
2.62528
2.63075
2.63662
2.64213
2.0767
2.07671
2.07723
2.07838
2.07999
2.08181
2.08377
2.08572
2.08772
2.08964
2.0915
2.09333
2.09505
2.09694
2.0992
2.10193
2.10524
2.10856
2.11202
2.1156
2.1186
2.12086
2.12281
2.12472
2.12687
2.12945
2.1325
2.13595
2.13975
2.14393
2.14818
2.15268
2.15716
2.16141
2.16554
2.16968
2.17393
2.17835
2.18301
2.18795
2.19316
2.19861
2.20437
2.2103
2.21639
2.22249
2.22885
2.23534
2.24178
2.24841
2.25517
2.26196
2.2687
2.27586
2.28308
2.29007
2.29725
2.30468
2.31202
2.31921
2.32616
2.33362
2.34104
2.34832
2.35625
2.36204
2.37001
2.37789
2.38542
2.39234
2.39985
2.4076
2.41474
2.42171
2.42891
2.43602
2.44293
2.44986
2.45682
2.46369
2.47045
2.47709
2.4836
2.48997
2.49624
2.50238
2.50836
2.5143
2.52034
2.52644
2.53249
2.53849
2.54448
2.55045
2.5564
2.56241
2.56854
2.57483
2.58131
2.58783
2.59404
2.60049
2.60675
2.61281
2.61897
2.62504
2.63105
2.05088
2.05232
2.05377
2.05525
2.0565
2.05778
2.05908
2.06045
2.06207
2.06435
2.06681
2.06934
2.07192
2.07455
2.07731
2.07946
2.08126
2.08313
2.0853
2.08785
2.09068
2.09373
2.09694
2.10003
2.10311
2.10591
2.10845
2.11054
2.11286
2.11535
2.11807
2.12115
2.12462
2.12828
2.13234
2.13655
2.14082
2.14513
2.14938
2.15363
2.15793
2.16231
2.16683
2.17159
2.17658
2.18164
2.18711
2.19283
2.19845
2.20446
2.21078
2.21701
2.22329
2.23007
2.23694
2.24325
2.25046
2.25773
2.2648
2.27149
2.27932
2.28675
2.29402
2.30037
2.30831
2.3159
2.32333
2.33145
2.33751
2.34595
2.35406
2.36205
2.36914
2.37719
2.38534
2.39314
2.40024
2.40782
2.41569
2.42311
2.43043
2.43804
2.44552
2.45285
2.46008
2.46712
2.474
2.48082
2.48756
2.49418
2.50074
2.50722
2.51385
2.5205
2.5268
2.53322
2.53969
2.54605
2.55243
2.55882
2.56519
2.57151
2.57772
2.58372
2.58963
2.59551
2.60133
2.60704
2.61262
2.61817
2.03301
2.03464
2.03679
2.03904
2.04123
2.04341
2.04523
2.04675
2.04822
2.04994
2.05207
2.05423
2.05662
2.05911
2.06161
2.06414
2.06647
2.06867
2.07084
2.07307
2.07552
2.0781
2.08102
2.08399
2.08711
2.09021
2.09322
2.09597
2.09856
2.1011
2.10367
2.10642
2.10939
2.11252
2.11606
2.1199
2.12366
2.12786
2.13217
2.13628
2.14064
2.1451
2.14943
2.15403
2.15885
2.16358
2.16863
2.17409
2.17944
2.18489
2.19101
2.19719
2.20278
2.20952
2.21641
2.22234
2.2293
2.23658
2.24379
2.24989
2.25785
2.26529
2.27264
2.27867
2.28678
2.2944
2.30188
2.30952
2.31603
2.32481
2.33286
2.34105
2.34818
2.35653
2.365
2.37306
2.38029
2.38804
2.3962
2.404
2.41148
2.41958
2.42738
2.43499
2.44274
2.45032
2.45748
2.46465
2.47185
2.47904
2.48591
2.49277
2.49975
2.50655
2.51327
2.52002
2.52674
2.53342
2.54007
2.54665
2.55313
2.5595
2.56573
2.57178
2.57764
2.58338
2.58903
2.59459
2.60007
2.60561
2.01922
2.02086
2.02275
2.02477
2.02687
2.02897
2.03106
2.033
2.03476
2.03644
2.03828
2.04018
2.04225
2.04449
2.04686
2.04937
2.05187
2.05429
2.05661
2.05886
2.06123
2.06362
2.06622
2.06899
2.07189
2.07494
2.07804
2.08109
2.08406
2.08697
2.08978
2.0926
2.09555
2.09848
2.1017
2.10531
2.10869
2.11254
2.11684
2.1208
2.12496
2.1296
2.134
2.13835
2.14327
2.14809
2.1527
2.15807
2.1635
2.16836
2.17431
2.18047
2.18564
2.19208
2.1988
2.2048
2.21116
2.21841
2.22561
2.23146
2.23922
2.24663
2.25394
2.26007
2.26816
2.27572
2.28327
2.2901
2.29732
2.30612
2.31401
2.32222
2.32924
2.33781
2.34646
2.35457
2.36202
2.36962
2.37794
2.38581
2.39377
2.40195
2.4095
2.41748
2.42552
2.4333
2.44077
2.44802
2.45553
2.46285
2.47001
2.47714
2.48423
2.49123
2.49817
2.5051
2.512
2.51883
2.52561
2.53229
2.53883
2.54525
2.55154
2.55764
2.56352
2.56922
2.57493
2.58058
2.5862
2.5918
2.00597
2.00749
2.00909
2.01081
2.01266
2.01462
2.01667
2.01871
2.02066
2.0225
2.0243
2.02611
2.02799
2.02999
2.03214
2.03444
2.03685
2.03931
2.04175
2.04415
2.04654
2.04895
2.05143
2.05404
2.05678
2.05968
2.06272
2.06583
2.06897
2.07213
2.07522
2.07827
2.08148
2.08455
2.08767
2.09122
2.09461
2.09809
2.10224
2.10625
2.11007
2.11472
2.11932
2.12343
2.1284
2.13347
2.13785
2.14314
2.1487
2.15344
2.15907
2.16515
2.1705
2.17631
2.18291
2.18918
2.19492
2.20207
2.2092
2.215
2.22238
2.22976
2.23705
2.24321
2.25122
2.25872
2.26636
2.27259
2.28037
2.28899
2.2967
2.3048
2.31169
2.32043
2.32911
2.33721
2.34479
2.35229
2.36071
2.36866
2.37665
2.38462
2.39197
2.40029
2.40831
2.41604
2.42362
2.43114
2.43865
2.44605
2.45334
2.46058
2.46777
2.47489
2.48195
2.48897
2.49593
2.50283
2.50965
2.51635
2.52289
2.52933
2.53563
2.54175
2.54771
2.55354
2.55931
2.56504
2.57076
2.57646
1.99208
1.99357
1.99505
1.99657
1.99818
1.99991
2.00174
2.00366
2.0056
2.00752
2.0094
2.01125
2.01309
2.01499
2.01698
2.01909
2.02133
2.02369
2.02612
2.02859
2.03107
2.03356
2.03607
2.03865
2.04132
2.04412
2.04705
2.05012
2.05329
2.05653
2.05981
2.06306
2.06645
2.06976
2.073
2.07664
2.08018
2.08356
2.0876
2.09166
2.09535
2.09985
2.10453
2.10863
2.11345
2.11866
2.12318
2.12822
2.13387
2.13891
2.14411
2.15018
2.1559
2.16119
2.16771
2.17417
2.17963
2.18651
2.19357
2.19955
2.20641
2.21379
2.22106
2.22719
2.23501
2.24246
2.25011
2.25628
2.26427
2.27262
2.28017
2.28803
2.29493
2.30377
2.31231
2.3204
2.32795
2.33547
2.344
2.35191
2.35978
2.3674
2.37469
2.3831
2.391
2.39862
2.40618
2.41374
2.42126
2.42871
2.43608
2.44337
2.4506
2.45777
2.46488
2.47191
2.47885
2.48574
2.49257
2.49925
2.50579
2.5122
2.51848
2.52462
2.53064
2.53657
2.54243
2.54825
2.55405
2.55983
1.97558
1.97714
1.97865
1.98012
1.98158
1.98306
1.98461
1.98624
1.98797
1.98979
1.99165
1.99354
1.99542
1.9973
1.99919
2.00113
2.00314
2.00525
2.00748
2.00982
2.01225
2.01475
2.01729
2.01987
2.02249
2.02518
2.02794
2.03082
2.03382
2.03695
2.04019
2.04353
2.04692
2.0504
2.0539
2.05736
2.06106
2.06475
2.06828
2.07228
2.07641
2.08019
2.08449
2.08922
2.09341
2.09801
2.10329
2.10801
2.11281
2.11851
2.12385
2.12881
2.13484
2.14084
2.14603
2.1523
2.15889
2.16451
2.17089
2.17791
2.18429
2.19058
2.19794
2.20525
2.21138
2.21892
2.22639
2.23401
2.24027
2.24826
2.25636
2.26385
2.27136
2.27841
2.28729
2.29556
2.30363
2.311
2.31862
2.32721
2.33506
2.34282
2.35016
2.35734
2.36572
2.37345
2.38095
2.38843
2.39593
2.40343
2.41087
2.41825
2.42555
2.43278
2.43992
2.44698
2.45404
2.46097
2.46781
2.47455
2.48118
2.48769
2.49407
2.50034
2.5065
2.51257
2.51856
2.52449
2.53039
2.53626
2.54211
1.95994
1.96139
1.96285
1.9643
1.96573
1.96716
1.96862
1.97013
1.97171
1.97337
1.97511
1.97692
1.97877
1.98064
1.98254
1.98448
1.98646
1.9885
1.99064
1.99288
1.99523
1.99767
2.0002
2.0028
2.00546
2.00818
2.01097
2.01384
2.01681
2.01989
2.0231
2.02643
2.02985
2.03338
2.03699
2.04063
2.04439
2.0482
2.05196
2.05597
2.06015
2.0641
2.06833
2.07309
2.0774
2.08186
2.08714
2.09202
2.09672
2.10233
2.10792
2.1129
2.11869
2.12491
2.13031
2.13618
2.14285
2.1489
2.15477
2.16175
2.16853
2.17449
2.18166
2.18902
2.19536
2.20246
2.21001
2.21762
2.22398
2.23183
2.23978
2.24729
2.25447
2.26167
2.27053
2.27853
2.28656
2.29354
2.3013
2.30986
2.3176
2.32528
2.33274
2.33971
2.34796
2.35558
2.36295
2.37032
2.37772
2.38513
2.39251
2.39982
2.40706
2.41422
2.42137
2.42841
2.43536
2.44223
2.44899
2.45567
2.46224
2.4687
2.47506
2.48133
2.4875
2.4936
2.49963
2.50562
2.51158
2.51752
2.52345
2.52937
2.53529
1.94374
1.94504
1.94638
1.94774
1.94912
1.9505
1.95191
1.95334
1.95482
1.95636
1.95798
1.95968
1.96144
1.96326
1.96513
1.96705
1.96901
1.97103
1.97312
1.97529
1.97756
1.97993
1.9824
1.98497
1.98762
1.99035
1.99315
1.99603
1.999
2.00207
2.00525
2.00855
2.01196
2.01549
2.01913
2.02285
2.02667
2.03058
2.03453
2.0386
2.04281
2.04696
2.05123
2.05596
2.06041
2.06487
2.07009
2.0751
2.07985
2.08527
2.09104
2.09617
2.10167
2.108
2.11373
2.1193
2.12589
2.13237
2.1381
2.14476
2.1518
2.15797
2.1646
2.17196
2.17882
2.18537
2.19294
2.2006
2.20714
2.21467
2.22257
2.23014
2.23712
2.24438
2.25314
2.2609
2.26893
2.27539
2.28339
2.29173
2.29931
2.30676
2.31438
2.32187
2.32977
2.33729
2.34455
2.35178
2.35902
2.36628
2.37351
2.38069
2.38789
2.395
2.40203
2.40898
2.41585
2.42263
2.42933
2.43594
2.44245
2.44888
2.45521
2.46147
2.46765
2.47377
2.47984
2.48588
2.49189
2.4979
2.50391
2.50992
2.51594
1.9248
1.92589
1.92701
1.92816
1.92937
1.93062
1.9319
1.93321
1.93455
1.93592
1.93733
1.93878
1.9403
1.94189
1.94355
1.94529
1.94709
1.94896
1.95088
1.95287
1.95492
1.95704
1.95925
1.96156
1.96396
1.96647
1.96908
1.97178
1.97458
1.97746
1.98043
1.98349
1.98666
1.98993
1.99332
1.99683
2.00046
2.0042
2.00805
2.01201
2.01605
2.0202
2.02446
2.02876
2.03315
2.03782
2.04242
2.04699
2.05212
2.05723
2.06211
2.06736
2.07323
2.07853
2.08387
2.09014
2.09619
2.10174
2.10801
2.11477
2.12074
2.12693
2.134
2.14072
2.14688
2.15406
2.16134
2.16779
2.17496
2.1826
2.18967
2.19665
2.20448
2.21207
2.21922
2.2263
2.23477
2.24245
2.25041
2.25671
2.26484
2.27291
2.28039
2.28775
2.29529
2.30299
2.3107
2.31818
2.32542
2.33254
2.33963
2.34669
2.3538
2.3609
2.36794
2.37492
2.38184
2.3887
2.39548
2.40218
2.40881
2.41535
2.42181
2.4282
2.43451
2.44075
2.44694
2.45308
2.45918
2.46526
2.47133
2.4774
2.48348
2.48956
2.49567
1.90776
1.90875
1.90977
1.91081
1.9119
1.91302
1.9142
1.91541
1.91667
1.91796
1.91929
1.92067
1.92211
1.9236
1.92517
1.92681
1.92853
1.93032
1.93219
1.93413
1.93613
1.93821
1.94037
1.94262
1.94496
1.94741
1.94996
1.95261
1.95537
1.95822
1.96117
1.96422
1.96738
1.97064
1.97401
1.9775
1.9811
1.98483
1.98868
1.99265
1.99673
2.00092
2.00524
2.00963
2.01412
2.01878
2.0235
2.02822
2.03328
2.03844
2.04348
2.04866
2.05453
2.06
2.06536
2.07141
2.07772
2.08341
2.08935
2.09615
2.10253
2.1085
2.11531
2.12239
2.12868
2.13535
2.14269
2.14971
2.15625
2.16371
2.1712
2.17804
2.18541
2.19296
2.20044
2.20756
2.21539
2.22299
2.23052
2.23788
2.24562
2.2534
2.26085
2.26816
2.27556
2.2831
2.29065
2.29807
2.30529
2.31235
2.31931
2.32632
2.33329
2.34023
2.34712
2.35398
2.36078
2.36754
2.37422
2.38084
2.38739
2.39387
2.40028
2.40662
2.41291
2.41914
2.42533
2.43148
2.43762
2.44374
2.44985
2.45597
2.46211
2.46826
2.47443
2.48063
1.88449
1.88527
1.88606
1.88686
1.88769
1.88853
1.8894
1.89028
1.89118
1.89209
1.89304
1.89402
1.89504
1.8961
1.89721
1.89837
1.89957
1.90082
1.90212
1.90348
1.90489
1.90637
1.90792
1.90955
1.91126
1.91305
1.91492
1.91686
1.91889
1.92099
1.92319
1.92547
1.92786
1.93035
1.93294
1.93565
1.93846
1.94137
1.94439
1.94753
1.95077
1.95412
1.95759
1.96117
1.96488
1.96872
1.97268
1.97676
1.98096
1.9853
1.98974
1.99428
1.99897
2.00376
2.0086
2.01365
2.01884
2.02401
2.02923
2.035
2.04062
2.04611
2.05192
2.05835
2.06425
2.07008
2.07666
2.08339
2.08944
2.09585
2.10299
2.10975
2.11606
2.12323
2.13054
2.13718
2.14411
2.15158
2.15879
2.16578
2.17314
2.18056
2.18792
2.19535
2.20282
2.21024
2.21775
2.22536
2.23295
2.24037
2.24767
2.25496
2.26231
2.26967
2.27696
2.28408
2.2911
2.29807
2.30496
2.3118
2.3186
2.32536
2.33209
2.33878
2.34543
2.35201
2.35854
2.36501
2.37143
2.37778
2.38409
2.39035
2.39657
2.40276
2.40892
2.41507
2.42122
2.42737
2.43354
2.43972
2.44593
2.45216
2.45843
1.86746
1.86813
1.86881
1.8695
1.87021
1.87094
1.87169
1.87246
1.87326
1.87408
1.87493
1.87581
1.87673
1.87769
1.87869
1.87975
1.88086
1.88202
1.88323
1.8845
1.88583
1.88723
1.88869
1.89024
1.89186
1.89356
1.89535
1.89722
1.89918
1.90123
1.90336
1.90559
1.90792
1.91034
1.91288
1.91553
1.91828
1.92115
1.92413
1.92722
1.93043
1.93376
1.9372
1.94077
1.94445
1.94827
1.95221
1.95627
1.96047
1.9648
1.96925
1.97382
1.97853
1.98335
1.98826
1.99331
1.99853
2.0038
2.00909
2.01474
2.02047
2.02609
2.03177
2.03815
2.04427
2.05016
2.05641
2.06328
2.0696
2.07579
2.08274
2.08982
2.0962
2.10295
2.11029
2.11738
2.12393
2.13118
2.13847
2.14553
2.15264
2.15993
2.16723
2.17455
2.18188
2.18923
2.19662
2.20406
2.2115
2.21886
2.22612
2.23333
2.24053
2.2477
2.25479
2.26185
2.26882
2.27569
2.28249
2.28922
2.29591
2.30256
2.30917
2.31574
2.32227
2.32876
2.3352
2.34159
2.34794
2.35424
2.3605
2.36673
2.37294
2.37912
2.38529
2.39146
2.39762
2.4038
2.41
2.41623
2.42248
2.42877
2.43511
1.85015
1.85072
1.85129
1.85188
1.85248
1.8531
1.85374
1.85441
1.8551
1.85582
1.85657
1.85735
1.85817
1.85903
1.85994
1.8609
1.86191
1.86297
1.8641
1.86528
1.86652
1.86783
1.86921
1.87067
1.8722
1.87382
1.87552
1.87732
1.8792
1.88118
1.88325
1.88541
1.88767
1.89004
1.89252
1.8951
1.89779
1.9006
1.90353
1.90658
1.90975
1.91304
1.91645
1.91998
1.92364
1.92742
1.93134
1.93538
1.93956
1.94386
1.9483
1.95286
1.95756
1.96239
1.96732
1.97238
1.9776
1.98291
1.98827
1.99383
1.99959
2.0053
2.01099
2.01717
2.02346
2.02945
2.0355
2.04229
2.04888
2.05507
2.06169
2.06883
2.07555
2.08198
2.08915
2.0964
2.10307
2.10997
2.11718
2.12427
2.1313
2.13843
2.14561
2.15281
2.16003
2.16726
2.17451
2.18177
2.18903
2.19626
2.20343
2.21055
2.21761
2.22459
2.23158
2.23852
2.24536
2.25213
2.25882
2.26545
2.27203
2.27857
2.28507
2.29153
2.29795
2.30434
2.31069
2.317
2.32328
2.32953
2.33575
2.34194
2.34813
2.3543
2.36047
2.36665
2.37284
2.37904
2.38527
2.39153
2.39783
2.40418
2.41058
1.83267
1.83313
1.8336
1.83408
1.83457
1.83509
1.83563
1.83619
1.83678
1.8374
1.83805
1.83873
1.83946
1.84022
1.84103
1.84189
1.8428
1.84377
1.8448
1.84589
1.84704
1.84827
1.84956
1.85093
1.85238
1.85391
1.85553
1.85724
1.85904
1.86093
1.86293
1.86502
1.86722
1.86952
1.87193
1.87445
1.87708
1.87983
1.88269
1.88569
1.8888
1.89204
1.8954
1.89889
1.90251
1.90626
1.91013
1.91414
1.91828
1.92255
1.92695
1.93149
1.93616
1.94096
1.94588
1.95092
1.95611
1.96142
1.9668
1.9723
1.97803
1.98379
1.98951
1.99548
2.00183
2.00789
2.0139
2.02045
2.02722
2.03347
2.03985
2.04689
2.05385
2.06023
2.06704
2.07425
2.08116
2.08784
2.09487
2.1019
2.10888
2.11588
2.12292
2.12999
2.13707
2.14416
2.15126
2.15835
2.16543
2.1725
2.17953
2.1865
2.19339
2.20027
2.20713
2.2139
2.22061
2.22725
2.23382
2.24035
2.24682
2.25325
2.25964
2.26599
2.27232
2.27861
2.28487
2.2911
2.29731
2.30351
2.30968
2.31585
2.32201
2.32818
2.33436
2.34055
2.34676
2.35299
2.35926
2.36557
2.37192
2.37833
2.38481
2.39136
2.39798
1.81508
1.81543
1.8158
1.81618
1.81657
1.81699
1.81742
1.81789
1.81837
1.81889
1.81944
1.82003
1.82066
1.82133
1.82204
1.8228
1.82362
1.82449
1.82542
1.82642
1.82748
1.82861
1.82981
1.83109
1.83245
1.83389
1.83542
1.83705
1.83876
1.84057
1.84249
1.8445
1.84662
1.84885
1.85118
1.85363
1.85619
1.85887
1.86167
1.86459
1.86764
1.87082
1.87412
1.87755
1.88111
1.88481
1.88863
1.89258
1.89667
1.90089
1.90524
1.90972
1.91434
1.91909
1.92396
1.92896
1.93409
1.93935
1.9447
1.95015
1.9558
1.96154
1.96727
1.97308
1.97937
1.98546
1.99148
1.99776
2.00455
2.01087
2.01714
2.02394
2.03096
2.03742
2.04394
2.05096
2.0579
2.06458
2.07139
2.07831
2.0852
2.09208
2.09898
2.10591
2.11283
2.11976
2.12669
2.1336
2.1405
2.14739
2.15425
2.16102
2.16778
2.17454
2.18122
2.18783
2.19439
2.20089
2.20734
2.21375
2.22011
2.22643
2.23271
2.23896
2.24519
2.25139
2.25757
2.26374
2.26989
2.27604
2.28218
2.28833
2.29448
2.30064
2.30683
2.31305
2.31929
2.32558
2.3319
2.33828
2.34471
2.35121
2.35776
2.3644
2.37111
1.79744
1.7977
1.79797
1.79825
1.79854
1.79886
1.7992
1.79956
1.79995
1.80037
1.80082
1.80131
1.80184
1.80241
1.80303
1.80369
1.80441
1.80519
1.80602
1.80692
1.80788
1.80892
1.81003
1.81122
1.81248
1.81383
1.81527
1.8168
1.81842
1.82015
1.82197
1.8239
1.82593
1.82807
1.83032
1.83269
1.83517
1.83777
1.84049
1.84333
1.8463
1.8494
1.85262
1.85598
1.85946
1.86308
1.86683
1.87071
1.87472
1.87886
1.88314
1.88754
1.89208
1.89675
1.90155
1.90646
1.91151
1.91668
1.92196
1.92733
1.93286
1.93853
1.94421
1.9499
1.95605
1.96211
1.96809
1.97418
1.98087
1.98719
1.99339
1.99991
2.00684
2.01335
2.01971
2.02645
2.03327
2.03994
2.04659
2.05334
2.0601
2.06684
2.0736
2.08036
2.08711
2.09387
2.1006
2.10733
2.11404
2.12073
2.12738
2.13397
2.1406
2.14718
2.15367
2.16012
2.16652
2.17288
2.1792
2.18548
2.19172
2.19793
2.2041
2.21026
2.2164
2.22252
2.22864
2.23475
2.24086
2.24697
2.2531
2.25923
2.26539
2.27157
2.27778
2.28402
2.29031
2.29665
2.30304
2.30949
2.31601
2.32258
2.32922
2.33593
2.34273
1.77969
1.77984
1.77999
1.78016
1.78035
1.78055
1.78077
1.78101
1.78127
1.78156
1.78188
1.78224
1.78263
1.78306
1.78353
1.78405
1.78461
1.78523
1.78591
1.78664
1.78744
1.78831
1.78925
1.79026
1.79134
1.79251
1.79376
1.7951
1.79653
1.79806
1.79968
1.80141
1.80324
1.80517
1.80721
1.80937
1.81164
1.81403
1.81653
1.81915
1.8219
1.82477
1.82777
1.8309
1.83416
1.83754
1.84106
1.84471
1.84849
1.8524
1.85643
1.8606
1.8649
1.86933
1.87389
1.87858
1.88338
1.8883
1.89336
1.89852
1.90377
1.90917
1.91471
1.92029
1.92585
1.93181
1.93775
1.94364
1.94958
1.95607
1.9623
1.96843
1.97471
1.98139
1.98787
1.99414
2.00059
2.0072
2.01375
2.02025
2.0268
2.03339
2.03995
2.04652
2.05309
2.05965
2.0662
2.07274
2.07925
2.08575
2.09224
2.09866
2.1051
2.11154
2.11792
2.12423
2.1305
2.13674
2.14295
2.14913
2.15528
2.1614
2.1675
2.17358
2.17965
2.1857
2.19176
2.19781
2.20388
2.20995
2.21604
2.22216
2.2283
2.23447
2.24067
2.24691
2.25319
2.25953
2.26593
2.2724
2.27893
2.28553
2.29222
2.299
2.30586
2.31282
1.76225
1.76231
1.76237
1.76244
1.76253
1.76263
1.76276
1.7629
1.76306
1.76326
1.76348
1.76373
1.76402
1.76435
1.76473
1.76514
1.76561
1.76612
1.76669
1.76733
1.76802
1.76878
1.76961
1.77052
1.7715
1.77256
1.77371
1.77494
1.77626
1.77768
1.77919
1.78081
1.78252
1.78435
1.78628
1.78832
1.79048
1.79275
1.79514
1.79765
1.80028
1.80303
1.80591
1.80892
1.81205
1.81531
1.8187
1.82222
1.82587
1.82964
1.83354
1.83757
1.84173
1.84601
1.85043
1.85497
1.85962
1.86439
1.86929
1.8743
1.87939
1.88461
1.88999
1.89541
1.90084
1.90656
1.9123
1.91802
1.92381
1.92999
1.93602
1.94203
1.94811
1.95439
1.96072
1.96691
1.9731
1.97943
1.98578
1.99208
1.9984
2.00476
2.01112
2.01746
2.02381
2.03015
2.03647
2.04278
2.04907
2.05534
2.06158
2.06779
2.07405
2.08029
2.08645
2.09257
2.09867
2.10475
2.11081
2.11684
2.12286
2.12886
2.13485
2.14084
2.14682
2.1528
2.15879
2.1648
2.17083
2.17688
2.18295
2.18907
2.19522
2.20143
2.20768
2.21399
2.22037
2.22681
2.23333
2.23992
2.2466
2.25337
2.26023
2.2672
2.27426
2.28143
2.2887
2.29608
1.74493
1.74489
1.74486
1.74484
1.74483
1.74484
1.74486
1.74491
1.74498
1.74507
1.74519
1.74534
1.74553
1.74575
1.74602
1.74633
1.74669
1.7471
1.74756
1.74808
1.74866
1.74931
1.75003
1.75082
1.75169
1.75263
1.75366
1.75477
1.75598
1.75727
1.75866
1.76015
1.76174
1.76343
1.76524
1.76715
1.76917
1.77131
1.77356
1.77593
1.77842
1.78103
1.78376
1.78662
1.78959
1.79269
1.79592
1.79929
1.80277
1.80638
1.81011
1.81396
1.81793
1.82203
1.82627
1.83062
1.83509
1.83967
1.84437
1.84916
1.85404
1.85903
1.86416
1.86936
1.87458
1.88002
1.88549
1.89098
1.89658
1.90236
1.9081
1.91394
1.91977
1.92565
1.93171
1.93772
1.94367
1.94972
1.95582
1.96189
1.96797
1.97407
1.98018
1.98629
1.99239
1.99848
2.00456
2.01062
2.01667
2.02269
2.02868
2.03466
2.04071
2.04673
2.05268
2.0586
2.06451
2.07042
2.07632
2.0822
2.08809
2.09397
2.09985
2.10574
2.11164
2.11756
2.1235
2.12947
2.13547
2.14152
2.14761
2.15375
2.15995
2.16621
2.17254
2.17895
2.18543
2.192
2.19865
2.2054
2.21225
2.2192
2.22626
2.23343
2.24071
2.24811
2.25562
2.26325
1.72776
1.72763
1.7275
1.72739
1.72728
1.72719
1.72712
1.72706
1.72702
1.72701
1.72703
1.72708
1.72716
1.72727
1.72743
1.72762
1.72787
1.72816
1.72851
1.72891
1.72937
1.7299
1.73049
1.73116
1.7319
1.73271
1.73361
1.73459
1.73566
1.73681
1.73806
1.73941
1.74085
1.7424
1.74405
1.74581
1.74767
1.74965
1.75174
1.75394
1.75626
1.75869
1.76125
1.76392
1.76671
1.76962
1.77265
1.77582
1.77911
1.78253
1.78606
1.78969
1.79343
1.79729
1.80126
1.80536
1.80957
1.81389
1.81832
1.82283
1.82743
1.83214
1.83696
1.84185
1.8468
1.85191
1.8571
1.86231
1.86766
1.87307
1.87851
1.88408
1.88964
1.89519
1.90092
1.90667
1.91236
1.91811
1.9239
1.92968
1.93547
1.94129
1.94711
1.95294
1.95876
1.96458
1.97039
1.97617
1.98195
1.9877
1.99343
1.99915
2.00495
2.01074
2.01647
2.02217
2.02788
2.0336
2.03933
2.04506
2.0508
2.05655
2.06232
2.06811
2.07393
2.07977
2.08566
2.09159
2.09758
2.10362
2.10972
2.11589
2.12214
2.12847
2.13488
2.14138
2.14797
2.15467
2.16146
2.16837
2.17539
2.18253
2.18978
2.19716
2.20466
2.21229
2.22004
2.22792
1.71076
1.71053
1.71031
1.7101
1.70989
1.7097
1.70952
1.70936
1.70922
1.7091
1.70901
1.70894
1.70891
1.7089
1.70894
1.70902
1.70914
1.70931
1.70953
1.7098
1.71013
1.71053
1.71098
1.71151
1.7121
1.71277
1.71352
1.71435
1.71526
1.71626
1.71736
1.71854
1.71981
1.72119
1.72266
1.72424
1.72592
1.72771
1.7296
1.7316
1.73372
1.73595
1.7383
1.74077
1.74334
1.74602
1.74882
1.75173
1.75476
1.75792
1.76119
1.76455
1.768
1.77155
1.7752
1.77897
1.78283
1.78681
1.79091
1.79511
1.79941
1.80381
1.80832
1.81291
1.81757
1.82234
1.82718
1.83209
1.83709
1.84212
1.8472
1.85242
1.85765
1.86288
1.86824
1.87365
1.87903
1.88445
1.8899
1.89533
1.90078
1.90627
1.91176
1.91727
1.92278
1.92828
1.93378
1.93926
1.94474
1.9502
1.95564
1.96108
1.96659
1.97212
1.97761
1.98308
1.98857
1.99408
1.99962
2.00517
2.01075
2.01635
2.02199
2.02767
2.03339
2.03915
2.04498
2.05086
2.05681
2.06283
2.06894
2.07514
2.08143
2.08781
2.0943
2.1009
2.10761
2.11443
2.12137
2.12844
2.13564
2.14296
2.15042
2.15802
2.16575
2.17362
2.18163
2.18977
2.19805
1.69362
1.69329
1.69298
1.69267
1.69237
1.69208
1.69181
1.69156
1.69132
1.69111
1.69092
1.69077
1.69064
1.69055
1.69049
1.69048
1.69051
1.69059
1.69073
1.69091
1.69115
1.69146
1.69183
1.69226
1.69277
1.69336
1.69402
1.69475
1.69557
1.69648
1.69748
1.69856
1.69973
1.701
1.70237
1.70384
1.70541
1.70708
1.70885
1.71073
1.71272
1.71482
1.71704
1.71933
1.72173
1.72424
1.72683
1.72953
1.73234
1.73529
1.73836
1.74154
1.74482
1.7482
1.75167
1.75524
1.7589
1.76267
1.76653
1.77048
1.77454
1.77869
1.78291
1.78721
1.79158
1.79602
1.80053
1.80511
1.80972
1.81439
1.81916
1.82397
1.8288
1.8337
1.83865
1.84361
1.84863
1.85368
1.85872
1.86379
1.86889
1.87401
1.87914
1.88429
1.88944
1.8946
1.89974
1.90488
1.91001
1.91514
1.92028
1.92545
1.93069
1.93592
1.94113
1.94637
1.95165
1.95697
1.96233
1.96772
1.97315
1.97864
1.98418
1.98979
1.99546
2.00121
2.00704
2.01296
2.01896
2.02507
2.03128
2.03761
2.04405
2.05061
2.05729
2.06411
2.07105
2.07813
2.08535
2.09272
2.10023
2.10789
2.11569
2.12365
2.13176
2.14003
2.14844
2.157
1.67687
1.67644
1.67602
1.6756
1.67519
1.67479
1.6744
1.67402
1.67366
1.67332
1.673
1.67271
1.67245
1.67222
1.67202
1.67186
1.67174
1.67167
1.67164
1.67167
1.67174
1.67188
1.67208
1.67233
1.67266
1.67305
1.67352
1.67406
1.67468
1.67537
1.67615
1.67702
1.67797
1.679
1.68013
1.68136
1.68269
1.6841
1.68559
1.68718
1.68887
1.69065
1.69254
1.69456
1.69668
1.6989
1.70123
1.70365
1.70617
1.70881
1.71158
1.71444
1.71741
1.72046
1.7236
1.72683
1.73015
1.73355
1.73702
1.74057
1.7442
1.74791
1.75167
1.75551
1.75942
1.7634
1.76744
1.77154
1.77569
1.7799
1.78416
1.78847
1.79281
1.7972
1.80163
1.80609
1.81062
1.81519
1.81978
1.82441
1.82907
1.83375
1.83846
1.8432
1.84795
1.85271
1.85748
1.86226
1.86703
1.87181
1.87662
1.88144
1.88633
1.89127
1.89621
1.90117
1.90619
1.91127
1.91641
1.9216
1.92686
1.93218
1.93758
1.94306
1.94863
1.95429
1.96005
1.96591
1.97188
1.97797
1.98418
1.99052
1.99699
2.00359
2.01033
2.01722
2.02426
2.03144
2.03878
2.04628
2.05393
2.06175
2.06973
2.07787
2.08618
2.09464
2.10327
2.11206
1.65975
1.65921
1.65867
1.65814
1.65761
1.65709
1.65659
1.65609
1.65561
1.65515
1.65472
1.6543
1.65392
1.65356
1.65324
1.65296
1.65271
1.65251
1.65235
1.65225
1.65219
1.6522
1.65226
1.65237
1.65255
1.65281
1.65313
1.65351
1.65396
1.6545
1.65513
1.65584
1.6566
1.65743
1.65836
1.65938
1.66051
1.66174
1.66306
1.66447
1.66598
1.66759
1.66932
1.67116
1.67309
1.67511
1.67723
1.67944
1.68172
1.68408
1.68653
1.68907
1.69169
1.69439
1.69718
1.70004
1.70297
1.70598
1.70905
1.71219
1.7154
1.71866
1.72199
1.7254
1.72886
1.73236
1.73594
1.73957
1.74324
1.74697
1.75075
1.75457
1.75844
1.76234
1.7663
1.7703
1.77435
1.77843
1.78256
1.78672
1.79092
1.79515
1.79943
1.80374
1.80808
1.81244
1.81682
1.82121
1.82562
1.83006
1.83454
1.83904
1.84364
1.84829
1.85298
1.85773
1.86256
1.86746
1.87244
1.8775
1.88265
1.88788
1.8932
1.89862
1.90415
1.9098
1.91557
1.92146
1.92749
1.93365
1.93996
1.94642
1.95302
1.95979
1.96671
1.97379
1.98104
1.98845
1.99603
2.00378
2.0117
2.01979
2.02806
2.0365
2.04512
2.0539
2.06286
1.64252
1.64186
1.64119
1.64053
1.63987
1.63922
1.63858
1.63795
1.63733
1.63673
1.63615
1.6356
1.63507
1.63457
1.6341
1.63367
1.63328
1.63292
1.63261
1.63234
1.63213
1.63197
1.63185
1.63179
1.6318
1.63188
1.63202
1.6322
1.63244
1.63277
1.6332
1.63371
1.6343
1.63496
1.6357
1.63655
1.63751
1.63856
1.63969
1.6409
1.6422
1.64356
1.645
1.64653
1.64815
1.64984
1.65162
1.65347
1.65539
1.65739
1.65947
1.66162
1.66384
1.66613
1.66849
1.67091
1.67339
1.67593
1.67854
1.6812
1.68391
1.68669
1.68952
1.6924
1.69534
1.69833
1.70138
1.70447
1.70762
1.71082
1.71407
1.71736
1.72071
1.72411
1.72758
1.73108
1.73462
1.73821
1.74184
1.74552
1.74925
1.75304
1.75687
1.76075
1.76467
1.76863
1.77261
1.77663
1.78069
1.7848
1.78896
1.79318
1.79753
1.80193
1.8064
1.81096
1.8156
1.82032
1.82514
1.83006
1.83508
1.84021
1.84546
1.85083
1.85633
1.86196
1.86774
1.87366
1.87974
1.88597
1.89237
1.89893
1.90566
1.91256
1.91964
1.92688
1.93431
1.94191
1.94969
1.95765
1.96579
1.97411
1.98262
1.9913
2.00017
2.00921
2.01843
2.02782
1.62592
1.62512
1.62431
1.6235
1.62269
1.62188
1.62108
1.62028
1.61949
1.61872
1.61796
1.61722
1.6165
1.6158
1.61513
1.61449
1.61388
1.61331
1.61276
1.61225
1.6118
1.61141
1.61104
1.61071
1.61043
1.61023
1.61012
1.61006
1.61006
1.61012
1.61026
1.61051
1.61084
1.61123
1.61169
1.61221
1.6128
1.61347
1.61421
1.61502
1.6159
1.61686
1.61788
1.61898
1.62016