/*--------------------------------*- C++ -*----------------------------------*\
| =========                 |                                                 |
| \\      /  F ield         | OpenFOAM: The Open Source CFD Toolbox           |
|  \\    /   O peration     | Version:  v1706                                 |
|   \\  /    A nd           | Web:      www.OpenFOAM.com                      |
|    \\/     M anipulation  |                                                 |
\*---------------------------------------------------------------------------*/
FoamFile
{
    version     2.0;
    format      ascii;
    class       volScalarField;
    location    "3.3e-05";
    object      mu;
}
// * * * * * * * * * * * * * * * * * * * * * * * * * * * * * * * * * * * * * //

dimensions      [1 -1 -1 0 0 0 0];


internalField   nonuniform List<scalar> 
29871
(
1.06423e-05
1.06769e-05
1.07147e-05
1.07554e-05
1.07988e-05
1.08449e-05
1.08943e-05
1.09484e-05
1.1008e-05
1.1073e-05
1.11424e-05
1.12155e-05
1.12913e-05
1.13691e-05
1.14485e-05
1.15286e-05
1.16087e-05
1.16881e-05
1.17662e-05
1.18426e-05
1.19182e-05
1.19993e-05
1.20996e-05
1.22149e-05
1.23389e-05
1.24662e-05
1.25932e-05
1.27169e-05
1.28353e-05
1.29471e-05
1.30514e-05
1.31478e-05
1.32364e-05
1.33176e-05
1.33917e-05
1.34592e-05
1.35204e-05
1.35757e-05
1.36253e-05
1.36693e-05
1.37081e-05
1.37417e-05
1.37703e-05
1.3794e-05
1.38131e-05
1.38276e-05
1.38381e-05
1.38448e-05
1.38472e-05
1.38456e-05
1.38411e-05
1.38346e-05
1.38254e-05
1.38128e-05
1.37969e-05
1.37782e-05
1.37584e-05
1.37378e-05
1.37158e-05
1.36929e-05
1.36692e-05
1.36441e-05
1.36177e-05
1.35901e-05
1.35607e-05
1.35292e-05
1.34956e-05
1.34598e-05
1.3422e-05
1.3382e-05
1.33398e-05
1.32953e-05
1.32484e-05
1.3199e-05
1.31468e-05
1.30918e-05
1.30338e-05
1.29726e-05
1.29079e-05
1.28396e-05
1.27674e-05
1.26911e-05
1.26105e-05
1.25252e-05
1.24349e-05
1.23394e-05
1.22389e-05
1.21338e-05
1.20239e-05
1.19095e-05
1.17921e-05
1.16782e-05
1.15864e-05
1.15145e-05
1.1449e-05
1.1384e-05
1.13179e-05
1.12505e-05
1.11822e-05
1.11134e-05
1.10448e-05
1.09766e-05
1.09093e-05
1.08443e-05
1.07848e-05
1.19602e-05
1.21222e-05
1.22915e-05
1.24662e-05
1.26447e-05
1.28263e-05
1.30124e-05
1.32153e-05
1.34401e-05
1.36828e-05
1.39374e-05
1.41973e-05
1.44567e-05
1.47101e-05
1.49535e-05
1.51836e-05
1.53983e-05
1.55961e-05
1.57764e-05
1.59393e-05
1.60854e-05
1.62144e-05
1.63251e-05
1.64185e-05
1.6496e-05
1.65594e-05
1.66101e-05
1.66497e-05
1.66792e-05
1.66999e-05
1.67135e-05
1.67218e-05
1.67266e-05
1.67292e-05
1.67307e-05
1.67311e-05
1.67309e-05
1.67303e-05
1.67292e-05
1.67276e-05
1.67253e-05
1.67224e-05
1.67187e-05
1.67137e-05
1.67075e-05
1.66998e-05
1.66907e-05
1.66802e-05
1.66682e-05
1.66546e-05
1.66395e-05
1.66232e-05
1.66056e-05
1.65871e-05
1.65688e-05
1.65488e-05
1.65286e-05
1.65082e-05
1.64867e-05
1.64649e-05
1.64432e-05
1.64217e-05
1.64002e-05
1.63786e-05
1.63562e-05
1.63333e-05
1.631e-05
1.62861e-05
1.62616e-05
1.62365e-05
1.62109e-05
1.61846e-05
1.61577e-05
1.61301e-05
1.61017e-05
1.60726e-05
1.60428e-05
1.60121e-05
1.59807e-05
1.59484e-05
1.59154e-05
1.58818e-05
1.58475e-05
1.58128e-05
1.57781e-05
1.57433e-05
1.57081e-05
1.5672e-05
1.56332e-05
1.5589e-05
1.55358e-05
1.54677e-05
1.53776e-05
1.52652e-05
1.51339e-05
1.49856e-05
1.48204e-05
1.46374e-05
1.4436e-05
1.42162e-05
1.39786e-05
1.37244e-05
1.34553e-05
1.31739e-05
1.28865e-05
1.42841e-05
1.46031e-05
1.49238e-05
1.52387e-05
1.55414e-05
1.5827e-05
1.60924e-05
1.63352e-05
1.65519e-05
1.67421e-05
1.69077e-05
1.70511e-05
1.71748e-05
1.72814e-05
1.73735e-05
1.74526e-05
1.75199e-05
1.75763e-05
1.7622e-05
1.76571e-05
1.76827e-05
1.77007e-05
1.77127e-05
1.77204e-05
1.7725e-05
1.7725e-05
1.77231e-05
1.77186e-05
1.77112e-05
1.77003e-05
1.76857e-05
1.76679e-05
1.76475e-05
1.76252e-05
1.76016e-05
1.75773e-05
1.75528e-05
1.75283e-05
1.75041e-05
1.74804e-05
1.74573e-05
1.74351e-05
1.74136e-05
1.7393e-05
1.7373e-05
1.73536e-05
1.73346e-05
1.73158e-05
1.72972e-05
1.72786e-05
1.72597e-05
1.72407e-05
1.72215e-05
1.72016e-05
1.71807e-05
1.71595e-05
1.71387e-05
1.71173e-05
1.70966e-05
1.70774e-05
1.70531e-05
1.70304e-05
1.70101e-05
1.69892e-05
1.69648e-05
1.69411e-05
1.69192e-05
1.68973e-05
1.6875e-05
1.68525e-05
1.68302e-05
1.6808e-05
1.6786e-05
1.67644e-05
1.67431e-05
1.67223e-05
1.67021e-05
1.66826e-05
1.6664e-05
1.66464e-05
1.66302e-05
1.66155e-05
1.66025e-05
1.65915e-05
1.65827e-05
1.65759e-05
1.65705e-05
1.65661e-05
1.6562e-05
1.65571e-05
1.65505e-05
1.6541e-05
1.65271e-05
1.65076e-05
1.64822e-05
1.64508e-05
1.64133e-05
1.63699e-05
1.63205e-05
1.62652e-05
1.62038e-05
1.61355e-05
1.60578e-05
1.59671e-05
1.58582e-05
1.57254e-05
1.72185e-05
1.73876e-05
1.75326e-05
1.7656e-05
1.77605e-05
1.78483e-05
1.79211e-05
1.79804e-05
1.80275e-05
1.80634e-05
1.80894e-05
1.81071e-05
1.81187e-05
1.81267e-05
1.81328e-05
1.8138e-05
1.81427e-05
1.81469e-05
1.81497e-05
1.81491e-05
1.8146e-05
1.814e-05
1.81316e-05
1.81216e-05
1.81103e-05
1.80979e-05
1.80849e-05
1.80717e-05
1.80588e-05
1.80467e-05
1.80352e-05
1.80232e-05
1.801e-05
1.79949e-05
1.79776e-05
1.79582e-05
1.79371e-05
1.79147e-05
1.78915e-05
1.78677e-05
1.78437e-05
1.78197e-05
1.77959e-05
1.77724e-05
1.77494e-05
1.77268e-05
1.77048e-05
1.76831e-05
1.76619e-05
1.7641e-05
1.76203e-05
1.75996e-05
1.7579e-05
1.75579e-05
1.75359e-05
1.75134e-05
1.74914e-05
1.74686e-05
1.74466e-05
1.74269e-05
1.74012e-05
1.73773e-05
1.73557e-05
1.73333e-05
1.73067e-05
1.72803e-05
1.72562e-05
1.72324e-05
1.72082e-05
1.71839e-05
1.71599e-05
1.71362e-05
1.71127e-05
1.70896e-05
1.70671e-05
1.70451e-05
1.70238e-05
1.70032e-05
1.69835e-05
1.69648e-05
1.69472e-05
1.69311e-05
1.69165e-05
1.69035e-05
1.68921e-05
1.68819e-05
1.68728e-05
1.68638e-05
1.68539e-05
1.68433e-05
1.68322e-05
1.68206e-05
1.68082e-05
1.67947e-05
1.67804e-05
1.67654e-05
1.67497e-05
1.67335e-05
1.67165e-05
1.66983e-05
1.66782e-05
1.66562e-05
1.66313e-05
1.66022e-05
1.65686e-05
1.65303e-05
1.82677e-05
1.8308e-05
1.83385e-05
1.8361e-05
1.83774e-05
1.839e-05
1.84e-05
1.8408e-05
1.84145e-05
1.84193e-05
1.84213e-05
1.842e-05
1.84157e-05
1.84087e-05
1.83995e-05
1.83892e-05
1.83787e-05
1.83687e-05
1.836e-05
1.83535e-05
1.83496e-05
1.83474e-05
1.83449e-05
1.83407e-05
1.83341e-05
1.83251e-05
1.83141e-05
1.83015e-05
1.82879e-05
1.8274e-05
1.82607e-05
1.82484e-05
1.82365e-05
1.82246e-05
1.8212e-05
1.81982e-05
1.81829e-05
1.8166e-05
1.81474e-05
1.81275e-05
1.81064e-05
1.80843e-05
1.80614e-05
1.80381e-05
1.80145e-05
1.79907e-05
1.79669e-05
1.79433e-05
1.79197e-05
1.78962e-05
1.78732e-05
1.78503e-05
1.78268e-05
1.78041e-05
1.77821e-05
1.77591e-05
1.77356e-05
1.7713e-05
1.76905e-05
1.76679e-05
1.76456e-05
1.76215e-05
1.75987e-05
1.75765e-05
1.75554e-05
1.75277e-05
1.74997e-05
1.74753e-05
1.74515e-05
1.74264e-05
1.74012e-05
1.7377e-05
1.73533e-05
1.73299e-05
1.73066e-05
1.72841e-05
1.72622e-05
1.7241e-05
1.72203e-05
1.72003e-05
1.71812e-05
1.71629e-05
1.71456e-05
1.71292e-05
1.71136e-05
1.70985e-05
1.70839e-05
1.70695e-05
1.70552e-05
1.70411e-05
1.70267e-05
1.70119e-05
1.69966e-05
1.6981e-05
1.69652e-05
1.69493e-05
1.69332e-05
1.69172e-05
1.69014e-05
1.68853e-05
1.68686e-05
1.68513e-05
1.68325e-05
1.6812e-05
1.67905e-05
1.67703e-05
1.67522e-05
1.86026e-05
1.86075e-05
1.86089e-05
1.86075e-05
1.86039e-05
1.85985e-05
1.85921e-05
1.85853e-05
1.85788e-05
1.85726e-05
1.85671e-05
1.85627e-05
1.8559e-05
1.85545e-05
1.85481e-05
1.85394e-05
1.85293e-05
1.8518e-05
1.85064e-05
1.84957e-05
1.84873e-05
1.84811e-05
1.84764e-05
1.84722e-05
1.84673e-05
1.84609e-05
1.84528e-05
1.8443e-05
1.84315e-05
1.84191e-05
1.84058e-05
1.83926e-05
1.83803e-05
1.83686e-05
1.83576e-05
1.83467e-05
1.83355e-05
1.83236e-05
1.83106e-05
1.82964e-05
1.8281e-05
1.82644e-05
1.82466e-05
1.8228e-05
1.82088e-05
1.81883e-05
1.81672e-05
1.81462e-05
1.81245e-05
1.8102e-05
1.808e-05
1.80581e-05
1.80345e-05
1.80114e-05
1.79893e-05
1.79667e-05
1.79424e-05
1.79194e-05
1.78974e-05
1.78752e-05
1.78511e-05
1.78276e-05
1.78054e-05
1.77828e-05
1.77622e-05
1.77342e-05
1.7705e-05
1.76795e-05
1.76554e-05
1.76288e-05
1.76014e-05
1.75763e-05
1.7552e-05
1.75268e-05
1.75014e-05
1.74772e-05
1.74536e-05
1.743e-05
1.74067e-05
1.73838e-05
1.73614e-05
1.73396e-05
1.73184e-05
1.72977e-05
1.72773e-05
1.72571e-05
1.72372e-05
1.72174e-05
1.71978e-05
1.71788e-05
1.71605e-05
1.71427e-05
1.71249e-05
1.71076e-05
1.70906e-05
1.70739e-05
1.70572e-05
1.70407e-05
1.7024e-05
1.70068e-05
1.69889e-05
1.69711e-05
1.69533e-05
1.69347e-05
1.69158e-05
1.68985e-05
1.68832e-05
1.87528e-05
1.87476e-05
1.87422e-05
1.87374e-05
1.8733e-05
1.87293e-05
1.87264e-05
1.87232e-05
1.87183e-05
1.87118e-05
1.87039e-05
1.86951e-05
1.86857e-05
1.86767e-05
1.86692e-05
1.86632e-05
1.86579e-05
1.86523e-05
1.86457e-05
1.86377e-05
1.86285e-05
1.86181e-05
1.86072e-05
1.85967e-05
1.85875e-05
1.85803e-05
1.85751e-05
1.85705e-05
1.85664e-05
1.85619e-05
1.85564e-05
1.85497e-05
1.85419e-05
1.85325e-05
1.85223e-05
1.85118e-05
1.85011e-05
1.84909e-05
1.84813e-05
1.84717e-05
1.84621e-05
1.84523e-05
1.84417e-05
1.84303e-05
1.84183e-05
1.84046e-05
1.83899e-05
1.83749e-05
1.83584e-05
1.83403e-05
1.83223e-05
1.83038e-05
1.8283e-05
1.82626e-05
1.82429e-05
1.82207e-05
1.81978e-05
1.81762e-05
1.81552e-05
1.81303e-05
1.8107e-05
1.80851e-05
1.80643e-05
1.80385e-05
1.80146e-05
1.79929e-05
1.79705e-05
1.795e-05
1.79213e-05
1.78922e-05
1.78666e-05
1.78423e-05
1.78145e-05
1.77853e-05
1.7759e-05
1.77343e-05
1.77078e-05
1.76802e-05
1.76547e-05
1.763e-05
1.76043e-05
1.75784e-05
1.7553e-05
1.75278e-05
1.75031e-05
1.74789e-05
1.74548e-05
1.74308e-05
1.74069e-05
1.73833e-05
1.73599e-05
1.73362e-05
1.7313e-05
1.72912e-05
1.72695e-05
1.7248e-05
1.72274e-05
1.72075e-05
1.71879e-05
1.71688e-05
1.71498e-05
1.71306e-05
1.71112e-05
1.70918e-05
1.70727e-05
1.70538e-05
1.70353e-05
1.70174e-05
1.70006e-05
1.69854e-05
1.88643e-05
1.88568e-05
1.88483e-05
1.88401e-05
1.88318e-05
1.88244e-05
1.88185e-05
1.88136e-05
1.88085e-05
1.88026e-05
1.8796e-05
1.87882e-05
1.87795e-05
1.87705e-05
1.87615e-05
1.87534e-05
1.87467e-05
1.8741e-05
1.87359e-05
1.87306e-05
1.87246e-05
1.87177e-05
1.87101e-05
1.87019e-05
1.86935e-05
1.86858e-05
1.86795e-05
1.86746e-05
1.86706e-05
1.86672e-05
1.86638e-05
1.86601e-05
1.86558e-05
1.86502e-05
1.86434e-05
1.86362e-05
1.86274e-05
1.86182e-05
1.86095e-05
1.86004e-05
1.85911e-05
1.85824e-05
1.85732e-05
1.85632e-05
1.85534e-05
1.85426e-05
1.85303e-05
1.85179e-05
1.85049e-05
1.84893e-05
1.84736e-05
1.84585e-05
1.84398e-05
1.84209e-05
1.84033e-05
1.83834e-05
1.83612e-05
1.83405e-05
1.83213e-05
1.82967e-05
1.82734e-05
1.82518e-05
1.82318e-05
1.82055e-05
1.8181e-05
1.81596e-05
1.81374e-05
1.81163e-05
1.80862e-05
1.80584e-05
1.80333e-05
1.80089e-05
1.79801e-05
1.79493e-05
1.7922e-05
1.78967e-05
1.78698e-05
1.78407e-05
1.78136e-05
1.77879e-05
1.77609e-05
1.77336e-05
1.77063e-05
1.76784e-05
1.76514e-05
1.76256e-05
1.75993e-05
1.75724e-05
1.75458e-05
1.75201e-05
1.74941e-05
1.74679e-05
1.74424e-05
1.74177e-05
1.73934e-05
1.73698e-05
1.73468e-05
1.73246e-05
1.7303e-05
1.72817e-05
1.72606e-05
1.72395e-05
1.72184e-05
1.71975e-05
1.71769e-05
1.71564e-05
1.71364e-05
1.71171e-05
1.70985e-05
1.70814e-05
1.89499e-05
1.8943e-05
1.89352e-05
1.89269e-05
1.89183e-05
1.89097e-05
1.89019e-05
1.88954e-05
1.88899e-05
1.88849e-05
1.88802e-05
1.88751e-05
1.88693e-05
1.88629e-05
1.8856e-05
1.8849e-05
1.88425e-05
1.88369e-05
1.88322e-05
1.88279e-05
1.88239e-05
1.88195e-05
1.88147e-05
1.88093e-05
1.88032e-05
1.87967e-05
1.87905e-05
1.87849e-05
1.87801e-05
1.87762e-05
1.87729e-05
1.87698e-05
1.87669e-05
1.87634e-05
1.8759e-05
1.87545e-05
1.87485e-05
1.87409e-05
1.87337e-05
1.8726e-05
1.87166e-05
1.8708e-05
1.86996e-05
1.86896e-05
1.868e-05
1.86707e-05
1.86593e-05
1.86477e-05
1.86369e-05
1.86229e-05
1.86085e-05
1.85952e-05
1.8579e-05
1.85611e-05
1.85446e-05
1.85273e-05
1.85059e-05
1.8486e-05
1.84679e-05
1.84447e-05
1.84216e-05
1.84003e-05
1.83806e-05
1.83545e-05
1.83299e-05
1.83085e-05
1.82869e-05
1.82638e-05
1.82332e-05
1.82068e-05
1.81823e-05
1.8158e-05
1.81279e-05
1.80959e-05
1.80681e-05
1.80422e-05
1.80153e-05
1.7985e-05
1.79567e-05
1.79297e-05
1.79025e-05
1.7875e-05
1.78455e-05
1.78157e-05
1.77874e-05
1.77601e-05
1.77327e-05
1.77041e-05
1.76759e-05
1.76483e-05
1.76207e-05
1.75933e-05
1.75662e-05
1.75399e-05
1.75141e-05
1.74891e-05
1.74647e-05
1.7441e-05
1.74178e-05
1.7395e-05
1.73725e-05
1.73502e-05
1.73279e-05
1.73059e-05
1.72841e-05
1.72624e-05
1.72411e-05
1.72205e-05
1.72006e-05
1.71816e-05
1.90282e-05
1.90231e-05
1.90177e-05
1.9012e-05
1.90058e-05
1.89992e-05
1.89925e-05
1.89863e-05
1.8981e-05
1.89765e-05
1.89726e-05
1.89691e-05
1.89655e-05
1.89615e-05
1.8957e-05
1.89521e-05
1.89471e-05
1.89422e-05
1.89377e-05
1.89338e-05
1.89304e-05
1.89272e-05
1.8924e-05
1.89205e-05
1.89166e-05
1.89121e-05
1.89071e-05
1.89021e-05
1.88972e-05
1.88927e-05
1.88888e-05
1.88851e-05
1.88821e-05
1.88791e-05
1.88755e-05
1.8872e-05
1.8868e-05
1.88621e-05
1.88562e-05
1.88502e-05
1.88416e-05
1.88332e-05
1.88254e-05
1.88154e-05
1.88053e-05
1.87962e-05
1.87851e-05
1.87731e-05
1.87625e-05
1.87498e-05
1.87354e-05
1.87223e-05
1.87081e-05
1.86906e-05
1.86743e-05
1.86587e-05
1.86383e-05
1.86187e-05
1.86011e-05
1.85794e-05
1.85564e-05
1.85354e-05
1.85158e-05
1.84902e-05
1.84658e-05
1.84442e-05
1.84232e-05
1.83977e-05
1.83677e-05
1.83425e-05
1.83183e-05
1.82939e-05
1.82625e-05
1.82301e-05
1.82021e-05
1.81756e-05
1.81485e-05
1.81173e-05
1.80882e-05
1.80607e-05
1.80331e-05
1.80054e-05
1.79736e-05
1.79427e-05
1.79137e-05
1.78854e-05
1.7857e-05
1.7828e-05
1.7799e-05
1.77702e-05
1.77417e-05
1.77136e-05
1.76859e-05
1.76588e-05
1.76324e-05
1.76066e-05
1.75815e-05
1.75569e-05
1.75329e-05
1.75092e-05
1.74858e-05
1.74625e-05
1.74395e-05
1.74165e-05
1.73938e-05
1.73711e-05
1.73488e-05
1.73269e-05
1.73056e-05
1.72849e-05
1.91165e-05
1.91122e-05
1.91083e-05
1.91044e-05
1.91004e-05
1.90961e-05
1.90914e-05
1.90867e-05
1.90822e-05
1.90783e-05
1.90749e-05
1.90721e-05
1.90696e-05
1.90672e-05
1.90647e-05
1.90619e-05
1.90588e-05
1.90554e-05
1.90521e-05
1.90489e-05
1.9046e-05
1.90434e-05
1.90411e-05
1.90387e-05
1.90362e-05
1.90333e-05
1.90299e-05
1.90261e-05
1.9022e-05
1.90177e-05
1.90136e-05
1.90094e-05
1.90057e-05
1.90022e-05
1.89983e-05
1.89946e-05
1.89911e-05
1.8986e-05
1.89807e-05
1.89756e-05
1.89682e-05
1.89601e-05
1.89528e-05
1.89433e-05
1.89327e-05
1.89232e-05
1.89124e-05
1.88996e-05
1.88881e-05
1.8876e-05
1.88611e-05
1.88471e-05
1.88337e-05
1.88164e-05
1.87995e-05
1.87841e-05
1.87648e-05
1.87449e-05
1.87269e-05
1.87066e-05
1.86836e-05
1.86624e-05
1.86427e-05
1.86177e-05
1.85932e-05
1.8571e-05
1.85501e-05
1.85234e-05
1.84944e-05
1.84698e-05
1.84454e-05
1.84207e-05
1.83882e-05
1.83561e-05
1.83283e-05
1.83013e-05
1.82737e-05
1.82414e-05
1.8212e-05
1.81845e-05
1.81566e-05
1.81283e-05
1.80946e-05
1.80629e-05
1.80336e-05
1.80048e-05
1.7976e-05
1.79469e-05
1.79176e-05
1.78885e-05
1.78597e-05
1.78313e-05
1.78035e-05
1.77763e-05
1.77496e-05
1.77237e-05
1.76982e-05
1.76731e-05
1.76486e-05
1.76245e-05
1.76005e-05
1.75765e-05
1.75527e-05
1.75289e-05
1.75053e-05
1.74817e-05
1.74584e-05
1.74354e-05
1.74128e-05
1.73908e-05
1.92187e-05
1.92144e-05
1.92107e-05
1.92076e-05
1.92048e-05
1.92023e-05
1.91998e-05
1.91972e-05
1.91944e-05
1.91916e-05
1.91889e-05
1.91865e-05
1.91845e-05
1.91829e-05
1.91817e-05
1.91805e-05
1.91794e-05
1.9178e-05
1.91765e-05
1.91747e-05
1.91728e-05
1.91709e-05
1.9169e-05
1.91673e-05
1.91657e-05
1.9164e-05
1.91621e-05
1.916e-05
1.91573e-05
1.91543e-05
1.91507e-05
1.91469e-05
1.91427e-05
1.91386e-05
1.91345e-05
1.91299e-05
1.91256e-05
1.91214e-05
1.91162e-05
1.91106e-05
1.91055e-05
1.90987e-05
1.90906e-05
1.90833e-05
1.90744e-05
1.90635e-05
1.90536e-05
1.90429e-05
1.90295e-05
1.90169e-05
1.90047e-05
1.89893e-05
1.8974e-05
1.89601e-05
1.8943e-05
1.8925e-05
1.89087e-05
1.88902e-05
1.88695e-05
1.88504e-05
1.8831e-05
1.88079e-05
1.87858e-05
1.87656e-05
1.87413e-05
1.87163e-05
1.86933e-05
1.86719e-05
1.86448e-05
1.86165e-05
1.8592e-05
1.85672e-05
1.8542e-05
1.85087e-05
1.84775e-05
1.84499e-05
1.84227e-05
1.83941e-05
1.83608e-05
1.83311e-05
1.83036e-05
1.82756e-05
1.82467e-05
1.82118e-05
1.81798e-05
1.81504e-05
1.81216e-05
1.80927e-05
1.80636e-05
1.80344e-05
1.80054e-05
1.79767e-05
1.79485e-05
1.79208e-05
1.78937e-05
1.78671e-05
1.78411e-05
1.78156e-05
1.77903e-05
1.77654e-05
1.77407e-05
1.77161e-05
1.76915e-05
1.76669e-05
1.76423e-05
1.76178e-05
1.75933e-05
1.75691e-05
1.75451e-05
1.75215e-05
1.74985e-05
1.93229e-05
1.932e-05
1.93174e-05
1.93153e-05
1.93136e-05
1.93124e-05
1.93113e-05
1.93104e-05
1.93094e-05
1.93085e-05
1.93075e-05
1.93066e-05
1.93059e-05
1.93054e-05
1.93052e-05
1.93053e-05
1.93054e-05
1.93055e-05
1.93055e-05
1.93053e-05
1.93049e-05
1.93043e-05
1.93035e-05
1.93026e-05
1.93016e-05
1.93006e-05
1.92994e-05
1.9298e-05
1.92962e-05
1.9294e-05
1.92912e-05
1.92879e-05
1.92841e-05
1.928e-05
1.92754e-05
1.92704e-05
1.92654e-05
1.92602e-05
1.92543e-05
1.92479e-05
1.9242e-05
1.92348e-05
1.92262e-05
1.92185e-05
1.92095e-05
1.91983e-05
1.91878e-05
1.91769e-05
1.91632e-05
1.91495e-05
1.91366e-05
1.91211e-05
1.91043e-05
1.90892e-05
1.90723e-05
1.90529e-05
1.90351e-05
1.90169e-05
1.89955e-05
1.89747e-05
1.89552e-05
1.89322e-05
1.89089e-05
1.88875e-05
1.88638e-05
1.88381e-05
1.8814e-05
1.87917e-05
1.87645e-05
1.87363e-05
1.87114e-05
1.86863e-05
1.86601e-05
1.86265e-05
1.85964e-05
1.85691e-05
1.85418e-05
1.85117e-05
1.84775e-05
1.84476e-05
1.84199e-05
1.83915e-05
1.83628e-05
1.8328e-05
1.8296e-05
1.82665e-05
1.82376e-05
1.82088e-05
1.81798e-05
1.81509e-05
1.81222e-05
1.80938e-05
1.80658e-05
1.80382e-05
1.80114e-05
1.79849e-05
1.79588e-05
1.79331e-05
1.79075e-05
1.78821e-05
1.78568e-05
1.78315e-05
1.78062e-05
1.77808e-05
1.77554e-05
1.773e-05
1.77047e-05
1.76797e-05
1.7655e-05
1.76307e-05
1.7607e-05
1.7584e-05
1.75616e-05
1.94336e-05
1.94325e-05
1.94316e-05
1.94309e-05
1.94305e-05
1.94306e-05
1.94309e-05
1.94314e-05
1.94322e-05
1.9433e-05
1.94338e-05
1.94346e-05
1.94355e-05
1.94364e-05
1.94375e-05
1.94387e-05
1.944e-05
1.94414e-05
1.94427e-05
1.94439e-05
1.94448e-05
1.94455e-05
1.94459e-05
1.94459e-05
1.94458e-05
1.94454e-05
1.94447e-05
1.94438e-05
1.94425e-05
1.94408e-05
1.94385e-05
1.94357e-05
1.94322e-05
1.94281e-05
1.94235e-05
1.94182e-05
1.94125e-05
1.94064e-05
1.93996e-05
1.93924e-05
1.93851e-05
1.93769e-05
1.93675e-05
1.93588e-05
1.9349e-05
1.93371e-05
1.93256e-05
1.9314e-05
1.93e-05
1.9285e-05
1.92712e-05
1.92554e-05
1.92374e-05
1.92208e-05
1.92035e-05
1.91833e-05
1.91635e-05
1.91448e-05
1.91232e-05
1.91006e-05
1.90798e-05
1.90572e-05
1.90325e-05
1.90092e-05
1.8986e-05
1.89597e-05
1.89341e-05
1.89104e-05
1.88835e-05
1.88548e-05
1.88289e-05
1.88034e-05
1.87764e-05
1.87429e-05
1.87134e-05
1.8686e-05
1.86589e-05
1.8627e-05
1.85926e-05
1.85626e-05
1.85342e-05
1.85053e-05
1.8476e-05
1.84438e-05
1.84123e-05
1.83823e-05
1.83531e-05
1.83242e-05
1.82954e-05
1.82667e-05
1.82381e-05
1.82099e-05
1.81822e-05
1.81549e-05
1.8128e-05
1.81014e-05
1.8075e-05
1.80488e-05
1.80228e-05
1.79968e-05
1.79707e-05
1.79447e-05
1.79185e-05
1.78924e-05
1.78662e-05
1.78401e-05
1.78142e-05
1.77885e-05
1.77633e-05
1.77386e-05
1.77144e-05
1.76909e-05
1.7668e-05
1.95505e-05
1.95507e-05
1.95511e-05
1.95518e-05
1.95526e-05
1.95536e-05
1.95549e-05
1.95564e-05
1.95582e-05
1.95603e-05
1.95625e-05
1.9565e-05
1.95675e-05
1.957e-05
1.95725e-05
1.9575e-05
1.95775e-05
1.958e-05
1.95825e-05
1.9585e-05
1.95875e-05
1.95898e-05
1.95918e-05
1.95936e-05
1.95951e-05
1.95961e-05
1.95967e-05
1.95969e-05
1.95967e-05
1.95961e-05
1.95951e-05
1.95935e-05
1.95915e-05
1.95888e-05
1.95854e-05
1.95813e-05
1.95765e-05
1.95709e-05
1.95647e-05
1.95578e-05
1.95501e-05
1.95419e-05
1.95333e-05
1.95238e-05
1.95133e-05
1.95031e-05
1.94919e-05
1.9479e-05
1.94661e-05
1.94533e-05
1.94384e-05
1.94221e-05
1.9407e-05
1.93905e-05
1.93714e-05
1.9353e-05
1.9335e-05
1.93143e-05
1.92925e-05
1.92724e-05
1.92507e-05
1.92266e-05
1.92037e-05
1.91812e-05
1.91557e-05
1.91302e-05
1.91063e-05
1.90802e-05
1.90529e-05
1.9027e-05
1.90007e-05
1.89715e-05
1.8944e-05
1.89174e-05
1.88901e-05
1.88573e-05
1.88275e-05
1.87993e-05
1.8772e-05
1.87394e-05
1.87059e-05
1.86754e-05
1.86462e-05
1.86169e-05
1.85871e-05
1.85565e-05
1.85256e-05
1.84955e-05
1.84661e-05
1.8437e-05
1.84081e-05
1.83793e-05
1.83508e-05
1.83228e-05
1.82951e-05
1.82677e-05
1.82405e-05
1.82136e-05
1.81868e-05
1.816e-05
1.81333e-05
1.81066e-05
1.80798e-05
1.80529e-05
1.80261e-05
1.79992e-05
1.79724e-05
1.79457e-05
1.79193e-05
1.78933e-05
1.78677e-05
1.78426e-05
1.7818e-05
1.7794e-05
1.77705e-05
1.96713e-05
1.96731e-05
1.96752e-05
1.96776e-05
1.96802e-05
1.9683e-05
1.9686e-05
1.96892e-05
1.96926e-05
1.96962e-05
1.97e-05
1.9704e-05
1.97081e-05
1.97122e-05
1.97162e-05
1.97202e-05
1.97241e-05
1.9728e-05
1.97317e-05
1.97352e-05
1.97386e-05
1.97419e-05
1.97448e-05
1.97474e-05
1.97496e-05
1.97514e-05
1.97527e-05
1.97534e-05
1.97534e-05
1.9753e-05
1.9752e-05
1.97505e-05
1.97483e-05
1.97454e-05
1.97418e-05
1.97374e-05
1.97322e-05
1.97261e-05
1.97193e-05
1.97116e-05
1.9703e-05
1.96937e-05
1.96837e-05
1.96728e-05
1.96611e-05
1.96491e-05
1.96362e-05
1.9622e-05
1.96075e-05
1.95929e-05
1.95766e-05
1.95588e-05
1.9542e-05
1.95242e-05
1.9504e-05
1.94835e-05
1.94642e-05
1.94427e-05
1.94193e-05
1.93971e-05
1.93749e-05
1.935e-05
1.93247e-05
1.93011e-05
1.92756e-05
1.92482e-05
1.92221e-05
1.91965e-05
1.9168e-05
1.91398e-05
1.91127e-05
1.90839e-05
1.90546e-05
1.90263e-05
1.89983e-05
1.89672e-05
1.89366e-05
1.89069e-05
1.88778e-05
1.88469e-05
1.88147e-05
1.87835e-05
1.87534e-05
1.87235e-05
1.86934e-05
1.86631e-05
1.86327e-05
1.86026e-05
1.85729e-05
1.85436e-05
1.85144e-05
1.84856e-05
1.84571e-05
1.84289e-05
1.8401e-05
1.83732e-05
1.83456e-05
1.83181e-05
1.82907e-05
1.82632e-05
1.82358e-05
1.82084e-05
1.81809e-05
1.81533e-05
1.81258e-05
1.80984e-05
1.80711e-05
1.80441e-05
1.80173e-05
1.7991e-05
1.7965e-05
1.79395e-05
1.79145e-05
1.78898e-05
1.78655e-05
1.78414e-05
1.97836e-05
1.97847e-05
1.97862e-05
1.9788e-05
1.97901e-05
1.97925e-05
1.97952e-05
1.97983e-05
1.98018e-05
1.98056e-05
1.98096e-05
1.98139e-05
1.98185e-05
1.98232e-05
1.98281e-05
1.98331e-05
1.98383e-05
1.98437e-05
1.98491e-05
1.98546e-05
1.98601e-05
1.98655e-05
1.98709e-05
1.9876e-05
1.9881e-05
1.98858e-05
1.98903e-05
1.98945e-05
1.98985e-05
1.9902e-05
1.99052e-05
1.99079e-05
1.99101e-05
1.99117e-05
1.99126e-05
1.99126e-05
1.99122e-05
1.99111e-05
1.99092e-05
1.99066e-05
1.99032e-05
1.9899e-05
1.9894e-05
1.9888e-05
1.98812e-05
1.98734e-05
1.98647e-05
1.98551e-05
1.98445e-05
1.98331e-05
1.98208e-05
1.98075e-05
1.97937e-05
1.97789e-05
1.97631e-05
1.97467e-05
1.973e-05
1.97119e-05
1.96925e-05
1.96735e-05
1.96539e-05
1.96324e-05
1.96097e-05
1.95884e-05
1.95658e-05
1.9541e-05
1.95163e-05
1.94929e-05
1.94672e-05
1.94399e-05
1.9414e-05
1.93883e-05
1.93598e-05
1.93313e-05
1.93043e-05
1.92759e-05
1.92457e-05
1.92167e-05
1.91879e-05
1.91579e-05
1.91279e-05
1.90983e-05
1.90681e-05
1.90372e-05
1.90064e-05
1.89759e-05
1.89452e-05
1.89138e-05
1.88824e-05
1.88516e-05
1.88211e-05
1.87907e-05
1.87603e-05
1.87299e-05
1.86997e-05
1.86697e-05
1.864e-05
1.86107e-05
1.85817e-05
1.85529e-05
1.85244e-05
1.8496e-05
1.84677e-05
1.84396e-05
1.84115e-05
1.83834e-05
1.83553e-05
1.83272e-05
1.82991e-05
1.8271e-05
1.8243e-05
1.8215e-05
1.81871e-05
1.81595e-05
1.81321e-05
1.8105e-05
1.80783e-05
1.80519e-05
1.80258e-05
1.80001e-05
1.79745e-05
1.79491e-05
1.79237e-05
1.99043e-05
1.9907e-05
1.99101e-05
1.99136e-05
1.99175e-05
1.99216e-05
1.99261e-05
1.99309e-05
1.9936e-05
1.99415e-05
1.99472e-05
1.99531e-05
1.99593e-05
1.99657e-05
1.99722e-05
1.99788e-05
1.99855e-05
1.99922e-05
1.9999e-05
2.00057e-05
2.00124e-05
2.0019e-05
2.00255e-05
2.00316e-05
2.00376e-05
2.00431e-05
2.00484e-05
2.00532e-05
2.00576e-05
2.00615e-05
2.00649e-05
2.00677e-05
2.00699e-05
2.00714e-05
2.00721e-05
2.0072e-05
2.00712e-05
2.00696e-05
2.00671e-05
2.00638e-05
2.00595e-05
2.00544e-05
2.00483e-05
2.00412e-05
2.00332e-05
2.00242e-05
2.00142e-05
2.00031e-05
1.99911e-05
1.99781e-05
1.99641e-05
1.99491e-05
1.99334e-05
1.99166e-05
1.98988e-05
1.98804e-05
1.98614e-05
1.98413e-05
1.98199e-05
1.97985e-05
1.97767e-05
1.97534e-05
1.97287e-05
1.97048e-05
1.96806e-05
1.96543e-05
1.96271e-05
1.96015e-05
1.95749e-05
1.9546e-05
1.95174e-05
1.94903e-05
1.94612e-05
1.94305e-05
1.94012e-05
1.93725e-05
1.93412e-05
1.93101e-05
1.928e-05
1.92496e-05
1.92185e-05
1.91876e-05
1.91567e-05
1.91254e-05
1.9094e-05
1.90627e-05
1.90314e-05
1.89999e-05
1.89684e-05
1.89371e-05
1.89061e-05
1.88753e-05
1.88446e-05
1.88139e-05
1.87833e-05
1.87531e-05
1.87232e-05
1.86936e-05
1.86642e-05
1.8635e-05
1.8606e-05
1.85771e-05
1.85483e-05
1.85196e-05
1.84909e-05
1.84622e-05
1.84336e-05
1.8405e-05
1.83763e-05
1.83478e-05
1.83193e-05
1.82909e-05
1.82627e-05
1.82347e-05
1.82069e-05
1.81794e-05
1.81521e-05
1.8125e-05
1.80981e-05
1.80713e-05
1.80446e-05
1.80178e-05
1.79909e-05
2.00298e-05
2.00342e-05
2.00389e-05
2.00441e-05
2.00496e-05
2.00555e-05
2.00617e-05
2.00682e-05
2.00749e-05
2.0082e-05
2.00893e-05
2.00968e-05
2.01045e-05
2.01123e-05
2.01203e-05
2.01282e-05
2.01362e-05
2.01442e-05
2.01521e-05
2.01599e-05
2.01676e-05
2.0175e-05
2.01822e-05
2.01891e-05
2.01956e-05
2.02017e-05
2.02073e-05
2.02124e-05
2.02169e-05
2.02208e-05
2.02241e-05
2.02266e-05
2.02285e-05
2.02295e-05
2.02295e-05
2.02289e-05
2.02273e-05
2.02249e-05
2.02214e-05
2.02169e-05
2.02115e-05
2.0205e-05
2.01975e-05
2.01889e-05
2.01793e-05
2.01686e-05
2.01569e-05
2.01441e-05
2.01303e-05
2.01154e-05
2.00994e-05
2.00825e-05
2.00646e-05
2.00457e-05
2.00257e-05
2.0005e-05
1.99836e-05
1.99611e-05
1.99376e-05
1.99137e-05
1.98894e-05
1.98639e-05
1.98371e-05
1.98104e-05
1.97841e-05
1.9756e-05
1.97265e-05
1.96981e-05
1.96701e-05
1.96397e-05
1.96085e-05
1.9579e-05
1.95492e-05
1.95169e-05
1.9485e-05
1.94546e-05
1.94229e-05
1.93901e-05
1.93582e-05
1.93267e-05
1.92948e-05
1.92627e-05
1.92308e-05
1.91988e-05
1.91667e-05
1.91346e-05
1.91027e-05
1.90707e-05
1.90389e-05
1.90072e-05
1.89757e-05
1.89443e-05
1.89132e-05
1.8882e-05
1.88512e-05
1.88207e-05
1.87905e-05
1.87605e-05
1.87307e-05
1.87011e-05
1.86716e-05
1.86422e-05
1.86129e-05
1.85837e-05
1.85545e-05
1.85254e-05
1.84963e-05
1.84672e-05
1.84382e-05
1.84093e-05
1.83804e-05
1.83516e-05
1.8323e-05
1.82945e-05
1.82661e-05
1.82379e-05
1.82098e-05
1.81818e-05
1.81537e-05
1.81256e-05
1.80974e-05
1.8069e-05
1.80404e-05
2.01594e-05
2.01654e-05
2.01719e-05
2.01787e-05
2.01859e-05
2.01933e-05
2.02011e-05
2.02092e-05
2.02175e-05
2.0226e-05
2.02348e-05
2.02437e-05
2.02527e-05
2.02618e-05
2.02709e-05
2.028e-05
2.02891e-05
2.0298e-05
2.03068e-05
2.03153e-05
2.03236e-05
2.03316e-05
2.03392e-05
2.03464e-05
2.03531e-05
2.03593e-05
2.03649e-05
2.03698e-05
2.03741e-05
2.03776e-05
2.03803e-05
2.03822e-05
2.03832e-05
2.03832e-05
2.03824e-05
2.03807e-05
2.03779e-05
2.03741e-05
2.03692e-05
2.03632e-05
2.03561e-05
2.03479e-05
2.03386e-05
2.03281e-05
2.03165e-05
2.03038e-05
2.029e-05
2.02751e-05
2.02591e-05
2.02419e-05
2.02237e-05
2.02044e-05
2.01842e-05
2.01628e-05
2.01405e-05
2.01173e-05
2.00933e-05
2.00684e-05
2.00424e-05
2.00158e-05
1.99889e-05
1.9961e-05
1.99319e-05
1.99023e-05
1.98735e-05
1.98434e-05
1.98117e-05
1.97803e-05
1.97502e-05
1.97183e-05
1.96848e-05
1.96525e-05
1.96212e-05
1.95878e-05
1.95535e-05
1.95207e-05
1.94883e-05
1.94543e-05
1.94207e-05
1.93876e-05
1.93546e-05
1.93215e-05
1.92884e-05
1.92555e-05
1.92226e-05
1.91898e-05
1.91572e-05
1.91247e-05
1.90924e-05
1.90602e-05
1.90282e-05
1.89964e-05
1.89646e-05
1.89332e-05
1.89021e-05
1.88714e-05
1.88408e-05
1.88105e-05
1.87803e-05
1.87502e-05
1.87203e-05
1.86905e-05
1.86608e-05
1.86312e-05
1.86016e-05
1.85721e-05
1.85426e-05
1.85132e-05
1.84838e-05
1.84545e-05
1.84252e-05
1.83959e-05
1.83667e-05
1.83376e-05
1.83084e-05
1.82792e-05
1.825e-05
1.82207e-05
1.81912e-05
1.81616e-05
1.81317e-05
1.81016e-05
1.80712e-05
1.80405e-05
1.80095e-05
2.02924e-05
2.03001e-05
2.03081e-05
2.03165e-05
2.03251e-05
2.03341e-05
2.03433e-05
2.03528e-05
2.03625e-05
2.03723e-05
2.03823e-05
2.03923e-05
2.04024e-05
2.04125e-05
2.04225e-05
2.04324e-05
2.04422e-05
2.04517e-05
2.0461e-05
2.04699e-05
2.04785e-05
2.04866e-05
2.04943e-05
2.05013e-05
2.05078e-05
2.05137e-05
2.05188e-05
2.05231e-05
2.05266e-05
2.05293e-05
2.0531e-05
2.05317e-05
2.05314e-05
2.05303e-05
2.0528e-05
2.05247e-05
2.05202e-05
2.05146e-05
2.05078e-05
2.04999e-05
2.04908e-05
2.04804e-05
2.04689e-05
2.04561e-05
2.04422e-05
2.04271e-05
2.04108e-05
2.03933e-05
2.03748e-05
2.0355e-05
2.03342e-05
2.03123e-05
2.02894e-05
2.02654e-05
2.02404e-05
2.02145e-05
2.01878e-05
2.01601e-05
2.01315e-05
2.01022e-05
2.00724e-05
2.0042e-05
2.00105e-05
1.99781e-05
1.99466e-05
1.99142e-05
1.98803e-05
1.9846e-05
1.98134e-05
1.97798e-05
1.97443e-05
1.97092e-05
1.96759e-05
1.96412e-05
1.96051e-05
1.957e-05
1.95359e-05
1.95011e-05
1.94659e-05
1.94313e-05
1.9397e-05
1.93628e-05
1.93287e-05
1.92948e-05
1.92611e-05
1.92276e-05
1.91943e-05
1.91612e-05
1.91284e-05
1.90958e-05
1.90633e-05
1.9031e-05
1.89988e-05
1.89672e-05
1.8936e-05
1.89049e-05
1.88741e-05
1.88434e-05
1.8813e-05
1.87826e-05
1.87524e-05
1.87223e-05
1.86923e-05
1.86624e-05
1.86325e-05
1.86026e-05
1.85728e-05
1.8543e-05
1.85132e-05
1.84834e-05
1.84536e-05
1.84237e-05
1.83938e-05
1.83638e-05
1.83337e-05
1.83034e-05
1.82728e-05
1.82421e-05
1.8211e-05
1.81797e-05
1.81481e-05
1.81162e-05
1.8084e-05
1.80516e-05
1.80189e-05
2.0428e-05
2.04371e-05
2.04466e-05
2.04563e-05
2.04663e-05
2.04766e-05
2.04871e-05
2.04977e-05
2.05085e-05
2.05193e-05
2.05302e-05
2.05411e-05
2.0552e-05
2.05627e-05
2.05733e-05
2.05836e-05
2.05937e-05
2.06034e-05
2.06128e-05
2.06217e-05
2.06301e-05
2.06379e-05
2.06451e-05
2.06517e-05
2.06575e-05
2.06625e-05
2.06666e-05
2.06699e-05
2.06722e-05
2.06735e-05
2.06736e-05
2.06729e-05
2.0671e-05
2.0668e-05
2.06638e-05
2.06584e-05
2.06518e-05
2.0644e-05
2.06349e-05
2.06246e-05
2.0613e-05
2.06001e-05
2.05859e-05
2.05705e-05
2.05539e-05
2.0536e-05
2.05169e-05
2.04965e-05
2.04751e-05
2.04524e-05
2.04287e-05
2.04039e-05
2.0378e-05
2.03511e-05
2.03232e-05
2.02944e-05
2.02647e-05
2.02342e-05
2.02028e-05
2.01706e-05
2.0138e-05
2.01048e-05
2.00707e-05
2.00357e-05
2.00014e-05
1.99667e-05
1.99305e-05
1.98935e-05
1.98583e-05
1.98227e-05
1.97853e-05
1.97478e-05
1.97122e-05
1.96762e-05
1.96386e-05
1.96016e-05
1.95656e-05