/*--------------------------------*- C++ -*----------------------------------*\
| =========                 |                                                 |
| \\      /  F ield         | OpenFOAM: The Open Source CFD Toolbox           |
|  \\    /   O peration     | Version:  v1706                                 |
|   \\  /    A nd           | Web:      www.OpenFOAM.com                      |
|    \\/     M anipulation  |                                                 |
\*---------------------------------------------------------------------------*/
FoamFile
{
    version     2.0;
    format      ascii;
    class       volScalarField;
    location    "3.3e-05";
    object      rho;
}
// * * * * * * * * * * * * * * * * * * * * * * * * * * * * * * * * * * * * * //

dimensions      [1 -3 0 0 0 0 0];


internalField   nonuniform List<scalar> 
29871
(
0.000520596
0.000521895
0.000523442
0.000525227
0.000527235
0.000529419
0.000531805
0.000534355
0.000536968
0.000539528
0.000541953
0.000544225
0.000546395
0.000548568
0.000550859
0.000553356
0.000556101
0.000559098
0.000562323
0.00056575
0.000569298
0.000573269
0.000579108
0.000587036
0.00059684
0.000608162
0.000620633
0.000633921
0.000647739
0.000661839
0.000676
0.000690029
0.000703772
0.000717102
0.00072992
0.000742148
0.000753721
0.000764587
0.000774705
0.000784039
0.000792566
0.000800268
0.00080714
0.000813186
0.000818419
0.000822857
0.000826547
0.000829521
0.000831799
0.000833499
0.00083451
0.000835077
0.000835019
0.000834466
0.00083336
0.000831702
0.000829754
0.000827572
0.000825091
0.000822462
0.000819706
0.000816682
0.000813381
0.000809891
0.000806161
0.000802105
0.000797708
0.000792979
0.000787926
0.000782553
0.000776858
0.000770833
0.000764467
0.000757749
0.000750671
0.000743223
0.000735393
0.000727167
0.000718529
0.000709464
0.000699957
0.000689994
0.000679557
0.000668622
0.000657174
0.000645233
0.000632894
0.000620282
0.000607493
0.000594588
0.000581746
0.000570177
0.000562484
0.000557779
0.000554116
0.000550725
0.00054744
0.000544276
0.000541268
0.000538454
0.000535879
0.000533486
0.000531146
0.000529127
0.000527836
0.000566039
0.000571948
0.000578342
0.000585384
0.000593194
0.000601955
0.00061151
0.000623351
0.000638819
0.000658322
0.000681795
0.000708921
0.000739254
0.000772304
0.000807595
0.000844703
0.000883252
0.000922903
0.00096334
0.00100426
0.00104542
0.00108629
0.00112492
0.00116104
0.00119485
0.0012266
0.00125652
0.00128471
0.0013112
0.00133595
0.00135903
0.00138064
0.00140103
0.00142043
0.001439
0.00145684
0.001474
0.00149048
0.00150625
0.00152127
0.00153548
0.00154882
0.00156123
0.00157266
0.00158306
0.00159239
0.00160064
0.00160781
0.00161385
0.00161884
0.00162261
0.00162529
0.00162728
0.00162781
0.00162752
0.00162634
0.0016247
0.00162259
0.00161962
0.00161598
0.00161183
0.00160711
0.00160206
0.00159678
0.00159091
0.00158446
0.00157753
0.00157004
0.00156194
0.0015532
0.00154382
0.00153377
0.00152302
0.00151154
0.00149931
0.00148628
0.00147243
0.0014577
0.00144206
0.00142545
0.00140783
0.00138915
0.00136939
0.00134852
0.00132654
0.00130337
0.001279
0.00125368
0.00122731
0.00119973
0.00117101
0.00114095
0.00110803
0.00107245
0.0010353
0.00099706
0.000957944
0.000918135
0.000877887
0.000837586
0.000797691
0.000758589
0.000720809
0.000685188
0.000652577
0.000681929
0.000711623
0.000745951
0.000784502
0.000826806
0.000872375
0.000920731
0.000971573
0.00102301
0.00107341
0.0011222
0.00116917
0.00121424
0.00125735
0.0012984
0.00133732
0.00137399
0.0014083
0.00144013
0.00146932
0.00149578
0.00151978
0.00154177
0.00156199
0.00158061
0.00159784
0.00161383
0.00162873
0.00164262
0.00165539
0.00166662
0.00167637
0.00168477
0.00169203
0.00169838
0.00170405
0.00170917
0.00171387
0.00171824
0.00172235
0.00172626
0.00173002
0.00173367
0.00173721
0.00174065
0.00174399
0.00174721
0.00175025
0.00175314
0.00175584
0.0017582
0.00176029
0.00176215
0.00176371
0.00176464
0.00176504
0.0017651
0.00176467
0.00176452
0.0017649
0.00176295
0.00176057
0.00175984
0.00175912
0.00175636
0.00175271
0.00174948
0.00174612
0.00174231
0.0017381
0.00173361
0.00172886
0.00172384
0.00171855
0.00171298
0.00170715
0.00170106
0.00169468
0.00168801
0.00168104
0.00167377
0.00166619
0.00165827
0.00164996
0.00164116
0.00163166
0.00162096
0.00160865
0.00159471
0.00157931
0.00156269
0.00154509
0.00152645
0.00150655
0.00148531
0.00146271
0.00143869
0.00141325
0.00138644
0.00135828
0.00132856
0.00129733
0.00126442
0.00122933
0.00119133
0.0011497
0.00112617
0.00117813
0.0012278
0.00127486
0.00131908
0.00136032
0.0013985
0.0014337
0.00146578
0.0014945
0.00151976
0.00154157
0.00156034
0.00157671
0.00159139
0.00160489
0.00161757
0.00162959
0.00164096
0.00165125
0.00165988
0.00166692
0.0016727
0.00167758
0.00168181
0.00168554
0.00168895
0.00169221
0.00169559
0.00169941
0.0017039
0.00170883
0.00171391
0.00171886
0.00172344
0.00172756
0.00173118
0.00173437
0.00173719
0.00173971
0.00174198
0.00174405
0.00174598
0.00174777
0.00174945
0.00175107
0.00175261
0.00175405
0.00175543
0.00175675
0.00175796
0.00175919
0.00176046
0.00176165
0.00176228
0.00176245
0.00176247
0.00176191
0.00176169
0.00176221
0.00176007
0.00175755
0.00175683
0.00175614
0.00175332
0.00174941
0.00174601
0.00174253
0.00173858
0.00173423
0.0017296
0.00172474
0.00171959
0.00171417
0.00170848
0.00170253
0.00169631
0.00168981
0.00168301
0.00167593
0.00166858
0.00166096
0.00165309
0.00164497
0.00163656
0.00162786
0.00161939
0.00161178
0.00160451
0.00159744
0.00159074
0.00158447
0.00157857
0.00157302
0.00156778
0.0015627
0.00155759
0.00155227
0.00154638
0.00153918
0.00152991
0.00151843
0.00150479
0.00148895
0.00147103
0.001451
0.00148535
0.00151403
0.0015388
0.00155986
0.00157764
0.00159279
0.00160593
0.00161751
0.00162789
0.00163726
0.00164564
0.00165287
0.00165847
0.00166249
0.00166528
0.00166711
0.00166832
0.00166926
0.00167025
0.00167168
0.00167406
0.0016775
0.00168154
0.00168559
0.00168921
0.00169217
0.00169446
0.00169616
0.00169735
0.0016981
0.00169889
0.0017004
0.00170253
0.0017051
0.00170787
0.00171061
0.00171316
0.00171541
0.00171729
0.00171882
0.00172005
0.00172098
0.00172166
0.00172223
0.00172266
0.00172292
0.00172319
0.00172346
0.00172356
0.00172363
0.00172388
0.00172398
0.00172368
0.0017235
0.00172366
0.00172341
0.00172272
0.00172233
0.00172184
0.00172129
0.00172078
0.00171902
0.00171711
0.00171652
0.00171672
0.00171427
0.00171013
0.00170716
0.00170439
0.00170081
0.00169677
0.00169284
0.00168885
0.00168463
0.0016801
0.00167536
0.00167048
0.00166541
0.00166012
0.00165462
0.00164891
0.00164302
0.00163697
0.00163078
0.00162444
0.00161801
0.00161174
0.00160585
0.00160004
0.00159425
0.00158859
0.00158311
0.00157781
0.00157268
0.00156773
0.00156292
0.00155811
0.00155323
0.00154823
0.00154276
0.00153687
0.00153192
0.00152789
0.00152388
0.00151987
0.00151686
0.00151483
0.00164357
0.00165152
0.00165822
0.00166324
0.00166665
0.00166877
0.00166991
0.00167057
0.00167075
0.00167071
0.00167077
0.00167126
0.0016724
0.00167385
0.00167518
0.00167592
0.00167589
0.0016755
0.00167474
0.00167361
0.00167314
0.00167363
0.00167491
0.00167676
0.00167882
0.0016807
0.00168216
0.0016832
0.00168369
0.00168365
0.00168331
0.00168265
0.00168205
0.00168185
0.00168208
0.00168263
0.00168338
0.00168429
0.00168515
0.00168584
0.00168643
0.00168681
0.00168682
0.00168676
0.00168671
0.00168629
0.00168566
0.00168526
0.00168464
0.00168365
0.001683
0.00168254
0.00168131
0.00167997
0.00167939
0.00167863
0.00167689
0.00167546
0.00167483
0.00167424
0.00167257
0.00167051
0.0016688
0.00166812
0.0016688
0.00166662
0.00166224
0.00165917
0.00165706
0.00165375
0.00164946
0.00164607
0.00164302
0.00163937
0.00163519
0.00163109
0.00162706
0.00162283
0.00161833
0.00161369
0.00160896
0.00160412
0.00159924
0.00159436
0.00158947
0.00158463
0.00157999
0.00157546
0.0015709
0.00156653
0.00156264
0.00155906
0.00155561
0.0015523
0.00154907
0.00154581
0.00154242
0.0015389
0.00153522
0.00153137
0.00152754
0.00152441
0.00152175
0.00151888
0.00151598
0.00151388
0.00151234
0.00167576
0.00167588
0.0016757
0.00167568
0.0016755
0.00167549
0.00167584
0.00167662
0.00167733
0.00167733
0.001677
0.00167624
0.00167488
0.00167319
0.00167156
0.00167066
0.00167036
0.00167026
0.00167006
0.00166955
0.00166868
0.00166742
0.00166584
0.00166402
0.00166219
0.0016608
0.00166001
0.00166
0.00166026
0.00166071
0.00166117
0.0016614
0.00166134
0.00166091
0.00166015
0.00165917
0.00165794
0.00165689
0.00165609
0.00165537
0.00165496
0.00165477
0.00165448
0.00165424
0.00165413
0.00165368
0.00165297
0.00165258
0.00165183
0.00165049
0.00164958
0.00164874
0.00164694
0.00164538
0.00164464
0.0016429
0.00164049
0.00163919
0.00163841
0.00163579
0.00163314
0.00163205
0.00163175
0.00162915
0.00162616
0.00162422
0.00162355
0.0016243
0.00162177
0.00161724
0.00161426
0.00161267
0.00160972
0.00160533
0.00160199
0.00159974
0.00159664
0.00159251
0.00158913
0.00158613
0.00158253
0.00157864
0.00157481
0.00157087
0.0015669
0.00156307
0.00155932
0.00155548
0.00155163
0.00154797
0.0015444
0.00154058
0.00153704
0.00153431
0.00153156
0.00152877
0.00152625
0.00152386
0.00152146
0.00151903
0.00151655
0.00151404
0.00151163
0.00150944
0.00150761
0.00150613
0.00150486
0.00150383
0.00150307
0.00150262
0.00168289
0.00168227
0.00168102
0.00167977
0.00167815
0.00167621
0.0016746
0.00167377
0.00167319
0.00167245
0.00167162
0.00167042
0.00166877
0.00166681
0.00166469
0.00166244
0.00166038
0.00165869
0.00165734
0.00165612
0.00165492
0.00165347
0.00165191
0.00165006
0.00164794
0.00164574
0.00164375
0.00164218
0.001641
0.00164017
0.00163958
0.00163911
0.00163872
0.00163804
0.00163716
0.00163635
0.00163491
0.00163322
0.00163189
0.00163032
0.00162867
0.00162753
0.00162633
0.00162496
0.00162411
0.00162316
0.00162166
0.0016207
0.00161986
0.00161795
0.00161641
0.00161566
0.00161353
0.00161113
0.00161017
0.00160847
0.00160531
0.00160333
0.00160264
0.00159968
0.00159621
0.00159463
0.00159433
0.00159126
0.00158749
0.00158527
0.00158474
0.00158512
0.00158169
0.00157719
0.00157451
0.00157337
0.00157073
0.00156621
0.00156278
0.00156092
0.00155842
0.00155449
0.00155125
0.00154886
0.00154591
0.00154279
0.00153962
0.00153591
0.00153244
0.00152961
0.00152671
0.00152337
0.00152001
0.0015172
0.00151437
0.00151134
0.00150863
0.00150632
0.00150417
0.00150212
0.00150022
0.00149849
0.00149687
0.00149531
0.00149378
0.00149232
0.00149096
0.00148977
0.00148881
0.00148808
0.00148763
0.00148742
0.00148738
0.00148752
0.00167807
0.00167686
0.0016753
0.00167356
0.00167161
0.00166943
0.001667
0.0016647
0.00166276
0.00166106
0.00165965
0.00165825
0.00165664
0.00165485
0.00165285
0.00165063
0.0016483
0.00164604
0.00164398
0.00164207
0.00164037
0.00163866
0.00163691
0.00163507
0.00163297
0.00163066
0.00162825
0.00162587
0.00162365
0.0016217
0.00161999
0.00161843
0.0016172
0.00161593
0.00161447
0.00161343
0.00161199
0.00160988
0.00160833
0.00160666
0.00160415
0.00160223
0.00160064
0.00159828
0.00159643
0.00159511
0.00159288
0.00159096
0.00158995
0.00158773
0.00158537
0.0015844
0.00158239
0.00157936
0.0015779
0.00157649
0.00157302
0.00157047
0.00156965
0.00156676
0.00156292
0.001561
0.00156043
0.00155713
0.00155301
0.0015507
0.00155044
0.00154998
0.00154562
0.00154143
0.00153915
0.00153844
0.00153588
0.00153121
0.00152774
0.00152598
0.00152407
0.00152035
0.00151703
0.0015146
0.00151246
0.00151048
0.00150751
0.00150393
0.00150085
0.00149844
0.00149614
0.00149324
0.00149046
0.00148803
0.00148575
0.00148352
0.00148145
0.0014796
0.00147797
0.00147654
0.00147527
0.00147417
0.00147322
0.0014724
0.00147169
0.00147107
0.00147053
0.00147014
0.00146995
0.00146991
0.00147001
0.00147033
0.00147086
0.00147157
0.00166652
0.00166483
0.00166321
0.00166154
0.00165973
0.00165776
0.00165557
0.00165325
0.00165099
0.00164888
0.00164698
0.00164521
0.00164348
0.00164169
0.00163978
0.00163768
0.0016354
0.00163301
0.00163058
0.0016282
0.00162592
0.00162372
0.00162155
0.0016194
0.00161716
0.00161476
0.0016122
0.00160952
0.00160677
0.00160412
0.00160158
0.00159904
0.00159689
0.00159492
0.00159264
0.00159085
0.0015892
0.00158672
0.00158472
0.00158308
0.00158025
0.00157769
0.00157592
0.00157313
0.00157032
0.0015686
0.00156603
0.00156313
0.00156155
0.00155931
0.00155619
0.00155453
0.00155274
0.00154936
0.00154716
0.00154585
0.00154248
0.00153943
0.00153828
0.00153563
0.00153168
0.00152947
0.00152863
0.00152525
0.00152107
0.00151882
0.0015187
0.00151721
0.0015124
0.00150865
0.00150679
0.0015064
0.00150367
0.00149892
0.00149554
0.00149388
0.00149231
0.00148873
0.00148538
0.00148299
0.00148144
0.00148028
0.00147731
0.00147396
0.00147123
0.00146899
0.00146692
0.00146473
0.00146254
0.0014605
0.00145867
0.00145702
0.00145553
0.00145423
0.00145317
0.00145231
0.00145165
0.00145116
0.00145082
0.00145064
0.00145059
0.00145062
0.00145073
0.00145096
0.00145133
0.00145182
0.00145244
0.00145322
0.00145421
0.00145539
0.00165423
0.00165226
0.00165044
0.00164869
0.00164692
0.00164506
0.00164307
0.00164093
0.00163869
0.00163642
0.00163419
0.00163204
0.00162997
0.00162793
0.00162586
0.0016237
0.00162141
0.00161897
0.00161641
0.00161377
0.00161111
0.00160847
0.00160586
0.00160328
0.00160069
0.00159805
0.0015953
0.00159243
0.00158943
0.00158639
0.00158334
0.00158021
0.00157731
0.00157462
0.00157161
0.00156899
0.00156682
0.00156394
0.0015613
0.00155935
0.00155644
0.00155339
0.00155134
0.0015485
0.00154507
0.00154286
0.00154025
0.00153668
0.00153436
0.00153214
0.00152857
0.001526
0.00152423
0.00152079
0.00151779
0.00151626
0.0015132
0.00150968
0.00150801
0.00150568
0.00150174
0.00149918
0.00149809
0.00149482
0.00149071
0.00148847
0.00148818
0.00148588
0.00148115
0.00147779
0.00147634
0.00147608
0.00147299
0.00146832
0.00146519
0.00146375
0.00146236
0.00145877
0.00145544
0.00145325
0.00145231
0.00145165
0.00144864
0.00144537
0.00144295
0.00144099
0.00143923
0.00143753
0.00143589
0.00143437
0.00143302
0.00143188
0.00143094
0.00143021
0.00142968
0.00142939
0.00142929
0.0014293
0.00142948
0.00142982
0.00143028
0.00143082
0.00143144
0.00143215
0.00143296
0.00143388
0.00143494
0.00143616
0.00143759
0.00143924
0.00164388
0.00164173
0.00163962
0.00163758
0.00163562
0.00163369
0.00163175
0.00162976
0.00162767
0.00162546
0.00162316
0.00162079
0.0016184
0.00161603
0.00161368
0.00161132
0.00160894
0.00160649
0.00160393
0.00160125
0.00159846
0.00159557
0.00159263
0.00158965
0.00158668
0.00158369
0.0015807
0.00157766
0.00157455
0.00157134
0.00156805
0.00156468
0.00156122
0.00155785
0.00155455
0.00155104
0.00154778
0.00154494
0.00154161
0.00153833
0.00153588
0.0015328
0.00152929
0.00152685
0.00152398
0.0015202
0.00151752
0.00151489
0.00151105
0.00150804
0.00150574
0.00150208
0.00149871
0.00149667
0.00149343
0.00148973
0.0014877
0.00148502
0.00148116
0.00147879
0.00147675
0.00147297
0.00146994
0.00146855
0.00146554
0.00146151
0.00145916
0.00145855
0.00145583
0.00145132
0.0014483
0.00144723
0.00144686
0.00144334
0.00143892
0.00143619
0.00143513
0.00143387
0.0014302
0.0014269
0.00142494
0.00142454
0.00142423
0.00142123
0.00141811
0.00141596
0.00141436
0.00141298
0.00141172
0.00141058
0.00140957
0.00140873
0.00140809
0.00140768
0.00140747
0.00140743
0.00140757
0.00140792
0.00140841
0.00140903
0.00140976
0.00141059
0.00141151
0.00141251
0.00141359
0.00141477
0.00141607
0.00141753
0.00141917
0.00142104
0.00142317
0.00163072
0.00162863
0.00162649
0.00162435
0.00162221
0.00162009
0.00161798
0.00161585
0.00161367
0.0016114
0.00160904
0.00160658
0.00160404
0.00160145
0.00159883
0.00159619
0.00159352
0.00159082
0.00158805
0.00158519
0.00158223
0.00157916
0.001576
0.00157277
0.00156949
0.00156617
0.00156283
0.00155947
0.00155607
0.00155261
0.00154909
0.00154549
0.00154181
0.00153813
0.00153442
0.00153059
0.00152692
0.00152346
0.00151969
0.00151598
0.00151296
0.00150952
0.00150561
0.00150274
0.0014997
0.00149569
0.00149255
0.00148984
0.00148596
0.00148237
0.00147988
0.00147639
0.00147241
0.00146995
0.001467
0.00146291
0.00146017
0.0014578
0.00145394
0.00145076
0.00144879
0.00144543
0.00144187
0.00144003
0.00143745
0.00143354
0.00143091
0.00142996
0.00142716
0.00142287
0.00142008
0.0014193
0.00141867
0.00141477
0.00141073
0.00140847
0.00140793
0.00140674
0.001403
0.00139983
0.00139805
0.00139781
0.00139774
0.00139505
0.00139231
0.0013905
0.00138924
0.00138824
0.00138739
0.00138669
0.00138614
0.00138578
0.00138561
0.0013856
0.00138579
0.00138619
0.00138674
0.00138744
0.00138827
0.00138921
0.00139024
0.00139137
0.00139258
0.00139389
0.00139529
0.00139681
0.00139848
0.00140033
0.0014024
0.00140472
0.00140731
0.00141019
0.00141335
0.00161703
0.00161493
0.00161277
0.00161056
0.0016083
0.00160602
0.00160372
0.00160141
0.00159905
0.00159664
0.00159415
0.00159157
0.0015889
0.00158614
0.00158331
0.00158043
0.0015775
0.00157453
0.00157151
0.00156842
0.00156526
0.001562
0.00155865
0.00155522
0.00155171
0.00154814
0.00154452
0.00154087
0.00153718
0.00153347
0.00152971
0.00152589
0.00152203
0.00151812
0.00151416
0.00151013
0.00150618
0.00150227
0.00149819
0.00149422
0.00149064
0.0014868
0.00148264
0.00147933
0.00147599
0.00147178
0.00146822
0.00146533
0.00146148
0.0014574
0.00145466
0.00145137
0.00144707
0.00144406
0.00144133
0.00143728
0.00143377
0.00143145
0.001428
0.00142412
0.00142182
0.00141908
0.00141526
0.00141266
0.00141056
0.00140703
0.00140396
0.00140259
0.00140004
0.00139604
0.00139327
0.00139257
0.00139168
0.00138771
0.001384
0.00138218
0.00138219
0.0013808
0.00137717
0.00137438
0.00137274
0.0013721
0.00137174
0.00137023
0.0013683
0.00136683
0.00136581
0.00136508
0.00136456
0.00136422
0.00136406
0.00136405
0.00136421
0.00136459
0.00136515
0.00136586
0.00136672
0.00136769
0.00136878
0.00136997
0.00137125
0.00137263
0.00137411
0.0013757
0.00137741
0.00137928
0.00138133
0.0013836
0.0013861
0.00138887
0.0013919
0.0013952
0.00139875
0.00160718
0.00160506
0.00160292
0.00160073
0.00159849
0.00159619
0.00159383
0.00159141
0.00158895
0.00158644
0.0015839
0.0015813
0.00157863
0.00157589
0.00157307
0.00157015
0.00156715
0.00156407
0.00156092
0.00155771
0.00155445
0.00155113
0.00154775
0.00154429
0.00154076
0.00153714
0.00153345
0.00152969
0.00152587
0.001522
0.00151808
0.00151414
0.00151016
0.00150614
0.00150209
0.00149801
0.00149388
0.00148971
0.00148556
0.00148138
0.00147712
0.00147297
0.00146898
0.00146482
0.00146054
0.00145683
0.00145312
0.00144877
0.00144489
0.00144171
0.00143784
0.00143345
0.00143036
0.00142717
0.00142283
0.00141923
0.00141655
0.00141285
0.0014087
0.00140609
0.00140317
0.00139908
0.00139604
0.00139378
0.00139028
0.00138684
0.00138479
0.00138202
0.00137862
0.00137651
0.0013745
0.00137105
0.00136811
0.00136707
0.00136604
0.00136248
0.00135915
0.00135746
0.00135756
0.00135597
0.00135292
0.00135061
0.00134914
0.00134821
0.00134756
0.00134671
0.00134561
0.00134462
0.00134389
0.00134342
0.00134318
0.00134311
0.00134319
0.00134347
0.00134395
0.00134463
0.00134545
0.00134642
0.0013475
0.00134871
0.00135002
0.00135143
0.00135295
0.00135459
0.00135634
0.00135824
0.0013603
0.00136254
0.00136499
0.00136767
0.0013706
0.00137378
0.00137722
0.0013809
0.00138479
0.00159294
0.00159069
0.00158842
0.00158611
0.00158375
0.00158132
0.00157884
0.00157629
0.00157367
0.001571
0.00156827
0.00156548
0.00156263
0.00155971
0.00155671
0.00155363
0.00155047
0.00154722
0.00154389
0.00154049
0.00153703
0.0015335
0.00152992
0.00152627
0.00152256
0.00151878
0.00151493
0.00151102
0.00150706
0.00150303
0.00149895
0.00149483
0.00149068
0.0014865
0.0014823
0.00147807
0.00147381
0.00146953
0.00146525
0.00146093
0.00145658
0.00145229
0.00144805
0.0014437
0.00143936
0.00143535
0.00143132
0.00142689
0.00142281
0.00141931
0.00141535
0.00141082
0.00140738
0.00140415
0.00139995
0.00139581
0.00139299
0.00138963
0.00138527
0.00138206
0.00137948
0.00137575
0.00137195
0.00136964
0.00136683
0.00136305
0.00136034
0.00135833
0.00135518
0.00135223
0.00135031
0.00134777
0.00134485
0.00134295
0.00134164
0.00133919
0.0013365
0.00133462
0.00133372
0.00133249
0.00133052
0.00132869
0.00132732
0.00132632
0.00132556
0.00132492
0.00132429
0.00132373
0.00132335
0.00132317
0.00132316
0.00132328
0.00132361
0.00132415
0.00132488
0.00132578
0.00132682
0.00132799
0.00132929
0.0013307
0.00133224
0.0013339
0.00133568
0.0013376
0.00133967
0.00134191
0.00134433
0.00134697
0.00134983
0.00135292
0.00135625
0.00135981
0.0013636
0.0013676
0.00137178
0.00137613
0.00159403
0.00159187
0.0015897
0.0015875
0.00158528
0.00158302
0.00158071
0.00157837
0.001576
0.00157358
0.00157113
0.00156862
0.00156606
0.00156343
0.00156074
0.00155798
0.00155515
0.00155225
0.00154929
0.00154627
0.00154317
0.00154001
0.00153677
0.00153346
0.00153006
0.00152658
0.00152303
0.00151941
0.00151572
0.00151198
0.00150817
0.00150431
0.0015004
0.00149642
0.00149239
0.00148832
0.00148419
0.00148
0.00147577
0.00147151
0.00146722
0.00146291
0.00145858
0.00145424
0.00144988
0.00144552
0.00144113
0.00143673
0.00143236
0.001428
0.00142359
0.00141921
0.001415
0.00141078
0.00140635
0.00140215
0.00139836
0.00139429
0.00138979
0.00138603
0.00138267
0.00137863
0.00137419
0.00137104
0.00136791
0.00136372
0.00135985
0.00135729
0.00135409
0.00134999
0.00134709
0.00134482
0.00134139
0.00133797
0.00133593
0.00133354
0.0013303
0.00132781
0.00132584
0.0013234
0.00132102
0.00131923
0.00131749
0.00131552
0.00131366
0.00131219
0.00131098
0.00130966
0.00130831
0.00130716
0.00130625
0.00130555
0.00130503
0.00130464
0.00130439
0.0013043
0.00130434
0.00130454
0.00130492
0.00130549
0.00130625
0.00130718
0.00130827
0.00130951
0.00131089
0.00131241
0.00131406
0.00131584
0.00131777
0.00131985
0.00132209
0.0013245
0.00132711
0.00132992
0.00133294
0.00133619
0.00133966
0.00134335
0.00134726
0.00135135
0.00135562
0.00136006
0.00136465
0.0015799
0.00157765
0.00157538
0.00157309
0.00157076
0.00156839
0.00156598
0.00156352
0.00156101
0.00155846
0.00155586
0.00155321
0.0015505
0.00154773
0.0015449
0.001542
0.00153902
0.00153598
0.00153287
0.00152969
0.00152645
0.00152314
0.00151976
0.00151631
0.00151279
0.00150919
0.00150553
0.00150179
0.00149799
0.00149413
0.00149022
0.00148625
0.00148224
0.00147818
0.00147408
0.00146993
0.00146573
0.00146149
0.00145721
0.00145289
0.00144856
0.0014442
0.00143982
0.00143544
0.00143104
0.00142664
0.00142224
0.00141783
0.00141343
0.00140904
0.00140462
0.00140025
0.00139596
0.00139165
0.00138726
0.00138302
0.00137903
0.00137491
0.00137051
0.00136653
0.001363
0.00135908
0.00135462
0.00135107
0.001348
0.00134417
0.00133987
0.00133698
0.00133421
0.00133035
0.00132676
0.00132454
0.00132175
0.0013181
0.00131546
0.00131356
0.00131069
0.00130777
0.00130565
0.00130365
0.00130143
0.00129942
0.00129774
0.00129613
0.00129452
0.00129304
0.00129179
0.00129069
0.00128966
0.00128876
0.00128803
0.00128747
0.00128709
0.00128689
0.00128685
0.00128693
0.00128719
0.00128763
0.00128825
0.00128904
0.00129
0.00129114
0.00129243
0.00129388
0.00129549
0.00129724
0.00129915
0.00130122
0.00130345
0.00130585
0.00130843
0.0013112
0.00131417
0.00131735
0.00132074
0.00132434
0.00132815
0.00133216
0.00133636
0.00134072
0.00134525
0.00134993
0.00135475
0.00156562
0.00156327
0.0015609
0.00155849
0.00155605
0.00155356
0.00155103
0.00154845
0.00154582
0.00154314
0.00154041
0.00153762
0.00153478
0.00153187
0.00152891
0.00152587
0.00152278
0.00151961
0.00151638
0.00151308
0.00150972
0.0015063
0.00150281
0.00149925
0.00149564
0.00149196
0.00148821
0.00148441
0.00148054
0.00147662
0.00147264
0.00146862
0.00146456
0.00146046
0.00145633
0.00145215
0.00144793
0.00144368
0.00143939
0.00143508
0.00143075
0.0014264
0.00142203
0.00141766
0.00141328
0.00140889
0.00140451
0.00140012
0.00139575
0.00139139
0.00138702
0.00138268
0.00137839
0.00137409
0.00136977
0.00136555
0.00136147
0.00135735
0.00135308
0.001349
0.00134532
0.00134151
0.00133719
0.0013333
0.0013302
0.00132667
0.00132233
0.00131895
0.00131639
0.001313
0.00130902
0.0013064
0.00130413
0.00130078
0.00129756
0.00129553
0.00129321
0.00129033
0.00128791
0.00128597
0.00128403
0.00128211
0.00128039
0.00127887
0.00127745
0.00127612
0.00127495
0.00127394
0.00127309
0.00127238
0.00127183
0.00127145
0.00127124
0.00127121
0.00127129
0.00127156
0.00127203
0.00127269
0.00127353
0.00127453
0.0012757
0.00127704
0.00127856
0.00128024
0.00128209
0.00128411
0.0012863
0.00128866
0.00129121
0.00129393
0.00129685
0.00129997
0.00130328
0.0013068
0.00131051
0.00131442
0.00131853
0.00132281
0.00132727
0.00133189
0.00133666
0.00134159
0.00134667
0.00155122
0.00154877
0.00154629
0.00154378
0.00154122
0.00153862
0.00153597
0.00153328
0.00153053
0.00152774
0.00152488
0.00152198
0.00151901
0.001516
0.00151292
0.00150978
0.00150658
0.00150332
0.0015
0.00149662
0.00149317
0.00148967
0.00148611
0.0014825
0.00147882
0.0014751
0.00147132
0.00146748
0.0014636
0.00145966
0.00145568
0.00145166
0.0014476
0.00144351
0.00143938
0.00143522
0.00143103
0.00142682
0.00142258
0.00141832
0.00141404
0.00140974
0.00140544
0.00140112
0.0013968
0.00139248
0.00138816
0.00138385
0.00137955
0.00137525
0.00137097
0.0013667
0.00136247
0.00135825
0.00135402
0.00134986
0.00134578
0.00134173
0.0013376
0.00133352
0.00132975
0.00132604
0.00132194
0.00131785
0.00131465
0.00131136
0.00130725
0.00130342
0.00130087
0.00129789
0.00129395
0.0012908
0.00128871
0.00128586
0.00128242
0.00127992
0.00127791
0.00127537
0.00127288
0.00127081
0.00126898
0.00126721
0.00126554
0.00126406
0.00126273
0.00126153
0.00126048
0.00125958
0.00125885
0.00125828
0.00125788
0.00125767
0.00125762
0.00125768
0.00125794
0.0012584
0.00125907
0.00125992
0.00126095
0.00126216
0.00126355
0.00126511
0.00126685
0.00126877
0.00127088
0.00127316
0.00127563
0.00127829
0.00128113
0.00128417
0.00128741
0.00129084
0.00129446
0.00129828
0.00130229
0.00130647
0.00131083
0.00131536
0.00132006
0.00132491
0.00132994
0.00133513
0.0013405
0.00134604
0.00135175
0.00153678
0.00153423
0.00153165
0.00152903
0.00152637
0.00152366
0.00152091
0.00151811
0.00151527
0.00151237
0.00150942
0.00150642
0.00150337
0.00150026
0.0014971
0.00149389
0.00149062
0.0014873
0.00148392
0.00148049
0.00147701
0.00147347
0.00146988
0.00146625
0.00146257
0.00145884
0.00145506
0.00145124
0.00144738
0.00144348
0.00143954
0.00143557
0.00143157
0.00142753
0.00142346
0.00141937
0.00141526
0.00141112
0.00140697
0.00140281
0.00139863
0.00139443
0.00139023
0.00138602
0.00138181
0.0013776
0.00137339
0.00136919
0.001365
0.00136081
0.00135664
0.00135249
0.00134836
0.00134425
0.00134015
0.00133608
0.00133208
0.00132812
0.00132414
0.00132014
0.00131636
0.00131275
0.00130887
0.00130473
0.00130143
0.00129833
0.0012945
0.00129045
0.00128778
0.00128509
0.00128142
0.00127789
0.00127569
0.00127323
0.00126992
0.00126706
0.00126498
0.00126279
0.00126043
0.0012583
0.00125646
0.00125477
0.00125319
0.00125176
0.0012505
0.00124938
0.00124842
0.00124763
0.00124701
0.00124657
0.00124631
0.00124622
0.00124626
0.00124647
0.0012469
0.00124754
0.00124838
0.00124941
0.00125062
0.00125202
0.00125361
0.00125538
0.00125735
0.0012595
0.00126185
0.00126438
0.00126711
0.00127003
0.00127315
0.00127647
0.00127998
0.00128369
0.00128759
0.00129168
0.00129596
0.0013004
0.00130502
0.0013098
0.00131474
0.00131984
0.00132511
0.00133053
0.00133613
0.0013419
0.00134786
0.00152236
0.00151973
0.00151706
0.00151434
0.00151159
0.0015088
0.00150596
0.00150308
0.00150016
0.00149719
0.00149417
0.0014911
0.00148799
0.00148483
0.00148163
0.00147837
0.00147507
0.00147173
0.00146833
0.0014649
0.00146141
0.00145789
0.00145432
0.00145071
0.00144706
0.00144338
0.00143965
0.0014359
0.00143211
0.00142829
0.00142444
0.00142056
0.00141665
0.00141272
0.00140876
0.00140478
0.00140079
0.00139679
0.00139277
0.00138873
0.00138469
0.00138064
0.00137659
0.00137252
0.00136846
0.0013644
0.00136034
0.00135628
0.00135223
0.0013482
0.00134417
0.00134016
0.00133617
0.0013322
0.00132825
0.00132431
0.00132042
0.0013166
0.00131277
0.00130888
0.00130516
0.00130168
0.00129797
0.00129389
0.00129056
0.0012876
0.001284
0.00127995
0.00127716
0.00127464
0.00127124
0.0012676
0.00126516
0.00126287
0.00125986
0.0012569
0.00125462
0.00125257
0.00125041
0.00124833
0.00124647
0.0012448
0.00124329
0.00124192
0.00124071
0.00123967
0.00123878
0.00123808
0.00123756
0.00123723
0.00123708
0.00123708
0.0012372
0.00123755
0.00123814
0.00123893
0.00123992
0.0012411
0.00124248
0.00124405
0.00124582
0.00124778
0.00124995
0.00125231
0.00125487
0.00125763
0.00126059
0.00126375
0.0012671
0.00127065
0.00127439
0.00127832
0.00128243
0.00128673
0.0012912
0.00129585
0.00130067
0.00130566
0.00131081
0.00131613
0.0013216
0.00132724
0.00133304
0.00133902
0.00134517
0.00151075
0.00150808
0.00150537
0.00150262
0.00149984
0.00149702
0.00149416
0.00149126
0.00148833
0.00148535
0.00148234
0.00147928
0.00147618
0.00147305
0.00146987
0.00146666
0.00146341
0.00146011
0.00145678
0.00145342
0.00145002
0.00144658
0.00144311
0.0014396
0.00143606
0.00143249
0.0014289
0.00142528
0.00142163
0.00141796
0.00141426
0.00141053
0.00140679
0.00140302
0.00139923
0.00139543
0.00139162
0.00138779
0.00138395
0.0013801
0.00137624
0.00137237
0.0013685
0.00136462
0.00136074
0.00135686
0.00135298
0.0013491
0.00134522
0.00134135
0.00133749
0.00133364
0.0013298
0.00132598
0.00132217
0.00131838
0.0013146
0.00131086
0.00130718
0.00130352
0.00129977
0.00129616
0.00129281
0.00128925
0.0012853
0.00128202
0.00127915
0.0012757
0.00127179
0.00126898
0.00126649
0.00126328
0.00125978
0.00125715
0.00125486
0.00125212
0.00124924
0.00124678
0.00124467
0.0012426
0.00124057
0.00123871
0.00123704
0.00123553
0.00123418
0.00123301
0.001232
0.00123116
0.00123051
0.00123007
0.00122984
0.00122976
0.0012298
0.00123002
0.00123049
0.0012312
0.00123212
0.00123323
0.00123454
0.00123606
0.00123777
0.0012397
0.00124182
0.00124415
0.00124669
0.00124943
0.00125237
0.00125551
0.00125885
0.00126239
0.00126612
0.00127004
0.00127415
0.00127843
0.0012829
0.00128754
0.00129235
0.00129734
0.00130251
0.00130784
0.00131335
0.00131904
0.0013249
0.00133094
0.00133716
0.00134353
0.00149675
0.00149402
0.00149125
0.00148845
0.00148562
0.00148276
0.00147987
0.00147694
0.00147398
0.00147099
0.00146796
0.00146491
0.00146182
0.0014587
0.00145554
0.00145236
0.00144915
0.00144591
0.00144264
0.00143934
0.00143602
0.00143267
0.00142929
0.00142589
0.00142247
0.00141903
0.00141556
0.00141209
0.00140858
0.00140506
0.00140152
0.00139797
0.0013944
0.00139081
0.00138722
0.00138361
0.00137999