/*--------------------------------*- C++ -*----------------------------------*\
| =========                 |                                                 |
| \\      /  F ield         | OpenFOAM: The Open Source CFD Toolbox           |
|  \\    /   O peration     | Version:  v1706                                 |
|   \\  /    A nd           | Web:      www.OpenFOAM.com                      |
|    \\/     M anipulation  |                                                 |
\*---------------------------------------------------------------------------*/
FoamFile
{
    version     2.0;
    format      ascii;
    class       volScalarField;
    location    "3.3e-05";
    object      Tt;
}
// * * * * * * * * * * * * * * * * * * * * * * * * * * * * * * * * * * * * * //

dimensions      [0 0 0 1 0 0 0];


internalField   nonuniform List<scalar> 
29871
(
149.915
150.574
151.294
152.071
152.901
153.783
154.73
155.77
156.917
158.169
159.511
160.925
162.397
163.912
165.46
167.027
168.598
170.159
171.697
173.205
174.701
176.309
178.303
180.602
183.083
185.642
188.202
190.705
193.11
195.387
197.517
199.492
201.312
202.982
204.511
205.906
207.173
208.319
209.348
210.264
211.07
211.77
212.366
212.861
213.258
213.562
213.781
213.921
213.971
213.938
213.845
213.709
213.517
213.254
212.922
212.532
212.12
211.691
211.232
210.756
210.264
209.743
209.194
208.622
208.014
207.361
206.665
205.927
205.146
204.321
203.452
202.537
201.573
200.558
199.489
198.364
197.179
195.93
194.613
193.224
191.759
190.215
188.585
186.865
185.05
183.135
181.125
179.028
176.844
174.576
172.255
170.007
168.193
166.78
165.499
164.231
162.944
161.636
160.311
158.981
157.655
156.341
155.046
153.799
152.658
175.523
178.744
182.125
185.632
189.233
192.914
196.706
200.861
205.491
210.521
215.831
221.29
226.77
232.161
237.369
242.32
246.963
251.262
255.198
258.767
261.978
264.824
267.27
269.341
271.063
272.472
273.601
274.482
275.141
275.603
275.906
276.093
276.2
276.258
276.291
276.3
276.295
276.281
276.257
276.221
276.17
276.106
276.023
275.913
275.773
275.601
275.399
275.165
274.898
274.595
274.257
273.896
273.504
273.09
272.684
272.24
271.79
271.336
270.86
270.375
269.895
269.416
268.94
268.463
267.967
267.459
266.944
266.417
265.876
265.322
264.755
264.175
263.582
262.974
262.351
261.711
261.055
260.381
259.691
258.984
258.261
257.522
256.772
256.014
255.254
254.494
253.727
252.94
252.095
251.135
249.984
248.513
246.568
244.145
241.32
238.138
234.603
230.706
226.436
221.797
216.811
211.508
205.93
200.138
194.264
223.109
229.87
236.719
243.496
250.057
256.29
262.118
267.479
272.288
276.529
280.234
283.451
286.235
288.643
290.723
292.514
294.042
295.322
296.361
297.161
297.745
298.153
298.428
298.603
298.708
298.709
298.664
298.564
298.394
298.146
297.814
297.409
296.945
296.437
295.901
295.35
294.793
294.236
293.687
293.15
292.628
292.124
291.638
291.171
290.719
290.28
289.85
289.426
289.006
288.585
288.16
287.732
287.299
286.85
286.379
285.902
285.434
284.952
284.484
284.053
283.51
282.998
282.54
282.072
281.527
280.994
280.502
280.012
279.513
279.011
278.511
278.015
277.524
277.04
276.565
276.101
275.65
275.215
274.8
274.408
274.045
273.717
273.428
273.182
272.984
272.833
272.713
272.616
272.524
272.416
272.27
272.06
271.755
271.325
270.764
270.069
269.242
268.282
267.191
265.973
264.62
263.116
261.411
259.423
257.045
254.153
287.212
291.033
294.32
297.127
299.507
301.51
303.175
304.534
305.613
306.437
307.034
307.441
307.709
307.892
308.032
308.152
308.26
308.356
308.421
308.407
308.336
308.198
308.006
307.775
307.516
307.232
306.933
306.63
306.335
306.057
305.793
305.52
305.217
304.87
304.474
304.03
303.548
303.037
302.505
301.962
301.414
300.866
300.323
299.787
299.262
298.748
298.246
297.753
297.27
296.796
296.325
295.856
295.387
294.908
294.408
293.898
293.399
292.883
292.383
291.937
291.358
290.816
290.325
289.821
289.221
288.624
288.079
287.543
286.997
286.45
285.909
285.374
284.846
284.327
283.82
283.327
282.848
282.385
281.942
281.521
281.128
280.766
280.437
280.146
279.889
279.662
279.458
279.257
279.036
278.799
278.553
278.295
278.016
277.717
277.398
277.063
276.713
276.351
275.975
275.568
275.122
274.633
274.079
273.434
272.688
271.839
311.128
312.056
312.761
313.279
313.66
313.95
314.18
314.367
314.516
314.627
314.673
314.643
314.546
314.382
314.172
313.934
313.692
313.461
313.261
313.11
313.02
312.968
312.91
312.813
312.662
312.455
312.202
311.912
311.598
311.278
310.971
310.689
310.416
310.141
309.85
309.533
309.182
308.793
308.368
307.91
307.426
306.918
306.393
305.86
305.32
304.773
304.229
303.689
303.148
302.612
302.086
301.563
301.028
300.509
300.008
299.484
298.948
298.433
297.922
297.406
296.9
296.352
295.832
295.328
294.849
294.222
293.586
293.032
292.493
291.925
291.355
290.807
290.272
289.741
289.217
288.707
288.214
287.734
287.267
286.817
286.385
285.973
285.583
285.214
284.863
284.524
284.195
283.872
283.551
283.233
282.911
282.579
282.237
281.887
281.533
281.177
280.818
280.459
280.105
279.745
279.371
278.985
278.567
278.108
277.628
277.175
276.772
318.864
318.979
319.012
318.979
318.896
318.771
318.623
318.466
318.315
318.172
318.043
317.942
317.856
317.752
317.605
317.404
317.17
316.908
316.639
316.392
316.198
316.054
315.947
315.849
315.735
315.588
315.401
315.174
314.91
314.623
314.316
314.011
313.726
313.458
313.204
312.953
312.693
312.419
312.12
311.793
311.439
311.057
310.648
310.219
309.778
309.306
308.821
308.339
307.84
307.325
306.819
306.317
305.778
305.247
304.741
304.224
303.669
303.142
302.638
302.133
301.582
301.045
300.538
300.024
299.554
298.919
298.251
297.67
297.122
296.518
295.894
295.324
294.772
294.201
293.626
293.075
292.54
292.008
291.479
290.961
290.455
289.962
289.483
289.015
288.554
288.099
287.65
287.204
286.763
286.334
285.923
285.52
285.122
284.732
284.35
283.974
283.601
283.229
282.854
282.469
282.067
281.668
281.271
280.853
280.429
280.042
279.699
322.35
322.229
322.102
321.993
321.89
321.803
321.736
321.662
321.548
321.398
321.214
321.01
320.793
320.584
320.409
320.271
320.147
320.016
319.863
319.679
319.465
319.225
318.973
318.728
318.515
318.348
318.228
318.123
318.027
317.923
317.796
317.641
317.459
317.243
317.007
316.764
316.517
316.281
316.059
315.837
315.615
315.389
315.143
314.88
314.603
314.288
313.949
313.603
313.222
312.804
312.389
311.963
311.486
311.014
310.561
310.051
309.525
309.028
308.546
307.975
307.439
306.937
306.461
305.871
305.321
304.823
304.31
303.843
303.188
302.521
301.937
301.382
300.749
300.083
299.481
298.918
298.316
297.688
297.107
296.546
295.961
295.374
294.798
294.226
293.664
293.115
292.57
292.026
291.485
290.953
290.422
289.886
289.362
288.871
288.381
287.896
287.432
286.982
286.542
286.111
285.683
285.251
284.816
284.381
283.95
283.527
283.111
282.708
282.33
281.988
324.943
324.768
324.57
324.38
324.186
324.013
323.875
323.762
323.644
323.507
323.353
323.172
322.97
322.76
322.552
322.364
322.207
322.076
321.957
321.832
321.695
321.534
321.358
321.166
320.972
320.795
320.648
320.533
320.44
320.361
320.284
320.197
320.097
319.967
319.811
319.643
319.44
319.226
319.025
318.815
318.599
318.396
318.184
317.953
317.725
317.477
317.191
316.905
316.606
316.244
315.881
315.532
315.101
314.664
314.257
313.799
313.287
312.809
312.366
311.803
311.265
310.767
310.308
309.704
309.14
308.646
308.137
307.655
306.966
306.325
305.751
305.192
304.534
303.828
303.204
302.626
302.012
301.346
300.727
300.141
299.526
298.904
298.282
297.647
297.034
296.446
295.85
295.24
294.635
294.052
293.464
292.868
292.291
291.731
291.183
290.648
290.129
289.627
289.138
288.658
288.182
287.707
287.231
286.76
286.295
285.835
285.385
284.949
284.532
284.147
326.935
326.775
326.594
326.401
326.2
326.001
325.818
325.666
325.538
325.422
325.311
325.193
325.058
324.908
324.748
324.586
324.435
324.304
324.194
324.094
324.001
323.899
323.788
323.662
323.519
323.369
323.224
323.093
322.982
322.891
322.814
322.742
322.675
322.594
322.492
322.387
322.248
322.072
321.905
321.726
321.509
321.309
321.115
320.883
320.66
320.445
320.179
319.912
319.66
319.338
319.003
318.695
318.32
317.906
317.522
317.124
316.629
316.168
315.75
315.216
314.681
314.19
313.735
313.135
312.567
312.074
311.574
311.047
310.343
309.735
309.171
308.611
307.924
307.189
306.551
305.956
305.342
304.648
303.998
303.381
302.759
302.132
301.458
300.777
300.133
299.51
298.887
298.234
297.593
296.965
296.339
295.715
295.101
294.502
293.919
293.35
292.798
292.26
291.735
291.22
290.711
290.206
289.703
289.206
288.714
288.224
287.744
287.28
286.831
286.401
328.763
328.643
328.519
328.384
328.239
328.085
327.93
327.786
327.661
327.555
327.465
327.383
327.298
327.206
327.102
326.987
326.869
326.755
326.651
326.56
326.48
326.406
326.331
326.25
326.158
326.053
325.938
325.82
325.706
325.603
325.511
325.426
325.355
325.286
325.201
325.119
325.028
324.89
324.752
324.613
324.414
324.217
324.038
323.806
323.569
323.359
323.1
322.823
322.575
322.282
321.947
321.642
321.314
320.908
320.528
320.167
319.696
319.241
318.832
318.332
317.799
317.311
316.859
316.269
315.702
315.204
314.717
314.134
313.439
312.859
312.299
311.738
311.018
310.271
309.627
309.017
308.397
307.68
307.012
306.382
305.749
305.115
304.389
303.681
303.018
302.37
301.722
301.061
300.398
299.742
299.094
298.453
297.822
297.205
296.604
296.018
295.447
294.889
294.343
293.807
293.276
292.749
292.227
291.708
291.192
290.681
290.176
289.681
289.2
288.732
330.825
330.725
330.633
330.543
330.449
330.347
330.239
330.129
330.024
329.931
329.852
329.786
329.728
329.673
329.614
329.548
329.475
329.397
329.319
329.245
329.177
329.117
329.061
329.006
328.947
328.88
328.801
328.712
328.615
328.517
328.419
328.322
328.235
328.155
328.063
327.977
327.896
327.777
327.653
327.535
327.363
327.173
327.002
326.784
326.534
326.315
326.063
325.765
325.497
325.217
324.869
324.544
324.231
323.83
323.437
323.079
322.633
322.169
321.75
321.282
320.747
320.253
319.797
319.22
318.65
318.137
317.653
317.038
316.365
315.797
315.232
314.665
313.917
313.174
312.532
311.911
311.275
310.534
309.856
309.223
308.583
307.935
307.162
306.435
305.761
305.103
304.443
303.777
303.108
302.442
301.784
301.137
300.502
299.88
299.273
298.681
298.101
297.531
296.974
296.424
295.879
295.335
294.795
294.256
293.719
293.185
292.657
292.136
291.625
291.126
333.217
333.116
333.03
332.956
332.892
332.833
332.774
332.713
332.648
332.582
332.519
332.462
332.416
332.378
332.349
332.322
332.295
332.264
332.227
332.185
332.141
332.096
332.053
332.012
331.974
331.935
331.891
331.841
331.779
331.707
331.625
331.535
331.438
331.341
331.245
331.139
331.036
330.94
330.819
330.687
330.569
330.41
330.22
330.05
329.843
329.587
329.356
329.106
328.795
328.501
328.216
327.858
327.501
327.175
326.779
326.357
325.978
325.55
325.067
324.621
324.171
323.634
323.121
322.651
322.087
321.505
320.973
320.476
319.85
319.192
318.624
318.05
317.468
316.701
315.977
315.34
314.711
314.051
313.284
312.597
311.965
311.319
310.658
309.855
309.118
308.441
307.78
307.117
306.45
305.782
305.117
304.46
303.815
303.181
302.562
301.952
301.358
300.776
300.201
299.632
299.069
298.508
297.949
297.39
296.831
296.274
295.718
295.167
294.623
294.089
293.566
335.66
335.593
335.533
335.483
335.443
335.413
335.388
335.366
335.344
335.322
335.299
335.278
335.261
335.249
335.245
335.246
335.249
335.252
335.251
335.246
335.237
335.222
335.203
335.182
335.16
335.136
335.108
335.075
335.033
334.981
334.916
334.839
334.75
334.652
334.546
334.429
334.31
334.19
334.051
333.902
333.764
333.596
333.395
333.215
333.004
332.742
332.494
332.24
331.921
331.599
331.299
330.937
330.544
330.191
329.795
329.344
328.926
328.503
328.003
327.518
327.063
326.529
325.985
325.486
324.937
324.337
323.777
323.258
322.628
321.971
321.392
320.81
320.206
319.428
318.728
318.096
317.463
316.77
315.978
315.287
314.646
313.99
313.333
312.529
311.792
311.11
310.446
309.783
309.118
308.454
307.794
307.142
306.501
305.868
305.253
304.647
304.05
303.46
302.876
302.296
301.717
301.14
300.562
299.984
299.405
298.827
298.252
297.682
297.119
296.568
296.029
295.505
294.997
338.263
338.236
338.214
338.197
338.189
338.19
338.197
338.21
338.227
338.246
338.265
338.284
338.305
338.327
338.352
338.381
338.412
338.443
338.474
338.502
338.524
338.54
338.549
338.55
338.546
338.537
338.522
338.5
338.47
338.429
338.376
338.309
338.228
338.133
338.023
337.899
337.766
337.622
337.462
337.293
337.123
336.93
336.711
336.505
336.275
335.998
335.726
335.455
335.126
334.774
334.452
334.081
333.659
333.269
332.866
332.394
331.93
331.493
330.987
330.458
329.972
329.446
328.869
328.324
327.785
327.171
326.575
326.021
325.396
324.727
324.125
323.531
322.905
322.128
321.44
320.805
320.176
319.44
318.643
317.946
317.288
316.621
315.944
315.2
314.471
313.78
313.107
312.441
311.777
311.115
310.459
309.808
309.171
308.544
307.926
307.316
306.712
306.112
305.514
304.919
304.323
303.727
303.13
302.532
301.934
301.338
300.747
300.162
299.586
299.022
298.472
297.936
297.415
341.013
341.017
341.028
341.043
341.062
341.086
341.116
341.152
341.194
341.243
341.296
341.354
341.413
341.472
341.532
341.59
341.649
341.708
341.768
341.826
341.884
341.938
341.987
342.029
342.063
342.087
342.103
342.106
342.101
342.088
342.063
342.028
341.979
341.916
341.836
341.74
341.627
341.496
341.349
341.187
341.006
340.813
340.61
340.386
340.141
339.899
339.636
339.334
339.03
338.729
338.38
337.995
337.641
337.252
336.805
336.371
335.949
335.464
334.952
334.481
333.973
333.408
332.871
332.346
331.75
331.153
330.593
329.984
329.346
328.741
328.128
327.448
326.806
326.185
325.551
324.787
324.092
323.437
322.802
322.047
321.268
320.561
319.883
319.203
318.514
317.805
317.091
316.395
315.714
315.042
314.375
313.711
313.054
312.408
311.77
311.139
310.514
309.894
309.277
308.663
308.05
307.436
306.822
306.207
305.591
304.976
304.362
303.752
303.149
302.553
301.968
301.395
300.834
300.286
299.75
343.863
343.906
343.956
344.011
344.073
344.139
344.209
344.285
344.365
344.451
344.541
344.635
344.731
344.828
344.924
345.018
345.111
345.201
345.288
345.373
345.454
345.53
345.6
345.662
345.714
345.756
345.786
345.803
345.803
345.794
345.772
345.735
345.683
345.615
345.53
345.427
345.304
345.161
344.999
344.817
344.615
344.396
344.16
343.902
343.626
343.343
343.039
342.703
342.361
342.018
341.635
341.215
340.818
340.399
339.926
339.441
338.987
338.483
337.932
337.41
336.89
336.304
335.711
335.157
334.559
333.917
333.305
332.704
332.038
331.378
330.745
330.073
329.388
328.726
328.073
327.348
326.633
325.942
325.263
324.545
323.796
323.071
322.37
321.676
320.979
320.276
319.571
318.873
318.185
317.506
316.831
316.165
315.507
314.856
314.21
313.57
312.933
312.3
311.668
311.037
310.406
309.775
309.143
308.511
307.88
307.25
306.625
306.004
305.391
304.787
304.193
303.61
303.037
302.473
301.917
301.368
346.519
346.546
346.58
346.623
346.672
346.729
346.794
346.867
346.949
347.038
347.134
347.236
347.343
347.455
347.571
347.69
347.814
347.94
348.068
348.198
348.329
348.458
348.584
348.707
348.825
348.938
349.045
349.145
349.239
349.323
349.399
349.463
349.514
349.552
349.574
349.576
349.566
349.54
349.496
349.434
349.354
349.254
349.135
348.994
348.832
348.649
348.442
348.214
347.965
347.695
347.402
347.09
346.763
346.413
346.038
345.651
345.257
344.83
344.371
343.921
343.46
342.953
342.418
341.915
341.383
340.798
340.215
339.664
339.062
338.419
337.81
337.205
336.536
335.867
335.233
334.567
333.859
333.178
332.505
331.802
331.1
330.409
329.703
328.981
328.262
327.551
326.835
326.103
325.372
324.654
323.945
323.239
322.532
321.827
321.125
320.429
319.74
319.061
318.389
317.723
317.062
316.406
315.753
315.102
314.454
313.806
313.159
312.511
311.864
311.217
310.572
309.928
309.288
308.653
308.024
307.402
306.788
306.183
305.586
304.995
304.41
303.828
303.249
349.379
349.443
349.517
349.6
349.69
349.789
349.895
350.009
350.13
350.259
350.395
350.536
350.683
350.834
350.988
351.145
351.303
351.464
351.624
351.785
351.944
352.101
352.253
352.401
352.541
352.674
352.798
352.913
353.017
353.11
353.191
353.259
353.311
353.348
353.364
353.361
353.343
353.306
353.247
353.168
353.067
352.945
352.8
352.633
352.442
352.228
351.99
351.729
351.443
351.135
350.802
350.447
350.073
349.676
349.255
348.818
348.368
347.891
347.386
346.878
346.364
345.812
345.228
344.664
344.092
343.472
342.828
342.224
341.598
340.918
340.244
339.605
338.921
338.2
337.51
336.834
336.101
335.37
334.664
333.952
333.223
332.498
331.775
331.044
330.309
329.577
328.846
328.111
327.377
326.647
325.924
325.206
324.491
323.778
323.067
322.364
321.67
320.983
320.301
319.624
318.952
318.283
317.616
316.952
316.289
315.627
314.966
314.305
313.645
312.986
312.329
311.676
311.026
310.381
309.742
309.109
308.482
307.861
307.243
306.629
306.015
305.402
304.787
352.357
352.462
352.575
352.698
352.829
352.969
353.115
353.27
353.431
353.598
353.772
353.95
354.133
354.32
354.509
354.699
354.889
355.079
355.267
355.453
355.636
355.813
355.985
356.149
356.304
356.449
356.583
356.704
356.812
356.906
356.983
357.045
357.089
357.113
357.114
357.1
357.063
357.004
356.922
356.816
356.686
356.531
356.353
356.149
355.92
355.667
355.388
355.083
354.754
354.4
354.02
353.617
353.192
352.742
352.269
351.777
351.268
350.735
350.177
349.609
349.034
348.43
347.795
347.162
346.54
345.876
345.178
344.506
343.845
343.129
342.392
341.695
340.993
340.233
339.482
338.766
338.022
337.251
336.501
335.762
335.013
334.26
333.51
332.761
332.01
331.26
330.512
329.766
329.022
328.281
327.546
326.816
326.089
325.364
324.646
323.937
323.235
322.538
321.846
321.158
320.473
319.792
319.114
318.437
317.762
317.088
316.415
315.743
315.073
314.405
313.738
313.075
312.415
311.758
311.106
310.456
309.81
309.165
308.521
307.876
307.228
306.577
305.922
355.442
355.586
355.739
355.901
356.072
356.25
356.436
356.628
356.826
357.03
357.238
357.45
357.665
357.882
358.1
358.317
358.533
358.746
358.956
359.16
359.358
359.549
359.732
359.904
360.065
360.213
360.346
360.464
360.566
360.65
360.715
360.76
360.785
360.785
360.767
360.726
360.66
360.569
360.452
360.309
360.14
359.944
359.722
359.472
359.196
358.893
358.564
358.208
357.825
357.417
356.982
356.523
356.04
355.532
355.001
354.449
353.878
353.284
352.668
352.036
351.395
350.734
350.044
349.342
348.659
347.947
347.197
346.451
345.74
344.986
344.195
343.431
342.694
341.905
341.096
340.324
339.559
338.761
337.969
337.192
336.418
335.64
334.864
334.091
333.321
332.553
331.788
331.028
330.272
329.52
328.773
328.03
327.289
326.556
325.832
325.116
324.406
323.699
322.997
322.299
321.605
320.914
320.225
319.538
318.853
318.17
317.487
316.806
316.127
315.449
314.772
314.097
313.424
312.751
312.079
311.407
310.735
310.061
309.383
308.702
308.017
307.326
306.628
305.924
305.215
358.615
358.798
358.989
359.188
359.396
359.61
359.831
360.057
360.288
360.523
360.761
361.001
361.242
361.483
361.723
361.961
362.194
362.423
362.645
362.859
363.064
363.259
363.442
363.612
363.768
363.908
364.031
364.135
364.22
364.283
364.325
364.342
364.336
364.308
364.255
364.175
364.069
363.935
363.773
363.583
363.364
363.117
362.841
362.536
362.203
361.841
361.452
361.035
360.59
360.119
359.622
359.099
358.551
357.979
357.383
356.766
356.128
355.47
354.79
354.091
353.383
352.659
351.91
351.142
350.393
349.626
348.823
348.009
347.237
346.44
345.601
344.772
343.984
343.167
342.313
341.486
340.682
339.862
339.034
338.219
337.413
336.609
335.809
335.013
334.222
333.437
332.657
331.883
331.115
330.352
329.594
328.838
328.088
327.351
326.622
325.899
325.181
324.467
323.758
323.053
322.351
321.652
320.955
320.261
319.568
318.876
318.185
317.495
316.806
316.117
315.428
314.739
314.05
313.357
312.662
311.964
311.261
310.553
309.839
309.119
308.393
307.661
306.923
306.18
305.43
361.856
362.074
362.3
362.533
362.773
363.019
363.27
363.525
363.783
364.043
364.304
364.565
364.825
365.082
365.336
365.585
365.827
366.061
366.286
366.5
366.701
366.89
367.063
367.22
367.36
367.481
367.581
367.66
367.715
367.747
367.75
367.733
367.688
367.616
367.516
367.387
367.229
367.041
366.823
366.575
366.297
365.988
365.649
365.279
364.88
364.451
363.993
363.507
362.993
362.451
361.883
361.289
360.67
360.027
359.361
358.674
357.966
357.238
356.49
355.723
354.944
354.156
353.345
352.512
351.696
350.873
350.013
349.137
348.302
347.458
346.572
345.686
344.842
343.993
343.107
342.232
341.384
340.538
339.683
338.835
337.999
337.17
336.347
335.531
334.723
333.922
333.129
332.345
331.567
330.796
330.028
329.264
328.512
327.771
327.039
326.312
325.59
324.872
324.159
323.449
322.743
322.039
321.338
320.637
319.938
319.24
318.541
317.842
317.142
316.44
315.737
315.032
314.323
313.611
312.894
312.171
311.442
310.704
309.959
309.205
308.444
307.675
306.902
306.124
305.338
364.897
365.139
365.389
365.645
365.907
366.174
366.445
366.72
366.996
367.274
367.551
367.828
368.101
368.371
368.635
368.893
369.143
369.383
369.612
369.829
370.031
370.219
370.389
370.541
370.674
370.785
370.875
370.94
370.982
370.994
370.983
370.944
370.877
370.78
370.652
370.495
370.306
370.085
369.833
369.55
369.234
368.886
368.506
368.094
367.652
367.178
366.674
366.14
365.577
364.985
364.367
363.722
363.051
362.355
361.636
360.895
360.133
359.352
358.552
357.732
356.894
356.045
355.19
354.314
353.42
352.54
351.659
350.744
349.814
348.921
348.027
347.097
346.166
345.269
344.381
343.469
342.562
341.678
340.807
339.935
339.066
338.208
337.361
336.523
335.694
334.874
334.063
333.263
332.472
331.69
330.914
330.141
329.375
328.624
327.884
327.152
326.424
325.701
324.983
324.269
323.558
322.851
322.145
321.441
320.738
320.035
319.332
318.628
317.921
317.212
316.5
315.783
315.063
314.336
313.606
312.869
312.125
311.372
310.61
309.839
309.058
308.268
307.469
306.659
305.84
305.012
368.167
368.437
368.712
368.992
369.276
369.563
369.853
370.143
370.433
370.722
371.008
371.289
371.566
371.835
372.096
372.348
372.588
372.815
373.028
373.225
373.405
373.566
373.706
373.825
373.921
373.993
374.039
374.057
374.048
374.012
373.946
373.849
373.721
373.561
373.368
373.143
372.884
372.591
372.266
371.906
371.513
371.087
370.628
370.136
369.612
369.057
368.471
367.854
367.208
366.534
365.833
365.107
364.355
363.577
362.777
361.957
361.118
360.262
359.389
358.498
357.59
356.674
355.751
354.812
353.857
352.92
351.987
351.03
350.061
349.125
348.187
347.226
346.267
345.329
344.407
343.478
342.548
341.636
340.743
339.856
338.975
338.105
337.247
336.4
335.564
334.74
333.927
333.125
332.334
331.553
330.778
330.006
329.245
328.499
327.764
327.036
326.312
325.593
324.878
324.167
323.46
322.754
322.051
321.348
320.645
319.941
319.236
318.528
317.817
317.101
316.381
315.655
314.922
314.182
313.434
312.676
311.908
311.131
310.344
309.546
308.738
307.918
307.088
306.247
305.395
304.533
303.66
302.775
371.427
371.717
372.01
372.307
372.605
372.905
373.204
373.501
373.795
374.085
374.369
374.647
374.915
375.174
375.42
375.654
375.873
376.076
376.261
376.427
376.572
376.694
376.793
376.867
376.915
376.934
376.925
376.888
376.82
376.72
376.588
376.423
376.224
375.991
375.723
375.42
375.082
374.709
374.301
373.858
373.38
372.869
372.323
371.744
371.132
370.49
369.816
369.111
368.377
367.616
366.828
366.018
365.182
364.322
363.44
362.54
361.622
360.691
359.751
358.8
357.836
356.865
355.889
354.898
353.897
352.912
351.931
350.933
349.936
348.963
347.987
347.005
346.029
345.063
344.115
343.174
342.229
341.297
340.386
339.488
338.6
337.724
336.861
336.012
335.176
334.354
333.545
332.748
331.965
331.191
330.425
329.662
328.911
328.177
327.453
326.735
326.021
325.312
324.607
323.905
323.205
322.507
321.81
321.112
320.413
319.712
319.008
318.3
317.587
316.868
316.142
315.408
314.666
313.915
313.153
312.382
311.599
310.806
310.002
309.186
308.358
307.519
306.668
305.805
304.931
304.046
303.149
302.241
374.643
374.946
375.25
375.554
375.859
376.161
376.46
376.754
377.042
377.323
377.595
377.857
378.107
378.343
378.564
378.769
378.955
379.122
379.267
379.39
379.489
379.561
379.608
379.624
379.612
379.571
379.498
379.393
379.254
379.081
378.873
378.63
378.35
378.035
377.683
377.295
376.871
376.41
375.912
375.379
374.81
374.207
373.569
372.897
372.193
371.457
370.693
369.897
369.073
368.222
367.347
366.45
365.536
364.606
363.657
362.691
361.708
360.713
359.712
358.703
357.686
356.666
355.642
354.608
353.57
352.543
351.516
350.48
349.455
348.447
347.439
346.439
345.448
344.463
343.496
342.546
341.598
340.663
339.749
338.85
337.965
337.094
336.239
335.398
334.573
333.763
332.967
332.185
331.418
330.661
329.912
329.168
328.435
327.719
327.013
326.313
325.617
324.925
324.236
323.549
322.864
322.18
321.495
320.809
320.12
319.428
318.732
318.031
317.322
316.607
315.882
315.149
314.406
313.653
312.889
312.114
311.327
310.528
309.718
308.895
308.06
307.213
306.353
305.482
304.599
303.705
302.8
301.885
377.782
378.089
378.394
378.698
378.998
379.293
379.582
379.863
380.135
380.396
380.645
380.88
381.1
381.303
381.487
381.652
381.794
381.914
382.008
382.076
382.119
382.128
382.112
382.064
381.983
381.87
381.722
381.538
381.32
381.064
380.772
380.443
380.076
379.671
379.228
378.747
378.23
377.675
377.082
376.452
375.786
375.088
374.355
373.587
372.787
371.957
371.099
370.221
369.32
368.395
367.446
366.476
365.49
364.49
363.476
362.447
361.406
360.355
359.293
358.224
357.151
356.08
355.009
353.934
352.862
351.8
350.739
349.68
348.637
347.606
346.581
345.571
344.574
343.585
342.616
341.667
340.728
339.805
338.902
338.016
337.146
336.293
335.457
334.637
333.833
333.046
332.274
331.518
330.775
330.045
329.324
328.608
327.901
327.211
326.531
325.858
325.187
324.52
323.854
323.191
322.529
321.867
321.203
320.535
319.866
319.191
318.512
317.825
317.131
316.429
315.717
314.994
314.259
313.513
312.755
311.985
311.204
310.409
309.603
308.784
307.952
307.109
306.253
305.386
304.508
303.619
302.72
301.813
300.898
381.112
381.409
381.702
381.988
382.266
382.534
382.792
383.036
383.267
383.482
383.68
383.859
384.017
384.154
384.267
384.355
384.416
384.451
384.451
384.428
384.37
384.28
384.156
383.997
383.802
383.57
383.301
382.995
382.65
382.266
381.844
381.383
380.883
380.342
379.763
379.146
378.494
377.801
377.072
376.307
375.509
374.686
373.835
372.955
372.045
371.108
370.15
369.171
368.172
367.153
366.116
365.061
363.991
362.908
361.816
360.716
359.608
358.495
357.379
356.264
355.153
354.045
352.941
351.845
350.76
349.681
348.612
347.561
346.522
345.496
344.489
343.497
342.519
341.562
340.626
339.706
338.805
337.925
337.065
336.223
335.401
334.596
333.808
333.038
332.284
331.547
330.825
330.118
329.424
328.74
328.062
327.39
326.733
326.088
325.45
324.814
324.18
323.547
322.916
322.286
321.655
321.02
320.382
319.736
319.085
318.426
317.76
317.085
316.402
315.709
315.005
314.288
313.559
312.818
312.065
311.299
310.521
309.731
308.928
308.114
307.287
306.449
305.6
304.74
303.871
302.994
302.11
301.22
383.981
384.261
384.532
384.794
385.044
385.282
385.505
385.712
385.902
386.073
386.222
386.35
386.454
386.532
386.585
386.607
386.6
386.565
386.496
386.395
386.258
386.087
385.878
385.633
385.35
385.027
384.666
384.265
383.825
383.343
382.821
382.26
381.661
381.019
380.338
379.619
378.867
378.086
377.271
376.422
375.54
374.63
373.696
372.736
371.752
370.742
369.704
368.646
367.569
366.476
365.37
364.25
363.119
361.98
360.835
359.686
358.534
357.382
356.232
355.086
353.948
352.818
351.696
350.587
349.493
348.411
347.345
346.298
345.268
344.256
343.266
342.294
341.341
340.41
339.501
338.612
337.744
336.898
336.075
335.273
334.492
333.729
332.985
332.258
331.549
330.856
330.179
329.517
328.868
328.229
327.598
326.973
326.358
325.754
325.159
324.568
323.977
323.385
322.791
322.194
321.595
320.994
320.388
319.774
319.153
318.523
317.885
317.238
316.582
315.915
315.239
314.552
313.854
313.143
312.421
311.686
310.94
310.182
309.412
308.632
307.84
307.037
306.226
305.405
304.577
303.742
302.902
302.059
386.917
387.158
387.385
387.598
387.795
387.973
388.133
388.272
388.388
388.48
388.547
388.588
388.597
388.58
388.531
388.45
388.335
388.185
387.999
387.777
387.516
387.217
386.879
386.502
386.082
385.622
385.122
384.582
383.998
383.373
382.709
382.009
381.278
380.51
379.703
378.862
377.992
377.094
376.165
375.205
374.212
373.19
372.144
371.078
369.99
368.88
367.752
366.608
365.451
364.283
363.106
361.922
360.735
359.547
358.359
357.174
355.995
354.822
353.658
352.507
351.368
350.244
349.138
348.05
346.98
345.931
344.904
343.899
342.916
341.957
341.021
340.107
339.217
338.351
337.507
336.687
335.889
335.114
334.362
333.632
332.921
332.23
331.557
330.901
330.262
329.638
329.029
328.433
327.848
327.272
326.703
326.14
325.584
325.035
324.487
323.939
323.391
322.838
322.281
321.722
321.158
320.59
320.018
319.44
318.853
318.257
317.652
317.037
316.412
315.776
315.13
314.474
313.806
313.128
312.438
311.738
311.027
310.306
309.575
308.835
308.086
307.33
306.567
305.798
305.024
304.248
303.47
389.55
389.734
389.9
390.046
390.171
390.274
390.352
390.406
390.432
390.427
390.397
390.334
390.238
390.109
389.944
389.744
389.506
389.23
388.915
388.56
388.164
387.727
387.251
386.731
386.168
385.564
384.924
384.249
383.536
382.782
381.992
381.172
380.319
379.431
378.507
377.546
376.556
375.538
374.493
373.419
372.319
371.195
370.052
368.89
367.713
366.522
365.319
364.107
362.888
361.665
360.441
359.219
358
356.788
355.584
354.39
353.209
352.043
350.893
349.763
348.652
347.564
346.498
345.456
344.438
343.447
342.481
341.541
340.628
339.741
338.879
338.044
337.234
336.448
335.687
334.949
334.233
333.541
332.871
332.221
331.591
330.979
330.385
329.807
329.245
328.696
328.162
327.638
327.12
326.605
326.095
325.587
325.085
324.585
324.085
323.583
323.082
322.578
322.069
321.557
321.039
320.516
319.987
319.451
318.906
318.352
317.789
317.217
316.634
316.042
315.439
314.827
314.205
313.573
312.932
312.282
311.624
310.957
310.284
309.604
308.918
308.227
307.533
306.837
306.14
305.443
304.747
304.055
391.686
391.817
391.927
392.014
392.077
392.116
392.123
392.107
392.06
391.981
391.87
391.725
391.545
391.329
391.075
390.783
390.451
390.079
389.668
389.214
388.717
388.178
387.6
386.988
386.337
385.644
384.913
384.15
383.351
382.514
381.637
380.723
379.776
378.796
377.784
376.738
375.662
374.558
373.431
372.279
371.106
369.913
368.703
367.479
366.244