/*--------------------------------*- C++ -*----------------------------------*\
| =========                 |                                                 |
| \\      /  F ield         | OpenFOAM: The Open Source CFD Toolbox           |
|  \\    /   O peration     | Version:  v1706                                 |
|   \\  /    A nd           | Web:      www.OpenFOAM.com                      |
|    \\/     M anipulation  |                                                 |
\*---------------------------------------------------------------------------*/
FoamFile
{
    version     2.0;
    format      ascii;
    class       volScalarField;
    location    "3.3e-05";
    object      Tv;
}
// * * * * * * * * * * * * * * * * * * * * * * * * * * * * * * * * * * * * * //

dimensions      [0 0 0 1 0 0 0];


internalField   nonuniform List<scalar> 
29871
(
144.4
144.4
144.4
144.4
144.4
144.4
144.4
144.4
144.4
144.4
144.4
144.4
144.4
144.4
144.4
144.4
144.4
144.4
144.4
144.4
144.4
144.4
144.4
144.4
144.4
144.4
144.4
144.4
144.4
144.4
144.4
144.4
144.4
144.4
144.4
144.4
144.4
144.4
144.4
144.4
144.4
144.4
144.4
144.4
144.4
144.4
144.4
144.4
144.4
144.4
144.4
144.4
144.4
144.4
144.4
144.4
144.4
144.4
144.4
144.4
144.4
144.4
144.4
144.4
144.4
144.4
144.4
144.4
144.4
144.4
144.4
144.4
144.4
144.4
144.4
144.4
144.4
144.4
144.4
144.4
144.4
144.4
144.4
144.4
144.4
144.4
144.4
144.4
144.4
144.4
144.4
144.4
144.4
144.4
144.4
144.4
144.4
144.4
144.4
144.4
144.4
144.4
144.4
144.4
144.4
144.4
144.4
144.4
144.4
144.4
144.4
144.4
144.4
144.4
144.4
144.4
144.4
144.4
144.4
144.4
144.4
144.4
144.4
144.4
144.4
144.4
144.4
144.4
144.4
144.4
144.4
144.4
144.4
144.4
144.4
144.4
144.4
144.4
144.4
144.401
144.401
144.401
144.401
144.401
144.401
144.401
144.401
144.401
144.401
144.401
144.401
144.401
144.401
144.401
144.401
144.401
144.401
144.401
144.401
144.401
144.401
144.401
144.4
144.4
144.4
144.4
144.4
144.4
144.4
144.4
144.4
144.4
144.4
144.4
144.4
144.4
144.4
144.4
144.4
144.4
144.4
144.4
144.4
144.4
144.4
144.4
144.4
144.4
144.4
144.4
144.4
144.4
144.4
144.4
144.4
144.4
144.4
144.4
144.4
144.4
144.4
144.4
144.4
144.4
144.4
144.4
144.4
144.4
144.4
144.4
144.4
144.4
144.4
144.4
144.4
144.4
144.4
144.4
144.4
144.4
144.4
144.4
144.4
144.401
144.401
144.401
144.401
144.401
144.401
144.401
144.401
144.401
144.401
144.401
144.401
144.401
144.401
144.401
144.401
144.402
144.402
144.402
144.402
144.402
144.402
144.402
144.402
144.402
144.402
144.402
144.402
144.402
144.402
144.402
144.402
144.402
144.402
144.402
144.402
144.402
144.402
144.402
144.402
144.402
144.402
144.402
144.402
144.402
144.402
144.402
144.402
144.402
144.402
144.402
144.402
144.402
144.401
144.401
144.401
144.401
144.401
144.401
144.401
144.401
144.401
144.401
144.401
144.401
144.401
144.401
144.401
144.4
144.4
144.4
144.4
144.4
144.4
144.4
144.4
144.4
144.4
144.4
144.4
144.4
144.4
144.4
144.4
144.4
144.4
144.4
144.4
144.4
144.4
144.4
144.4
144.4
144.4
144.401
144.401
144.401
144.401
144.401
144.401
144.401
144.401
144.401
144.401
144.401
144.402
144.402
144.402
144.402
144.402
144.402
144.403
144.403
144.403
144.403
144.403
144.404
144.404
144.404
144.404
144.405
144.405
144.405
144.405
144.406
144.406
144.406
144.406
144.407
144.407
144.407
144.407
144.407
144.408
144.408
144.408
144.408
144.408
144.408
144.408
144.408
144.408
144.408
144.408
144.408
144.408
144.408
144.408
144.408
144.407
144.407
144.407
144.407
144.407
144.406
144.406
144.406
144.406
144.405
144.405
144.405
144.405
144.404
144.404
144.404
144.404
144.403
144.403
144.403
144.403
144.402
144.402
144.402
144.402
144.402
144.402
144.401
144.401
144.401
144.401
144.401
144.401
144.401
144.401
144.4
144.4
144.4
144.4
144.4
144.4
144.4
144.4
144.4
144.4
144.4
144.4
144.4
144.4
144.4
144.402
144.402
144.402
144.402
144.402
144.402
144.403
144.403
144.403
144.404
144.404
144.404
144.405
144.405
144.405
144.406
144.406
144.407
144.408
144.408
144.409
144.409
144.41
144.411
144.411
144.412
144.413
144.414
144.414
144.415
144.416
144.417
144.418
144.418
144.419
144.42
144.421
144.421
144.422
144.423
144.423
144.424
144.424
144.425
144.425
144.425
144.425
144.426
144.426
144.426
144.426
144.425
144.425
144.425
144.425
144.424
144.424
144.423
144.423
144.422
144.422
144.421
144.42
144.42
144.419
144.418
144.417
144.416
144.416
144.415
144.414
144.413
144.412
144.412
144.411
144.41
144.409
144.409
144.408
144.407
144.407
144.406
144.406
144.405
144.405
144.404
144.404
144.403
144.403
144.403
144.402
144.402
144.402
144.401
144.401
144.401
144.401
144.401
144.401
144.401
144.4
144.4
144.4
144.4
144.4
144.4
144.4
144.405
144.405
144.406
144.406
144.407
144.407
144.408
144.409
144.41
144.41
144.411
144.412
144.414
144.415
144.416
144.417
144.419
144.42
144.422
144.423
144.425
144.427
144.429
144.431
144.433
144.435
144.437
144.439
144.442
144.444
144.446
144.449
144.451
144.453
144.455
144.458
144.46
144.462
144.464
144.465
144.467
144.469
144.47
144.471
144.472
144.473
144.474
144.475
144.475
144.475
144.475
144.475
144.474
144.473
144.473
144.472
144.47
144.469
144.467
144.466
144.464
144.462
144.46
144.458
144.456
144.453
144.451
144.449
144.446
144.444
144.442
144.439
144.437
144.435
144.432
144.43
144.428
144.426
144.424
144.422
144.42
144.418
144.417
144.415
144.414
144.412
144.411
144.41
144.409
144.408
144.407
144.406
144.405
144.404
144.404
144.403
144.403
144.402
144.402
144.402
144.401
144.401
144.401
144.401
144.401
144.401
144.4
144.41
144.411
144.412
144.413
144.414
144.416
144.417
144.419
144.42
144.422
144.424
144.427
144.429
144.432
144.434
144.437
144.44
144.444
144.447
144.451
144.455
144.459
144.464
144.468
144.473
144.479
144.484
144.489
144.495
144.501
144.507
144.513
144.519
144.525
144.531
144.538
144.544
144.55
144.556
144.561
144.567
144.572
144.577
144.582
144.586
144.59
144.593
144.596
144.599
144.601
144.602
144.603
144.604
144.603
144.603
144.602
144.6
144.598
144.595
144.592
144.588
144.584
144.58
144.575
144.57
144.565
144.559
144.553
144.547
144.54
144.534
144.528
144.521
144.515
144.508
144.502
144.496
144.49
144.484
144.478
144.472
144.467
144.461
144.456
144.452
144.447
144.443
144.439
144.435
144.431
144.428
144.425
144.422
144.419
144.417
144.415
144.413
144.411
144.41
144.408
144.407
144.406
144.405
144.404
144.404
144.403
144.402
144.402
144.402
144.401
144.426
144.428
144.431
144.434
144.438
144.441
144.445
144.449
144.454
144.459
144.464
144.47
144.476
144.482
144.489
144.497
144.505
144.513
144.522
144.532
144.542
144.553
144.564
144.576
144.588
144.601
144.615
144.628
144.643
144.657
144.672
144.687
144.702
144.718
144.733
144.748
144.763
144.778
144.793
144.807
144.82
144.833
144.845
144.857
144.867
144.877
144.885
144.893
144.899
144.904
144.907
144.91
144.911
144.91
144.909
144.906
144.902
144.897
144.89
144.883
144.874
144.865
144.854
144.842
144.83
144.817
144.803
144.788
144.773
144.758
144.742
144.726
144.71
144.694
144.678
144.662
144.647
144.631
144.616
144.601
144.587
144.573
144.56
144.547
144.535
144.523
144.512
144.502
144.492
144.483
144.474
144.466
144.459
144.452
144.446
144.44
144.435
144.43
144.426
144.423
144.419
144.417
144.414
144.412
144.41
144.408
144.407
144.406
144.405
144.404
144.466
144.472
144.479
144.487
144.495
144.503
144.513
144.523
144.534
144.546
144.559
144.573
144.588
144.603
144.62
144.638
144.658
144.678
144.699
144.722
144.746
144.771
144.798
144.825
144.854
144.884
144.914
144.946
144.979
145.012
145.046
145.08
145.114
145.149
145.183
145.217
145.25
145.283
145.315
145.346
145.376
145.404
145.431
145.456
145.479
145.499
145.517
145.533
145.547
145.557
145.565
145.571
145.572
145.572
145.568
145.562
145.554
145.542
145.529
145.512
145.494
145.473
145.45
145.424
145.397
145.369
145.338
145.306
145.273
145.239
145.204
145.168
145.132
145.095
145.059
145.023
144.987
144.952
144.917
144.883
144.85
144.818
144.786
144.756
144.728
144.7
144.674
144.649
144.626
144.604
144.583
144.564
144.546
144.53
144.515
144.501
144.489
144.478
144.467
144.458
144.45
144.443
144.437
144.431
144.426
144.422
144.419
144.415
144.413
144.41
144.559
144.574
144.59
144.608
144.627
144.647
144.669
144.693
144.718
144.746
144.775
144.806
144.84
144.875
144.913
144.953
144.996
145.04
145.088
145.137
145.189
145.243
145.3
145.358
145.418
145.48
145.544
145.61
145.676
145.744
145.813
145.881
145.95
146.019
146.087
146.153
146.219
146.282
146.344
146.403
146.46
146.513
146.563
146.61
146.652
146.691
146.725
146.754
146.778
146.798
146.812
146.822
146.824
146.822
146.816
146.804
146.788
146.766
146.74
146.709
146.674
146.634
146.59
146.542
146.49
146.435
146.376
146.314
146.25
146.183
146.115
146.044
145.972
145.899
145.826
145.753
145.68
145.607
145.536
145.466
145.396
145.329
145.263
145.199
145.138
145.079
145.022
144.968
144.917
144.869
144.824
144.781
144.741
144.705
144.671
144.64
144.611
144.585
144.562
144.541
144.522
144.505
144.49
144.477
144.465
144.455
144.446
144.439
144.432
144.427
144.766
144.799
144.835
144.873
144.914
144.958
145.006
145.056
145.111
145.168
145.23
145.296
145.365
145.438
145.515
145.597
145.682
145.771
145.864
145.961
146.061
146.165
146.272
146.382
146.494
146.609
146.726
146.844
146.963
147.083
147.203
147.322
147.441
147.558
147.673
147.785
147.894
147.999
148.1
148.196
148.287
148.373
148.452
148.526
148.592
148.652
148.704
148.749
148.787
148.816
148.838
148.851
148.853
148.849
148.837
148.818
148.79
148.755
148.712
148.662
148.604
148.539
148.467
148.389
148.305
148.214
148.116
148.013
147.906
147.795
147.678
147.557
147.433
147.308
147.181
147.053
146.923
146.793
146.664
146.536
146.409
146.283
146.16
146.04
145.923
145.81
145.7
145.595
145.494
145.398
145.307
145.22
145.14
145.064
144.993
144.928
144.868
144.813
144.763
144.718
144.677
144.64
144.607
144.578
144.552
144.529
144.509
144.492
144.477
144.464
145.13
145.193
145.261
145.333
145.41
145.493
145.581
145.674
145.773
145.878
145.988
146.105
146.228
146.356
146.49
146.63
146.776
146.927
147.083
147.244
147.409
147.578
147.751
147.927
148.105
148.286
148.468
148.65
148.833
149.015
149.196
149.376
149.552
149.726
149.896
150.061
150.221
150.375
150.523
150.663
150.796
150.921
151.037
151.144
151.242
151.33
151.409
151.477
151.535
151.583
151.619
151.646
151.66
151.659
151.652
151.633
151.604
151.564
151.514
151.453
151.381
151.3
151.209
151.108
150.998
150.878
150.749
150.611
150.465
150.311
150.15
149.98
149.803
149.621
149.434
149.244
149.049
148.851
148.651
148.449
148.248
148.045
147.842
147.642
147.444
147.25
147.06
146.873
146.692
146.515
146.345
146.181
146.025
145.876
145.736
145.604
145.48
145.365
145.258
145.16
145.07
144.988
144.913
144.846
144.786
144.732
144.684
144.642
144.605
144.573
144.545
145.885
146.003
146.128
146.261
146.401
146.549
146.705
146.869
147.04
147.219
147.405
147.599
147.8
148.008
148.222
148.443
148.669
148.9
149.136
149.375
149.618
149.864
150.112
150.36
150.61
150.859
151.107
151.354
151.597
151.838
152.074
152.306
152.533
152.753
152.966
153.173
153.371
153.56
153.74
153.911
154.071
154.22
154.359
154.485
154.6
154.703
154.793
154.871
154.936
154.988
155.028
155.055
155.064
155.061
155.047
155.021
154.981
154.929
154.863
154.786
154.695
154.592
154.478
154.351
154.212
154.061
153.899
153.725
153.54
153.345
153.139
152.921
152.693
152.457
152.214
151.964
151.705
151.44
151.171
150.898
150.621
150.339
150.055
149.771
149.488
149.207
148.927
148.649
148.375
148.105
147.841
147.583
147.333
147.092
146.861
146.64
146.429
146.231
146.044
145.87
145.708
145.558
145.421
145.295
145.181
145.078
144.986
144.903
144.83
144.766
144.709
144.66
144.618
147.184
147.38
147.586
147.801
148.025
148.258
148.499
148.749
149.008
149.274
149.547
149.827
150.113
150.405
150.702
151.004
151.309
151.617
151.927
152.239
152.551
152.863
153.175
153.484
153.791
154.095
154.395
154.69
154.98
155.263
155.539
155.808
156.069
156.32
156.563
156.795
157.017
157.228
157.428
157.616
157.791
157.954
158.104
158.24
158.362
158.471
158.566
158.646
158.713
158.765
158.802
158.824
158.826
158.819
158.797
158.762
158.711
158.646
158.567
158.474
158.367
158.246
158.111
157.963
157.801
157.625
157.436
157.234
157.018
156.789
156.548
156.292
156.024
155.745
155.456
155.157
154.847
154.527
154.199
153.865
153.524
153.176
152.82
152.461
152.1
151.737
151.373
151.008
150.642
150.278
149.916
149.558
149.206
148.861
148.524
148.197
147.882
147.578
147.288
147.012
146.751
146.506
146.277
146.064
145.868
145.688
145.524
145.375
145.242
145.123
145.017
144.924
144.843
148.615
148.882
149.159
149.445
149.74
150.045
150.358
150.679
151.007
151.342
151.684
152.031
152.384
152.741
153.101
153.464
153.83
154.197
154.565
154.933
155.3
155.665
156.028
156.388
156.744
157.096
157.442
157.782
158.115
158.441
158.759
159.068
159.368
159.658
159.938
160.206
160.464
160.709
160.943
161.163
161.371
161.566
161.746
161.913
162.065
162.203
162.326
162.434
162.527
162.604
162.667
162.714
162.745
162.757
162.754
162.738
162.708
162.661
162.6
162.522
162.43
162.323
162.201
162.064
161.912
161.746
161.565
161.369
161.159
160.934
160.694
160.439
160.17
159.886
159.587
159.276
158.953
158.617
158.267
157.905
157.534
157.154
156.763
156.363
155.952
155.535
155.111
154.682
154.249
153.81
153.368
152.923
152.477
152.03
151.585
151.142
150.705
150.274
149.851
149.437
149.035
148.646
148.272
147.913
147.572
147.249
146.946
146.662
146.399
146.157
145.935
145.734
145.553
145.39
145.246
151.09
151.443
151.805
152.175
152.552
152.936
153.326
153.721
154.121
154.525
154.933
155.343
155.756
156.17
156.584
156.999
157.413
157.825
158.236
158.644
159.048
159.448
159.843
160.232
160.615
160.991
161.36
161.721
162.072
162.414
162.747
163.069
163.38
163.679
163.966
164.241
164.503
164.752
164.988
165.209
165.417
165.61
165.788
165.952
166.1
166.233
166.351
166.453
166.539
166.609
166.665
166.704
166.724
166.725
166.715
166.69
166.648
166.591
166.517
166.427
166.322
166.202
166.065
165.914
165.747
165.565
165.368
165.155
164.927
164.683
164.424
164.149
163.858
163.551
163.23
162.893
162.544
162.179
161.801
161.408
161.004
160.589
160.162
159.723
159.272
158.811
158.341
157.863
157.377
156.883
156.382
155.875
155.363
154.846
154.326
153.805
153.284
152.765
152.249
151.738
151.234
150.739
150.255
149.783
149.326
148.886
148.464
148.063
147.683
147.326
146.993
146.685
146.402
146.144
145.91
145.7
151.368
151.739
152.119
152.507
152.904
153.309
153.721
154.139
154.564
154.994
155.429
155.869
156.312
156.758
157.208
157.659
158.111
158.564
159.018
159.471
159.922
160.372
160.82
161.264
161.705
162.141
162.572
162.998
163.418
163.83
164.236
164.633
165.021
165.4
165.77
166.129
166.477
166.814
167.139
167.452
167.752
168.039
168.312
168.572
168.818
169.049
169.265
169.466
169.653
169.824
169.979
170.119
170.243
170.351
170.444
170.52
170.58
170.624
170.651
170.657
170.651
170.63
170.593
170.539
170.469
170.384
170.281
170.163
170.029
169.88
169.714
169.534
169.337
169.125
168.897
168.654
168.394
168.118
167.825
167.517
167.192
166.851
166.495
166.124
165.738
165.337
164.922
164.493
164.051
163.596
163.127
162.647
162.154
161.65
161.135
160.61
160.075
159.531
158.979
158.417
157.849
157.274
156.694
156.11
155.523
154.935
154.347
153.762
153.18
152.603
152.035
151.476
150.929
150.397
149.881
149.385
148.909
148.457
148.029
147.628
147.255
146.91
146.594
154.393
154.833
155.28
155.733
156.192
156.655
157.123
157.595
158.071
158.549
159.03
159.512
159.996
160.481
160.966
161.45
161.934
162.416
162.896
163.373
163.848
164.319
164.785
165.246
165.703
166.153
166.596
167.032
167.461
167.881
168.293
168.694
169.086
169.468
169.838
170.197
170.544
170.879
171.2
171.509
171.803
172.084
172.351
172.603
172.839
173.061
173.268
173.459
173.635
173.794
173.938
174.066
174.178
174.274
174.353
174.417
174.464
174.494
174.506
174.501
174.484
174.45
174.4
174.333
174.25
174.151
174.036
173.905
173.757
173.595
173.416
173.222
173.012
172.786
172.544
172.286
172.012
171.721
171.413
171.089
170.749
170.392
170.019
169.631
169.227
168.808
168.374
167.925
167.462
166.985
166.494
165.99
165.472
164.942
164.4
163.846
163.282
162.706
162.119
161.523
160.917
160.302
159.679
159.049
158.414
157.773
157.129
156.483
155.836
155.19
154.547
153.908
153.276
152.653
152.041
151.443
150.862
150.299
149.758
149.241
148.75
148.286
147.853
157.796
158.287
158.782
159.28
159.782
160.286
160.792
161.3
161.81
162.32
162.83
163.34
163.85
164.358
164.865
165.369
165.871
166.37
166.866
167.357
167.843
168.325
168.8
169.27
169.733
170.188
170.635
171.074
171.505
171.925
172.336
172.736
173.125
173.503
173.868
174.221
174.562
174.889
175.202
175.501
175.786
176.057
176.312
176.552
176.777
176.986
177.179
177.357
177.518
177.664
177.793
177.907
178.004
178.085
178.149
178.198
178.23
178.243
178.241
178.225
178.193
178.146
178.082
178.001
177.904
177.792
177.663
177.519
177.358
177.182
176.991
176.784
176.56
176.321
176.066
175.794
175.506
175.202
174.88
174.542
174.188
173.817
173.43
173.026
172.607
172.172
171.722
171.256
170.776
170.281
169.772
169.249
168.712
168.162
167.598
167.022
166.434
165.834
165.223
164.6
163.966
163.323
162.669
162.007
161.337
160.659
159.975
159.287
158.594
157.898
157.202
156.505
155.811
155.121
154.437
153.762
153.097
152.446
151.81
151.194
150.598
150.027
149.481
161.432
161.958
162.485
163.014
163.544
164.075
164.606
165.137
165.667
166.197
166.726
167.252
167.777
168.299
168.818
169.334
169.845
170.353
170.855
171.352
171.843
172.328
172.806
173.277
173.74
174.194
174.64
175.076
175.502
175.918
176.323
176.716
177.098
177.467
177.823
178.167
178.496
178.811
179.113
179.399
179.67
179.927
180.168
180.393
180.602
180.796
180.973
181.134
181.28
181.409
181.522
181.618
181.699
181.763
181.811
181.843
181.857
181.855
181.84
181.809
181.762
181.699
181.621
181.526
181.415
181.288
181.147
180.989
180.815
180.626
180.422
180.202
179.966
179.714
179.446
179.161
178.86
178.543
178.208
177.857
177.49
177.106
176.705
176.288
175.856
175.407
174.942
174.462
173.967
173.457
172.933
172.393
171.84
171.273
170.693
170.099
169.493
168.874
168.244
167.601
166.947
166.283
165.607
164.922
164.228
163.524
162.814
162.096
161.372
160.643
159.911
159.176
158.44
157.704
156.971
156.242
155.518
154.803
154.099
153.407
152.731
152.074
151.437
150.823
150.236
165.195
165.743
166.292
166.84
167.388
167.935
168.482
169.026
169.57
170.111
170.649
171.185
171.717
172.246
172.77
173.29
173.805
174.314
174.818
175.315
175.806
176.289
176.764
177.231
177.689
178.138
178.577
179.006
179.424
179.831
180.226
180.609
180.979
181.336
181.679
182.009
182.324
182.625
182.91
183.181
183.436
183.675
183.899
184.107
184.298
184.474
184.633
184.776
184.903
185.014
185.108
185.187
185.249
185.295
185.326
185.338
185.335
185.32
185.289
185.242
185.179
185.101
185.007
184.898
184.773
184.633
184.477
184.307
184.12
183.918
183.701
183.468
183.22
182.955
182.675
182.378
182.065
181.735
181.388
181.025
180.645
180.248
179.835
179.406
178.961
178.499
178.022
177.529
177.021
176.497
175.959
175.406
174.839
174.258
173.664
173.056
172.436
171.802
171.157
170.5
169.831
169.151
168.46
167.759
167.048
166.328
165.6
164.863
164.12
163.371
162.616
161.857
161.096
160.332
159.568
158.806
158.046
157.29
156.541
155.801
155.071
154.354
153.652
152.968
152.304
169.013
169.575
170.136
170.696
171.255
171.811
172.366
172.918
173.468
174.014
174.556
175.095
175.63
176.16
176.684
177.204
177.717
178.224
178.724
179.217
179.702
180.18
180.648
181.107
181.557
181.997
182.425
182.843
183.249
183.644
184.025
184.394
184.75
185.091
185.419
185.732
186.03
186.313
186.58
186.832
187.069
187.289
187.493
187.681
187.853
188.008
188.148
188.271
188.378
188.469
188.544
188.603
188.646
188.673
188.683
188.679
188.661
188.629
188.581
188.517
188.439
188.345
188.237
188.113
187.974
187.82
187.652
187.468
187.269
187.054
186.825
186.58
186.319
186.042
185.75
185.441
185.116
184.774
184.416
184.04
183.649
183.24
182.816
182.375
181.917
181.444
180.954
180.45
179.929
179.394
178.844
178.279
177.7
177.108
176.502
175.883
175.251
174.606
173.95
173.282
172.603
171.912
171.211
170.5
169.779
169.049
168.31
167.563
166.81
166.049
165.283
164.513
163.738
162.961
162.182
161.403
160.624
159.848
159.076
158.309
157.549
156.798
156.058
155.331
154.619
172.265
172.837
173.407
173.975
174.542
175.105
175.666
176.224
176.779
177.33
177.876
178.419
178.956
179.489
180.015
180.536
181.051
181.559
182.06
182.553
183.038
183.515
183.982
184.44
184.888
185.326
185.753
186.169
186.572
186.964
187.343
187.708
188.06
188.398
188.721
189.03
189.324
189.603
189.866
190.113
190.344
190.559
190.758
190.941
191.108
191.258
191.392
191.51
191.612
191.698
191.768
191.823
191.861
191.885
191.891
191.884
191.864
191.829
191.778
191.714
191.634
191.54
191.431
191.308
191.171
191.019
190.851
190.67
190.474
190.262
190.035
189.794
189.537
189.265
188.976
188.672
188.351
188.015
187.661
187.291
186.905
186.501
186.082
185.646
185.193
184.725
184.24
183.739
183.224
182.693
182.147
181.586
181.011
180.422
179.819
179.204
178.576
177.935
177.282
176.618
175.943
175.257
174.56
173.853
173.136
172.411
171.676
170.934
170.184
169.427
168.664
167.896
167.123
166.346
165.566
164.785
164.002
163.22
162.439
161.66
160.885
160.116
159.353
158.598
157.853
157.119
176.061
176.637
177.21
177.781
178.349
178.914
179.475
180.032
180.585
181.134
181.677
182.216
182.748
183.275
183.796
184.309
184.816
185.315
185.807
186.289
186.763
187.228
187.683
188.128
188.562
188.985
189.397
189.796
190.183
190.557
190.917
191.264
191.597
191.915
192.218
192.506
192.778
193.035
193.276
193.501
193.71
193.902
194.078
194.238
194.382
194.509
194.621
194.716
194.796
194.86
194.909
194.942
194.961
194.962
194.952
194.928
194.89
194.837
194.769
194.688
194.593
194.484
194.361
194.224
194.073
193.908
193.728
193.534
193.326
193.103
192.864
192.611
192.343
192.059
191.759
191.443
191.111
190.763
190.399
190.017
189.619
189.205
188.774
188.327
187.864
187.385
186.889
186.379
185.852
185.311
184.756
184.186
183.602
183.004
182.394
181.771
181.136
180.49
179.832
179.163
178.483
177.794
177.095
176.386
175.669
174.943
174.21
173.47
172.722
171.969
171.211
170.448
169.681
168.91
168.138
167.364
166.589
165.815
165.041
164.271
163.503
162.74
161.982
161.231
160.487
159.752
159.027
158.313
179.814
180.391
180.965
181.535
182.101
182.663
183.221
183.774
184.322
184.865
185.402
185.933
186.458
186.976
187.487
187.991
188.487
188.974
189.453
189.923
190.383
190.833
191.273
191.702
192.12
192.525
192.919
193.3
193.667
194.021
194.361
194.687
194.998
195.294
195.575
195.84
196.089
196.322
196.539
196.74
196.925
197.093
197.245
197.381
197.501
197.605
197.693
197.765
197.822
197.865
197.891
197.903
197.9
197.886
197.857
197.814
197.758
197.688
197.605
197.508
197.398
197.275
197.138
196.988
196.824
196.646
196.455
196.249
196.029
195.794
195.545
195.28
195.001
194.706
194.395
194.068
193.725
193.366
192.99
192.598
192.189
191.764
191.322
190.865
190.391
189.901
189.396
188.876
188.34
187.79
187.226
186.648
186.057
185.453
184.837
184.209
183.569
182.919
182.259
181.588
180.908
180.219
179.521
178.815
178.102
177.381
176.654
175.921
175.182
174.439
173.691
172.94
172.186
171.43
170.673
169.915
169.157
168.401
167.646
166.894
166.145
165.4
164.661
163.927
163.2
162.48
161.768
161.065
183.51
184.084
184.654
185.22
185.782
186.339
186.89
187.436
187.977
188.511
189.039
189.56
190.075
190.582
191.081
191.572
192.054
192.527
192.991
193.445
193.889
194.323
194.745
195.156
195.554
195.94
196.314
196.673
197.02
197.352
197.669
197.972
198.259
198.531
198.788
199.028
199.252
199.461
199.652
199.828
199.987
200.13
200.257
200.368
200.464
200.543
200.608
200.657
200.692
200.712
200.716
200.708
200.688
200.654
200.607
200.546
200.473
200.387
200.289
200.177
200.053
199.917
199.767
199.605
199.429
199.239
199.036
198.82
198.589
198.343
198.083
197.808
197.517
197.211
196.889
196.552
196.198
195.828
195.441
195.038
194.619
194.183
193.731
193.263
192.78
192.281
191.766
191.237
190.693
190.136
189.564
188.98
188.383
187.775
187.155
186.524
185.883
185.232
184.571
183.903
183.225
182.54
181.848
181.149
180.444
179.733
179.016
178.296
177.571
176.843
176.112
175.379
174.645
173.91
173.175
172.441
171.707
170.976
170.248
169.523
168.801
168.084
167.372
166.666
165.966
165.272
164.585
163.906
187.136
187.705
188.269
188.828
189.383
189.931
190.474
191.011
191.541
192.064
192.581
193.09
193.591
194.084
194.569
195.045
195.511
195.968
196.415
196.851
197.277
197.691
198.094
198.484
198.861
199.226
199.577
199.914
200.237
200.545
200.838
201.116
201.378
201.625
201.855
202.069
202.267
202.449
202.615
202.764
202.897
203.015
203.116
203.202
203.272
203.328
203.368
203.395
203.406
203.404
203.39
203.363
203.324
203.271
203.206
203.13
203.041
202.94
202.827
202.703
202.566
202.417
202.255
202.081
201.894
201.694
201.48
201.253
201.012
200.756
200.485
200.199
199.898
199.581
199.249
198.901
198.536
198.155
197.758
197.345
196.915
196.469
196.007
195.53
195.037
194.529
194.006
193.47
192.919
192.355
191.778
191.189
190.589
189.978
189.356
188.725
188.085
187.436
186.78
186.116
185.445
184.768
184.085
183.397
182.704
182.008
181.307
180.604
179.898
179.19
178.482
177.773
177.064
176.355
175.648
174.943
174.241
173.541
172.845
172.153
171.465
170.782
170.104
169.432
168.765
168.105
167.45
166.801
166.159
191.244
191.8
192.351
192.895
193.433
193.965
194.49
195.008
195.518
196.021
196.515
197.001
197.478
197.947
198.405
198.854
199.292
199.72
200.137
200.542
200.935
201.315
201.683
202.038
202.379
202.706
203.018
203.316
203.599
203.866
204.117
204.353
204.573
204.776
204.963
205.134
205.289
205.427
205.55
205.656
205.747
205.823
205.883
205.929
205.96
205.978
205.98
205.972
205.951
205.917
205.871
205.813
205.744
205.663
205.571
205.468
205.354
205.228
205.091
204.942
204.782
204.61
204.425
204.228
204.018
203.794
203.557
203.305
203.039
202.758
202.462
202.151
201.824
201.481
201.122
200.747
200.356
199.948
199.525
199.085
198.63
198.159
197.672
197.171
196.655
196.126
195.582
195.026
194.457
193.877
193.286
192.684
192.073
191.453
190.824
190.188
189.545
188.895
188.24
187.58
186.914
186.245
185.572
184.896
184.218
183.537
182.856
182.174
181.491
180.809
180.129
179.449
178.772
178.098
177.427
176.759
176.095
175.435
174.78
174.13
173.484
172.844
172.209
171.58
170.956
170.337
169.723
169.114
194.696
195.242
195.781
196.313
196.839
197.358
197.869
198.372
198.867
199.354
199.832
200.301
200.76
201.21
201.649
202.078
202.496
202.903
203.298
203.681
204.051
204.408
204.752
205.082
205.398
205.699
205.986
206.257
206.512
206.752
206.976
207.184
207.376
207.551
207.711
207.854
207.98
208.091
208.187
208.266
208.331
208.381
208.417
208.439
208.445
208.441
208.424
208.395
208.354
208.302
208.239
208.164
208.08
207.984
207.878
207.762
207.636
207.499
207.351
207.192
207.021
206.839
206.645
206.438
206.218
205.985
205.738
205.476
205.201
204.91
204.604
204.282
203.945
203.592
203.223
202.838
202.436
202.019
201.586
201.137
200.673
200.193
199.699
199.191
198.669
198.133
197.585
197.025
196.454
195.872
195.281
194.68
194.072
193.456
192.833
192.204
191.57
190.931
190.288
189.641
188.992
188.34
187.686
187.03
186.375
185.718
185.063
184.408
183.755
183.104
182.455
181.809
181.167
180.528
179.893
179.263
178.637
178.016
177.4
176.788
176.182
175.581
174.985
174.393
173.806
173.224
172.645
172.071
198.588
199.114
199.633
200.144
200.648
201.143
201.63
202.108
202.577
203.037
203.487
203.927
204.356
204.775
205.182
205.578
205.962
206.334
206.693
207.039
207.371
207.689
207.993
208.282
208.557
208.816
209.059
209.287
209.498
209.694
209.873
210.036
210.183
210.313
210.428
210.527
210.61
210.678
210.732
210.771
210.796
210.807
210.804
210.791
210.766
210.729
210.681
210.622
210.553
210.474
210.385
210.286
210.178
210.06
209.933
209.795
209.648
209.49
209.322
209.142
208.951
208.748
208.532
208.303
208.061
207.804
207.534
207.248
206.948
206.632
206.301
205.954
205.591
205.212
204.817
204.406
203.979
203.537
203.08
202.608
202.121
201.621
201.107
200.58
200.041
199.49
198.928
198.357
197.776
197.187
196.59
195.987
195.379
194.765
194.147
193.525
192.9
192.273
191.643
191.013
190.382
189.751
189.12
188.49
187.861
187.235
186.611
185.989
185.372
184.757
184.147
183.541
182.94
182.343
181.751
181.164
180.582
180.005
179.432
178.865
178.302
177.743
177.189
176.638
176.091
175.547
175.005
202.347
202.851
203.346
203.833
204.31
204.779
205.239
205.688
206.128
206.558
206.976
207.384
207.78
208.165
208.537
208.897
209.244
209.578
209.897
210.203
210.495
210.771
211.033
211.279
211.509
211.724
211.922
212.105
212.271
212.421
212.555
212.673
212.775
212.861
212.932
212.988
213.03
213.057
213.071
213.071
213.06
213.037
213.003
212.958
212.903
212.837
212.762
212.678
212.585
212.483
212.373
212.253
212.125
211.988
211.841
211.685
211.519
211.342
211.154
210.954
210.743
210.518
210.281
210.03
209.765
209.485
209.19
208.881
208.555
208.214
207.858
207.485
207.097
206.693
206.273
205.838
205.388
204.924
204.445
203.953
203.448
202.93
202.4
201.859
201.308
200.747
200.178
199.601
199.017
198.428
197.833
197.235
196.633
196.029
195.423
194.815
194.207
193.599
192.991
192.384
191.778
191.174
190.573
189.975
189.379
188.788
188.201
187.618
187.039
186.465
185.897
185.333
184.774
184.22
183.671
183.127
182.587
182.052
181.522
180.995
180.472
179.952
179.435
178.92
178.407
177.896
177.386
176.877
205.478
205.964
206.441
206.91
207.369
207.818
208.257
208.686
209.104
209.512
209.908
210.292
210.665
211.025
211.372
211.707
212.028
212.335
212.627
212.906
213.169
213.417
213.65
213.867
214.068
214.253
214.422
214.574
214.711
214.831
214.936
215.025
215.098
215.156
215.2
215.229
215.245
215.246
215.238
215.217
215.185
215.141
215.088
215.025
214.953
214.873
214.784
214.687
214.582
214.469
214.348
214.219
214.082
213.937
213.782
213.618
213.444
213.26
213.064
212.857
212.638
212.406
212.16
211.901
211.627
211.338
211.035
210.716
210.381
210.031
209.666
209.284
208.888
208.475
208.048
207.606
207.15
206.679
206.196
205.7
205.191
204.672
204.141
203.601
203.052
202.495
201.931
201.36
200.785
200.206
199.623
199.038
198.452
197.864
197.277
196.69
196.103
195.519
194.936
194.355