/*--------------------------------*- C++ -*----------------------------------*\
| =========                 |                                                 |
| \\      /  F ield         | OpenFOAM: The Open Source CFD Toolbox           |
|  \\    /   O peration     | Version:  v1706                                 |
|   \\  /    A nd           | Web:      www.OpenFOAM.com                      |
|    \\/     M anipulation  |                                                 |
\*---------------------------------------------------------------------------*/
FoamFile
{
    version     2.0;
    format      ascii;
    class       volScalarField;
    location    "3.3e-05";
    object      wallHeatFlux;
}
// * * * * * * * * * * * * * * * * * * * * * * * * * * * * * * * * * * * * * //

dimensions      [1 0 -3 0 0 0 0];


internalField   uniform 0;

boundaryField
{
    cone
    {
        type            calculated;
        value           nonuniform List<scalar> 
181
(
1633.42
1671.51
1703.9
1730.3
1750.6
1765.07
1773.87
1777.44
1776.54
1772.18
1765.4
1757.4
1749.73
1743.72
1740.85
1743.73
1753.7
1770.17
1795.27
1830.4
1876.33
1933.29
2001.06
2078.82
2165.03
2257.27
2352.09
2444.87
2529.83
2600.09
2647.94
2665.38
2646.55
2586.1
2475.07
2312.17
2100.26
1845.44
1557.03
1246.33
925.352
605.476
296.052
3.96006
-266.336
-512.5
-733.88
-931.011
-1105.19
-1258.16
-1391.8
-1508.02
-1608.68
-1695.53
-1770.03
-1833.42
-1887.72
-1933.68
-1971.58
-2002.53
-2027.4
-2046.88
-2061.5
-2072.01
-2078.74
-2081.85
-2081.82
-2078.98
-2073.6
-2065.89
-2056.04
-2044.22
-2030.57
-2015.2
-1998.19
-1979.63
-1959.57
-1938.07
-1915.18
-1890.96
-1865.47
-1838.77
-1810.95
-1782.1
-1752.32
-1721.73
-1690.45
-1658.63
-1626.4
-1593.93
-1561.36
-1528.85
-1496.56
-1464.62
-1433.2
-1402.42
-1372.41
-1343.3
-1315.19
-1288.19
-1262.39
-1237.89
-1214.76
-1193.1
-1172.98
-1154.51
-1137.77
-1122.86
-1109.93
-1099.1
-1090.53
-1084.37
-1080.78
-1079.83
-1081.74
-1086.69
-1094.71
-1105.85
-1120.11
-1137.46
-1157.79
-1180.9
-1206.43
-1234.21
-1264.05
-1295.32
-1327.48
-1360.06
-1392.55
-1424.4
-1455.09
-1484.07
-1510.88
-1535.05
-1556.19
-1573.93
-1587.95
-1598.14
-1604.44
-1606.45
-1604.1
-1597.5
-1586.67
-1571.69
-1552.66
-1529.77
-1503.23
-1473.3
-1440.27
-1404.5
-1366.36
-1326.28
-1284.73
-1242.22
-1199.32
-1156.63
-1114.79
-1074.47
-1036.4
-1001.29
-969.864
-942.828
-920.809
-904.329
-893.685
-888.69
-889.577
-896.557
-908.358
-924.231
-944.116
-967.48
-993.336
-1020.85
-1049.26
-1077.88
-1106.1
-1133.37
-1159.35
-1183.76
-1206.39
)
;
    }
    inlet
    {
        type            calculated;
        value           uniform 0;
    }
    rWedge
    {
        type            wedge;
    }
    lWedge
    {
        type            wedge;
    }
    outlet
    {
        type            calculated;
        value           nonuniform 0();
    }
    procBoundary1to0
    {
        type            processor;
        value           uniform 0;
    }
    procBoundary1to2
    {
        type            processor;
        value           uniform 0;
    }
}


// ************************************************************************* //
