/*--------------------------------*- C++ -*----------------------------------*\
| =========                 |                                                 |
| \\      /  F ield         | OpenFOAM: The Open Source CFD Toolbox           |
|  \\    /   O peration     | Version:  v1706                                 |
|   \\  /    A nd           | Web:      www.OpenFOAM.com                      |
|    \\/     M anipulation  |                                                 |
\*---------------------------------------------------------------------------*/
FoamFile
{
    version     2.0;
    format      ascii;
    class       volScalarField;
    location    "3.6e-05";
    object      alpha;
}
// * * * * * * * * * * * * * * * * * * * * * * * * * * * * * * * * * * * * * //

dimensions      [1 -1 -1 0 0 0 0];


internalField   nonuniform List<scalar> 
30104
(
1.40615e-05
1.40636e-05
1.4066e-05
1.40687e-05
1.40719e-05
1.40755e-05
1.40796e-05
1.40843e-05
1.40896e-05
1.40957e-05
1.41026e-05
1.41105e-05
1.41194e-05
1.41296e-05
1.41412e-05
1.41545e-05
1.41696e-05
1.66032e-05
1.65311e-05
1.6456e-05
1.63776e-05
1.62952e-05
1.62085e-05
1.61173e-05
1.60217e-05
1.59218e-05
1.58179e-05
1.5712e-05
1.56193e-05
1.55471e-05
1.54829e-05
1.54196e-05
1.53542e-05
1.52863e-05
1.52158e-05
1.5143e-05
1.50682e-05
1.49919e-05
1.49148e-05
1.48376e-05
1.47608e-05
1.46847e-05
1.46111e-05
1.45442e-05
1.44866e-05
1.44379e-05
1.43948e-05
1.43547e-05
1.43162e-05
1.42794e-05
1.42447e-05
1.42127e-05
1.41847e-05
1.41614e-05
1.41427e-05
1.41274e-05
1.41144e-05
1.41031e-05
1.40933e-05
1.4085e-05
1.40783e-05
1.40728e-05
1.40684e-05
1.40647e-05
1.40616e-05
1.40589e-05
1.40567e-05
1.40548e-05
1.40534e-05
1.40522e-05
1.40513e-05
1.40506e-05
1.405e-05
1.40495e-05
1.40492e-05
1.40489e-05
1.40486e-05
1.40485e-05
1.40483e-05
1.40482e-05
1.40481e-05
1.4048e-05
1.4048e-05
1.40479e-05
1.40479e-05
1.40479e-05
1.40478e-05
1.40478e-05
1.40478e-05
1.40478e-05
1.40478e-05
1.40478e-05
1.40478e-05
1.40478e-05
1.40478e-05
1.40478e-05
1.40478e-05
1.40478e-05
1.40478e-05
1.40478e-05
1.40478e-05
1.40478e-05
1.40478e-05
1.40478e-05
1.40478e-05
1.40478e-05
1.40478e-05
1.40478e-05
1.40478e-05
1.40478e-05
1.40478e-05
1.40478e-05
1.40478e-05
1.40478e-05
1.40478e-05
1.40478e-05
1.40478e-05
1.40478e-05
1.40478e-05
1.40478e-05
1.40478e-05
1.40478e-05
1.40478e-05
1.40478e-05
1.40478e-05
1.40478e-05
1.40478e-05
1.40478e-05
1.40478e-05
1.40478e-05
1.40478e-05
1.40478e-05
1.40478e-05
1.40478e-05
1.40478e-05
1.40478e-05
1.40478e-05
1.40478e-05
1.40478e-05
1.40478e-05
1.40478e-05
1.40478e-05
1.40478e-05
1.40478e-05
1.40478e-05
1.40478e-05
1.40478e-05
1.40478e-05
1.40478e-05
1.40478e-05
1.40478e-05
1.40478e-05
1.40478e-05
1.40478e-05
1.40478e-05
1.40478e-05
1.40478e-05
1.40478e-05
1.40478e-05
1.40478e-05
1.40478e-05
1.40478e-05
1.40478e-05
1.40478e-05
1.40478e-05
1.40478e-05
1.40478e-05
1.40478e-05
1.40478e-05
1.40478e-05
1.40478e-05
1.40478e-05
1.40478e-05
1.40478e-05
1.40478e-05
1.40478e-05
1.40478e-05
1.40478e-05
1.40478e-05
1.40478e-05
1.40478e-05
1.40478e-05
1.40478e-05
1.40478e-05
1.40478e-05
1.40478e-05
1.40478e-05
1.40478e-05
1.40478e-05
1.40478e-05
1.40478e-05
1.40478e-05
1.40478e-05
1.40478e-05
1.40478e-05
1.40478e-05
1.40478e-05
1.40478e-05
1.40478e-05
1.40478e-05
1.40478e-05
1.40478e-05
1.40478e-05
1.40478e-05
1.40478e-05
1.40478e-05
1.40478e-05
1.40478e-05
1.40478e-05
1.40478e-05
1.41324e-05
1.41453e-05
1.416e-05
1.41769e-05
1.41962e-05
1.42182e-05
1.42435e-05
1.42724e-05
1.43054e-05
1.43427e-05
1.43849e-05
1.44321e-05
1.44852e-05
1.4545e-05
1.46127e-05
1.46894e-05
1.47761e-05
2.09585e-05
2.09245e-05
2.08901e-05
2.08559e-05
2.08227e-05
2.07907e-05
2.076e-05
2.07297e-05
2.0698e-05
2.06628e-05
2.06203e-05
2.05614e-05
2.04787e-05
2.03718e-05
2.02423e-05
2.0092e-05
1.99217e-05
1.97311e-05
1.95187e-05
1.92832e-05
1.9025e-05
1.87458e-05
1.84474e-05
1.81308e-05
1.77972e-05
1.74498e-05
1.70983e-05
1.67704e-05
1.65003e-05
1.62657e-05
1.60465e-05
1.58332e-05
1.56232e-05
1.54183e-05
1.52239e-05
1.50482e-05
1.48978e-05
1.4773e-05
1.46672e-05
1.45741e-05
1.44906e-05
1.44158e-05
1.43501e-05
1.42948e-05
1.42499e-05
1.42138e-05
1.41842e-05
1.41592e-05
1.41381e-05
1.41205e-05
1.41062e-05
1.40948e-05
1.40856e-05
1.40782e-05
1.40721e-05
1.4067e-05
1.40629e-05
1.40597e-05
1.40571e-05
1.40551e-05
1.40535e-05
1.40522e-05
1.40512e-05
1.40504e-05
1.40498e-05
1.40494e-05
1.4049e-05
1.40487e-05
1.40485e-05
1.40483e-05
1.40482e-05
1.40481e-05
1.4048e-05
1.40479e-05
1.40479e-05
1.40479e-05
1.40479e-05
1.40478e-05
1.40478e-05
1.40478e-05
1.40478e-05
1.40478e-05
1.40478e-05
1.40478e-05
1.40478e-05
1.40478e-05
1.40478e-05
1.40478e-05
1.40478e-05
1.40478e-05
1.40478e-05
1.40478e-05
1.40478e-05
1.40478e-05
1.40478e-05
1.40478e-05
1.40478e-05
1.40478e-05
1.40478e-05
1.40478e-05
1.40478e-05
1.40478e-05
1.40478e-05
1.40478e-05
1.40478e-05
1.40478e-05
1.40478e-05
1.40478e-05
1.40478e-05
1.40478e-05
1.40478e-05
1.40478e-05
1.40478e-05
1.40478e-05
1.40478e-05
1.40478e-05
1.40478e-05
1.40478e-05
1.40478e-05
1.40478e-05
1.40478e-05
1.40478e-05
1.40478e-05
1.40478e-05
1.40478e-05
1.40478e-05
1.40478e-05
1.40478e-05
1.40478e-05
1.40478e-05
1.40478e-05
1.40478e-05
1.40478e-05
1.40478e-05
1.40478e-05
1.40478e-05
1.40478e-05
1.40478e-05
1.40478e-05
1.40478e-05
1.40478e-05
1.40478e-05
1.40478e-05
1.40478e-05
1.40478e-05
1.40478e-05
1.40478e-05
1.40478e-05
1.40478e-05
1.40478e-05
1.40478e-05
1.40478e-05
1.40478e-05
1.40478e-05
1.40478e-05
1.40478e-05
1.40478e-05
1.40478e-05
1.40478e-05
1.40478e-05
1.40478e-05
1.40478e-05
1.40478e-05
1.40478e-05
1.40478e-05
1.40478e-05
1.40478e-05
1.40478e-05
1.40478e-05
1.40478e-05
1.40478e-05
1.40478e-05
1.40478e-05
1.40478e-05
1.40478e-05
1.40478e-05
1.40478e-05
1.40478e-05
1.40478e-05
1.40478e-05
1.40478e-05
1.40478e-05
1.40478e-05
1.40478e-05
1.40478e-05
1.40478e-05
1.40478e-05
1.40478e-05
1.40478e-05
1.40478e-05
1.40478e-05
1.40478e-05
1.40478e-05
1.43541e-05
1.44002e-05
1.44526e-05
1.45119e-05
1.45789e-05
1.4655e-05
1.47414e-05
1.48396e-05
1.49507e-05
1.50752e-05
1.52137e-05
1.53667e-05
1.55355e-05
1.57228e-05
1.59315e-05
1.61627e-05
2.17636e-05
2.17497e-05
2.17364e-05
2.17242e-05
2.17139e-05
2.17068e-05
2.17053e-05
2.17073e-05
2.17137e-05
2.17241e-05
2.17368e-05
2.17488e-05
2.17558e-05
2.17556e-05
2.17509e-05
2.17381e-05
2.17156e-05
2.16844e-05
2.16465e-05
2.16032e-05
2.15551e-05
2.15001e-05
2.14345e-05
2.13533e-05
2.12514e-05
2.11229e-05
2.09595e-05
2.075e-05
2.04866e-05
2.01741e-05
1.98185e-05
1.94241e-05
1.89938e-05
1.85317e-05
1.80457e-05
1.75526e-05
1.709e-05
1.67085e-05
1.63846e-05
1.60909e-05
1.58141e-05
1.55527e-05
1.53127e-05
1.51025e-05
1.4928e-05
1.47853e-05
1.46649e-05
1.45602e-05
1.44682e-05
1.43887e-05
1.43223e-05
1.4269e-05
1.42268e-05
1.41927e-05
1.41645e-05
1.41409e-05
1.41216e-05
1.41063e-05
1.40942e-05
1.40846e-05
1.40769e-05
1.40706e-05
1.40655e-05
1.40614e-05
1.40583e-05
1.40559e-05
1.4054e-05
1.40526e-05
1.40514e-05
1.40506e-05
1.40499e-05
1.40494e-05
1.4049e-05
1.40487e-05
1.40485e-05
1.40483e-05
1.40482e-05
1.40481e-05
1.4048e-05
1.40479e-05
1.40479e-05
1.40479e-05
1.40478e-05
1.40478e-05
1.40478e-05
1.40478e-05
1.40478e-05
1.40478e-05
1.40478e-05
1.40478e-05
1.40478e-05
1.40478e-05
1.40478e-05
1.40478e-05
1.40478e-05
1.40478e-05
1.40478e-05
1.40478e-05
1.40478e-05
1.40478e-05
1.40478e-05
1.40478e-05
1.40478e-05
1.40478e-05
1.40478e-05
1.40478e-05
1.40478e-05
1.40478e-05
1.40478e-05
1.40478e-05
1.40478e-05
1.40478e-05
1.40478e-05
1.40478e-05
1.40478e-05
1.40478e-05
1.40478e-05
1.40478e-05
1.40478e-05
1.40478e-05
1.40478e-05
1.40478e-05
1.40478e-05
1.40478e-05
1.40478e-05
1.40478e-05
1.40478e-05
1.40478e-05
1.40478e-05
1.40478e-05
1.40478e-05
1.40478e-05
1.40478e-05
1.40478e-05
1.40478e-05
1.40478e-05
1.40478e-05
1.40478e-05
1.40478e-05
1.40478e-05
1.40478e-05
1.40478e-05
1.40478e-05
1.40478e-05
1.40478e-05
1.40478e-05
1.40478e-05
1.40478e-05
1.40478e-05
1.40478e-05
1.40478e-05
1.40478e-05
1.40478e-05
1.40478e-05
1.40478e-05
1.40478e-05
1.40478e-05
1.40478e-05
1.40478e-05
1.40478e-05
1.40478e-05
1.40478e-05
1.40478e-05
1.40478e-05
1.40478e-05
1.40478e-05
1.40478e-05
1.40478e-05
1.40478e-05
1.40478e-05
1.40478e-05
1.40478e-05
1.40478e-05
1.40478e-05
1.40478e-05
1.40478e-05
1.40478e-05
1.40478e-05
1.40478e-05
1.40478e-05
1.40478e-05
1.40478e-05
1.40478e-05
1.40478e-05
1.40478e-05
1.40478e-05
1.40478e-05
1.40478e-05
1.40478e-05
1.40478e-05
1.40478e-05
1.40478e-05
1.40478e-05
1.5027e-05
1.51663e-05
1.53219e-05
1.54947e-05
1.56864e-05
1.59001e-05
1.61384e-05
1.64018e-05
1.66894e-05
1.6999e-05
1.73276e-05
1.76731e-05
1.80349e-05
1.84213e-05
1.8846e-05
1.93048e-05
2.19855e-05
2.19759e-05
2.1968e-05
2.1962e-05
2.19584e-05
2.19582e-05
2.19602e-05
2.19657e-05
2.19752e-05
2.19885e-05
2.2005e-05
2.20231e-05
2.20408e-05
2.20566e-05
2.20695e-05
2.20785e-05
2.20825e-05
2.20826e-05
2.20805e-05
2.20759e-05
2.20699e-05
2.20631e-05
2.20546e-05
2.2043e-05
2.20268e-05
2.20052e-05
2.19779e-05
2.19461e-05
2.19113e-05
2.18723e-05
2.18241e-05
2.17603e-05
2.16731e-05
2.15538e-05
2.13934e-05
2.11826e-05
2.09098e-05
2.05665e-05
2.01606e-05
1.97024e-05
1.91992e-05
1.8658e-05
1.8092e-05
1.75294e-05
1.70269e-05
1.66208e-05
1.62729e-05
1.59552e-05
1.5659e-05
1.53884e-05
1.51524e-05
1.49574e-05
1.48003e-05
1.46698e-05
1.45576e-05
1.44601e-05
1.43771e-05
1.43092e-05
1.42558e-05
1.42139e-05
1.41803e-05
1.41526e-05
1.413e-05
1.4112e-05
1.4098e-05
1.40871e-05
1.40785e-05
1.40716e-05
1.4066e-05
1.40617e-05
1.40584e-05
1.40558e-05
1.40539e-05
1.40524e-05
1.40513e-05
1.40504e-05
1.40498e-05
1.40493e-05
1.40489e-05
1.40486e-05
1.40484e-05
1.40482e-05
1.40481e-05
1.4048e-05
1.4048e-05
1.40479e-05
1.40479e-05
1.40479e-05
1.40479e-05
1.40478e-05
1.40478e-05
1.40478e-05
1.40478e-05
1.40478e-05
1.40478e-05
1.40478e-05
1.40478e-05
1.40478e-05
1.40478e-05
1.40478e-05
1.40478e-05
1.40478e-05
1.40478e-05
1.40478e-05
1.40478e-05
1.40478e-05
1.40478e-05
1.40478e-05
1.40478e-05
1.40478e-05
1.40478e-05
1.40478e-05
1.40478e-05
1.40478e-05
1.40478e-05
1.40478e-05
1.40478e-05
1.40478e-05
1.40478e-05
1.40478e-05
1.40478e-05
1.40478e-05
1.40478e-05
1.40478e-05
1.40478e-05
1.40478e-05
1.40478e-05
1.40478e-05
1.40478e-05
1.40478e-05
1.40478e-05
1.40478e-05
1.40478e-05
1.40478e-05
1.40478e-05
1.40478e-05
1.40478e-05
1.40478e-05
1.40478e-05
1.40478e-05
1.40478e-05
1.40478e-05
1.40478e-05
1.40478e-05
1.40478e-05
1.40478e-05
1.40478e-05
1.40478e-05
1.40478e-05
1.40478e-05
1.40478e-05
1.40478e-05
1.40478e-05
1.40478e-05
1.40478e-05
1.40478e-05
1.40478e-05
1.40478e-05
1.40478e-05
1.40478e-05
1.40478e-05
1.40478e-05
1.40478e-05
1.40478e-05
1.40478e-05
1.40478e-05
1.40478e-05
1.40478e-05
1.40478e-05
1.40478e-05
1.40478e-05
1.40478e-05
1.40478e-05
1.40478e-05
1.40478e-05
1.40478e-05
1.40478e-05
1.40478e-05
1.40478e-05
1.40478e-05
1.40478e-05
1.40478e-05
1.40478e-05
1.40478e-05
1.40478e-05
1.40478e-05
1.40478e-05
1.40478e-05
1.40478e-05
1.40478e-05
1.40478e-05
1.40478e-05
1.40478e-05
1.67984e-05
1.71293e-05
1.74814e-05
1.78525e-05
1.82424e-05
1.86622e-05
1.91197e-05
1.96087e-05
2.01182e-05
2.06344e-05
2.11437e-05
2.1634e-05
2.20952e-05
2.2518e-05
2.28951e-05
2.21626e-05
2.21533e-05
2.21467e-05
2.21426e-05
2.21419e-05
2.21426e-05
2.2145e-05
2.21495e-05
2.21564e-05
2.21657e-05
2.21772e-05
2.21901e-05
2.22034e-05
2.22159e-05
2.22264e-05
2.22344e-05
2.22404e-05
2.22444e-05
2.22482e-05
2.22511e-05
2.2252e-05
2.22521e-05
2.22517e-05
2.22507e-05
2.2249e-05
2.22467e-05
2.22437e-05
2.22405e-05
2.22386e-05
2.22381e-05
2.22376e-05
2.22357e-05
2.22306e-05
2.22207e-05
2.22064e-05
2.21876e-05
2.21626e-05
2.21287e-05
2.20798e-05
2.20061e-05
2.18966e-05
2.17415e-05
2.15334e-05
2.12647e-05
2.09251e-05
2.05118e-05
2.00346e-05
1.9501e-05
1.89188e-05
1.83031e-05
1.76851e-05
1.71228e-05
1.66734e-05
1.6296e-05
1.59548e-05
1.56393e-05
1.5355e-05
1.51116e-05
1.49141e-05
1.47562e-05
1.46251e-05
1.45128e-05
1.44167e-05
1.43373e-05
1.42747e-05
1.42266e-05
1.41889e-05
1.41585e-05
1.41338e-05
1.41142e-05
1.40992e-05
1.40876e-05
1.40786e-05
1.40714e-05
1.40657e-05
1.40613e-05
1.4058e-05
1.40555e-05
1.40536e-05
1.40522e-05
1.40511e-05
1.40503e-05
1.40497e-05
1.40492e-05
1.40489e-05
1.40486e-05
1.40484e-05
1.40483e-05
1.40481e-05
1.40481e-05
1.4048e-05
1.4048e-05
1.40479e-05
1.40479e-05
1.40479e-05
1.40479e-05
1.40478e-05
1.40478e-05
1.40478e-05
1.40478e-05
1.40478e-05
1.40478e-05
1.40478e-05
1.40478e-05
1.40478e-05
1.40478e-05
1.40478e-05
1.40478e-05
1.40478e-05
1.40478e-05
1.40478e-05
1.40478e-05
1.40478e-05
1.40478e-05
1.40478e-05
1.40478e-05
1.40478e-05
1.40478e-05
1.40478e-05
1.40478e-05
1.40478e-05
1.40478e-05
1.40478e-05
1.40478e-05
1.40478e-05
1.40478e-05
1.40478e-05
1.40478e-05
1.40478e-05
1.40478e-05
1.40478e-05
1.40478e-05
1.40478e-05
1.40478e-05
1.40478e-05
1.40478e-05
1.40478e-05
1.40478e-05
1.40478e-05
1.40478e-05
1.40478e-05
1.40478e-05
1.40478e-05
1.40478e-05
1.40478e-05
1.40478e-05
1.40478e-05
1.40478e-05
1.40478e-05
1.40478e-05
1.40478e-05
1.40478e-05
1.40478e-05
1.40478e-05
1.40478e-05
1.40478e-05
1.40478e-05
1.40478e-05
1.40478e-05
1.40478e-05
1.40478e-05
1.40478e-05
1.40479e-05
1.40479e-05
1.40479e-05
1.40479e-05
1.40479e-05
1.40479e-05
1.40479e-05
1.40479e-05
1.40479e-05
1.40479e-05
1.40479e-05
1.40479e-05
1.40479e-05
1.40479e-05
1.40479e-05
1.40479e-05
1.40479e-05
1.40479e-05
1.40479e-05
1.40479e-05
1.40479e-05
1.40479e-05
1.40479e-05
1.40479e-05
1.4048e-05
1.4048e-05
1.4048e-05
1.4048e-05
1.4048e-05
1.4048e-05
1.4048e-05
1.96733e-05
2.01979e-05
2.07311e-05
2.12586e-05
2.17672e-05
2.22458e-05
2.2683e-05
2.30726e-05
2.34139e-05
2.37087e-05
2.39604e-05
2.41734e-05
2.43522e-05
2.45014e-05
2.46245e-05
2.4725e-05
2.23451e-05
2.2334e-05
2.23259e-05
2.23207e-05
2.23191e-05
2.23195e-05
2.23213e-05
2.23247e-05
2.23297e-05
2.2336e-05
2.23432e-05
2.23509e-05
2.23584e-05
2.23654e-05
2.23712e-05
2.23758e-05
2.23794e-05
2.23815e-05
2.23834e-05
2.2386e-05
2.23874e-05
2.23878e-05
2.23874e-05
2.23858e-05
2.23844e-05
2.23834e-05
2.23836e-05
2.23847e-05
2.23864e-05
2.23891e-05
2.23935e-05
2.23992e-05
2.24058e-05
2.24151e-05
2.24245e-05
2.24294e-05
2.24352e-05
2.24421e-05
2.24471e-05
2.24472e-05
2.24438e-05
2.24353e-05
2.24213e-05
2.24009e-05
2.23712e-05
2.23253e-05
2.22518e-05
2.21383e-05
2.19752e-05
2.17557e-05
2.14732e-05
2.11176e-05
2.06805e-05
2.01686e-05
1.95898e-05
1.89552e-05
1.82871e-05
1.76264e-05
1.70427e-05
1.65832e-05
1.61933e-05
1.58396e-05
1.55174e-05
1.52356e-05
1.5003e-05
1.48193e-05
1.46717e-05
1.45478e-05
1.44424e-05
1.4355e-05
1.4286e-05
1.42335e-05
1.41931e-05
1.41609e-05
1.4135e-05
1.41147e-05
1.40991e-05
1.40872e-05
1.40781e-05
1.40709e-05
1.40652e-05
1.40609e-05
1.40577e-05
1.40553e-05
1.40536e-05
1.40522e-05
1.40512e-05
1.40504e-05
1.40498e-05
1.40494e-05
1.4049e-05
1.40487e-05
1.40485e-05
1.40484e-05
1.40483e-05
1.40482e-05
1.40481e-05
1.4048e-05
1.4048e-05
1.4048e-05
1.40479e-05
1.40479e-05
1.40479e-05
1.40479e-05
1.40479e-05
1.40479e-05
1.40478e-05
1.40478e-05
1.40478e-05
1.40478e-05
1.40478e-05
1.40478e-05
1.40478e-05
1.40478e-05
1.40478e-05
1.40478e-05
1.40478e-05
1.40478e-05
1.40478e-05
1.40478e-05
1.40478e-05
1.40478e-05
1.40478e-05
1.40478e-05
1.40478e-05
1.40478e-05
1.40478e-05
1.40478e-05
1.40479e-05
1.40479e-05
1.40479e-05
1.40479e-05
1.40479e-05
1.40479e-05
1.40479e-05
1.40479e-05
1.40479e-05
1.40479e-05
1.40479e-05
1.40479e-05
1.40479e-05
1.40479e-05
1.40479e-05
1.40479e-05
1.40479e-05
1.40479e-05
1.40479e-05
1.40479e-05
1.40479e-05
1.40479e-05
1.40479e-05
1.40479e-05
1.40479e-05
1.40479e-05
1.40479e-05
1.4048e-05
1.4048e-05
1.4048e-05
1.4048e-05
1.4048e-05
1.4048e-05
1.4048e-05
1.4048e-05
1.4048e-05
1.4048e-05
1.4048e-05
1.40481e-05
1.40481e-05
1.40481e-05
1.40481e-05
1.40481e-05
1.40481e-05
1.40481e-05
1.40481e-05
1.40482e-05
1.40482e-05
1.40482e-05
1.40482e-05
1.40482e-05
1.40482e-05
1.40483e-05
1.40483e-05
1.40483e-05
1.40483e-05
1.40484e-05
1.40484e-05
1.40484e-05
1.40484e-05
1.40485e-05
1.40485e-05
1.40485e-05
1.40486e-05
1.40485e-05
2.34557e-05
2.37759e-05
2.40493e-05
2.42802e-05
2.44736e-05
2.46341e-05
2.47662e-05
2.48737e-05
2.49602e-05
2.50288e-05
2.5082e-05
2.51223e-05
2.51533e-05
2.25699e-05
2.25559e-05
2.25445e-05
2.2536e-05
2.25303e-05
2.25269e-05
2.25251e-05
2.25244e-05
2.25246e-05
2.2525e-05
2.25258e-05
2.25267e-05
2.25272e-05
2.25274e-05
2.25274e-05
2.25271e-05
2.25261e-05
2.25239e-05
2.2523e-05
2.25224e-05
2.25212e-05
2.25195e-05
2.25167e-05
2.25134e-05
2.25105e-05
2.25081e-05
2.25065e-05
2.25065e-05
2.25071e-05
2.25088e-05
2.25121e-05
2.25163e-05
2.25217e-05
2.25292e-05
2.25363e-05
2.25424e-05
2.25495e-05
2.25587e-05
2.25696e-05
2.25816e-05
2.25946e-05
2.26096e-05
2.26219e-05
2.26327e-05
2.26436e-05
2.26533e-05
2.26592e-05
2.26605e-05
2.26586e-05
2.26513e-05
2.2635e-05
2.26046e-05
2.25518e-05
2.2465e-05
2.23328e-05
2.21467e-05
2.19008e-05
2.15862e-05
2.11886e-05
2.06979e-05
2.0122e-05
1.94732e-05
1.87717e-05
1.80523e-05
1.73738e-05
1.68197e-05
1.63789e-05
1.59927e-05
1.5642e-05
1.53323e-05
1.50734e-05
1.48683e-05
1.47071e-05
1.45739e-05
1.44611e-05
1.43675e-05
1.42937e-05
1.42379e-05
1.41957e-05
1.41624e-05
1.41359e-05
1.41152e-05
1.40994e-05
1.40875e-05
1.40785e-05
1.40714e-05
1.40658e-05
1.40616e-05
1.40585e-05
1.40561e-05
1.40543e-05
1.40529e-05
1.40518e-05
1.4051e-05
1.40503e-05
1.40498e-05
1.40494e-05
1.40491e-05
1.40489e-05
1.40487e-05
1.40485e-05
1.40484e-05
1.40483e-05
1.40482e-05
1.40481e-05
1.40481e-05
1.40481e-05
1.4048e-05
1.4048e-05
1.4048e-05
1.4048e-05
1.4048e-05
1.4048e-05
1.40479e-05
1.40479e-05
1.40479e-05
1.40479e-05
1.40479e-05
1.40479e-05
1.4048e-05
1.4048e-05
1.4048e-05
1.4048e-05
1.4048e-05
1.4048e-05
1.4048e-05
1.4048e-05
1.4048e-05
1.4048e-05
1.4048e-05
1.4048e-05
1.4048e-05
1.4048e-05
1.4048e-05
1.4048e-05
1.40481e-05
1.40481e-05
1.40481e-05
1.40481e-05
1.40481e-05
1.40481e-05
1.40481e-05
1.40481e-05
1.40481e-05
1.40482e-05
1.40482e-05
1.40482e-05
1.40482e-05
1.40482e-05
1.40482e-05
1.40483e-05
1.40483e-05
1.40483e-05
1.40483e-05
1.40483e-05
1.40484e-05
1.40484e-05
1.40484e-05
1.40484e-05
1.40485e-05
1.40485e-05
1.40485e-05
1.40486e-05
1.40486e-05
1.40486e-05
1.40487e-05
1.40487e-05
1.40488e-05
1.40488e-05
1.40488e-05
1.40489e-05
1.40489e-05
1.4049e-05
1.40491e-05
1.40491e-05
1.40492e-05
1.40492e-05
1.40493e-05
1.40494e-05
1.40495e-05
1.40495e-05
1.40496e-05
1.40497e-05
1.40498e-05
1.40499e-05
1.405e-05
1.40501e-05
1.40502e-05
1.40503e-05
1.40505e-05
1.40506e-05
1.40507e-05
1.40506e-05
2.50792e-05
2.51586e-05
2.52206e-05
2.5268e-05
2.53039e-05
2.53324e-05
2.53557e-05
2.5375e-05
2.53909e-05
2.54033e-05
2.54117e-05
2.54154e-05
2.54148e-05
2.2822e-05
2.28046e-05
2.27894e-05
2.27764e-05
2.27656e-05
2.27568e-05
2.27495e-05
2.27431e-05
2.27371e-05
2.27312e-05
2.27254e-05
2.27196e-05
2.27134e-05
2.27069e-05
2.27005e-05
2.26945e-05
2.26878e-05
2.26814e-05
2.26763e-05
2.26714e-05
2.26662e-05
2.26606e-05
2.26546e-05
2.26486e-05
2.26428e-05
2.26374e-05
2.26326e-05
2.26292e-05
2.26267e-05
2.2625e-05
2.26248e-05
2.26253e-05
2.26266e-05
2.26291e-05
2.26325e-05
2.26368e-05
2.26423e-05
2.26495e-05
2.26582e-05
2.26683e-05
2.268e-05
2.26927e-05
2.27059e-05
2.27203e-05
2.27367e-05
2.2755e-05
2.27745e-05
2.27953e-05
2.28165e-05
2.28356e-05
2.28531e-05
2.28691e-05
2.28832e-05
2.28947e-05
2.29008e-05
2.29006e-05
2.2895e-05
2.28767e-05
2.28373e-05
2.27675e-05
2.26565e-05
2.24939e-05
2.22721e-05
2.19828e-05
2.1611e-05
2.11388e-05
2.05658e-05
1.99064e-05
1.91808e-05
1.84214e-05
1.76819e-05
1.70426e-05
1.65511e-05
1.61354e-05
1.57596e-05
1.54248e-05
1.51418e-05
1.4916e-05
1.4741e-05
1.45992e-05
1.44798e-05
1.43809e-05
1.43031e-05
1.42448e-05
1.42014e-05
1.41677e-05
1.4141e-05
1.41201e-05
1.4104e-05
1.40919e-05
1.40826e-05
1.40752e-05
1.40693e-05
1.40647e-05
1.40612e-05
1.40585e-05
1.40564e-05
1.40548e-05
1.40535e-05
1.40524e-05
1.40516e-05
1.40509e-05
1.40504e-05
1.40499e-05
1.40496e-05
1.40493e-05
1.4049e-05
1.40488e-05
1.40487e-05
1.40486e-05
1.40485e-05
1.40484e-05
1.40484e-05
1.40484e-05
1.40483e-05
1.40483e-05
1.40483e-05
1.40483e-05
1.40483e-05
1.40483e-05
1.40483e-05
1.40484e-05
1.40484e-05
1.40484e-05
1.40484e-05
1.40484e-05
1.40484e-05
1.40485e-05
1.40485e-05
1.40485e-05
1.40485e-05
1.40486e-05
1.40486e-05
1.40486e-05
1.40486e-05
1.40487e-05
1.40487e-05
1.40487e-05
1.40488e-05
1.40488e-05
1.40489e-05
1.40489e-05
1.40489e-05
1.4049e-05
1.4049e-05
1.40491e-05
1.40491e-05
1.40492e-05
1.40493e-05
1.40493e-05
1.40494e-05
1.40495e-05
1.40495e-05
1.40496e-05
1.40497e-05
1.40498e-05
1.40499e-05
1.405e-05
1.40501e-05
1.40502e-05
1.40503e-05
1.40504e-05
1.40505e-05
1.40506e-05
1.40508e-05
1.40509e-05
1.4051e-05
1.40512e-05
1.40513e-05
1.40515e-05
1.40517e-05
1.40519e-05
1.40521e-05
1.40523e-05
1.40525e-05
1.40527e-05
1.40529e-05
1.40532e-05
1.40535e-05
1.40537e-05
1.4054e-05
1.40543e-05
1.40547e-05
1.4055e-05
1.40554e-05
1.40557e-05
1.40561e-05
1.40565e-05
1.4057e-05
1.40574e-05
1.40579e-05
1.40585e-05
1.40581e-05
2.55273e-05
2.55455e-05
2.556e-05
2.55705e-05
2.55766e-05
2.55771e-05
2.55756e-05
2.55727e-05
2.55688e-05
2.55652e-05
2.55619e-05
2.55596e-05
2.55586e-05
2.55567e-05
2.30871e-05
2.3066e-05
2.30466e-05
2.30288e-05
2.30127e-05
2.29981e-05
2.29847e-05
2.2972e-05
2.29597e-05
2.29474e-05
2.29351e-05
2.2923e-05
2.29107e-05
2.28979e-05
2.28858e-05
2.28741e-05
2.28624e-05
2.28518e-05
2.28419e-05
2.28324e-05
2.28229e-05
2.28131e-05
2.28034e-05
2.2794e-05
2.27846e-05
2.27755e-05
2.27671e-05
2.27596e-05
2.27528e-05
2.27468e-05
2.27417e-05
2.27373e-05
2.2734e-05
2.27315e-05
2.27307e-05
2.27311e-05
2.27326e-05
2.27356e-05
2.27401e-05
2.27462e-05
2.27541e-05
2.27638e-05
2.27755e-05
2.27891e-05
2.28047e-05
2.28221e-05
2.28411e-05
2.28614e-05
2.28828e-05
2.29051e-05
2.29286e-05
2.29538e-05
2.29808e-05
2.30088e-05
2.30371e-05
2.30637e-05
2.30877e-05
2.31103e-05
2.31319e-05
2.31532e-05
2.31723e-05
2.3184e-05
2.31857e-05
2.31795e-05
2.31549e-05
2.31008e-05
2.30079e-05
2.28661e-05
2.26657e-05
2.23968e-05
2.20453e-05
2.15918e-05
2.10262e-05
2.03608e-05
1.96143e-05
1.88165e-05
1.80194e-05
1.73009e-05
1.67405e-05
1.62899e-05
1.5888e-05
1.55279e-05
1.52209e-05
1.49748e-05
1.47859e-05
1.46372e-05
1.45138e-05
1.44115e-05
1.43303e-05
1.42687e-05
1.42226e-05
1.41871e-05
1.41587e-05
1.41358e-05
1.41178e-05
1.41038e-05
1.4093e-05
1.40845e-05
1.40776e-05
1.40719e-05
1.40673e-05
1.40637e-05
1.40607e-05
1.40584e-05
1.40566e-05
1.4055e-05
1.40538e-05
1.40528e-05
1.4052e-05
1.40514e-05
1.40509e-05
1.40505e-05
1.40502e-05
1.405e-05
1.40498e-05
1.40497e-05
1.40497e-05
1.40496e-05
1.40496e-05
1.40496e-05
1.40496e-05
1.40496e-05
1.40497e-05
1.40497e-05
1.40498e-05
1.40498e-05
1.40499e-05
1.405e-05
1.405e-05
1.40501e-05
1.40502e-05
1.40503e-05
1.40504e-05
1.40505e-05
1.40506e-05
1.40507e-05
1.40508e-05
1.40509e-05
1.4051e-05
1.40511e-05
1.40513e-05
1.40514e-05
1.40516e-05
1.40517e-05
1.40519e-05
1.40521e-05
1.40523e-05
1.40525e-05
1.40527e-05
1.40529e-05
1.40531e-05
1.40534e-05
1.40536e-05
1.40539e-05
1.40541e-05
1.40544e-05
1.40548e-05
1.40551e-05
1.40554e-05
1.40558e-05
1.40562e-05
1.40566e-05
1.4057e-05
1.40574e-05
1.40579e-05
1.40583e-05
1.40588e-05
1.40594e-05
1.40599e-05
1.40605e-05
1.40611e-05
1.40618e-05
1.40624e-05
1.40632e-05
1.40639e-05
1.40648e-05
1.40656e-05
1.40665e-05
1.40675e-05
1.40686e-05
1.40696e-05
1.40708e-05
1.4072e-05
1.40733e-05
1.40746e-05
1.4076e-05
1.40775e-05
1.4079e-05
1.40806e-05
1.40823e-05
1.40841e-05
1.40861e-05
1.40849e-05
2.5737e-05
2.5733e-05
2.57293e-05
2.57261e-05
2.57244e-05
2.57226e-05
2.57188e-05
2.57131e-05
2.57048e-05
2.56954e-05
2.56859e-05
2.56774e-05
2.56709e-05
2.56653e-05
2.33527e-05
2.33279e-05
2.33044e-05
2.3282e-05
2.32608e-05
2.32407e-05
2.32215e-05
2.3203e-05
2.31849e-05
2.31666e-05
2.31485e-05
2.3131e-05
2.31132e-05
2.30954e-05
2.30783e-05
2.30617e-05
2.30457e-05
2.30306e-05
2.30161e-05
2.30019e-05
2.29883e-05
2.29747e-05
2.29612e-05
2.29479e-05
2.29347e-05
2.29218e-05
2.29094e-05
2.28977e-05
2.28866e-05
2.2876e-05
2.2866e-05
2.28569e-05
2.28487e-05
2.28415e-05
2.28356e-05
2.28312e-05
2.28278e-05
2.28261e-05
2.28262e-05
2.28277e-05
2.28312e-05
2.28371e-05
2.28452e-05
2.28555e-05
2.28679e-05
2.28822e-05
2.28984e-05
2.29164e-05
2.29364e-05
2.29584e-05
2.29823e-05
2.30083e-05
2.30361e-05
2.30652e-05
2.30953e-05
2.31261e-05
2.31577e-05
2.31909e-05
2.32265e-05
2.32645e-05
2.3303e-05
2.33405e-05
2.33741e-05
2.34065e-05
2.34399e-05
2.34752e-05
2.35105e-05
2.35413e-05
2.35629e-05
2.35699e-05
2.35642e-05
2.35354e-05
2.34682e-05
2.33509e-05
2.31712e-05
2.2916e-05
2.25718e-05
2.21233e-05
2.15568e-05
2.08777e-05
2.01024e-05
1.92596e-05
1.84016e-05
1.76077e-05
1.69647e-05
1.64779e-05
1.6058e-05
1.56825e-05
1.53589e-05
1.50948e-05
1.48888e-05
1.47297e-05
1.45998e-05
1.44901e-05
1.43994e-05
1.43274e-05
1.42722e-05
1.42301e-05
1.41969e-05
1.41698e-05
1.41472e-05
1.41288e-05
1.41139e-05
1.4102e-05
1.40924e-05
1.40845e-05
1.40779e-05
1.40725e-05
1.4068e-05
1.40645e-05
1.40618e-05
1.40597e-05
1.40581e-05
1.40568e-05
1.40558e-05
1.40551e-05
1.40546e-05
1.40542e-05
1.4054e-05
1.40539e-05
1.40539e-05
1.40539e-05
1.4054e-05
1.40541e-05
1.40542e-05
1.40544e-05
1.40546e-05
1.40548e-05
1.4055e-05
1.40553e-05
1.40555e-05
1.40558e-05
1.40561e-05
1.40564e-05
1.40567e-05
1.40571e-05
1.40574e-05
1.40578e-05
1.40582e-05
1.40587e-05
1.40591e-05
1.40596e-05
1.40601e-05
1.40607e-05
1.40612e-05
1.40618e-05
1.40624e-05
1.40631e-05
1.40638e-05
1.40645e-05
1.40653e-05
1.4066e-05
1.40669e-05
1.40678e-05
1.40687e-05
1.40697e-05
1.40707e-05
1.40718e-05
1.4073e-05
1.40743e-05
1.40756e-05
1.4077e-05
1.40784e-05
1.408e-05
1.40816e-05
1.40833e-05
1.4085e-05
1.40869e-05
1.40888e-05
1.40908e-05
1.4093e-05
1.40952e-05
1.40975e-05
1.41e-05
1.41027e-05
1.41055e-05
1.41084e-05
1.41116e-05
1.41149e-05
1.41185e-05
1.41223e-05
1.41264e-05
1.41306e-05
1.41352e-05
1.414e-05
1.4145e-05
1.41502e-05
1.41557e-05
1.41613e-05
1.41673e-05
1.41735e-05
1.4181e-05
1.41774e-05
2.5878e-05
2.58685e-05
2.58583e-05
2.58485e-05
2.58403e-05
2.58335e-05
2.58269e-05
2.58195e-05
2.58109e-05
2.58011e-05
2.57906e-05
2.57802e-05
2.57706e-05
2.57628e-05
2.36107e-05
2.35825e-05
2.35554e-05
2.35289e-05
2.35031e-05
2.34783e-05
2.34543e-05
2.34308e-05
2.34075e-05
2.33844e-05
2.33617e-05
2.33393e-05
2.33171e-05
2.32953e-05
2.3274e-05
2.32533e-05
2.32333e-05
2.32139e-05
2.31955e-05
2.31775e-05
2.31599e-05
2.31425e-05
2.31252e-05
2.3108e-05
2.30911e-05
2.30744e-05
2.30581e-05
2.30422e-05
2.30268e-05
2.30119e-05
2.29974e-05
2.29837e-05
2.29709e-05
2.2959e-05
2.29484e-05
2.29391e-05
2.2931e-05
2.29245e-05
2.29196e-05
2.29165e-05
2.29162e-05
2.29174e-05
2.29209e-05
2.29268e-05
2.29349e-05
2.29453e-05
2.29579e-05
2.29727e-05
2.29899e-05
2.30094e-05
2.30313e-05
2.30555e-05
2.30816e-05
2.31096e-05
2.31396e-05
2.31714e-05
2.32051e-05
2.32413e-05
2.32797e-05
2.33195e-05
2.33604e-05
2.34021e-05
2.34443e-05
2.34883e-05
2.35358e-05
2.35873e-05
2.36404e-05
2.36927e-05
2.37442e-05
2.37941e-05
2.38464e-05
2.39011e-05
2.39543e-05
2.40024e-05
2.40417e-05
2.40667e-05
2.4072e-05
2.40602e-05
2.40134e-05
2.39122e-05
2.37413e-05
2.34868e-05
2.31374e-05
2.26806e-05
2.21058e-05
2.14158e-05
2.06309e-05
1.97789e-05
1.89056e-05
1.80754e-05
1.73598e-05
1.68111e-05
1.63759e-05
1.59889e-05
1.56434e-05
1.53479e-05
1.51063e-05
1.49159e-05
1.47667e-05
1.46441e-05
1.45384e-05
1.44481e-05
1.43729e-05
1.43123e-05
1.42641e-05
1.42257e-05
1.41944e-05
1.41682e-05
1.41463e-05
1.41285e-05
1.41143e-05
1.41032e-05
1.40944e-05
1.40874e-05
1.40818e-05
1.40773e-05
1.4074e-05
1.40715e-05
1.40699e-05
1.40688e-05
1.40682e-05
1.40678e-05
1.40678e-05
1.40679e-05
1.40682e-05
1.40687e-05
1.40692e-05
1.40699e-05
1.40706e-05
1.40714e-05
1.40722e-05
1.40731e-05
1.4074e-05
1.4075e-05
1.40761e-05
1.40772e-05
1.40783e-05
1.40796e-05
1.40809e-05
1.40823e-05
1.40838e-05
1.40854e-05
1.40871e-05
1.4089e-05
1.40909e-05
1.40929e-05
1.4095e-05
1.40972e-05
1.40995e-05
1.41019e-05
1.41044e-05
1.4107e-05
1.41098e-05
1.41127e-05
1.41157e-05
1.41189e-05
1.41223e-05
1.4126e-05
1.41298e-05
1.41338e-05
1.41382e-05
1.41427e-05
1.41476e-05
1.41527e-05
1.41581e-05
1.41638e-05
1.41698e-05
1.4176e-05
1.41826e-05
1.41893e-05
1.41964e-05
1.42039e-05
1.42117e-05
1.42199e-05
1.42286e-05
1.42378e-05
1.42476e-05
1.42581e-05
1.42694e-05
1.42814e-05
1.42943e-05
1.43081e-05
1.43228e-05
1.43385e-05
1.4355e-05
1.43723e-05
1.43906e-05
1.44097e-05
1.44296e-05
1.44504e-05
1.44718e-05
1.44982e-05
1.44896e-05
2.59838e-05
2.59736e-05
2.59625e-05
2.59511e-05
2.59403e-05
2.5931e-05
2.59233e-05
2.59166e-05
2.591e-05
2.5903e-05
2.58954e-05
2.58872e-05
2.5879e-05
2.38567e-05
2.38258e-05
2.37956e-05
2.37658e-05
2.37365e-05
2.37078e-05
2.36798e-05
2.36522e-05
2.36249e-05
2.35981e-05
2.35716e-05
2.35455e-05
2.35198e-05
2.34946e-05
2.34698e-05
2.34459e-05
2.34225e-05
2.33998e-05
2.33776e-05
2.33561e-05
2.33348e-05
2.33138e-05
2.32929e-05
2.32722e-05
2.32517e-05
2.32314e-05
2.32114e-05
2.31916e-05
2.31722e-05
2.31532e-05
2.31346e-05
2.31167e-05
2.30995e-05
2.30834e-05
2.30683e-05
2.30544e-05
2.30418e-05
2.30306e-05
2.3021e-05
2.30134e-05
2.3008e-05
2.30046e-05
2.30042e-05
2.30054e-05
2.30089e-05
2.30148e-05
2.30232e-05
2.3034e-05
2.30474e-05
2.30633e-05
2.30819e-05
2.31029e-05
2.31263e-05
2.31523e-05
2.31806e-05
2.32113e-05
2.32446e-05
2.32804e-05
2.33179e-05
2.33573e-05
2.33985e-05
2.34413e-05
2.34858e-05
2.3533e-05
2.35832e-05
2.3635e-05
2.36875e-05
2.37415e-05
2.37974e-05
2.38557e-05
2.39175e-05
2.39821e-05
2.40483e-05
2.41172e-05
2.4188e-05
2.42596e-05
2.43329e-05
2.44053e-05
2.4472e-05
2.45305e-05
2.45764e-05
2.4603e-05
2.46064e-05
2.45903e-05
2.4534e-05
2.44207e-05
2.42373e-05
2.39758e-05
2.36322e-05
2.31993e-05
2.26697e-05
2.20407e-05
2.13237e-05
2.05386e-05
1.97119e-05
1.8884e-05
1.81085e-05
1.74394e-05
1.69144e-05
1.65065e-05
1.61435e-05
1.58125e-05
1.55185e-05
1.52657e-05
1.50549e-05
1.48835e-05
1.47441e-05
1.46253e-05
1.45215e-05
1.44329e-05
1.43603e-05
1.43029e-05
1.42583e-05
1.42236e-05
1.41957e-05
1.41731e-05
1.41552e-05
1.41415e-05
1.41314e-05
1.41242e-05
1.41192e-05
1.41159e-05
1.41139e-05
1.41131e-05
1.41131e-05
1.41137e-05
1.4115e-05
1.41167e-05
1.41188e-05
1.41212e-05
1.41237e-05
1.41265e-05
1.41294e-05
1.41325e-05
1.41358e-05
1.41392e-05
1.41429e-05
1.41468e-05
1.4151e-05
1.41554e-05
1.41601e-05
1.41652e-05
1.41706e-05
1.41763e-05
1.41824e-05
1.41888e-05