/*--------------------------------*- C++ -*----------------------------------*\
| =========                 |                                                 |
| \\      /  F ield         | OpenFOAM: The Open Source CFD Toolbox           |
|  \\    /   O peration     | Version:  v1706                                 |
|   \\  /    A nd           | Web:      www.OpenFOAM.com                      |
|    \\/     M anipulation  |                                                 |
\*---------------------------------------------------------------------------*/
FoamFile
{
    version     2.0;
    format      ascii;
    class       volScalarField;
    location    "3.6e-05";
    object      kappave;
}
// * * * * * * * * * * * * * * * * * * * * * * * * * * * * * * * * * * * * * //

dimensions      [1 1 -3 -1 0 0 0];


internalField   nonuniform List<scalar> 
30104
(
1.4618e-10
1.46202e-10
1.46227e-10
1.46256e-10
1.46288e-10
1.46326e-10
1.46368e-10
1.46417e-10
1.46473e-10
1.46536e-10
1.46608e-10
1.4669e-10
1.46783e-10
1.46888e-10
1.47009e-10
1.47147e-10
1.47304e-10
1.72603e-10
1.71853e-10
1.71073e-10
1.70258e-10
1.69401e-10
1.685e-10
1.67552e-10
1.66558e-10
1.6552e-10
1.64439e-10
1.63339e-10
1.62375e-10
1.61624e-10
1.60957e-10
1.60298e-10
1.59619e-10
1.58913e-10
1.5818e-10
1.57423e-10
1.56645e-10
1.55853e-10
1.55051e-10
1.54248e-10
1.5345e-10
1.52659e-10
1.51894e-10
1.51198e-10
1.50599e-10
1.50093e-10
1.49645e-10
1.49228e-10
1.48828e-10
1.48445e-10
1.48084e-10
1.47752e-10
1.47461e-10
1.47218e-10
1.47024e-10
1.46865e-10
1.4673e-10
1.46613e-10
1.46511e-10
1.46425e-10
1.46355e-10
1.46298e-10
1.46252e-10
1.46214e-10
1.46181e-10
1.46153e-10
1.4613e-10
1.46111e-10
1.46096e-10
1.46084e-10
1.46074e-10
1.46067e-10
1.46061e-10
1.46056e-10
1.46052e-10
1.46049e-10
1.46047e-10
1.46045e-10
1.46043e-10
1.46042e-10
1.46041e-10
1.4604e-10
1.46039e-10
1.46039e-10
1.46039e-10
1.46038e-10
1.46038e-10
1.46038e-10
1.46038e-10
1.46038e-10
1.46038e-10
1.46038e-10
1.46038e-10
1.46038e-10
1.46038e-10
1.46038e-10
1.46038e-10
1.46038e-10
1.46038e-10
1.46038e-10
1.46038e-10
1.46038e-10
1.46038e-10
1.46038e-10
1.46038e-10
1.46038e-10
1.46038e-10
1.46038e-10
1.46038e-10
1.46038e-10
1.46038e-10
1.46038e-10
1.46038e-10
1.46038e-10
1.46038e-10
1.46038e-10
1.46038e-10
1.46038e-10
1.46038e-10
1.46038e-10
1.46038e-10
1.46038e-10
1.46038e-10
1.46038e-10
1.46038e-10
1.46038e-10
1.46038e-10
1.46038e-10
1.46038e-10
1.46038e-10
1.46038e-10
1.46038e-10
1.46038e-10
1.46038e-10
1.46038e-10
1.46038e-10
1.46038e-10
1.46038e-10
1.46038e-10
1.46038e-10
1.46038e-10
1.46038e-10
1.46038e-10
1.46038e-10
1.46038e-10
1.46038e-10
1.46038e-10
1.46038e-10
1.46038e-10
1.46038e-10
1.46038e-10
1.46038e-10
1.46038e-10
1.46038e-10
1.46038e-10
1.46038e-10
1.46038e-10
1.46038e-10
1.46038e-10
1.46038e-10
1.46038e-10
1.46038e-10
1.46038e-10
1.46038e-10
1.46038e-10
1.46038e-10
1.46038e-10
1.46038e-10
1.46038e-10
1.46038e-10
1.46038e-10
1.46038e-10
1.46038e-10
1.46038e-10
1.46038e-10
1.46038e-10
1.46038e-10
1.46038e-10
1.46038e-10
1.46038e-10
1.46038e-10
1.46038e-10
1.46038e-10
1.46038e-10
1.46038e-10
1.46038e-10
1.46038e-10
1.46038e-10
1.46038e-10
1.46038e-10
1.46038e-10
1.46038e-10
1.46038e-10
1.46038e-10
1.46038e-10
1.46038e-10
1.46038e-10
1.46038e-10
1.46038e-10
1.46038e-10
1.46038e-10
1.46038e-10
1.46038e-10
1.46038e-10
1.46038e-10
1.46038e-10
1.46038e-10
1.46038e-10
1.46038e-10
1.46038e-10
1.46917e-10
1.47051e-10
1.47205e-10
1.4738e-10
1.4758e-10
1.4781e-10
1.48072e-10
1.48373e-10
1.48715e-10
1.49104e-10
1.49542e-10
1.50033e-10
1.50585e-10
1.51207e-10
1.5191e-10
1.52708e-10
1.53609e-10
2.17882e-10
2.17528e-10
2.1717e-10
2.16815e-10
2.16469e-10
2.16137e-10
2.15817e-10
2.15502e-10
2.15172e-10
2.14807e-10
2.14365e-10
2.13752e-10
2.12893e-10
2.11781e-10
2.10435e-10
2.08872e-10
2.07102e-10
2.0512e-10
2.02912e-10
2.00464e-10
1.9778e-10
1.94878e-10
1.91775e-10
1.88483e-10
1.85015e-10
1.81404e-10
1.7775e-10
1.74342e-10
1.71533e-10
1.69094e-10
1.66816e-10
1.64599e-10
1.62416e-10
1.60285e-10
1.58264e-10
1.56438e-10
1.54874e-10
1.53577e-10
1.52477e-10
1.5151e-10
1.50641e-10
1.49863e-10
1.49181e-10
1.48605e-10
1.48139e-10
1.47763e-10
1.47455e-10
1.47196e-10
1.46976e-10
1.46793e-10
1.46645e-10
1.46526e-10
1.46431e-10
1.46354e-10
1.4629e-10
1.46238e-10
1.46195e-10
1.46161e-10
1.46134e-10
1.46113e-10
1.46097e-10
1.46084e-10
1.46073e-10
1.46065e-10
1.46059e-10
1.46054e-10
1.4605e-10
1.46047e-10
1.46045e-10
1.46043e-10
1.46042e-10
1.46041e-10
1.4604e-10
1.46039e-10
1.46039e-10
1.46039e-10
1.46038e-10
1.46038e-10
1.46038e-10
1.46038e-10
1.46038e-10
1.46038e-10
1.46038e-10
1.46038e-10
1.46038e-10
1.46038e-10
1.46038e-10
1.46038e-10
1.46038e-10
1.46038e-10
1.46038e-10
1.46038e-10
1.46038e-10
1.46038e-10
1.46038e-10
1.46038e-10
1.46038e-10
1.46038e-10
1.46038e-10
1.46038e-10
1.46038e-10
1.46038e-10
1.46038e-10
1.46038e-10
1.46038e-10
1.46038e-10
1.46038e-10
1.46038e-10
1.46038e-10
1.46038e-10
1.46038e-10
1.46038e-10
1.46038e-10
1.46038e-10
1.46038e-10
1.46038e-10
1.46038e-10
1.46038e-10
1.46038e-10
1.46038e-10
1.46038e-10
1.46038e-10
1.46038e-10
1.46038e-10
1.46038e-10
1.46038e-10
1.46038e-10
1.46038e-10
1.46038e-10
1.46038e-10
1.46038e-10
1.46038e-10
1.46038e-10
1.46038e-10
1.46038e-10
1.46038e-10
1.46038e-10
1.46038e-10
1.46038e-10
1.46038e-10
1.46038e-10
1.46038e-10
1.46038e-10
1.46038e-10
1.46038e-10
1.46038e-10
1.46038e-10
1.46038e-10
1.46038e-10
1.46038e-10
1.46038e-10
1.46038e-10
1.46038e-10
1.46038e-10
1.46038e-10
1.46038e-10
1.46038e-10
1.46038e-10
1.46038e-10
1.46038e-10
1.46038e-10
1.46038e-10
1.46038e-10
1.46038e-10
1.46038e-10
1.46038e-10
1.46038e-10
1.46038e-10
1.46038e-10
1.46038e-10
1.46038e-10
1.46038e-10
1.46038e-10
1.46038e-10
1.46038e-10
1.46038e-10
1.46038e-10
1.46038e-10
1.46038e-10
1.46038e-10
1.46038e-10
1.46038e-10
1.46038e-10
1.46038e-10
1.46038e-10
1.46038e-10
1.46038e-10
1.46038e-10
1.46038e-10
1.46038e-10
1.46038e-10
1.46038e-10
1.46038e-10
1.49222e-10
1.49702e-10
1.50246e-10
1.50862e-10
1.51559e-10
1.5235e-10
1.53249e-10
1.5427e-10
1.55424e-10
1.56719e-10
1.58159e-10
1.59749e-10
1.61504e-10
1.63451e-10
1.65621e-10
1.68025e-10
2.26259e-10
2.26113e-10
2.25974e-10
2.25847e-10
2.25738e-10
2.25664e-10
2.25648e-10
2.25668e-10
2.25735e-10
2.25842e-10
2.25973e-10
2.26098e-10
2.26171e-10
2.26168e-10
2.26119e-10
2.25986e-10
2.25751e-10
2.25427e-10
2.25033e-10
2.24582e-10
2.24082e-10
2.23511e-10
2.22828e-10
2.21984e-10
2.20925e-10
2.19589e-10
2.17891e-10
2.15713e-10
2.12975e-10
2.09726e-10
2.06029e-10
2.01928e-10
1.97455e-10
1.92652e-10
1.87599e-10
1.82473e-10
1.77664e-10
1.73697e-10
1.70331e-10
1.67277e-10
1.644e-10
1.61683e-10
1.59187e-10
1.57003e-10
1.55188e-10
1.53704e-10
1.52453e-10
1.51365e-10
1.50409e-10
1.49582e-10
1.48891e-10
1.48337e-10
1.47899e-10
1.47545e-10
1.47251e-10
1.47006e-10
1.46805e-10
1.46645e-10
1.4652e-10
1.4642e-10
1.4634e-10
1.46274e-10
1.46221e-10
1.46179e-10
1.46147e-10
1.46122e-10
1.46103e-10
1.46088e-10
1.46076e-10
1.46067e-10
1.4606e-10
1.46054e-10
1.4605e-10
1.46047e-10
1.46045e-10
1.46043e-10
1.46042e-10
1.46041e-10
1.4604e-10
1.46039e-10
1.46039e-10
1.46039e-10
1.46038e-10
1.46038e-10
1.46038e-10
1.46038e-10
1.46038e-10
1.46038e-10
1.46038e-10
1.46038e-10
1.46038e-10
1.46038e-10
1.46038e-10
1.46038e-10
1.46038e-10
1.46038e-10
1.46038e-10
1.46038e-10
1.46038e-10
1.46038e-10
1.46038e-10
1.46038e-10
1.46038e-10
1.46038e-10
1.46038e-10
1.46038e-10
1.46038e-10
1.46038e-10
1.46038e-10
1.46038e-10
1.46038e-10
1.46038e-10
1.46038e-10
1.46038e-10
1.46038e-10
1.46038e-10
1.46038e-10
1.46038e-10
1.46038e-10
1.46038e-10
1.46038e-10
1.46038e-10
1.46038e-10
1.46038e-10
1.46038e-10
1.46038e-10
1.46038e-10
1.46038e-10
1.46038e-10
1.46038e-10
1.46038e-10
1.46038e-10
1.46038e-10
1.46038e-10
1.46038e-10
1.46038e-10
1.46038e-10
1.46038e-10
1.46038e-10
1.46038e-10
1.46038e-10
1.46038e-10
1.46038e-10
1.46038e-10
1.46038e-10
1.46038e-10
1.46038e-10
1.46038e-10
1.46038e-10
1.46038e-10
1.46038e-10
1.46038e-10
1.46038e-10
1.46038e-10
1.46038e-10
1.46038e-10
1.46038e-10
1.46038e-10
1.46038e-10
1.46038e-10
1.46038e-10
1.46038e-10
1.46038e-10
1.46038e-10
1.46038e-10
1.46038e-10
1.46038e-10
1.46038e-10
1.46038e-10
1.46038e-10
1.46038e-10
1.46038e-10
1.46038e-10
1.46038e-10
1.46038e-10
1.46038e-10
1.46038e-10
1.46038e-10
1.46038e-10
1.46038e-10
1.46038e-10
1.46038e-10
1.46038e-10
1.46038e-10
1.46038e-10
1.46038e-10
1.46038e-10
1.46038e-10
1.46038e-10
1.46038e-10
1.46038e-10
1.46038e-10
1.46038e-10
1.56218e-10
1.57666e-10
1.59284e-10
1.61079e-10
1.63073e-10
1.65295e-10
1.67771e-10
1.7051e-10
1.735e-10
1.76718e-10
1.80136e-10
1.83727e-10
1.87488e-10
1.91506e-10
1.95922e-10
2.00691e-10
2.2859e-10
2.28487e-10
2.28402e-10
2.28336e-10
2.28296e-10
2.28292e-10
2.28311e-10
2.28366e-10
2.28462e-10
2.28599e-10
2.28769e-10
2.28955e-10
2.29138e-10
2.29301e-10
2.29435e-10
2.29527e-10
2.29568e-10
2.29569e-10
2.29547e-10
2.29498e-10
2.29435e-10
2.29364e-10
2.29276e-10
2.29155e-10
2.28987e-10
2.28761e-10
2.28478e-10
2.28147e-10
2.27786e-10
2.2738e-10
2.26879e-10
2.26215e-10
2.25309e-10
2.24069e-10
2.22401e-10
2.2021e-10
2.17374e-10
2.13804e-10
2.09585e-10
2.04822e-10
1.9959e-10
1.93964e-10
1.88081e-10
1.82231e-10
1.77008e-10
1.72786e-10
1.69169e-10
1.65867e-10
1.62788e-10
1.59975e-10
1.57521e-10
1.55494e-10
1.53861e-10
1.52504e-10
1.51338e-10
1.50324e-10
1.49461e-10
1.48755e-10
1.482e-10
1.47765e-10
1.47415e-10
1.47127e-10
1.46892e-10
1.46705e-10
1.46559e-10
1.46446e-10
1.46357e-10
1.46285e-10
1.46227e-10
1.46182e-10
1.46148e-10
1.46121e-10
1.46101e-10
1.46086e-10
1.46074e-10
1.46065e-10
1.46058e-10
1.46053e-10
1.46049e-10
1.46046e-10
1.46044e-10
1.46042e-10
1.46041e-10
1.4604e-10
1.4604e-10
1.46039e-10
1.46039e-10
1.46039e-10
1.46038e-10
1.46038e-10
1.46038e-10
1.46038e-10
1.46038e-10
1.46038e-10
1.46038e-10
1.46038e-10
1.46038e-10
1.46038e-10
1.46038e-10
1.46038e-10
1.46038e-10
1.46038e-10
1.46038e-10
1.46038e-10
1.46038e-10
1.46038e-10
1.46038e-10
1.46038e-10
1.46038e-10
1.46038e-10
1.46038e-10
1.46038e-10
1.46038e-10
1.46038e-10
1.46038e-10
1.46038e-10
1.46038e-10
1.46038e-10
1.46038e-10
1.46038e-10
1.46038e-10
1.46038e-10
1.46038e-10
1.46038e-10
1.46038e-10
1.46038e-10
1.46038e-10
1.46038e-10
1.46038e-10
1.46038e-10
1.46038e-10
1.46038e-10
1.46038e-10
1.46038e-10
1.46038e-10
1.46038e-10
1.46038e-10
1.46038e-10
1.46038e-10
1.46038e-10
1.46038e-10
1.46038e-10
1.46038e-10
1.46038e-10
1.46038e-10
1.46038e-10
1.46038e-10
1.46038e-10
1.46038e-10
1.46038e-10
1.46038e-10
1.46038e-10
1.46038e-10
1.46038e-10
1.46038e-10
1.46038e-10
1.46038e-10
1.46038e-10
1.46038e-10
1.46038e-10
1.46038e-10
1.46038e-10
1.46038e-10
1.46038e-10
1.46038e-10
1.46038e-10
1.46038e-10
1.46038e-10
1.46038e-10
1.46038e-10
1.46038e-10
1.46038e-10
1.46038e-10
1.46038e-10
1.46038e-10
1.46038e-10
1.46038e-10
1.46038e-10
1.46038e-10
1.46038e-10
1.46038e-10
1.46038e-10
1.46038e-10
1.46038e-10
1.46038e-10
1.46038e-10
1.46038e-10
1.46038e-10
1.46038e-10
1.46038e-10
1.46038e-10
1.46038e-10
1.46038e-10
1.74634e-10
1.78073e-10
1.81735e-10
1.85593e-10
1.89647e-10
1.94011e-10
1.98767e-10
2.03852e-10
2.09149e-10
2.14517e-10
2.19812e-10
2.2491e-10
2.29706e-10
2.34102e-10
2.38024e-10
2.3051e-10
2.30403e-10
2.30323e-10
2.30272e-10
2.30255e-10
2.30255e-10
2.30272e-10
2.30312e-10
2.30378e-10
2.30469e-10
2.30583e-10
2.30713e-10
2.30847e-10
2.30973e-10
2.31079e-10
2.3116e-10
2.31219e-10
2.31258e-10
2.31296e-10
2.31326e-10
2.31333e-10
2.31333e-10
2.31328e-10
2.31316e-10
2.31298e-10
2.31274e-10
2.31242e-10
2.31208e-10
2.31189e-10
2.31183e-10
2.31177e-10
2.31158e-10
2.31105e-10
2.31001e-10
2.30853e-10
2.30658e-10
2.30397e-10
2.30045e-10
2.29537e-10
2.2877e-10
2.27632e-10
2.2602e-10
2.23857e-10
2.21063e-10
2.17532e-10
2.13236e-10
2.08275e-10
2.02729e-10
1.96676e-10
1.90275e-10
1.8385e-10
1.78005e-10
1.73333e-10
1.69409e-10
1.65862e-10
1.62583e-10
1.59627e-10
1.57097e-10
1.55044e-10
1.53402e-10
1.52039e-10
1.50872e-10
1.49873e-10
1.49048e-10
1.48397e-10
1.47897e-10
1.47505e-10
1.47188e-10
1.46932e-10
1.46728e-10
1.46572e-10
1.46452e-10
1.46358e-10
1.46283e-10
1.46224e-10
1.46178e-10
1.46144e-10
1.46118e-10
1.46098e-10
1.46083e-10
1.46072e-10
1.46064e-10
1.46057e-10
1.46053e-10
1.46049e-10
1.46046e-10
1.46044e-10
1.46043e-10
1.46041e-10
1.46041e-10
1.4604e-10
1.46039e-10
1.46039e-10
1.46039e-10
1.46039e-10
1.46038e-10
1.46038e-10
1.46038e-10
1.46038e-10
1.46038e-10
1.46038e-10
1.46038e-10
1.46038e-10
1.46038e-10
1.46038e-10
1.46038e-10
1.46038e-10
1.46038e-10
1.46038e-10
1.46038e-10
1.46038e-10
1.46038e-10
1.46038e-10
1.46038e-10
1.46038e-10
1.46038e-10
1.46038e-10
1.46038e-10
1.46038e-10
1.46038e-10
1.46038e-10
1.46038e-10
1.46038e-10
1.46038e-10
1.46038e-10
1.46038e-10
1.46038e-10
1.46038e-10
1.46038e-10
1.46038e-10
1.46038e-10
1.46038e-10
1.46038e-10
1.46038e-10
1.46038e-10
1.46038e-10
1.46038e-10
1.46038e-10
1.46038e-10
1.46038e-10
1.46038e-10
1.46038e-10
1.46038e-10
1.46038e-10
1.46038e-10
1.46038e-10
1.46038e-10
1.46038e-10
1.46038e-10
1.46038e-10
1.46038e-10
1.46038e-10
1.46038e-10
1.46038e-10
1.46038e-10
1.46038e-10
1.46038e-10
1.46038e-10
1.46038e-10
1.46038e-10
1.46038e-10
1.46038e-10
1.46038e-10
1.46038e-10
1.46038e-10
1.46038e-10
1.46038e-10
1.46038e-10
1.46039e-10
1.46039e-10
1.46039e-10
1.46039e-10
1.46039e-10
1.46039e-10
1.46039e-10
1.46039e-10
1.46039e-10
1.46039e-10
1.46039e-10
1.46039e-10
1.46039e-10
1.46039e-10
1.46039e-10
1.46039e-10
1.46039e-10
1.46039e-10
1.46039e-10
1.4604e-10
1.4604e-10
1.4604e-10
1.4604e-10
1.4604e-10
1.4604e-10
2.04524e-10
2.09979e-10
2.15523e-10
2.21008e-10
2.26297e-10
2.31274e-10
2.35821e-10
2.39873e-10
2.43423e-10
2.46491e-10
2.4911e-10
2.51327e-10
2.5319e-10
2.54744e-10
2.56028e-10
2.57078e-10
2.32646e-10
2.32498e-10
2.32382e-10
2.32299e-10
2.32255e-10
2.32235e-10
2.3223e-10
2.32245e-10
2.32277e-10
2.32325e-10
2.32384e-10
2.32449e-10
2.32515e-10
2.32576e-10
2.32626e-10
2.32665e-10
2.32695e-10
2.3271e-10
2.32723e-10
2.32745e-10
2.32755e-10
2.32756e-10
2.32749e-10
2.3273e-10
2.32712e-10
2.327e-10
2.32701e-10
2.32711e-10
2.32728e-10
2.32755e-10
2.328e-10
2.32859e-10
2.32926e-10
2.33023e-10
2.33121e-10
2.33172e-10
2.33232e-10
2.33304e-10
2.33355e-10
2.33356e-10
2.33321e-10
2.33232e-10
2.33087e-10
2.32875e-10
2.32566e-10
2.32089e-10
2.31325e-10
2.30145e-10
2.28449e-10
2.26167e-10
2.23231e-10
2.19534e-10
2.1499e-10
2.09668e-10
2.03651e-10
1.97054e-10
1.90108e-10
1.8324e-10
1.77172e-10
1.72395e-10
1.68342e-10
1.64665e-10
1.61315e-10
1.58386e-10
1.55968e-10
1.54058e-10
1.52524e-10
1.51236e-10
1.5014e-10
1.49231e-10
1.48514e-10
1.47968e-10
1.47548e-10
1.47214e-10
1.46945e-10
1.46733e-10
1.46571e-10
1.46448e-10
1.46353e-10
1.46278e-10
1.46219e-10
1.46174e-10
1.46141e-10
1.46116e-10
1.46098e-10
1.46083e-10
1.46073e-10
1.46065e-10
1.46059e-10
1.46054e-10
1.4605e-10
1.46048e-10
1.46045e-10
1.46044e-10
1.46043e-10
1.46042e-10
1.46041e-10
1.4604e-10
1.4604e-10
1.46039e-10
1.46039e-10
1.46039e-10
1.46039e-10
1.46039e-10
1.46038e-10
1.46038e-10
1.46038e-10
1.46038e-10
1.46038e-10
1.46038e-10
1.46038e-10
1.46038e-10
1.46038e-10
1.46038e-10
1.46038e-10
1.46038e-10
1.46038e-10
1.46038e-10
1.46038e-10
1.46038e-10
1.46038e-10
1.46038e-10
1.46038e-10
1.46038e-10
1.46038e-10
1.46038e-10
1.46038e-10
1.46038e-10
1.46038e-10
1.46038e-10
1.46038e-10
1.46038e-10
1.46038e-10
1.46038e-10
1.46038e-10
1.46039e-10
1.46039e-10
1.46039e-10
1.46039e-10
1.46039e-10
1.46039e-10
1.46039e-10
1.46039e-10
1.46039e-10
1.46039e-10
1.46039e-10
1.46039e-10
1.46039e-10
1.46039e-10
1.46039e-10
1.46039e-10
1.46039e-10
1.46039e-10
1.46039e-10
1.46039e-10
1.46039e-10
1.4604e-10
1.4604e-10
1.4604e-10
1.4604e-10
1.4604e-10
1.4604e-10
1.4604e-10
1.4604e-10
1.4604e-10
1.4604e-10
1.4604e-10
1.46041e-10
1.46041e-10
1.46041e-10
1.46041e-10
1.46041e-10
1.46041e-10
1.46041e-10
1.46042e-10
1.46042e-10
1.46042e-10
1.46042e-10
1.46042e-10
1.46042e-10
1.46043e-10
1.46043e-10
1.46043e-10
1.46043e-10
1.46044e-10
1.46044e-10
1.46044e-10
1.46045e-10
1.46045e-10
1.46045e-10
1.46046e-10
1.46046e-10
1.46046e-10
2.43863e-10
2.47194e-10
2.5004e-10
2.52445e-10
2.5446e-10
2.56134e-10
2.57512e-10
2.58635e-10
2.59541e-10
2.60261e-10
2.60822e-10
2.61249e-10
2.61581e-10
2.35662e-10
2.35419e-10
2.35211e-10
2.35038e-10
2.34901e-10
2.34794e-10
2.34709e-10
2.34641e-10
2.34586e-10
2.3454e-10
2.34501e-10
2.34467e-10
2.34435e-10
2.34403e-10
2.34372e-10
2.34343e-10
2.34309e-10
2.34266e-10
2.34238e-10
2.34217e-10
2.34191e-10
2.34162e-10
2.34123e-10
2.34081e-10
2.34044e-10
2.34013e-10
2.33992e-10
2.33988e-10
2.33991e-10
2.34006e-10
2.34038e-10
2.3408e-10
2.34134e-10
2.34212e-10
2.34285e-10
2.34348e-10
2.34421e-10
2.34516e-10
2.3463e-10
2.34754e-10
2.34888e-10
2.35045e-10
2.35172e-10
2.35285e-10
2.35398e-10
2.35498e-10
2.3556e-10
2.35573e-10
2.35554e-10
2.35478e-10
2.35309e-10
2.34992e-10
2.34443e-10
2.33541e-10
2.32167e-10
2.30233e-10
2.27676e-10
2.24406e-10
2.20272e-10
2.15171e-10
2.09184e-10
2.02439e-10
1.95146e-10
1.87667e-10
1.80615e-10
1.74853e-10
1.70271e-10
1.66257e-10
1.62611e-10
1.59392e-10
1.567e-10
1.54567e-10
1.52891e-10
1.51507e-10
1.50334e-10
1.49361e-10
1.48594e-10
1.48014e-10
1.47575e-10
1.47229e-10
1.46954e-10
1.46738e-10
1.46574e-10
1.46451e-10
1.46357e-10
1.46283e-10
1.46225e-10
1.46181e-10
1.46149e-10
1.46124e-10
1.46105e-10
1.46091e-10
1.4608e-10
1.46071e-10
1.46064e-10
1.46059e-10
1.46055e-10
1.46052e-10
1.46049e-10
1.46047e-10
1.46045e-10
1.46044e-10
1.46043e-10
1.46042e-10
1.46041e-10
1.46041e-10
1.4604e-10
1.4604e-10
1.4604e-10
1.4604e-10
1.4604e-10
1.46039e-10
1.46039e-10
1.46039e-10
1.46039e-10
1.46039e-10
1.46039e-10
1.46039e-10
1.46039e-10
1.46039e-10
1.46039e-10
1.46039e-10
1.4604e-10
1.4604e-10
1.4604e-10
1.4604e-10
1.4604e-10
1.4604e-10
1.4604e-10
1.4604e-10
1.4604e-10
1.4604e-10
1.4604e-10
1.4604e-10
1.4604e-10
1.4604e-10
1.46041e-10
1.46041e-10
1.46041e-10
1.46041e-10
1.46041e-10
1.46041e-10
1.46041e-10
1.46041e-10
1.46042e-10
1.46042e-10
1.46042e-10
1.46042e-10
1.46042e-10
1.46042e-10
1.46043e-10
1.46043e-10
1.46043e-10
1.46043e-10
1.46043e-10
1.46044e-10
1.46044e-10
1.46044e-10
1.46045e-10
1.46045e-10
1.46045e-10
1.46045e-10
1.46046e-10
1.46046e-10
1.46047e-10
1.46047e-10
1.46047e-10
1.46048e-10
1.46048e-10
1.46049e-10
1.46049e-10
1.4605e-10
1.4605e-10
1.46051e-10
1.46052e-10
1.46052e-10
1.46053e-10
1.46054e-10
1.46054e-10
1.46055e-10
1.46056e-10
1.46057e-10
1.46058e-10
1.46059e-10
1.4606e-10
1.46061e-10
1.46062e-10
1.46063e-10
1.46064e-10
1.46065e-10
1.46067e-10
1.46068e-10
1.46067e-10
2.60791e-10
2.61626e-10
2.62281e-10
2.62783e-10
2.63169e-10
2.63478e-10
2.63735e-10
2.63951e-10
2.64133e-10
2.64281e-10
2.64389e-10
2.6445e-10
2.64468e-10
2.4009e-10
2.39646e-10
2.39242e-10
2.3888e-10
2.38557e-10
2.38269e-10
2.38012e-10
2.37778e-10
2.37561e-10
2.37359e-10
2.37169e-10
2.36991e-10
2.36822e-10
2.3666e-10
2.3651e-10
2.36373e-10
2.36239e-10
2.36115e-10
2.36012e-10
2.35917e-10
2.35826e-10
2.35735e-10
2.35644e-10
2.35558e-10
2.35478e-10
2.35404e-10
2.35341e-10
2.35294e-10
2.35258e-10
2.35233e-10
2.35225e-10
2.35224e-10
2.35234e-10
2.35257e-10
2.3529e-10
2.35333e-10
2.35389e-10
2.35462e-10
2.35552e-10
2.35657e-10
2.35777e-10
2.35909e-10
2.36046e-10
2.36196e-10
2.36366e-10
2.36556e-10
2.36759e-10
2.36975e-10
2.37196e-10
2.37394e-10
2.37576e-10
2.37742e-10
2.37888e-10
2.38008e-10
2.38072e-10
2.38069e-10
2.38011e-10
2.37821e-10
2.37411e-10
2.36686e-10
2.35531e-10
2.33841e-10
2.31536e-10
2.28528e-10
2.24664e-10
2.19754e-10
2.13798e-10
2.06942e-10
1.99399e-10
1.91505e-10
1.83817e-10
1.77171e-10
1.72062e-10
1.6774e-10
1.63833e-10
1.60353e-10
1.57411e-10
1.55064e-10
1.53244e-10
1.5177e-10
1.50529e-10
1.495e-10
1.48692e-10
1.48086e-10
1.47634e-10
1.47284e-10
1.47007e-10
1.46789e-10
1.46622e-10
1.46496e-10
1.46399e-10
1.46323e-10
1.46262e-10
1.46214e-10
1.46177e-10
1.46149e-10
1.46127e-10
1.4611e-10
1.46097e-10
1.46086e-10
1.46077e-10
1.4607e-10
1.46064e-10
1.4606e-10
1.46056e-10
1.46053e-10
1.46051e-10
1.46049e-10
1.46047e-10
1.46046e-10
1.46045e-10
1.46044e-10
1.46044e-10
1.46044e-10
1.46043e-10
1.46043e-10
1.46043e-10
1.46043e-10
1.46043e-10
1.46043e-10
1.46043e-10
1.46044e-10
1.46044e-10
1.46044e-10
1.46044e-10
1.46044e-10
1.46045e-10
1.46045e-10
1.46045e-10
1.46045e-10
1.46045e-10
1.46046e-10
1.46046e-10
1.46046e-10
1.46047e-10
1.46047e-10
1.46047e-10
1.46048e-10
1.46048e-10
1.46048e-10
1.46049e-10
1.46049e-10
1.4605e-10
1.4605e-10
1.46051e-10
1.46051e-10
1.46052e-10
1.46052e-10
1.46053e-10
1.46054e-10
1.46054e-10
1.46055e-10
1.46056e-10
1.46057e-10
1.46057e-10
1.46058e-10
1.46059e-10
1.4606e-10
1.46061e-10
1.46062e-10
1.46063e-10
1.46065e-10
1.46066e-10
1.46067e-10
1.46068e-10
1.4607e-10
1.46071e-10
1.46073e-10
1.46075e-10
1.46076e-10
1.46078e-10
1.4608e-10
1.46082e-10
1.46084e-10
1.46086e-10
1.46089e-10
1.46091e-10
1.46094e-10
1.46097e-10
1.461e-10
1.46103e-10
1.46106e-10
1.46109e-10
1.46113e-10
1.46117e-10
1.4612e-10
1.46125e-10
1.46129e-10
1.46133e-10
1.46138e-10
1.46143e-10
1.46149e-10
1.46145e-10
2.65565e-10
2.65776e-10
2.65949e-10
2.66084e-10
2.66174e-10
2.6621e-10
2.66227e-10
2.66234e-10
2.66233e-10
2.6624e-10
2.66254e-10
2.66283e-10
2.66331e-10
2.66374e-10
2.47352e-10
2.46461e-10
2.45633e-10
2.44866e-10
2.44157e-10
2.43503e-10
2.42898e-10
2.42336e-10
2.41812e-10
2.4132e-10
2.40858e-10
2.40431e-10
2.40031e-10
2.39653e-10
2.39309e-10
2.38994e-10
2.38702e-10
2.3844e-10
2.38205e-10
2.3799e-10
2.37791e-10
2.37602e-10
2.37425e-10
2.37264e-10
2.37112e-10
2.36971e-10
2.36845e-10
2.36735e-10
2.36638e-10
2.36554e-10
2.36482e-10
2.36423e-10
2.36377e-10
2.36342e-10
2.36326e-10
2.36325e-10
2.36337e-10
2.36364e-10
2.36409e-10
2.3647e-10
2.36551e-10
2.36651e-10
2.36772e-10
2.36912e-10
2.37074e-10
2.37254e-10
2.37451e-10
2.37662e-10
2.37884e-10
2.38116e-10
2.3836e-10
2.38623e-10
2.38903e-10
2.39195e-10
2.39488e-10
2.39765e-10
2.40015e-10
2.40249e-10
2.40474e-10
2.40696e-10
2.40894e-10
2.41016e-10
2.41033e-10
2.40968e-10
2.40713e-10
2.40151e-10
2.39185e-10
2.37711e-10
2.35627e-10
2.32832e-10
2.29178e-10
2.24463e-10
2.18583e-10
2.11667e-10
2.03906e-10
1.95612e-10
1.87325e-10
1.79856e-10
1.7403e-10
1.69346e-10
1.65168e-10
1.61424e-10
1.58233e-10
1.55675e-10
1.53711e-10
1.52165e-10
1.50882e-10
1.49818e-10
1.48974e-10
1.48334e-10
1.47855e-10
1.47486e-10
1.47191e-10
1.46953e-10
1.46765e-10
1.4662e-10
1.46508e-10
1.46419e-10
1.46348e-10
1.46289e-10
1.46241e-10
1.46203e-10
1.46172e-10
1.46148e-10
1.46129e-10
1.46113e-10
1.461e-10
1.4609e-10
1.46082e-10
1.46075e-10
1.4607e-10
1.46066e-10
1.46063e-10
1.46061e-10
1.46059e-10
1.46058e-10
1.46057e-10
1.46057e-10
1.46057e-10
1.46057e-10
1.46057e-10
1.46057e-10
1.46057e-10
1.46058e-10
1.46058e-10
1.46059e-10
1.4606e-10
1.4606e-10
1.46061e-10
1.46062e-10
1.46063e-10
1.46064e-10
1.46065e-10
1.46066e-10
1.46067e-10
1.46068e-10
1.46069e-10
1.4607e-10
1.46071e-10
1.46073e-10
1.46074e-10
1.46076e-10
1.46077e-10
1.46079e-10
1.46081e-10
1.46082e-10
1.46084e-10
1.46086e-10
1.46089e-10
1.46091e-10
1.46093e-10
1.46096e-10
1.46098e-10
1.46101e-10
1.46104e-10
1.46107e-10
1.4611e-10
1.46113e-10
1.46117e-10
1.46121e-10
1.46125e-10
1.46129e-10
1.46133e-10
1.46138e-10
1.46142e-10
1.46147e-10
1.46153e-10
1.46158e-10
1.46164e-10
1.4617e-10
1.46176e-10
1.46183e-10
1.4619e-10
1.46198e-10
1.46206e-10
1.46214e-10
1.46223e-10
1.46233e-10
1.46243e-10
1.46254e-10
1.46265e-10
1.46277e-10
1.46289e-10
1.46303e-10
1.46316e-10
1.46331e-10
1.46346e-10
1.46362e-10
1.46379e-10
1.46397e-10
1.46415e-10
1.46436e-10
1.46423e-10
2.68055e-10
2.68065e-10
2.68084e-10
2.68113e-10
2.68164e-10
2.6822e-10
2.68262e-10
2.68293e-10
2.68305e-10
2.68315e-10
2.68334e-10
2.68375e-10
2.68449e-10
2.68547e-10
2.60632e-10
2.58766e-10
2.5702e-10
2.55388e-10
2.53865e-10
2.52445e-10
2.51124e-10
2.49893e-10
2.48746e-10
2.47675e-10
2.46682e-10
2.45767e-10
2.4492e-10
2.44138e-10
2.43426e-10
2.42777e-10
2.42189e-10
2.41659e-10
2.41179e-10
2.40743e-10
2.40349e-10
2.39988e-10
2.39658e-10
2.39356e-10
2.39079e-10
2.38827e-10
2.38599e-10
2.38393e-10
2.38208e-10
2.38041e-10
2.3789e-10
2.37757e-10
2.37641e-10
2.37542e-10
2.37461e-10
2.37399e-10
2.37352e-10
2.37325e-10
2.37319e-10
2.37329e-10
2.37361e-10
2.37419e-10
2.37501e-10
2.37607e-10
2.37734e-10
2.37882e-10
2.38049e-10
2.38235e-10
2.38443e-10
2.38671e-10
2.38919e-10
2.3919e-10
2.39479e-10
2.39781e-10
2.40094e-10
2.40414e-10
2.40742e-10
2.41087e-10
2.41458e-10
2.41853e-10
2.42253e-10
2.42642e-10
2.42992e-10
2.43329e-10
2.43676e-10
2.44043e-10
2.44409e-10
2.4473e-10
2.44955e-10
2.45028e-10
2.44968e-10
2.44669e-10
2.4397e-10
2.42751e-10
2.40882e-10
2.38229e-10
2.34651e-10
2.29989e-10
2.241e-10
2.17039e-10
2.0898e-10
2.00218e-10
1.91299e-10
1.83046e-10
1.76361e-10
1.713e-10
1.66936e-10
1.63032e-10
1.59668e-10
1.56922e-10
1.54781e-10
1.53127e-10
1.51776e-10
1.50636e-10
1.49693e-10
1.48945e-10
1.48371e-10
1.47933e-10
1.47588e-10
1.47306e-10
1.47072e-10
1.4688e-10
1.46725e-10
1.46601e-10
1.46501e-10
1.46419e-10
1.46351e-10
1.46294e-10
1.46248e-10
1.46212e-10
1.46184e-10
1.46162e-10
1.46145e-10
1.46131e-10
1.46121e-10
1.46114e-10
1.46108e-10
1.46105e-10
1.46103e-10
1.46101e-10
1.46101e-10
1.46101e-10
1.46102e-10
1.46103e-10
1.46105e-10
1.46106e-10
1.46108e-10
1.46111e-10
1.46113e-10
1.46116e-10
1.46118e-10
1.46121e-10
1.46124e-10
1.46127e-10
1.46131e-10
1.46134e-10
1.46138e-10
1.46142e-10
1.46146e-10
1.46151e-10
1.46156e-10
1.46161e-10
1.46166e-10
1.46171e-10
1.46177e-10
1.46184e-10
1.4619e-10
1.46197e-10
1.46204e-10
1.46211e-10
1.46219e-10
1.46227e-10
1.46236e-10
1.46245e-10
1.46255e-10
1.46265e-10
1.46276e-10
1.46288e-10
1.463e-10
1.46313e-10
1.46326e-10
1.46341e-10
1.46356e-10
1.46372e-10
1.46389e-10
1.46407e-10
1.46425e-10
1.46444e-10
1.46464e-10
1.46485e-10
1.46507e-10
1.4653e-10
1.46555e-10
1.46581e-10
1.46608e-10
1.46637e-10
1.46668e-10
1.46701e-10
1.46736e-10
1.46773e-10
1.46812e-10
1.46854e-10
1.46899e-10
1.46946e-10
1.46996e-10
1.47048e-10
1.47102e-10
1.47159e-10
1.47218e-10
1.4728e-10
1.47345e-10
1.47422e-10
1.47385e-10
2.70261e-10
2.70286e-10
2.70316e-10
2.70362e-10
2.70439e-10
2.70547e-10
2.70673e-10
2.70809e-10
2.70952e-10
2.71104e-10
2.71273e-10
2.71469e-10
2.71703e-10
2.71986e-10
2.86293e-10
2.82389e-10
2.78728e-10
2.75298e-10
2.72087e-10
2.6909e-10
2.66297e-10
2.63698e-10
2.61281e-10
2.5904e-10
2.5697e-10
2.55066e-10
2.53319e-10
2.51722e-10
2.50271e-10
2.48957e-10
2.47769e-10
2.46698e-10
2.45737e-10
2.44872e-10
2.44093e-10
2.43391e-10
2.42759e-10
2.42191e-10
2.4168e-10
2.41221e-10
2.40809e-10
2.40441e-10
2.40109e-10
2.39812e-10
2.39545e-10
2.39306e-10
2.39095e-10
2.38909e-10
2.38748e-10
2.38611e-10
2.38495e-10
2.38402e-10
2.38331e-10
2.38284e-10
2.38269e-10
2.38272e-10
2.38302e-10
2.38358e-10
2.38439e-10
2.38543e-10
2.38672e-10
2.38825e-10
2.39002e-10
2.39204e-10
2.39431e-10
2.39682e-10
2.39953e-10
2.40243e-10
2.40555e-10
2.40885e-10
2.41236e-10
2.41612e-10
2.42011e-10
2.42425e-10
2.4285e-10
2.43283e-10
2.43722e-10
2.44179e-10
2.44674e-10
2.45209e-10
2.4576e-10
2.46304e-10
2.46839e-10
2.47358e-10
2.47902e-10
2.4847e-10
2.49024e-10
2.49524e-10
2.49932e-10
2.50192e-10
2.50247e-10
2.50125e-10
2.49638e-10
2.48586e-10
2.46809e-10
2.44163e-10
2.40531e-10
2.35782e-10
2.29807e-10
2.22634e-10
2.14474e-10
2.05617e-10
1.96538e-10
1.87907e-10
1.80468e-10
1.74764e-10
1.70241e-10
1.66217e-10
1.62626e-10
1.59553e-10
1.57042e-10
1.55062e-10
1.53511e-10
1.52236e-10
1.51138e-10
1.50199e-10
1.49418e-10
1.48787e-10
1.48286e-10
1.47888e-10
1.47562e-10
1.47289e-10
1.47062e-10
1.46877e-10
1.46729e-10
1.46614e-10
1.46522e-10
1.46449e-10
1.46391e-10
1.46345e-10
1.4631e-10
1.46285e-10
1.46267e-10
1.46256e-10
1.46249e-10
1.46246e-10
1.46246e-10
1.46247e-10
1.4625e-10
1.46255e-10
1.46261e-10
1.46267e-10
1.46275e-10
1.46283e-10
1.46292e-10
1.46301e-10
1.4631e-10
1.46321e-10
1.46332e-10
1.46343e-10
1.46355e-10
1.46368e-10
1.46382e-10
1.46397e-10
1.46412e-10
1.46429e-10
1.46447e-10
1.46466e-10
1.46485e-10
1.46506e-10
1.46528e-10
1.46551e-10
1.46575e-10
1.466e-10
1.46626e-10
1.46653e-10
1.46682e-10
1.46712e-10
1.46744e-10
1.46777e-10
1.46813e-10
1.4685e-10
1.4689e-10
1.46932e-10
1.46977e-10
1.47025e-10
1.47075e-10
1.47129e-10
1.47185e-10
1.47244e-10
1.47306e-10
1.47371e-10
1.47439e-10
1.47509e-10
1.47583e-10
1.4766e-10
1.47742e-10
1.47827e-10
1.47917e-10
1.48013e-10
1.48115e-10
1.48224e-10
1.48341e-10
1.48466e-10
1.48601e-10
1.48744e-10
1.48897e-10
1.49059e-10
1.49231e-10
1.49412e-10
1.49601e-10
1.498e-10
1.50007e-10
1.50223e-10
1.50446e-10
1.5072e-10
1.5063e-10
2.73055e-10
2.73233e-10
2.73428e-10
2.73649e-10
2.73909e-10
2.74219e-10
2.74584e-10
2.75e-10
2.75462e-10
2.75968e-10
2.76521e-10
2.77126e-10
2.77794e-10
3.35795e-10
3.27882e-10
3.20445e-10
3.13465e-10
3.06924e-10
3.00812e-10
2.95111e-10
2.89807e-10
2.84882e-10
2.80326e-10
2.76124e-10
2.72263e-10
2.6873e-10
2.65511e-10
2.62585e-10
2.59942e-10
2.57558e-10
2.55412e-10
2.53486e-10
2.5176e-10
2.50216e-10
2.48838e-10
2.47609e-10
2.46516e-10
2.45545e-10
2.44685e-10
2.43923e-10
2.43248e-10
2.42651e-10
2.42121e-10
2.41653e-10
2.4124e-10
2.40875e-10
2.40555e-10
2.40276e-10
2.40032e-10
2.39822e-10
2.39643e-10
2.39494e-10
2.39376e-10
2.39288e-10
2.3923e-10
2.39207e-10
2.39205e-10
2.3923e-10
2.39284e-10
2.39365e-10
2.39473e-10
2.39608e-10
2.3977e-10
2.39961e-10
2.40178e-10
2.40421e-10
2.40689e-10
2.40983e-10
2.41302e-10
2.41648e-10
2.42019e-10
2.42409e-10
2.42818e-10
2.43247e-10
2.43691e-10
2.44153e-10
2.44645e-10
2.45166e-10
2.45704e-10
2.4625e-10
2.46811e-10
2.47392e-10
2.47999e-10
2.48642e-10
2.49313e-10
2.50001e-10
2.50717e-10
2.51453e-10
2.52198e-10
2.52959e-10
2.53712e-10
2.54405e-10
2.55014e-10
2.5549e-10
2.55767e-10
2.55803e-10
2.55635e-10
2.5505e-10
2.53872e-10
2.51966e-10
2.49248e-10
2.45675e-10
2.41175e-10
2.35669e-10
2.29131e-10
2.21676e-10
2.13515e-10
2.0492e-10
1.96314e-10
1.88251e-10
1.81296e-10
1.75839e-10
1.71598e-10
1.67824e-10
1.64383e-10
1.61327e-10
1.58699e-10
1.56507e-10
1.54725e-10
1.53276e-10
1.52041e-10
1.50962e-10
1.50042e-10
1.49287e-10
1.4869e-10
1.48226e-10
1.47865e-10
1.47575e-10
1.4734e-10
1.47154e-10
1.47012e-10
1.46907e-10
1.46832e-10
1.4678e-10
1.46746e-10
1.46725e-10
1.46717e-10
1.46717e-10
1.46723e-10
1.46736e-10
1.46754e-10
1.46776e-10
1.468e-10
1.46827e-10
1.46856e-10
1.46886e-10
1.46918e-10
1.46952e-10
1.46988e-10
1.47027e-10
1.47067e-10
1.4711e-10
1.47156e-10
1.47206e-10
1.47258e-10
1.47314e-10
1.47374e-10