/*--------------------------------*- C++ -*----------------------------------*\
| =========                 |                                                 |
| \\      /  F ield         | OpenFOAM: The Open Source CFD Toolbox           |
|  \\    /   O peration     | Version:  v1706                                 |
|   \\  /    A nd           | Web:      www.OpenFOAM.com                      |
|    \\/     M anipulation  |                                                 |
\*---------------------------------------------------------------------------*/
FoamFile
{
    version     2.0;
    format      ascii;
    class       volScalarField;
    location    "3.6e-05";
    object      mu;
}
// * * * * * * * * * * * * * * * * * * * * * * * * * * * * * * * * * * * * * //

dimensions      [1 -1 -1 0 0 0 0];


internalField   nonuniform List<scalar> 
30104
(
1.03611e-05
1.03626e-05
1.03644e-05
1.03664e-05
1.03688e-05
1.03714e-05
1.03744e-05
1.03779e-05
1.03818e-05
1.03863e-05
1.03914e-05
1.03972e-05
1.04038e-05
1.04113e-05
1.04199e-05
1.04296e-05
1.04407e-05
1.22339e-05
1.21808e-05
1.21255e-05
1.20677e-05
1.2007e-05
1.19431e-05
1.18759e-05
1.18054e-05
1.17319e-05
1.16553e-05
1.15773e-05
1.15089e-05
1.14557e-05
1.14085e-05
1.13618e-05
1.13136e-05
1.12636e-05
1.12116e-05
1.1158e-05
1.11029e-05
1.10467e-05
1.09899e-05
1.09329e-05
1.08764e-05
1.08203e-05
1.07661e-05
1.07168e-05
1.06743e-05
1.06384e-05
1.06067e-05
1.05771e-05
1.05488e-05
1.05217e-05
1.04961e-05
1.04725e-05
1.04519e-05
1.04347e-05
1.04209e-05
1.04096e-05
1.04001e-05
1.03918e-05
1.03845e-05
1.03784e-05
1.03735e-05
1.03695e-05
1.03662e-05
1.03635e-05
1.03612e-05
1.03592e-05
1.03575e-05
1.03562e-05
1.03551e-05
1.03543e-05
1.03536e-05
1.03531e-05
1.03526e-05
1.03523e-05
1.0352e-05
1.03518e-05
1.03516e-05
1.03515e-05
1.03514e-05
1.03513e-05
1.03512e-05
1.03512e-05
1.03511e-05
1.03511e-05
1.03511e-05
1.03511e-05
1.0351e-05
1.0351e-05
1.0351e-05
1.0351e-05
1.0351e-05
1.0351e-05
1.0351e-05
1.0351e-05
1.0351e-05
1.0351e-05
1.0351e-05
1.0351e-05
1.0351e-05
1.0351e-05
1.0351e-05
1.0351e-05
1.0351e-05
1.0351e-05
1.0351e-05
1.0351e-05
1.0351e-05
1.0351e-05
1.0351e-05
1.0351e-05
1.0351e-05
1.0351e-05
1.0351e-05
1.0351e-05
1.0351e-05
1.0351e-05
1.0351e-05
1.0351e-05
1.0351e-05
1.0351e-05
1.0351e-05
1.0351e-05
1.0351e-05
1.0351e-05
1.0351e-05
1.0351e-05
1.0351e-05
1.0351e-05
1.0351e-05
1.0351e-05
1.0351e-05
1.0351e-05
1.0351e-05
1.0351e-05
1.0351e-05
1.0351e-05
1.0351e-05
1.0351e-05
1.0351e-05
1.0351e-05
1.0351e-05
1.0351e-05
1.0351e-05
1.0351e-05
1.0351e-05
1.0351e-05
1.0351e-05
1.0351e-05
1.0351e-05
1.0351e-05
1.0351e-05
1.0351e-05
1.0351e-05
1.0351e-05
1.0351e-05
1.0351e-05
1.0351e-05
1.0351e-05
1.0351e-05
1.0351e-05
1.0351e-05
1.0351e-05
1.0351e-05
1.0351e-05
1.0351e-05
1.0351e-05
1.0351e-05
1.0351e-05
1.0351e-05
1.0351e-05
1.0351e-05
1.0351e-05
1.0351e-05
1.0351e-05
1.0351e-05
1.0351e-05
1.0351e-05
1.0351e-05
1.0351e-05
1.0351e-05
1.0351e-05
1.0351e-05
1.0351e-05
1.0351e-05
1.0351e-05
1.0351e-05
1.0351e-05
1.0351e-05
1.0351e-05
1.0351e-05
1.0351e-05
1.0351e-05
1.0351e-05
1.0351e-05
1.0351e-05
1.0351e-05
1.0351e-05
1.0351e-05
1.0351e-05
1.0351e-05
1.0351e-05
1.0351e-05
1.0351e-05
1.0351e-05
1.0351e-05
1.0351e-05
1.0351e-05
1.0351e-05
1.0351e-05
1.0351e-05
1.04133e-05
1.04228e-05
1.04337e-05
1.04461e-05
1.04603e-05
1.04766e-05
1.04952e-05
1.05165e-05
1.05408e-05
1.05683e-05
1.05994e-05
1.06342e-05
1.06733e-05
1.07174e-05
1.07672e-05
1.08238e-05
1.08877e-05
1.54431e-05
1.5418e-05
1.53927e-05
1.53675e-05
1.5343e-05
1.53195e-05
1.52968e-05
1.52745e-05
1.52511e-05
1.52252e-05
1.51939e-05
1.51505e-05
1.50896e-05
1.50108e-05
1.49154e-05
1.48046e-05
1.46791e-05
1.45387e-05
1.43822e-05
1.42087e-05
1.40184e-05
1.38127e-05
1.35928e-05
1.33595e-05
1.31137e-05
1.28578e-05
1.25988e-05
1.23572e-05
1.21581e-05
1.19852e-05
1.18237e-05
1.16666e-05
1.15118e-05
1.13608e-05
1.12176e-05
1.10882e-05
1.09773e-05
1.08854e-05
1.08074e-05
1.07388e-05
1.06773e-05
1.06221e-05
1.05738e-05
1.0533e-05
1.04999e-05
1.04733e-05
1.04515e-05
1.04331e-05
1.04175e-05
1.04046e-05
1.0394e-05
1.03856e-05
1.03789e-05
1.03734e-05
1.03689e-05
1.03652e-05
1.03622e-05
1.03597e-05
1.03579e-05
1.03564e-05
1.03552e-05
1.03543e-05
1.03535e-05
1.03529e-05
1.03525e-05
1.03522e-05
1.03519e-05
1.03517e-05
1.03515e-05
1.03514e-05
1.03513e-05
1.03512e-05
1.03512e-05
1.03511e-05
1.03511e-05
1.03511e-05
1.0351e-05
1.0351e-05
1.0351e-05
1.0351e-05
1.0351e-05
1.0351e-05
1.0351e-05
1.0351e-05
1.0351e-05
1.0351e-05
1.0351e-05
1.0351e-05
1.0351e-05
1.0351e-05
1.0351e-05
1.0351e-05
1.0351e-05
1.0351e-05
1.0351e-05
1.0351e-05
1.0351e-05
1.0351e-05
1.0351e-05
1.0351e-05
1.0351e-05
1.0351e-05
1.0351e-05
1.0351e-05
1.0351e-05
1.0351e-05
1.0351e-05
1.0351e-05
1.0351e-05
1.0351e-05
1.0351e-05
1.0351e-05
1.0351e-05
1.0351e-05
1.0351e-05
1.0351e-05
1.0351e-05
1.0351e-05
1.0351e-05
1.0351e-05
1.0351e-05
1.0351e-05
1.0351e-05
1.0351e-05
1.0351e-05
1.0351e-05
1.0351e-05
1.0351e-05
1.0351e-05
1.0351e-05
1.0351e-05
1.0351e-05
1.0351e-05
1.0351e-05
1.0351e-05
1.0351e-05
1.0351e-05
1.0351e-05
1.0351e-05
1.0351e-05
1.0351e-05
1.0351e-05
1.0351e-05
1.0351e-05
1.0351e-05
1.0351e-05
1.0351e-05
1.0351e-05
1.0351e-05
1.0351e-05
1.0351e-05
1.0351e-05
1.0351e-05
1.0351e-05
1.0351e-05
1.0351e-05
1.0351e-05
1.0351e-05
1.0351e-05
1.0351e-05
1.0351e-05
1.0351e-05
1.0351e-05
1.0351e-05
1.0351e-05
1.0351e-05
1.0351e-05
1.0351e-05
1.0351e-05
1.0351e-05
1.0351e-05
1.0351e-05
1.0351e-05
1.0351e-05
1.0351e-05
1.0351e-05
1.0351e-05
1.0351e-05
1.0351e-05
1.0351e-05
1.0351e-05
1.0351e-05
1.0351e-05
1.0351e-05
1.0351e-05
1.0351e-05
1.0351e-05
1.0351e-05
1.0351e-05
1.0351e-05
1.0351e-05
1.0351e-05
1.0351e-05
1.05767e-05
1.06107e-05
1.06493e-05
1.0693e-05
1.07424e-05
1.07984e-05
1.08621e-05
1.09345e-05
1.10163e-05
1.1108e-05
1.12101e-05
1.13228e-05
1.14472e-05
1.15852e-05
1.1739e-05
1.19094e-05
1.60363e-05
1.60261e-05
1.60163e-05
1.60073e-05
1.59997e-05
1.59945e-05
1.59934e-05
1.59949e-05
1.59996e-05
1.60073e-05
1.60166e-05
1.60254e-05
1.60306e-05
1.60304e-05
1.6027e-05
1.60176e-05
1.60009e-05
1.59779e-05
1.595e-05
1.59181e-05
1.58827e-05
1.58422e-05
1.57938e-05
1.5734e-05
1.56589e-05
1.55642e-05
1.54439e-05
1.52895e-05
1.50954e-05
1.48652e-05
1.46031e-05
1.43125e-05
1.39954e-05
1.3655e-05
1.32968e-05
1.29335e-05
1.25926e-05
1.23115e-05
1.20729e-05
1.18564e-05
1.16525e-05
1.14599e-05
1.1283e-05
1.11282e-05
1.09996e-05
1.08944e-05
1.08057e-05
1.07286e-05
1.06608e-05
1.06022e-05
1.05533e-05
1.0514e-05
1.04829e-05
1.04578e-05
1.0437e-05
1.04196e-05
1.04054e-05
1.03941e-05
1.03852e-05
1.03781e-05
1.03724e-05
1.03678e-05
1.0364e-05
1.03611e-05
1.03588e-05
1.0357e-05
1.03556e-05
1.03545e-05
1.03537e-05
1.0353e-05
1.03526e-05
1.03522e-05
1.03519e-05
1.03517e-05
1.03515e-05
1.03514e-05
1.03513e-05
1.03512e-05
1.03512e-05
1.03511e-05
1.03511e-05
1.03511e-05
1.0351e-05
1.0351e-05
1.0351e-05
1.0351e-05
1.0351e-05
1.0351e-05
1.0351e-05
1.0351e-05
1.0351e-05
1.0351e-05
1.0351e-05
1.0351e-05
1.0351e-05
1.0351e-05
1.0351e-05
1.0351e-05
1.0351e-05
1.0351e-05
1.0351e-05
1.0351e-05
1.0351e-05
1.0351e-05
1.0351e-05
1.0351e-05
1.0351e-05
1.0351e-05
1.0351e-05
1.0351e-05
1.0351e-05
1.0351e-05
1.0351e-05
1.0351e-05
1.0351e-05
1.0351e-05
1.0351e-05
1.0351e-05
1.0351e-05
1.0351e-05
1.0351e-05
1.0351e-05
1.0351e-05
1.0351e-05
1.0351e-05
1.0351e-05
1.0351e-05
1.0351e-05
1.0351e-05
1.0351e-05
1.0351e-05
1.0351e-05
1.0351e-05
1.0351e-05
1.0351e-05
1.0351e-05
1.0351e-05
1.0351e-05
1.0351e-05
1.0351e-05
1.0351e-05
1.0351e-05
1.0351e-05
1.0351e-05
1.0351e-05
1.0351e-05
1.0351e-05
1.0351e-05
1.0351e-05
1.0351e-05
1.0351e-05
1.0351e-05
1.0351e-05
1.0351e-05
1.0351e-05
1.0351e-05
1.0351e-05
1.0351e-05
1.0351e-05
1.0351e-05
1.0351e-05
1.0351e-05
1.0351e-05
1.0351e-05
1.0351e-05
1.0351e-05
1.0351e-05
1.0351e-05
1.0351e-05
1.0351e-05
1.0351e-05
1.0351e-05
1.0351e-05
1.0351e-05
1.0351e-05
1.0351e-05
1.0351e-05
1.0351e-05
1.0351e-05
1.0351e-05
1.0351e-05
1.0351e-05
1.0351e-05
1.0351e-05
1.0351e-05
1.0351e-05
1.0351e-05
1.0351e-05
1.0351e-05
1.0351e-05
1.0351e-05
1.0351e-05
1.0351e-05
1.10725e-05
1.11752e-05
1.12898e-05
1.14171e-05
1.15584e-05
1.17159e-05
1.18914e-05
1.20855e-05
1.22974e-05
1.25256e-05
1.27677e-05
1.30223e-05
1.32888e-05
1.35736e-05
1.38866e-05
1.42246e-05
1.61998e-05
1.61927e-05
1.6187e-05
1.61825e-05
1.61799e-05
1.61798e-05
1.61812e-05
1.61853e-05
1.61922e-05
1.62021e-05
1.62142e-05
1.62275e-05
1.62406e-05
1.62522e-05
1.62618e-05
1.62683e-05
1.62713e-05
1.62714e-05
1.62699e-05
1.62664e-05
1.6262e-05
1.6257e-05
1.62508e-05
1.62422e-05
1.62303e-05
1.62143e-05
1.61943e-05
1.61708e-05
1.61452e-05
1.61164e-05
1.60809e-05
1.60339e-05
1.59697e-05
1.58817e-05
1.57635e-05
1.56082e-05
1.54072e-05
1.51542e-05
1.48552e-05
1.45176e-05
1.41468e-05
1.3748e-05
1.3331e-05
1.29164e-05
1.25462e-05
1.22469e-05
1.19905e-05
1.17565e-05
1.15382e-05
1.13388e-05
1.1165e-05
1.10213e-05
1.09055e-05
1.08093e-05
1.07267e-05
1.06548e-05
1.05937e-05
1.05436e-05
1.05042e-05
1.04734e-05
1.04486e-05
1.04282e-05
1.04116e-05
1.03983e-05
1.0388e-05
1.038e-05
1.03736e-05
1.03685e-05
1.03644e-05
1.03612e-05
1.03588e-05
1.03569e-05
1.03555e-05
1.03544e-05
1.03536e-05
1.03529e-05
1.03525e-05
1.03521e-05
1.03518e-05
1.03516e-05
1.03515e-05
1.03513e-05
1.03513e-05
1.03512e-05
1.03511e-05
1.03511e-05
1.03511e-05
1.03511e-05
1.0351e-05
1.0351e-05
1.0351e-05
1.0351e-05
1.0351e-05
1.0351e-05
1.0351e-05
1.0351e-05
1.0351e-05
1.0351e-05
1.0351e-05
1.0351e-05
1.0351e-05
1.0351e-05
1.0351e-05
1.0351e-05
1.0351e-05
1.0351e-05
1.0351e-05
1.0351e-05
1.0351e-05
1.0351e-05
1.0351e-05
1.0351e-05
1.0351e-05
1.0351e-05
1.0351e-05
1.0351e-05
1.0351e-05
1.0351e-05
1.0351e-05
1.0351e-05
1.0351e-05
1.0351e-05
1.0351e-05
1.0351e-05
1.0351e-05
1.0351e-05
1.0351e-05
1.0351e-05
1.0351e-05
1.0351e-05
1.0351e-05
1.0351e-05
1.0351e-05
1.0351e-05
1.0351e-05
1.0351e-05
1.0351e-05
1.0351e-05
1.0351e-05
1.0351e-05
1.0351e-05
1.0351e-05
1.0351e-05
1.0351e-05
1.0351e-05
1.0351e-05
1.0351e-05
1.0351e-05
1.0351e-05
1.0351e-05
1.0351e-05
1.0351e-05
1.0351e-05
1.0351e-05
1.0351e-05
1.0351e-05
1.0351e-05
1.0351e-05
1.0351e-05
1.0351e-05
1.0351e-05
1.0351e-05
1.0351e-05
1.0351e-05
1.0351e-05
1.0351e-05
1.0351e-05
1.0351e-05
1.0351e-05
1.0351e-05
1.0351e-05
1.0351e-05
1.0351e-05
1.0351e-05
1.0351e-05
1.0351e-05
1.0351e-05
1.0351e-05
1.0351e-05
1.0351e-05
1.0351e-05
1.0351e-05
1.0351e-05
1.0351e-05
1.0351e-05
1.0351e-05
1.0351e-05
1.0351e-05
1.0351e-05
1.0351e-05
1.0351e-05
1.0351e-05
1.0351e-05
1.23778e-05
1.26216e-05
1.2881e-05
1.31545e-05
1.34418e-05
1.37511e-05
1.40882e-05
1.44485e-05
1.48239e-05
1.52043e-05
1.55796e-05
1.59408e-05
1.62807e-05
1.65922e-05
1.68701e-05
1.63303e-05
1.63235e-05
1.63186e-05
1.63156e-05
1.63151e-05
1.63156e-05
1.63174e-05
1.63207e-05
1.63257e-05
1.63326e-05
1.63411e-05
1.63506e-05
1.63604e-05
1.63696e-05
1.63773e-05
1.63832e-05
1.63876e-05
1.63906e-05
1.63934e-05
1.63956e-05
1.63962e-05
1.63963e-05
1.6396e-05
1.63952e-05
1.6394e-05
1.63923e-05
1.63901e-05
1.63877e-05
1.63863e-05
1.63859e-05
1.63856e-05
1.63842e-05
1.63804e-05
1.63731e-05
1.63626e-05
1.63488e-05
1.63303e-05
1.63053e-05
1.62693e-05
1.6215e-05
1.61343e-05
1.602e-05
1.58667e-05
1.56687e-05
1.54185e-05
1.5114e-05
1.47623e-05
1.43692e-05
1.39402e-05
1.34865e-05
1.30311e-05
1.26168e-05
1.22857e-05
1.20075e-05
1.17561e-05
1.15237e-05
1.13142e-05
1.11348e-05
1.09893e-05
1.0873e-05
1.07764e-05
1.06936e-05
1.06229e-05
1.05643e-05
1.05182e-05
1.04828e-05
1.0455e-05
1.04325e-05
1.04144e-05
1.04e-05
1.03888e-05
1.03803e-05
1.03737e-05
1.03684e-05
1.03642e-05
1.0361e-05
1.03585e-05
1.03567e-05
1.03553e-05
1.03542e-05
1.03534e-05
1.03528e-05
1.03524e-05
1.03521e-05
1.03518e-05
1.03516e-05
1.03515e-05
1.03513e-05
1.03513e-05
1.03512e-05
1.03512e-05
1.03511e-05
1.03511e-05
1.03511e-05
1.03511e-05
1.03511e-05
1.0351e-05
1.0351e-05
1.0351e-05
1.0351e-05
1.0351e-05
1.0351e-05
1.0351e-05
1.0351e-05
1.0351e-05
1.0351e-05
1.0351e-05
1.0351e-05
1.0351e-05
1.0351e-05
1.0351e-05
1.0351e-05
1.0351e-05
1.0351e-05
1.0351e-05
1.0351e-05
1.0351e-05
1.0351e-05
1.0351e-05
1.0351e-05
1.0351e-05
1.0351e-05
1.0351e-05
1.0351e-05
1.0351e-05
1.0351e-05
1.0351e-05
1.0351e-05
1.0351e-05
1.0351e-05
1.0351e-05
1.0351e-05
1.0351e-05
1.0351e-05
1.0351e-05
1.0351e-05
1.0351e-05
1.0351e-05
1.0351e-05
1.0351e-05
1.0351e-05
1.0351e-05
1.0351e-05
1.0351e-05
1.0351e-05
1.0351e-05
1.0351e-05
1.0351e-05
1.0351e-05
1.0351e-05
1.0351e-05
1.0351e-05
1.0351e-05
1.0351e-05
1.0351e-05
1.0351e-05
1.0351e-05
1.0351e-05
1.0351e-05
1.0351e-05
1.0351e-05
1.0351e-05
1.0351e-05
1.0351e-05
1.03511e-05
1.03511e-05
1.03511e-05
1.03511e-05
1.03511e-05
1.03511e-05
1.03511e-05
1.03511e-05
1.03511e-05
1.03511e-05
1.03511e-05
1.03511e-05
1.03511e-05
1.03511e-05
1.03511e-05
1.03511e-05
1.03511e-05
1.03511e-05
1.03511e-05
1.03511e-05
1.03511e-05
1.03511e-05
1.03511e-05
1.03511e-05
1.03511e-05
1.03511e-05
1.03511e-05
1.03512e-05
1.03511e-05
1.44961e-05
1.48827e-05
1.52756e-05
1.56642e-05
1.6039e-05
1.63916e-05
1.67138e-05
1.70009e-05
1.72523e-05
1.74695e-05
1.7655e-05
1.78119e-05
1.79438e-05
1.80536e-05
1.81444e-05
1.82184e-05
1.64648e-05
1.64567e-05
1.64507e-05
1.64468e-05
1.64456e-05
1.6446e-05
1.64473e-05
1.64498e-05
1.64535e-05
1.64581e-05
1.64634e-05
1.64691e-05
1.64746e-05
1.64798e-05
1.6484e-05
1.64874e-05
1.64901e-05
1.64916e-05
1.6493e-05
1.64949e-05
1.6496e-05
1.64963e-05
1.6496e-05
1.64948e-05
1.64937e-05
1.6493e-05
1.64932e-05
1.6494e-05
1.64953e-05
1.64972e-05
1.65005e-05
1.65047e-05
1.65095e-05
1.65164e-05
1.65233e-05
1.6527e-05
1.65312e-05
1.65363e-05
1.654e-05
1.654e-05
1.65375e-05
1.65313e-05
1.6521e-05
1.65059e-05
1.6484e-05
1.64502e-05
1.63961e-05
1.63124e-05
1.61922e-05
1.60305e-05
1.58224e-05
1.55603e-05
1.52382e-05
1.48611e-05
1.44346e-05
1.3967e-05
1.34747e-05
1.29879e-05
1.25578e-05
1.22192e-05
1.19319e-05
1.16713e-05
1.14338e-05
1.12263e-05
1.10548e-05
1.09195e-05
1.08108e-05
1.07194e-05
1.06417e-05
1.05773e-05
1.05265e-05
1.04878e-05
1.04581e-05
1.04344e-05
1.04153e-05
1.04003e-05
1.03888e-05
1.03801e-05
1.03734e-05
1.0368e-05
1.03639e-05
1.03607e-05
1.03583e-05
1.03566e-05
1.03552e-05
1.03542e-05
1.03535e-05
1.03529e-05
1.03525e-05
1.03522e-05
1.03519e-05
1.03517e-05
1.03515e-05
1.03514e-05
1.03513e-05
1.03513e-05
1.03512e-05
1.03512e-05
1.03512e-05
1.03511e-05
1.03511e-05
1.03511e-05
1.03511e-05
1.03511e-05
1.03511e-05
1.03511e-05
1.0351e-05
1.0351e-05
1.0351e-05
1.0351e-05
1.0351e-05
1.0351e-05
1.0351e-05
1.0351e-05
1.0351e-05
1.0351e-05
1.0351e-05
1.0351e-05
1.0351e-05
1.0351e-05
1.0351e-05
1.0351e-05
1.0351e-05
1.0351e-05
1.0351e-05
1.0351e-05
1.0351e-05
1.0351e-05
1.0351e-05
1.0351e-05
1.03511e-05
1.03511e-05
1.03511e-05
1.03511e-05
1.03511e-05
1.03511e-05
1.03511e-05
1.03511e-05
1.03511e-05
1.03511e-05
1.03511e-05
1.03511e-05
1.03511e-05
1.03511e-05
1.03511e-05
1.03511e-05
1.03511e-05
1.03511e-05
1.03511e-05
1.03511e-05
1.03511e-05
1.03511e-05
1.03511e-05
1.03511e-05
1.03511e-05
1.03511e-05
1.03511e-05
1.03511e-05
1.03511e-05
1.03511e-05
1.03512e-05
1.03512e-05
1.03512e-05
1.03512e-05
1.03512e-05
1.03512e-05
1.03512e-05
1.03512e-05
1.03512e-05
1.03512e-05
1.03512e-05
1.03512e-05
1.03513e-05
1.03513e-05
1.03513e-05
1.03513e-05
1.03513e-05
1.03513e-05
1.03513e-05
1.03513e-05
1.03514e-05
1.03514e-05
1.03514e-05
1.03514e-05
1.03514e-05
1.03514e-05
1.03515e-05
1.03515e-05
1.03515e-05
1.03515e-05
1.03516e-05
1.03516e-05
1.03516e-05
1.72832e-05
1.75191e-05
1.77205e-05
1.78907e-05
1.80332e-05
1.81515e-05
1.82488e-05
1.8328e-05
1.83918e-05
1.84423e-05
1.84815e-05
1.85112e-05
1.8534e-05
1.66304e-05
1.66201e-05
1.66118e-05
1.66054e-05
1.66012e-05
1.65987e-05
1.65974e-05
1.65969e-05
1.6597e-05
1.65974e-05
1.6598e-05
1.65986e-05
1.6599e-05
1.65992e-05
1.65991e-05
1.65989e-05
1.65982e-05
1.65966e-05
1.65959e-05
1.65954e-05
1.65946e-05
1.65933e-05
1.65913e-05
1.65888e-05
1.65867e-05
1.65849e-05
1.65838e-05
1.65838e-05
1.65842e-05
1.65855e-05
1.65879e-05
1.6591e-05
1.65949e-05
1.66005e-05
1.66057e-05
1.66102e-05
1.66154e-05
1.66222e-05
1.66303e-05
1.66391e-05
1.66486e-05
1.66597e-05
1.66687e-05
1.66767e-05
1.66848e-05
1.66919e-05
1.66963e-05
1.66972e-05
1.66958e-05
1.66905e-05
1.66784e-05
1.6656e-05
1.66171e-05
1.65532e-05
1.64557e-05
1.63186e-05
1.61374e-05
1.59056e-05
1.56126e-05
1.52511e-05
1.48267e-05
1.43487e-05
1.38318e-05
1.33017e-05
1.28018e-05
1.23934e-05
1.20686e-05
1.17841e-05
1.15257e-05
1.12975e-05
1.11067e-05
1.09556e-05
1.08368e-05
1.07387e-05
1.06555e-05
1.05866e-05
1.05322e-05
1.04911e-05
1.046e-05
1.04355e-05
1.04159e-05
1.04006e-05
1.0389e-05
1.03803e-05
1.03736e-05
1.03684e-05
1.03643e-05
1.03612e-05
1.03589e-05
1.03571e-05
1.03558e-05
1.03548e-05
1.0354e-05
1.03534e-05
1.03529e-05
1.03525e-05
1.03522e-05
1.0352e-05
1.03518e-05
1.03516e-05
1.03515e-05
1.03514e-05
1.03514e-05
1.03513e-05
1.03513e-05
1.03512e-05
1.03512e-05
1.03512e-05
1.03512e-05
1.03511e-05
1.03511e-05
1.03511e-05
1.03511e-05
1.03511e-05
1.03511e-05
1.03511e-05
1.03511e-05
1.03511e-05
1.03511e-05
1.03511e-05
1.03511e-05
1.03511e-05
1.03511e-05
1.03511e-05
1.03511e-05
1.03511e-05
1.03511e-05
1.03512e-05
1.03512e-05
1.03512e-05
1.03512e-05
1.03512e-05
1.03512e-05
1.03512e-05
1.03512e-05
1.03512e-05
1.03512e-05
1.03512e-05
1.03512e-05
1.03512e-05
1.03512e-05
1.03512e-05
1.03513e-05
1.03513e-05
1.03513e-05
1.03513e-05
1.03513e-05
1.03513e-05
1.03513e-05
1.03513e-05
1.03513e-05
1.03514e-05
1.03514e-05
1.03514e-05
1.03514e-05
1.03514e-05
1.03514e-05
1.03515e-05
1.03515e-05
1.03515e-05
1.03515e-05
1.03516e-05
1.03516e-05
1.03516e-05
1.03516e-05
1.03517e-05
1.03517e-05
1.03517e-05
1.03518e-05
1.03518e-05
1.03518e-05
1.03519e-05
1.03519e-05
1.03519e-05
1.0352e-05
1.0352e-05
1.03521e-05
1.03521e-05
1.03522e-05
1.03522e-05
1.03523e-05
1.03524e-05
1.03524e-05
1.03525e-05
1.03526e-05
1.03526e-05
1.03527e-05
1.03528e-05
1.03529e-05
1.0353e-05
1.03531e-05
1.03532e-05
1.03531e-05
1.84794e-05
1.85379e-05
1.85836e-05
1.86185e-05
1.8645e-05
1.8666e-05
1.86832e-05
1.86974e-05
1.87091e-05
1.87182e-05
1.87244e-05
1.87271e-05
1.87267e-05
1.68162e-05
1.68034e-05
1.67922e-05
1.67826e-05
1.67747e-05
1.67682e-05
1.67628e-05
1.67581e-05
1.67537e-05
1.67493e-05
1.6745e-05
1.67407e-05
1.67362e-05
1.67314e-05
1.67267e-05
1.67223e-05
1.67174e-05
1.67126e-05
1.67089e-05
1.67053e-05
1.67014e-05
1.66973e-05
1.66929e-05
1.66884e-05
1.66842e-05
1.66802e-05
1.66767e-05
1.66741e-05
1.66723e-05
1.6671e-05
1.66709e-05
1.66712e-05
1.66722e-05
1.66741e-05
1.66766e-05
1.66797e-05
1.66838e-05
1.66891e-05
1.66955e-05
1.6703e-05
1.67116e-05
1.67209e-05
1.67307e-05
1.67413e-05
1.67534e-05
1.67668e-05
1.67812e-05
1.67966e-05
1.68122e-05
1.68262e-05
1.68391e-05
1.68509e-05
1.68613e-05
1.68698e-05
1.68743e-05
1.68741e-05
1.687e-05
1.68565e-05
1.68275e-05
1.67761e-05
1.66942e-05
1.65744e-05
1.6411e-05
1.61978e-05
1.59239e-05
1.55759e-05
1.51538e-05
1.46679e-05
1.41332e-05
1.35737e-05
1.30288e-05
1.25577e-05
1.21956e-05
1.18892e-05
1.16123e-05
1.13656e-05
1.11571e-05
1.09908e-05
1.08618e-05
1.07573e-05
1.06693e-05
1.05964e-05
1.05391e-05
1.04962e-05
1.04642e-05
1.04394e-05
1.04197e-05
1.04043e-05
1.03924e-05
1.03835e-05
1.03766e-05
1.03712e-05
1.03669e-05
1.03635e-05
1.03609e-05
1.03589e-05
1.03574e-05
1.03561e-05
1.03552e-05
1.03544e-05
1.03538e-05
1.03533e-05
1.03529e-05
1.03526e-05
1.03523e-05
1.03521e-05
1.03519e-05
1.03518e-05
1.03517e-05
1.03516e-05
1.03515e-05
1.03515e-05
1.03514e-05
1.03514e-05
1.03514e-05
1.03514e-05
1.03514e-05
1.03514e-05
1.03514e-05
1.03514e-05
1.03514e-05
1.03514e-05
1.03514e-05
1.03514e-05
1.03515e-05
1.03515e-05
1.03515e-05
1.03515e-05
1.03515e-05
1.03515e-05
1.03515e-05
1.03516e-05
1.03516e-05
1.03516e-05
1.03516e-05
1.03517e-05
1.03517e-05
1.03517e-05
1.03517e-05
1.03518e-05
1.03518e-05
1.03518e-05
1.03518e-05
1.03519e-05
1.03519e-05
1.0352e-05
1.0352e-05
1.0352e-05
1.03521e-05
1.03521e-05
1.03522e-05
1.03522e-05
1.03523e-05
1.03523e-05
1.03524e-05
1.03525e-05
1.03525e-05
1.03526e-05
1.03527e-05
1.03527e-05
1.03528e-05
1.03529e-05
1.0353e-05
1.03531e-05
1.03532e-05
1.03533e-05
1.03534e-05
1.03535e-05
1.03536e-05
1.03537e-05
1.03539e-05
1.0354e-05
1.03541e-05
1.03543e-05
1.03545e-05
1.03546e-05
1.03548e-05
1.0355e-05
1.03552e-05
1.03554e-05
1.03556e-05
1.03558e-05
1.03561e-05
1.03563e-05
1.03566e-05
1.03569e-05
1.03572e-05
1.03575e-05
1.03578e-05
1.03581e-05
1.03585e-05
1.03589e-05
1.03586e-05
1.88096e-05
1.8823e-05
1.88337e-05
1.88414e-05
1.88459e-05
1.88463e-05
1.88452e-05
1.8843e-05
1.88402e-05
1.88375e-05
1.88351e-05
1.88334e-05
1.88327e-05
1.88313e-05
1.70115e-05
1.6996e-05
1.69817e-05
1.69686e-05
1.69567e-05
1.6946e-05
1.69361e-05
1.69267e-05
1.69177e-05
1.69086e-05
1.68995e-05
1.68906e-05
1.68816e-05
1.68721e-05
1.68632e-05
1.68546e-05
1.6846e-05
1.68381e-05
1.68309e-05
1.68238e-05
1.68169e-05
1.68097e-05
1.68025e-05
1.67956e-05
1.67887e-05
1.6782e-05
1.67758e-05
1.67702e-05
1.67652e-05
1.67608e-05
1.6757e-05
1.67538e-05
1.67514e-05
1.67495e-05
1.67489e-05
1.67492e-05
1.67503e-05
1.67525e-05
1.67559e-05
1.67604e-05
1.67662e-05
1.67733e-05
1.6782e-05
1.6792e-05
1.68035e-05
1.68163e-05
1.68303e-05
1.68452e-05
1.6861e-05
1.68774e-05
1.68947e-05
1.69133e-05
1.69332e-05
1.69539e-05
1.69747e-05
1.69943e-05
1.7012e-05
1.70286e-05
1.70446e-05
1.70603e-05
1.70743e-05
1.7083e-05
1.70842e-05
1.70796e-05
1.70615e-05
1.70217e-05
1.69532e-05
1.68487e-05
1.6701e-05
1.65029e-05
1.62439e-05
1.59097e-05
1.5493e-05
1.50027e-05
1.44527e-05
1.38648e-05
1.32774e-05
1.2748e-05
1.23351e-05
1.20031e-05
1.17069e-05
1.14416e-05
1.12154e-05
1.10341e-05
1.08949e-05
1.07853e-05
1.06944e-05
1.0619e-05
1.05591e-05
1.05138e-05
1.04798e-05
1.04537e-05
1.04327e-05
1.04159e-05
1.04026e-05
1.03923e-05
1.03843e-05
1.0378e-05
1.0373e-05
1.03688e-05
1.03654e-05
1.03627e-05
1.03606e-05
1.03588e-05
1.03575e-05
1.03563e-05
1.03554e-05
1.03547e-05
1.03541e-05
1.03537e-05
1.03533e-05
1.0353e-05
1.03528e-05
1.03526e-05
1.03525e-05
1.03524e-05
1.03524e-05
1.03523e-05
1.03523e-05
1.03523e-05
1.03524e-05
1.03524e-05
1.03524e-05
1.03524e-05
1.03525e-05
1.03525e-05
1.03526e-05
1.03526e-05
1.03527e-05
1.03527e-05
1.03528e-05
1.03528e-05
1.03529e-05
1.0353e-05
1.0353e-05
1.03531e-05
1.03532e-05
1.03533e-05
1.03534e-05
1.03535e-05
1.03536e-05
1.03537e-05
1.03538e-05
1.03539e-05
1.0354e-05
1.03542e-05
1.03543e-05
1.03545e-05
1.03546e-05
1.03548e-05
1.03549e-05
1.03551e-05
1.03553e-05
1.03555e-05
1.03557e-05
1.03559e-05
1.03561e-05
1.03564e-05
1.03566e-05
1.03569e-05
1.03572e-05
1.03575e-05
1.03578e-05
1.03581e-05
1.03584e-05
1.03588e-05
1.03591e-05
1.03595e-05
1.03599e-05
1.03604e-05
1.03608e-05
1.03613e-05
1.03618e-05
1.03623e-05
1.03629e-05
1.03635e-05
1.03641e-05
1.03648e-05
1.03655e-05
1.03663e-05
1.03671e-05
1.0368e-05
1.03688e-05
1.03698e-05
1.03708e-05
1.03718e-05
1.03729e-05
1.0374e-05
1.03752e-05
1.03764e-05
1.03777e-05
1.03793e-05
1.03783e-05
1.89641e-05
1.89611e-05
1.89584e-05
1.89561e-05
1.89548e-05
1.89535e-05
1.89507e-05
1.89465e-05
1.89404e-05
1.89335e-05
1.89265e-05
1.89202e-05
1.89154e-05
1.89113e-05
1.72073e-05
1.7189e-05
1.71716e-05
1.71552e-05
1.71395e-05
1.71247e-05
1.71106e-05
1.7097e-05
1.70836e-05
1.70701e-05
1.70568e-05
1.70439e-05
1.70308e-05
1.70177e-05
1.70051e-05
1.69928e-05
1.6981e-05
1.69699e-05
1.69592e-05
1.69488e-05
1.69388e-05
1.69288e-05
1.69188e-05
1.6909e-05
1.68992e-05
1.68897e-05
1.68806e-05
1.6872e-05
1.68638e-05
1.6856e-05
1.68487e-05
1.68419e-05
1.68359e-05
1.68306e-05
1.68263e-05
1.6823e-05
1.68205e-05
1.68192e-05
1.68193e-05
1.68204e-05
1.6823e-05
1.68273e-05
1.68333e-05
1.68409e-05
1.68501e-05
1.68606e-05
1.68725e-05
1.68858e-05
1.69005e-05
1.69167e-05
1.69343e-05
1.69535e-05
1.6974e-05
1.69954e-05
1.70176e-05
1.70403e-05
1.70635e-05
1.7088e-05
1.71143e-05
1.71423e-05
1.71707e-05
1.71982e-05
1.7223e-05
1.72469e-05
1.72715e-05
1.72975e-05
1.73235e-05
1.73462e-05
1.73622e-05
1.73673e-05
1.73631e-05
1.73419e-05
1.72923e-05
1.72059e-05
1.70735e-05
1.68854e-05
1.66318e-05
1.63014e-05
1.5884e-05
1.53835e-05
1.48123e-05
1.41913e-05
1.35591e-05
1.29741e-05
1.25003e-05
1.21416e-05
1.18322e-05
1.15555e-05
1.13171e-05
1.11225e-05
1.09707e-05
1.08535e-05
1.07578e-05
1.06769e-05
1.06101e-05
1.05571e-05
1.05164e-05
1.04853e-05
1.04609e-05
1.04409e-05
1.04243e-05
1.04107e-05
1.03997e-05
1.03909e-05
1.03838e-05
1.0378e-05
1.03732e-05
1.03692e-05
1.03659e-05
1.03633e-05
1.03613e-05
1.03598e-05
1.03586e-05
1.03576e-05
1.03569e-05
1.03564e-05
1.0356e-05
1.03558e-05
1.03556e-05
1.03555e-05
1.03555e-05
1.03555e-05
1.03555e-05
1.03556e-05
1.03557e-05
1.03559e-05
1.0356e-05
1.03562e-05
1.03563e-05
1.03565e-05
1.03567e-05
1.03569e-05
1.03571e-05
1.03574e-05
1.03576e-05
1.03578e-05
1.03581e-05
1.03584e-05
1.03587e-05
1.0359e-05
1.03594e-05
1.03597e-05
1.03601e-05
1.03605e-05
1.03609e-05
1.03613e-05
1.03618e-05
1.03623e-05
1.03628e-05
1.03633e-05
1.03639e-05
1.03645e-05
1.03651e-05
1.03657e-05
1.03664e-05
1.03671e-05
1.03679e-05
1.03687e-05
1.03696e-05
1.03705e-05
1.03715e-05
1.03725e-05
1.03736e-05
1.03747e-05
1.03759e-05
1.03772e-05
1.03785e-05
1.03798e-05
1.03812e-05
1.03827e-05
1.03843e-05
1.03859e-05
1.03877e-05
1.03895e-05
1.03914e-05
1.03935e-05
1.03957e-05
1.0398e-05
1.04005e-05
1.04031e-05
1.04059e-05
1.04089e-05
1.04121e-05
1.04154e-05
1.04189e-05
1.04226e-05
1.04265e-05
1.04305e-05
1.04347e-05
1.04391e-05
1.04437e-05
1.04492e-05
1.04465e-05
1.9068e-05
1.9061e-05
1.90535e-05
1.90463e-05
1.90402e-05
1.90352e-05
1.90304e-05
1.90249e-05
1.90185e-05
1.90113e-05
1.90036e-05
1.89959e-05
1.89889e-05
1.89831e-05
1.73974e-05
1.73766e-05
1.73566e-05
1.73371e-05
1.73181e-05
1.72998e-05
1.72821e-05
1.72648e-05
1.72476e-05
1.72306e-05
1.72138e-05
1.71974e-05
1.7181e-05
1.71649e-05
1.71492e-05
1.7134e-05
1.71193e-05
1.7105e-05
1.70914e-05
1.70782e-05
1.70652e-05
1.70523e-05
1.70396e-05
1.7027e-05
1.70145e-05
1.70022e-05
1.69902e-05
1.69785e-05
1.69671e-05
1.69561e-05
1.69455e-05
1.69354e-05
1.69259e-05
1.69172e-05
1.69094e-05
1.69025e-05
1.68965e-05
1.68917e-05
1.68881e-05
1.68858e-05
1.68856e-05
1.68865e-05
1.68891e-05
1.68934e-05
1.68994e-05
1.69071e-05
1.69163e-05
1.69273e-05
1.69399e-05
1.69543e-05
1.69705e-05
1.69883e-05
1.70075e-05
1.70281e-05
1.70502e-05
1.70737e-05
1.70985e-05
1.71252e-05
1.71535e-05
1.71828e-05
1.72129e-05
1.72437e-05
1.72747e-05
1.73071e-05
1.73422e-05
1.73801e-05
1.74192e-05
1.74578e-05
1.74957e-05
1.75325e-05
1.7571e-05
1.76113e-05
1.76506e-05
1.7686e-05
1.77149e-05
1.77333e-05
1.77373e-05
1.77286e-05
1.76941e-05
1.76196e-05
1.74936e-05
1.73061e-05
1.70486e-05
1.6712e-05
1.62885e-05
1.578e-05
1.52017e-05
1.45739e-05
1.39304e-05
1.33187e-05
1.27914e-05
1.23871e-05
1.20665e-05
1.17813e-05
1.15267e-05
1.1309e-05
1.1131e-05
1.09906e-05
1.08807e-05
1.07904e-05
1.07125e-05
1.06459e-05
1.05906e-05
1.05459e-05
1.05104e-05
1.04821e-05
1.0459e-05
1.04397e-05
1.04236e-05
1.04105e-05
1.04e-05
1.03918e-05
1.03853e-05
1.03802e-05
1.0376e-05
1.03728e-05
1.03703e-05
1.03685e-05
1.03673e-05
1.03665e-05
1.0366e-05
1.03658e-05
1.03658e-05
1.03658e-05
1.03661e-05
1.03664e-05
1.03668e-05
1.03673e-05
1.03678e-05
1.03684e-05
1.0369e-05
1.03696e-05
1.03703e-05
1.03711e-05
1.03718e-05
1.03726e-05
1.03735e-05
1.03744e-05
1.03754e-05
1.03764e-05
1.03776e-05
1.03787e-05
1.038e-05
1.03813e-05
1.03827e-05
1.03842e-05
1.03858e-05
1.03874e-05
1.03891e-05
1.03909e-05
1.03927e-05
1.03946e-05
1.03967e-05
1.03988e-05
1.04011e-05
1.04034e-05
1.04059e-05
1.04086e-05
1.04114e-05
1.04144e-05
1.04176e-05
1.0421e-05
1.04245e-05
1.04283e-05
1.04323e-05
1.04365e-05
1.04409e-05
1.04455e-05
1.04503e-05
1.04553e-05
1.04605e-05
1.0466e-05
1.04718e-05
1.04778e-05
1.04842e-05
1.0491e-05
1.04983e-05
1.0506e-05
1.05143e-05
1.05231e-05
1.05327e-05
1.05428e-05
1.05537e-05
1.05652e-05
1.05773e-05
1.05901e-05
1.06036e-05
1.06177e-05
1.06323e-05
1.06476e-05
1.06634e-05
1.06829e-05
1.06765e-05
1.9146e-05
1.91384e-05
1.91302e-05
1.91218e-05
1.91139e-05
1.9107e-05
1.91014e-05
1.90964e-05
1.90916e-05
1.90864e-05
1.90808e-05
1.90748e-05
1.90687e-05
1.75786e-05
1.75559e-05
1.75336e-05
1.75116e-05
1.749e-05
1.74689e-05
1.74483e-05
1.7428e-05
1.74078e-05
1.7388e-05
1.73686e-05
1.73493e-05
1.73304e-05
1.73118e-05
1.72935e-05
1.72759e-05
1.72587e-05
1.72419e-05
1.72256e-05
1.72097e-05
1.71941e-05
1.71786e-05
1.71632e-05
1.7148e-05
1.71328e-05
1.71179e-05
1.71031e-05
1.70886e-05
1.70743e-05
1.70602e-05
1.70466e-05
1.70333e-05
1.70207e-05
1.70088e-05
1.69977e-05
1.69875e-05
1.69782e-05
1.69699e-05
1.69629e-05
1.69573e-05
1.69532e-05
1.69508e-05
1.69505e-05
1.69513e-05
1.69539e-05
1.69583e-05
1.69645e-05
1.69724e-05
1.69823e-05
1.6994e-05
1.70077e-05
1.70232e-05
1.70405e-05
1.70596e-05
1.70804e-05
1.71031e-05
1.71276e-05
1.71539e-05
1.71816e-05
1.72106e-05
1.7241e-05
1.72725e-05
1.73053e-05
1.73401e-05
1.73771e-05
1.74152e-05
1.74539e-05
1.74937e-05
1.75349e-05
1.75779e-05
1.76235e-05
1.7671e-05
1.77198e-05
1.77705e-05
1.78227e-05
1.78755e-05
1.79295e-05
1.79829e-05
1.8032e-05
1.80751e-05
1.81089e-05
1.81285e-05
1.8131e-05
1.81192e-05
1.80777e-05
1.79942e-05
1.78591e-05
1.76664e-05
1.74132e-05
1.70942e-05
1.6704e-05
1.62406e-05
1.57122e-05
1.51337e-05
1.45245e-05
1.39145e-05
1.33431e-05
1.28501e-05
1.24633e-05
1.21627e-05
1.18952e-05
1.16513e-05
1.14347e-05
1.12484e-05
1.10931e-05
1.09668e-05
1.08641e-05
1.07765e-05
1.07001e-05
1.06348e-05
1.05813e-05
1.0539e-05
1.05061e-05
1.04805e-05
1.046e-05
1.04433e-05
1.04301e-05
1.04201e-05
1.04126e-05
1.04073e-05
1.04036e-05
1.04012e-05
1.03997e-05
1.03991e-05
1.03991e-05
1.03996e-05
1.04005e-05
1.04018e-05
1.04033e-05
1.04051e-05
1.0407e-05
1.0409e-05
1.04111e-05
1.04134e-05
1.04158e-05
1.04184e-05
1.04211e-05
1.0424e-05
1.0427e-05
1.04303e-05
1.04338e-05
1.04375e-05
1.04415e-05
1.04457e-05
1.04502e-05
1.04549e-05
1.04599e-05
1.04651e-05
1.04706e-05
1.04763e-05
1.04822e-05
1.04884e-05
1.04948e-05
1.05016e-05
1.05087e-05
1.05161e-05
1.0524e-05
1.05324e-05
1.05412e-05
1.05506e-05
1.05607e-05
1.05714e-05
1.05828e-05
1.0595e-05
1.0608e-05
1.06218e-05
1.06363e-05
1.06515e-05
1.06672e-05
1.06835e-05
1.07003e-05
1.07177e-05
1.07357e-05
1.07545e-05
1.07741e-05
1.07947e-05
1.08164e-05
1.08393e-05
1.08635e-05
1.08892e-05
1.09166e-05
1.09459e-05
1.09772e-05
1.10108e-05
1.10467e-05
1.10848e-05
1.11252e-05