/*--------------------------------*- C++ -*----------------------------------*\
| =========                 |                                                 |
| \\      /  F ield         | OpenFOAM: The Open Source CFD Toolbox           |
|  \\    /   O peration     | Version:  v1706                                 |
|   \\  /    A nd           | Web:      www.OpenFOAM.com                      |
|    \\/     M anipulation  |                                                 |
\*---------------------------------------------------------------------------*/
FoamFile
{
    version     2.0;
    format      ascii;
    class       volScalarField;
    location    "3.6e-05";
    object      p;
}
// * * * * * * * * * * * * * * * * * * * * * * * * * * * * * * * * * * * * * //

dimensions      [1 -1 -2 0 0 0 0];


internalField   nonuniform List<scalar> 
30104
(
21.9566
21.9632
21.9709
21.9797
21.9896
22.001
22.0138
22.0283
22.0447
22.0634
22.0849
22.1095
22.1379
22.1707
22.2088
22.2525
22.3023
34.745
34.2076
33.6554
33.0841
32.4899
31.87
31.2245
30.5572
29.8739
29.175
28.4697
27.8809
27.4686
27.1456
26.8532
26.5667
26.2789
25.9889
25.6988
25.411
25.127
24.8475
24.5763
24.3149
24.0577
23.817
23.6186
23.4535
23.3039
23.1611
23.0215
22.884
22.7501
22.6217
22.4998
22.3886
22.2964
22.2259
22.1724
22.1292
22.0926
22.0613
22.0357
22.0156
21.9993
21.9854
21.9733
21.9627
21.9534
21.9451
21.938
21.9324
21.9282
21.9252
21.9228
21.921
21.9196
21.9185
21.9176
21.9169
21.9163
21.9158
21.9153
21.9149
21.9146
21.9144
21.9143
21.9142
21.9141
21.9141
21.914
21.914
21.914
21.914
21.9139
21.9139
21.9139
21.9139
21.9139
21.9139
21.9139
21.9139
21.9139
21.9139
21.9139
21.9139
21.9139
21.9139
21.9139
21.9139
21.9139
21.9139
21.9139
21.9139
21.9139
21.9139
21.9139
21.9139
21.9139
21.9139
21.9139
21.9139
21.9139
21.9139
21.9139
21.9139
21.9139
21.9139
21.9139
21.9139
21.9139
21.9139
21.9139
21.9139
21.9139
21.9139
21.9139
21.9139
21.9139
21.9139
21.9139
21.9139
21.9139
21.9139
21.9139
21.9139
21.9139
21.9139
21.9139
21.9139
21.9139
21.9139
21.9139
21.9139
21.9139
21.9139
21.9139
21.9139
21.9139
21.9139
21.9139
21.9139
21.9139
21.9139
21.9139
21.9139
21.9139
21.9139
21.9139
21.9139
21.9139
21.9139
21.9139
21.9139
21.9139
21.9139
21.9139
21.9139
21.9139
21.9139
21.9139
21.9139
21.9139
21.9139
21.9139
21.9139
21.9139
21.9139
21.9139
21.9139
21.9139
21.9139
21.9139
21.9139
21.9139
21.9139
21.9139
21.9139
21.9139
21.9139
21.9139
21.9139
21.9139
21.9139
21.9139
21.9139
21.9139
21.9139
21.9139
21.9139
21.9139
21.9139
21.9139
22.1657
22.2043
22.2485
22.2994
22.358
22.4256
22.5035
22.5933
22.6958
22.8122
22.9431
23.0899
23.2546
23.4402
23.6519
23.8954
24.1765
96.8258
95.6834
94.4982
93.2727
92.0072
90.6985
89.3414
87.9235
86.4188
84.7997
83.0363
81.0077
78.6581
76.064
73.2928
70.3852
67.3641
64.2371
61.003
57.6716
54.2812
50.8917
47.5621
44.3289
41.2187
38.2756
35.584
33.3689
31.794
30.588
29.5536
28.6035
27.708
26.866
26.104
25.4541
24.9157
24.4661
24.0799
23.7411
23.4411
23.1748
22.9405
22.7417
22.5821
22.4573
22.3578
22.2756
22.2069
22.1504
22.105
22.0685
22.039
22.0148
21.9948
21.9779
21.9639
21.9526
21.9439
21.9372
21.9321
21.928
21.9249
21.9224
21.9205
21.919
21.9179
21.9169
21.9162
21.9156
21.9151
21.9148
21.9146
21.9144
21.9143
21.9142
21.9141
21.9141
21.914
21.914
21.914
21.9139
21.9139
21.9139
21.9139
21.9139
21.9139
21.9139
21.9139
21.9139
21.9139
21.9139
21.9139
21.9139
21.9139
21.9139
21.9139
21.9139
21.9139
21.9139
21.9139
21.9139
21.9139
21.9139
21.9139
21.9139
21.9139
21.9139
21.9139
21.9139
21.9139
21.9139
21.9139
21.9139
21.9139
21.9139
21.9139
21.9139
21.9139
21.9139
21.9139
21.9139
21.9139
21.9139
21.9139
21.9139
21.9139
21.9139
21.9139
21.9139
21.9139
21.9139
21.9139
21.9139
21.9139
21.9139
21.9139
21.9139
21.9139
21.9139
21.9139
21.9139
21.9139
21.9139
21.9139
21.9139
21.9139
21.9139
21.9139
21.9139
21.9139
21.9139
21.9139
21.9139
21.9139
21.9139
21.9139
21.9139
21.9139
21.9139
21.9139
21.9139
21.9139
21.9139
21.9139
21.9139
21.9139
21.9139
21.9139
21.9139
21.9139
21.9139
21.9139
21.9139
21.9139
21.9139
21.9139
21.9139
21.9139
21.9139
21.9139
21.9139
21.9139
21.9139
21.9139
21.9139
21.9139
21.9139
21.9139
21.9139
21.9139
21.9139
21.9139
22.8257
22.9671
23.1279
23.3102
23.5168
23.7519
24.0216
24.3328
24.6921
25.1054
25.5777
26.113
26.7191
27.4078
28.1886
29.0655
127.268
126.528
125.726
124.846
123.885
122.848
121.764
120.631
119.469
118.284
117.067
115.801
114.474
113.083
111.647
110.13
108.501
106.763
104.918
102.951
100.879
98.682
96.2973
93.6462
90.663
87.296
83.478
79.0308
73.8476
68.2518
62.5682
57.0048
51.6831
46.6939
42.1228
38.0828
34.8363
32.58
30.9216
29.559
28.3609
27.2932
26.3724
25.6117
24.9921
24.4791
24.0435
23.6681
23.342
23.0596
22.8227
22.6348
22.4906
22.3776
22.2861
22.2111
22.1507
22.1028
22.0648
22.0343
22.0093
21.9886
21.9715
21.9577
21.9472
21.9394
21.9334
21.9289
21.9254
21.9227
21.9207
21.9191
21.9178
21.9168
21.916
21.9154
21.915
21.9147
21.9145
21.9144
21.9142
21.9142
21.9141
21.914
21.914
21.914
21.914
21.9139
21.9139
21.9139
21.9139
21.9139
21.9139
21.9139
21.9139
21.9139
21.9139
21.9139
21.9139
21.9139
21.9139
21.9139
21.9139
21.9139
21.9139
21.9139
21.9139
21.9139
21.9139
21.9139
21.9139
21.9139
21.9139
21.9139
21.9139
21.9139
21.9139
21.9139
21.9139
21.9139
21.9139
21.9139
21.9139
21.9139
21.9139
21.9139
21.9139
21.9139
21.9139
21.9139
21.9139
21.9139
21.9139
21.9139
21.9139
21.9139
21.9139
21.9139
21.9139
21.9139
21.9139
21.9139
21.9139
21.9139
21.9139
21.9139
21.9139
21.9139
21.9139
21.9139
21.9139
21.9139
21.9139
21.9139
21.9139
21.9139
21.9139
21.9139
21.9139
21.9139
21.9139
21.9139
21.9139
21.9139
21.9139
21.9139
21.9139
21.9139
21.9139
21.9139
21.9139
21.9139
21.9139
21.9139
21.9139
21.9139
21.9139
21.9139
21.9139
21.9139
21.9139
21.9139
21.9139
21.9139
21.9139
21.9139
21.9139
21.9139
21.9139
21.9139
21.9139
21.9139
21.9139
24.9087
25.3677
25.8949
26.4963
27.1837
27.9704
28.866
29.8758
31.0031
32.2531
33.6331
35.1607
36.8512
38.7925
41.1813
44.1181
129.297
128.757
128.228
127.706
127.187
126.676
126.16
125.641
125.124
124.612
124.111
123.624
123.157
122.711
122.278
121.848
121.416
120.966
120.429
119.73
118.87
117.886
116.805
115.63
114.358
112.987
111.499
109.845
108.011
105.978
103.679
101.023
97.9039
94.2045
89.8514
84.814
79.0006
72.4012
65.538
58.87
52.6263
46.9072
41.7889
37.4267
34.1488
31.9238
30.2507
28.8514
27.6323
26.5923
25.7419
25.0584
24.502
24.0368
23.64
23.2977
23.0046
22.7647
22.5802
22.4407
22.3317
22.2439
22.1735
22.1182
22.075
22.041
22.0136
21.9911
21.9726
21.9579
21.9468
21.9387
21.9327
21.9282
21.9247
21.9222
21.9202
21.9187
21.9175
21.9165
21.9158
21.9153
21.9149
21.9147
21.9145
21.9143
21.9142
21.9142
21.9141
21.9141
21.914
21.914
21.914
21.914
21.9139
21.9139
21.9139
21.9139
21.9139
21.9139
21.9139
21.9139
21.9139
21.9139
21.9139
21.9139
21.9139
21.9139
21.9139
21.9139
21.9139
21.9139
21.9139
21.9139
21.9139
21.9139
21.9139
21.9139
21.9139
21.9139
21.9139
21.9139
21.9139
21.9139
21.9139
21.9139
21.9139
21.9139
21.9139
21.9139
21.9139
21.9139
21.9139
21.9139
21.9139
21.9139
21.9139
21.9139
21.9139
21.9139
21.9139
21.9139
21.9139
21.9139
21.9139
21.9139
21.9139
21.9139
21.9139
21.9139
21.9139
21.9139
21.9139
21.9139
21.9139
21.9139
21.914
21.914
21.914
21.914
21.914
21.914
21.914
21.914
21.914
21.914
21.914
21.914
21.914
21.914
21.914
21.914
21.914
21.914
21.914
21.914
21.914
21.914
21.914
21.914
21.914
21.914
21.914
21.914
21.9141
21.9141
21.9141
21.9141
21.9141
21.9141
21.9141
21.9141
21.9141
31.3566
32.7049
34.1987
35.8594
37.7002
39.855
42.5001
45.7349
49.6113
54.143
59.3103
65.0701
71.3612
78.0392
84.8361
130.015
129.491
128.986
128.493
128.01
127.519
127.017
126.502
125.978
125.452
124.935
124.437
123.968
123.53
123.112
122.717
122.355
121.978
121.624
121.373
121.171
120.984
120.781
120.561
120.336
120.112
119.856
119.521
119.086
118.539
117.866
117.058
116.101
114.991
113.788
112.463
110.882
108.928
106.496
103.462
99.7065
95.163
89.8394
83.7691
76.9069
69.484
62.1072
55.1416
48.7471
43.0323
38.164
34.4584
32
30.2106
28.7374
27.4703
26.4087
25.5542
24.8733
24.321
23.86
23.467
23.1305
22.8514
22.6351
22.4749
22.3535
22.2577
22.1816
22.1223
22.0766
22.0411
22.0127
21.9895
21.9706
21.9558
21.945
21.9372
21.9315
21.9272
21.9241
21.9217
21.9198
21.9184
21.9173
21.9164
21.9158
21.9153
21.915
21.9147
21.9146
21.9144
21.9143
21.9142
21.9142
21.9141
21.9141
21.914
21.914
21.914
21.914
21.914
21.914
21.914
21.914
21.914
21.914
21.914
21.9139
21.9139
21.9139
21.9139
21.9139
21.9139
21.9139
21.9139
21.914
21.914
21.914
21.914
21.914
21.914
21.914
21.914
21.914
21.914
21.914
21.914
21.914
21.914
21.914
21.914
21.914
21.914
21.914
21.914
21.914
21.914
21.914
21.914
21.914
21.914
21.914
21.914
21.914
21.914
21.914
21.914
21.914
21.914
21.914
21.9141
21.9141
21.9141
21.9141
21.9141
21.9141
21.9141
21.9141
21.9141
21.9141
21.9141
21.9141
21.9141
21.9142
21.9142
21.9142
21.9142
21.9142
21.9142
21.9142
21.9142
21.9143
21.9143
21.9143
21.9143
21.9143
21.9143
21.9144
21.9144
21.9144
21.9144
21.9145
21.9145
21.9145
21.9145
21.9146
21.9146
21.9146
21.9146
21.9147
21.9147
21.9147
45.761
49.6602
54.2535
59.5345
65.4656
71.988
78.9093
85.9794
93.0222
99.9024
106.514
112.775
118.624
124.031
128.964
133.385
129.488
128.985
128.504
128.042
127.599
127.163
126.727
126.291
125.854
125.417
124.982
124.551
124.132
123.731
123.353
123.016
122.709
122.387
122.117
121.931
121.776
121.635
121.475
121.282
121.1
120.93
120.77
120.667
120.614
120.594
120.605
120.628
120.672
120.802
120.886
120.8
120.575
120.225
119.707
118.98
118.088
117.086
115.955
114.564
112.729
110.267
107.025
102.914
97.9307
92.1395
85.6274
78.3879
70.5249
62.6474
55.1862
48.3678
42.3575
37.3709
33.735
31.3714
29.6191
28.1614
26.9301
25.9309
25.1411
24.5138
24.0013
23.5701
23.2029
22.8979
22.6612
22.4879
22.3593
22.2594
22.181
22.1206
22.0743
22.0384
22.0099
21.9867
21.9679
21.9537
21.9436
21.9364
21.9311
21.9272
21.9242
21.922
21.9202
21.9188
21.9177
21.9168
21.9161
21.9157
21.9153
21.915
21.9148
21.9147
21.9145
21.9144
21.9144
21.9143
21.9142
21.9142
21.9141
21.9141
21.9141
21.9141
21.9141
21.9141
21.9141
21.9141
21.9141
21.9141
21.9141
21.9141
21.9141
21.9141
21.9141
21.9141
21.9141
21.9141
21.9141
21.9141
21.9141
21.9141
21.9141
21.9141
21.9141
21.9141
21.9142
21.9142
21.9142
21.9142
21.9142
21.9142
21.9142
21.9142
21.9142
21.9142
21.9143
21.9143
21.9143
21.9143
21.9143
21.9143
21.9143
21.9144
21.9144
21.9144
21.9144
21.9144
21.9145
21.9145
21.9145
21.9145
21.9146
21.9146
21.9146
21.9147
21.9147
21.9147
21.9148
21.9148
21.9148
21.9149
21.9149
21.915
21.915
21.9151
21.9151
21.9152
21.9152
21.9153
21.9153
21.9154
21.9155
21.9155
21.9156
21.9157
21.9158
21.9159
21.9159
21.916
21.9161
21.9162
21.9163
21.9165
21.9166
21.9167
21.9168
21.917
21.917
91.4388
98.6783
105.685
112.355
118.606
124.392
129.667
134.385
138.528
142.097
145.118
147.62
149.679
128.924
128.439
127.971
127.524
127.096
126.685
126.285
125.891
125.501
125.111
124.726
124.346
123.97
123.606
123.276
122.991
122.713
122.419
122.215
122.073
121.955
121.853
121.729
121.598
121.483
121.379
121.304
121.271
121.266
121.284
121.332
121.393
121.477
121.64
121.814
121.963
122.12
122.312
122.543
122.798
123.069
123.29
123.339
123.244
122.971
122.505
121.866
121.102
120.23
119.174
117.755
115.726
112.878
109.104
104.396
98.8095
92.4395
85.3525
77.4853
69.0124
60.632
52.827
45.8689
39.9568
35.3562
32.2999
30.2549
28.6447
27.295
26.194
25.3255
24.6419
24.092
23.6331
23.2437
22.9212
22.6718
22.4909
22.3589
22.2579
22.1796
22.1195
22.0735
22.038
22.0098
21.987
21.9689
21.9554
21.9456
21.9385
21.9332
21.9292
21.9261
21.9237
21.9218
21.9203
21.9191
21.918
21.9172
21.9166
21.9161
21.9157
21.9154
21.9152
21.915
21.9149
21.9148
21.9147
21.9146
21.9146
21.9145
21.9145
21.9145
21.9145
21.9145
21.9145
21.9145
21.9145
21.9145
21.9145
21.9145
21.9145
21.9146
21.9146
21.9146
21.9146
21.9146
21.9147
21.9147
21.9147
21.9147
21.9148
21.9148
21.9148
21.9149
21.9149
21.9149
21.915
21.915
21.9151
21.9151
21.9152
21.9152
21.9153
21.9153
21.9154
21.9154
21.9155
21.9156
21.9156
21.9157
21.9158
21.9159
21.916
21.916
21.9161
21.9162
21.9163
21.9164
21.9166
21.9167
21.9168
21.9169
21.917
21.9172
21.9173
21.9175
21.9176
21.9178
21.918
21.9182
21.9184
21.9186
21.9188
21.919
21.9193
21.9196
21.9198
21.9201
21.9204
21.9207
21.9211
21.9214
21.9218
21.9221
21.9226
21.923
21.9234
21.9239
21.9244
21.9249
21.9254
21.9254
138.101
142.121
145.546
148.399
150.743
152.679
154.309
155.687
156.854
157.833
158.626
159.199
159.552
128.396
127.932
127.481
127.047
126.632
126.236
125.856
125.489
125.13
124.775
124.43
124.1
123.774
123.447
123.15
122.893
122.623
122.383
122.222
122.101
122.002
121.91
121.818
121.743
121.681
121.633
121.603
121.603
121.629
121.68
121.759
121.854
121.978
122.136
122.307
122.485
122.68
122.904
123.156
123.439
123.749
124.053
124.345
124.649
124.977
125.325
125.671
125.967
126.147
126.225
126.135
125.848
125.409
124.878
124.223
123.361
122.18
120.436
117.862
114.308
109.765
104.285
97.9452
90.8128
82.8688
74.0647
64.9829
56.379
48.6717
42.081
36.8146
33.1174
30.7819
29.0414
27.6001
26.4193
25.4858
24.7538
24.1708
23.6884
23.2806
22.9449
22.6875
22.5025
22.3695
22.2694
22.192
22.1323
22.0863
22.0504
22.0217
21.9984
21.9795
21.9648
21.9538
21.9456
21.9395
21.9347
21.931
21.928
21.9256
21.9237
21.9221
21.9207
21.9196
21.9186
21.9179
21.9173
21.9168
21.9165
21.9163
21.9161
21.916
21.916
21.9159
21.9159
21.9159
21.9159
21.9159
21.916
21.916
21.916
21.9161
21.9162
21.9162
21.9163
21.9164
21.9164
21.9165
21.9166
21.9167
21.9168
21.9169
21.917
21.9171
21.9172
21.9174
21.9175
21.9176
21.9178
21.9179
21.9181
21.9183
21.9184
21.9186
21.9188
21.919
21.9192
21.9195
21.9197
21.92
21.9202
21.9205
21.9208
21.9211
21.9215
21.9218
21.9222
21.9226
21.923
21.9234
21.9239
21.9243
21.9248
21.9253
21.9259
21.9265
21.927
21.9277
21.9283
21.929
21.9297
21.9305
21.9313
21.9321
21.933
21.9339
21.9349
21.9359
21.937
21.9381
21.9393
21.9406
21.9419
21.9433
21.9448
21.9463
21.9479
21.9495
21.9513
21.9532
21.9553
21.9555
156.714
158.062
159.185
160.102
160.796
161.239
161.473
161.603
161.611
161.579
161.535
161.511
161.544
161.606
127.93
127.487
127.056
126.637
126.236
125.854
125.49
125.142
124.806
124.474
124.151
123.858
123.573
123.275
123.012
122.774
122.54
122.354
122.215
122.108
122.022
121.944
121.879
121.841
121.816
121.8
121.798
121.818
121.86
121.924
122.011
122.123
122.262
122.418
122.593
122.788
123.005
123.247
123.514
123.801
124.1
124.406
124.726
125.063
125.419
125.784
126.147
126.51
126.887
127.277
127.675
128.084
128.502
128.891
129.186
129.371
129.41
129.271
129.024
128.74
128.359
127.721
126.678
125.085
122.674
119.247
114.784
109.344
102.982
95.7339
87.6062
78.5753
68.975
59.7221
51.3735
44.1809
38.3318
34.0451
31.3253
29.4455
27.9232
26.6715
25.6771
24.8993
24.2864
23.7883
23.3717
23.0295
22.7641
22.5699
22.4296
22.3243
22.242
22.1771
22.1261
22.0859
22.0538
22.0276
22.0058
21.9878
21.9732
21.9617
21.9528
21.9459
21.9404
21.936
21.9325
21.9298
21.9276
21.9259
21.9244
21.9233
21.9223
21.9216
21.9211
21.9207
21.9206
21.9205
21.9205
21.9206
21.9207
21.9208
21.921
21.9212
21.9214
21.9216
21.9218
21.9221
21.9224
21.9226
21.9229
21.9233
21.9236
21.924
21.9243
21.9247
21.9252
21.9256
21.9261
21.9266
21.9271
21.9277
21.9283
21.9289
21.9296
21.9303
21.931
21.9318
21.9326
21.9334
21.9343
21.9352
21.9362
21.9372
21.9383
21.9394
21.9406
21.9419
21.9432
21.9446
21.946
21.9475
21.9491
21.9508
21.9525
21.9543
21.9563
21.9583
21.9605
21.9627
21.9651
21.9677
21.9703
21.9732
21.9762
21.9794
21.9829
21.9865
21.9904
21.9946
21.9989
22.0035
22.0082
22.0132
22.0184
22.0239
22.0297
22.0359
22.0424
22.0493
22.0564
22.0644
22.0647
163.451
163.428
163.389
163.341
163.347
163.396
163.426
163.394
163.276
163.094
162.863
162.613
162.408
162.267
127.5
127.077
126.668
126.267
125.878
125.51
125.162
124.832
124.514
124.194
123.893
123.629
123.367
123.11
122.879
122.666
122.477
122.324
122.202
122.1
122.025
121.971
121.936
121.918
121.912
121.916
121.933
121.968
122.021
122.093
122.187
122.305
122.445
122.6
122.774
122.969
123.186
123.428
123.692
123.97
124.262
124.574
124.909
125.265
125.634
126.005
126.376
126.754
127.15
127.564
127.991
128.43
128.864
129.29
129.747
130.232
130.72
131.225
131.768
132.326
132.801
133.133
133.318
133.344
133.304
133.27
133.161
132.798
131.994
130.546
128.301
125.084
120.803
115.461
109.045
101.547
93.0176
83.5581
73.4175
63.4635
54.411
46.5621
40.1088
35.2485
32.0464
30.0097
28.426
27.1208
26.0733
25.25
24.6013
24.08
23.6459
23.2805
22.9825
22.7518
22.5801
22.4526
22.3543
22.2754
22.2112
22.1591
22.1168
22.0822
22.0533
22.0289
22.0082
21.9909
21.9769
21.966
21.9578
21.9517
21.947
21.9436
21.9411
21.9393
21.938
21.9371
21.9366
21.9364
21.9364
21.9365
21.9368
21.9373
21.9379
21.9387
21.9394
21.9403
21.9412
21.9421
21.9431
21.9442
21.9453
21.9465
21.9477
21.949
21.9504
21.9518
21.9534
21.9551
21.9568
21.9586
21.9606
21.9626
21.9647
21.9669
21.9693
21.9718
21.9744
21.9771
21.98
21.9831
21.9864
21.9898
21.9934
21.9973
22.0014
22.0057
22.0103
22.0152
22.0204
22.0258
22.0316
22.0377
22.0441
22.0508
22.0578
22.0651
22.0727
22.0807
22.089
22.0978
22.1071
22.117
22.1274
22.1384
22.1501
22.1624
22.1754
22.1892
22.2038
22.2194
22.236
22.2536
22.2723
22.292
22.3125
22.3338
22.356
22.3794
22.4037
22.4324
22.4381
165.203
165.042
164.82
164.555
164.301
164.106
163.951
163.784
163.586
163.347
163.073
162.779
162.476
162.198
127.08
126.677
126.29
125.908
125.532
125.179
124.85
124.535
124.226
123.928
123.657
123.408
123.171
122.951
122.749
122.568
122.41
122.272
122.163
122.083
122.026
121.989
121.971
121.967
121.973
121.991
122.021
122.067
122.128
122.207
122.305
122.424
122.562
122.716
122.888
123.081
123.295
123.53
123.783
124.05
124.34
124.647
124.979
125.333
125.699
126.07
126.446
126.835
127.242
127.667
128.107
128.55
128.991
129.451
129.943
130.454
130.983
131.541
132.12
132.696
133.297
133.933
134.574
135.236
135.968
136.749
137.446
137.992
138.429
138.769
139.056
139.295
139.382
139.163
138.473
137.127
134.95
131.873
127.736
122.416
115.834
107.977
98.9583
88.9986
78.4069
67.8749
58.272
49.9374
43.0077
37.5877
33.7233
31.2568
29.5435
28.1387
26.9725
26.0326
25.2857
24.6889
24.2031
23.7945
23.4434
23.1455
22.9013
22.7086
22.5599
22.4442
22.3517
22.2759
22.2141
22.1643
22.1244
22.0922
22.0659
22.0443
22.0267
22.0127
22.0024
21.9952
21.9907
21.988
21.9867
21.9865
21.987
21.988
21.9895
21.9914
21.9936
21.9962
21.9989
22.0019
22.0051
22.0085
22.012
22.0158
22.0199
22.0241
22.0287
22.0335
22.0387
22.0441
22.05
22.0562
22.0628
22.0698
22.0773
22.0852
22.0934
22.102
22.111
22.1204
22.1302
22.1405
22.1513
22.1627
22.1747
22.1873
22.2006
22.2147
22.2296
22.2454
22.2622
22.2799
22.2986
22.3183
22.3391
22.3609
22.3838
22.408
22.4335
22.4603
22.4886
22.5184
22.5499
22.5832
22.6186
22.6563
22.6967
22.7402
22.7871
22.8377
22.8922
22.9504
23.0122
23.0775
23.1462
23.2185
23.2946
23.375
23.4598
23.5502
23.643
23.7526
23.7837
165.482
165.228
164.937
164.619
164.286
163.96
163.678
163.438
163.22
163.005
162.781
162.543
162.289
126.642
126.263
125.896
125.533
125.179
124.845
124.532
124.23
123.939
123.67
123.423
123.195
122.984
122.792
122.612
122.455
122.321
122.206
122.115
122.05
122.007
121.984
121.977
121.982
121.998
122.025
122.065
122.118
122.186
122.271
122.372
122.49
122.625
122.777
122.947
123.137
123.346
123.574
123.818
124.078
124.359
124.663
124.994
125.34
125.699
126.067
126.446
126.838
127.246
127.671
128.107
128.548
129.002
129.483
129.988
130.514
131.065
131.634
132.212
132.817
133.464
134.13
134.82
135.571
136.379
137.186
137.981
138.808
139.682
140.592
141.539
142.474
143.374
144.297
145.199
145.993
146.674
147.219
147.47
147.305
146.598
145.163
142.846
139.61
135.242
129.613
122.716
114.648
105.612
95.8467
85.5898
75.1711
65.3021
56.5146
48.9497
42.6684
37.7239
34.1161
31.7128
30.0717
28.7166
27.559
26.5928
25.7986
25.1452
24.6024
24.1447
23.7487
23.4041
23.1127
22.8778
22.6972
22.5615
22.4584
22.3781
22.315
22.2664
22.2297
22.2025
22.1827
22.1689
22.16
22.1553
22.1541
22.1556
22.1593
22.1651
22.1724
22.1809
22.1903
22.2004
22.2112
22.2225
22.2345
22.2472
22.2605
22.2747
22.2899
22.306
22.3232
22.3415
22.3611
22.3818
22.4037
22.4269
22.4512
22.477
22.5041
22.5326
22.5626
22.5941
22.6271
22.6619
22.6985
22.7372
22.7782
22.8219
22.8684
22.918
22.9711
23.0278
23.0886
23.1536
23.2231
23.2975
23.3766
23.4602
23.5477
23.6386
23.7327
23.8302
23.9317
24.0379
24.1495
24.2673
24.3921
24.5243
24.6645
24.8132
24.971
25.1393
25.3198
25.5145
25.7252
25.9534
26.1987
26.461
26.7375
27.0241
27.3254
27.6233
27.9784
28.1787
164.991
164.737
164.483
164.221
163.946
163.663
163.391
163.143
162.921
162.717
162.52
162.322
162.115
125.474
125.134
124.806
124.494
124.198
123.916
123.651
123.408
123.185
122.976
122.786
122.619
122.466
122.332
122.216
122.12
122.047
121.994
121.962
121.948
121.949
121.961
121.984
122.019
122.065
122.125
122.198
122.286
122.389
122.506
122.639
122.789
122.957
123.143
123.347
123.568
123.806
124.062
124.339
124.639
124.962
125.302
125.661
126.027
126.406
126.799
127.208
127.629
128.061
128.504
128.969
129.458
129.967
130.5
131.055
131.622
132.214
132.842
133.497
134.181
134.914
135.688
136.47
137.266
138.114
139.022
139.965
140.93
141.914
142.932
144.045
145.255
146.466
147.64
148.777
149.878
150.992
152.127
153.215
154.183
154.991
155.633
155.844
155.259
153.918
151.969
149.4
145.966
141.516
136.052
129.659
122.394
114.312
105.526
96.2348
86.6749
77.0911
67.9302
59.6611
52.3807
46.0998
40.8398
36.6344
33.5024
31.3642
29.7997
28.4689
27.3321
26.3915
25.6273
25.0073
24.5006
24.0794
23.722
23.4232
23.1851
23.0072
22.882
22.7972
22.7406
22.7037
22.6826
22.6746
22.6772
22.6868
22.7026
22.7241
22.7499
22.7793
22.8116
22.8466
22.884
22.9239
22.9662
23.0111
23.0589
23.1099
23.1644
23.2229
23.2857
23.3533
23.4263
23.5049
23.5893
23.679
23.7732
23.8712
23.9728
24.0783
24.1881
24.3027
24.4225
24.5477
24.6788
24.8162
24.9608
25.1134
25.2753
25.4477
25.632
25.8293
26.0404
26.266
26.5067
26.7628
27.0348
27.3227
27.626
27.9447
28.2793
28.6308
28.9997
29.3874
29.7959
30.2292
30.6934
31.1968
31.7492
32.3598
33.0366
33.7836
34.6032
35.4914
36.4577
37.4908
38.645
39.8712
41.2837
42.7158
44.2476
46.1388
164.323
164.089
163.862
163.634
163.399
163.163
162.934
162.719
162.519
162.331
162.151
161.971
125.021
124.708
124.408
124.121
123.848
123.591
123.353
123.13
122.929
122.747
122.582
122.435
122.304
122.189
122.091
122.012
121.952
121.91
121.887
121.88
121.886
121.904
121.933
121.973
122.025
122.089
122.166
122.256
122.359
122.476
122.608
122.755
122.92
123.102
123.302
123.518
123.752
124.005
124.28
124.578
124.897
125.234
125.587
125.953
126.337
126.731
127.138
127.557
127.989
128.439
128.91
129.403
129.918
130.454
131.008
131.586
132.194
132.832
133.497
134.195
134.929
135.688
136.467
137.285
138.16
139.074
140.019
140.989
141.978
143.036
144.202
145.41
146.575
147.716
148.906
150.192
151.573
152.999
154.429
155.833
157.144
158.294
159.213
159.876
160.412
160.894
161.212
161.174
160.743
159.898
158.604
156.757
154.246
151.026
147.084
142.423
137.08
131.113
124.556
117.427
109.76
101.609
93.0196
84.0451
74.8623
65.9682
57.8139
50.5694
44.346
39.2421
35.3237
32.5717
30.749
29.3285
28.1387
27.1688
26.4031
25.8085
25.3518
25.007
24.7497
24.5637
24.4416
24.3767
24.3564
24.373
24.4151
24.4805
24.5637
24.6601
24.7663
24.8801
25.0007
25.1281
25.2629
25.4058
25.5577
25.7195
25.8923
26.0773
26.2759
26.489
26.7169
26.9603
27.2203
27.498
27.7932
28.1046
28.4311
28.7721
29.1274
29.498
29.8858
30.2936
30.7247
31.1829
31.6722
32.1967
32.7615
33.3724
34.0369
34.7643
35.5656
36.4525
37.4362
38.5244
39.7171
40.9763
42.2702
43.5917
44.9418
46.3234
47.7412
49.2005
50.7023
52.2391
53.7876
55.3165
56.7878
58.182
59.4901
60.7415
61.9628
63.2064
64.4824
65.7583
67.017
68.0675
69.0644
69.5925
70.026
164.014
163.791
163.58
163.377
163.175
162.972
162.77
162.573
162.384
162.205
124.541
124.258
123.986
123.728
123.481
123.247
123.035
122.84
122.663
122.503
122.36
122.233
122.12
122.023
121.941
121.875
121.826
121.794
121.778
121.776
121.787
121.81
121.844
121.89
121.946
122.014
122.094
122.185
122.288
122.404
122.534
122.679
122.841
123.02
123.215
123.428
123.661
123.913
124.187
124.483
124.8
125.135
125.487
125.854
126.237
126.631
127.043
127.464
127.899
128.354
128.83
129.328
129.848
130.389
130.95
131.537
132.153
132.793
133.463
134.165
134.891
135.638
136.419
137.263
138.166
139.077
139.962
140.88
141.913
143.055
144.199
145.282
146.386
147.581
148.869
150.232
151.635
153.042
154.438
155.763
157.01
158.298
159.603
160.685
161.623
162.492
163.175
163.684
164.033
164.191
164.08
163.77
163.359
162.891
162.304
161.491
160.387
158.966
157.196
155.015
152.359
149.148
145.298
140.756
135.509
129.541
122.818
115.334
107.153
98.3941
89.2054
79.7579
70.3622
61.6618
53.9753
47.407
42.0211
37.8564
34.8963
33.0079
31.7958
30.8844
30.2063
29.7452
29.4778
29.3642
29.3698
29.4669
29.631
29.8597
30.1385
30.4583
30.8116
31.1942
31.604
32.0404
32.5041
32.9976
33.5255
34.0934
34.7098
35.386
36.1355
36.9711
37.9034
38.9392
40.0691
41.2511
42.4718
43.7347
45.0444
46.4006
47.7974
49.2246
50.6701
52.1224
53.5723
55.0144
56.4467
57.8683
59.2768
60.6642
62.0146
63.3053
64.5121
65.6174
66.6202
67.5609
68.4748
69.3757
70.2653
71.1356
71.9671
72.7313
73.3977
73.9473
74.3905
74.7653
75.1283
75.5274
76.0045
76.5627
77.1896
77.7775
78.306
78.5523
78.6963
78.6753
78.6738
78.6429
78.7773
163.564
163.367
163.179
162.996
162.816
162.637
162.46
162.287
162.119
123.79
123.544
123.313
123.096
122.892
122.704
122.534
122.38
122.241
122.118
122.008
121.912
121.829
121.761
121.707
121.668
121.644
121.634
121.638
121.654
121.683
121.722
121.771
121.832
121.903
121.984
122.076
122.179
122.294
122.422
122.565
122.723
122.899
123.092
123.304
123.536
123.789
124.063
124.359
124.675
125.01
125.362
125.731
126.114
126.511
126.923
127.347
127.79
128.252
128.734
129.239
129.763
130.308
130.876
131.468
132.084
132.723
133.393
134.096
134.825
135.59
136.411
137.279
138.15
139.016
139.94
140.945
141.997
143.057
144.116
145.208
146.35
147.555
148.835
150.166
151.508
152.858
154.2
155.451
156.663
158.09
159.609
160.655
161.539
162.437
163.106
163.665
164.198
164.585
164.831
165.053
165.274
165.423
165.473
165.355
164.978
164.395
163.691
162.938
162.149
161.339
160.558
159.827
159.008
157.962
156.559
154.652
152.087
148.721
144.448
139.233
133.159
126.347
118.864
110.788
102.257
93.451
84.5564
75.8615
67.8914
61.123
55.6915
51.5966
48.7493
46.9792
46.0655
45.7326
45.8292
46.3207
47.0673
48.0129
49.0802
50.2178
51.4079
52.6437
53.9207
55.23
56.5622
57.9111
59.2677
60.611
61.9128
63.1518
64.3236
65.4381
66.5184
67.5995
68.6735
69.711
70.6824
71.5688
72.3698
73.1016
73.7882
74.4508
75.1027
75.7473
76.378
76.9809
77.5376
78.0321
78.4585
78.8266
79.158
79.4753
79.7939
80.1166
80.4319
80.7193
80.9624
81.1497
81.2812
81.3678
81.4273
81.4877
81.5804
81.7356
81.9641
82.2472
82.5377
82.7644
82.8684
82.8538
82.7278
82.5101
82.3267
82.2108
82.1827
82.2119
82.4204
163.385
163.203
123.307
123.091
122.887
122.697
122.52
122.358
122.21
122.077
121.957
121.851
121.757
121.675
121.606
121.549
121.505
121.475
121.459
121.457
121.467
121.489
121.523
121.567
121.621
121.685
121.758
121.841
121.933
122.035
122.148
122.274
122.415
122.572
122.746
122.938
123.15
123.383
123.637
123.913
124.209
124.526
124.861
125.215
125.585
125.971
126.37
126.783
127.214
127.665
128.134
128.62
129.132
129.659
130.207
130.776
131.366
131.982
132.634
133.319
134.03
134.773
135.558
136.386
137.229
138.083
138.987
139.948
140.936
141.94
142.968
144.036
145.145
146.298
147.508
148.777
150.068
151.359
152.674
153.996
155.224
156.447
158.01
159.587
160.464
161.264
162.184
162.791
163.263
163.864
164.442
164.819
165.163
165.459
165.646
165.695
165.597
165.346
164.979
164.616
164.422
164.333
164.301
164.367
164.462
164.499
164.423
164.192
163.812
163.235
162.45
161.489
160.405
159.231
157.775
155.844
153.277
149.932
145.713
140.598
134.695
128.124
120.982
113.475
105.926
98.7057
92.1752
86.6351
82.2661
79.0509
76.8192
75.3913
74.6064
74.2767
74.253
74.5221
74.9968
75.5554
76.149
76.7415
77.3079
77.8298
78.3068
78.7668
79.2328
79.7026
80.1515
80.5455
80.8593
81.1002
81.3033
81.5047
81.7277
81.9812
82.2602
82.5496
82.8315
83.0896
83.313
83.4965
83.6413
83.7557
83.8551
83.9543
84.0632
84.1827
84.3042
84.4133
84.4967
84.5434
84.5503
84.5341
84.5055
84.4765
84.4582
84.4592
84.5038
84.5955
84.7077
84.8066
84.8512
84.8394
84.7676
84.621
84.434
84.2517
84.1007
84.0104
83.975
83.9968
84.0858
84.2408
122.816
122.627
122.45
122.285
122.132
121.993
121.865
121.751
121.648
121.556
121.476
121.408
121.35
121.304
121.271
121.251
121.243
121.248
121.266
121.295
121.334
121.383
121.442
121.508
121.583
121.666
121.758
121.859
121.971
122.096
122.235
122.391
122.565
122.759
122.972
123.206
123.462
123.74
124.039
124.358
124.694
125.048
125.42
125.809
126.214
126.635
127.071
127.523
127.994
128.485
128.997
129.526
130.077
130.647
131.248
131.884
132.549
133.24
133.958
134.711
135.501
136.317
137.153
138.027
138.944
139.89
140.861
141.86
142.893
143.966
145.077
146.23
147.437
148.684
149.938
151.193
152.492
153.809
155.032
156.281
157.916
159.412
160.206
161.016
161.983
162.57
163.035
163.679
164.402
164.784
165.077
165.364
165.531
165.549
165.441
165.233
165.054
164.98
164.937
164.944
165
165.073
165.135
165.186
165.241
165.316
165.425
165.579
165.787
166.052
166.331
166.473
166.377
166.054
165.521
164.761
163.785
162.601
161.069
158.945
156.085
152.397
147.762
142.141
135.624
128.442
120.937
113.55
106.76
100.935
96.2366
92.6535
90.0419
88.1685
86.8285
85.888
85.2465
84.8289
84.5942
84.4977
84.4975
84.5687
84.6601
84.7322
84.7854
84.8364
84.8987
84.9823
85.0925
85.2245
85.3575
85.4673
85.5447
85.5992
85.6455
85.6918
85.7398
85.7882
85.8356
85.8837
85.9354
85.9907
86.0409
86.0745
86.0875
86.0846
86.0698
86.0412
86.0075
85.9794
85.9619
85.9551
85.9724
86.0201
86.0865
86.1544
86.1982
86.2032
86.1756
86.0995
85.9726
85.8182
85.666
85.5457
85.476
85.4547
85.4862
85.5719
85.7017
85.7685
122.319
122.154
122.001
121.858
121.727
121.607
121.498
121.399
121.311
121.234
121.167
121.11
121.064