/*--------------------------------*- C++ -*----------------------------------*\
| =========                 |                                                 |
| \\      /  F ield         | OpenFOAM: The Open Source CFD Toolbox           |
|  \\    /   O peration     | Version:  v1706                                 |
|   \\  /    A nd           | Web:      www.OpenFOAM.com                      |
|    \\/     M anipulation  |                                                 |
\*---------------------------------------------------------------------------*/
FoamFile
{
    version     2.0;
    format      ascii;
    class       volScalarField;
    location    "3.6e-05";
    object      rho;
}
// * * * * * * * * * * * * * * * * * * * * * * * * * * * * * * * * * * * * * //

dimensions      [1 -3 0 0 0 0 0];


internalField   nonuniform List<scalar> 
30104
(
0.000511632
0.000511683
0.000511743
0.000511812
0.00051189
0.000511978
0.000512074
0.000512181
0.0005123
0.000512436
0.000512594
0.000512779
0.000512999
0.000513261
0.000513571
0.000513932
0.000514343
0.000646774
0.000640526
0.000634068
0.000627342
0.000620283
0.000612846
0.000605024
0.000596869
0.000588469
0.000579807
0.000570945
0.000563641
0.000558801
0.000555324
0.000552393
0.000549643
0.000546952
0.000544305
0.000541727
0.000539253
0.000536892
0.000534632
0.00053252
0.000530563
0.00052863
0.000526905
0.000525776
0.000524914
0.00052395
0.000522851
0.000521665
0.000520431
0.000519192
0.000517966
0.000516741
0.000515566
0.000514588
0.000513881
0.000513395
0.000513034
0.000512739
0.000512496
0.00051231
0.000512175
0.000512063
0.000511958
0.00051186
0.000511768
0.000511681
0.000511598
0.000511524
0.000511466
0.000511426
0.000511399
0.00051138
0.000511366
0.000511356
0.000511349
0.000511343
0.000511337
0.000511332
0.000511327
0.000511322
0.000511318
0.000511315
0.000511314
0.000511312
0.000511312
0.000511311
0.000511311
0.000511311
0.00051131
0.00051131
0.00051131
0.00051131
0.00051131
0.000511309
0.000511309
0.000511309
0.000511309
0.000511309
0.000511309
0.000511309
0.000511309
0.000511309
0.000511309
0.000511309
0.000511309
0.000511309
0.000511309
0.000511309
0.000511309
0.000511309
0.000511309
0.000511309
0.000511309
0.000511309
0.000511309
0.000511309
0.000511309
0.000511309
0.000511309
0.000511309
0.000511309
0.000511309
0.000511309
0.000511309
0.000511309
0.000511309
0.000511309
0.000511309
0.000511309
0.000511309
0.000511309
0.000511309
0.000511309
0.000511309
0.000511309
0.000511309
0.000511309
0.000511309
0.000511309
0.000511309
0.000511309
0.000511309
0.000511309
0.000511309
0.000511309
0.000511309
0.000511309
0.000511309
0.000511309
0.000511309
0.000511309
0.000511309
0.000511309
0.000511309
0.000511309
0.000511309
0.000511309
0.000511309
0.000511309
0.000511309
0.000511309
0.000511309
0.000511309
0.000511309
0.000511309
0.000511309
0.000511309
0.000511309
0.000511309
0.000511309
0.000511309
0.000511309
0.000511309
0.000511309
0.000511309
0.000511309
0.000511309
0.000511309
0.000511309
0.000511309
0.000511309
0.000511309
0.000511309
0.000511309
0.000511309
0.000511309
0.000511309
0.000511309
0.000511309
0.000511309
0.000511309
0.000511309
0.000511309
0.000511309
0.000511309
0.000511309
0.000511309
0.000511309
0.000511309
0.000511309
0.000511309
0.000511309
0.000511309
0.000511309
0.000511309
0.000511309
0.000511309
0.000511309
0.000511309
0.000511309
0.000513011
0.000513269
0.000513568
0.000513916
0.000514322
0.000514796
0.000515349
0.000515989
0.000516719
0.000517542
0.000518455
0.000519466
0.000520584
0.00052183
0.00052325
0.000524911
0.000526882
0.00131568
0.00130301
0.00128974
0.00127583
0.00126123
0.00124588
0.00122969
0.00121257
0.00119428
0.00117459
0.00115336
0.00112953
0.00110272
0.0010739
0.00104371
0.00101243
0.000980163
0.000946864
0.000912417
0.000876832
0.000840432
0.000803827
0.000767684
0.000732416
0.000698315
0.000665943
0.000636369
0.000612609
0.000596678
0.000585276
0.000575949
0.000567605
0.000559844
0.000552608
0.000546226
0.000541063
0.00053688
0.000533234
0.00052995
0.000527013
0.000524417
0.000522107
0.000520032
0.000518235
0.000516798
0.000515711
0.000514879
0.000514212
0.000513664
0.000513224
0.000512875
0.000512591
0.000512356
0.000512159
0.000511994
0.000511851
0.000511728
0.000511626
0.000511549
0.000511493
0.000511452
0.00051142
0.000511396
0.000511378
0.000511363
0.000511352
0.000511343
0.000511335
0.000511328
0.000511323
0.000511319
0.000511316
0.000511314
0.000511313
0.000511312
0.000511312
0.000511311
0.000511311
0.00051131
0.00051131
0.00051131
0.00051131
0.00051131
0.00051131
0.000511309
0.000511309
0.000511309
0.000511309
0.000511309
0.000511309
0.000511309
0.000511309
0.000511309
0.000511309
0.000511309
0.000511309
0.000511309
0.000511309
0.000511309
0.000511309
0.000511309
0.000511309
0.000511309
0.000511309
0.000511309
0.000511309
0.000511309
0.000511309
0.000511309
0.000511309
0.000511309
0.000511309
0.000511309
0.000511309
0.000511309
0.000511309
0.000511309
0.000511309
0.000511309
0.000511309
0.000511309
0.000511309
0.000511309
0.000511309
0.000511309
0.000511309
0.000511309
0.000511309
0.000511309
0.000511309
0.000511309
0.000511309
0.000511309
0.000511309
0.000511309
0.000511309
0.000511309
0.000511309
0.000511309
0.000511309
0.000511309
0.000511309
0.000511309
0.000511309
0.000511309
0.000511309
0.000511309
0.000511309
0.000511309
0.000511309
0.000511309
0.000511309
0.000511309
0.000511309
0.000511309
0.000511309
0.000511309
0.000511309
0.000511309
0.000511309
0.000511309
0.000511309
0.000511309
0.000511309
0.000511309
0.000511309
0.000511309
0.000511309
0.000511309
0.000511309
0.000511309
0.000511309
0.000511309
0.000511309
0.000511309
0.000511309
0.000511309
0.000511309
0.000511309
0.000511309
0.000511309
0.000511309
0.000511309
0.000511309
0.000511309
0.000511309
0.000511309
0.000511309
0.000511309
0.000511309
0.000511309
0.000511309
0.000511309
0.000517299
0.000518252
0.000519327
0.000520535
0.000521889
0.000523417
0.000525173
0.000527228
0.000529656
0.000532521
0.000535879
0.000539748
0.000544187
0.000549252
0.000554926
0.000561161
0.00164347
0.00163534
0.00162631
0.00161616
0.00160475
0.00159203
0.00157813
0.00156326
0.00154759
0.00153125
0.00151431
0.00149681
0.00147899
0.00146104
0.0014429
0.00142441
0.00140529
0.00138547
0.00136473
0.00134277
0.0013197
0.00129541
0.00126933
0.00124071
0.00120894
0.00117359
0.00113405
0.00108825
0.00103452
0.000976148
0.000916579
0.000858035
0.000801801
0.000748878
0.000700245
0.000657231
0.000623335
0.000601076
0.000585795
0.000573851
0.000563658
0.000554803
0.000547491
0.000541744
0.000537033
0.000532903
0.000529246
0.000526063
0.000523286
0.000520829
0.00051872
0.000517059
0.00051583
0.000514912
0.000514194
0.000513622
0.000513173
0.000512821
0.000512535
0.000512297
0.000512097
0.000511926
0.000511778
0.000511657
0.000511566
0.000511502
0.000511456
0.000511422
0.000511397
0.000511378
0.000511363
0.000511351
0.000511341
0.000511333
0.000511326
0.000511321
0.000511317
0.000511315
0.000511314
0.000511313
0.000511312
0.000511311
0.000511311
0.00051131
0.00051131
0.00051131
0.00051131
0.00051131
0.00051131
0.00051131
0.00051131
0.000511309
0.000511309
0.000511309
0.000511309
0.000511309
0.000511309
0.000511309
0.000511309
0.000511309
0.000511309
0.000511309
0.000511309
0.000511309
0.000511309
0.000511309
0.000511309
0.000511309
0.000511309
0.000511309
0.000511309
0.000511309
0.000511309
0.000511309
0.000511309
0.000511309
0.000511309
0.000511309
0.000511309
0.000511309
0.000511309
0.000511309
0.000511309
0.000511309
0.000511309
0.000511309
0.000511309
0.000511309
0.000511309
0.000511309
0.000511309
0.000511309
0.000511309
0.000511309
0.000511309
0.000511309
0.000511309
0.000511309
0.000511309
0.000511309
0.000511309
0.000511309
0.000511309
0.000511309
0.000511309
0.000511309
0.000511309
0.000511309
0.000511309
0.000511309
0.000511309
0.000511309
0.000511309
0.000511309
0.000511309
0.000511309
0.000511309
0.000511309
0.000511309
0.00051131
0.00051131
0.00051131
0.00051131
0.00051131
0.00051131
0.00051131
0.00051131
0.00051131
0.00051131
0.00051131
0.00051131
0.00051131
0.00051131
0.00051131
0.00051131
0.00051131
0.00051131
0.00051131
0.00051131
0.00051131
0.00051131
0.00051131
0.00051131
0.00051131
0.00051131
0.00051131
0.00051131
0.00051131
0.00051131
0.00051131
0.00051131
0.00051131
0.00051131
0.000530637
0.000533724
0.000537357
0.000541573
0.000546471
0.000552102
0.000558451
0.000565484
0.000573201
0.000581689
0.000591084
0.000601669
0.000613566
0.000627652
0.000646099
0.000670044
0.00164696
0.00164105
0.00163511
0.00162906
0.0016228
0.00161631
0.00160952
0.00160237
0.00159485
0.00158703
0.00157905
0.00157111
0.00156347
0.00155629
0.00154957
0.00154327
0.00153741
0.0015317
0.00152509
0.00151666
0.00150632
0.00149447
0.00148152
0.00146766
0.00145295
0.00143743
0.00142087
0.00140253
0.00138207
0.00135931
0.00133378
0.00130474
0.00127129
0.00123237
0.0011873
0.00113576
0.00107653
0.00100884
0.000938072
0.000869163
0.000804577
0.000745349
0.000692216
0.000647006
0.000614067
0.000593142
0.000578382
0.000566532
0.000556522
0.000548363
0.000542055
0.000537009
0.000532659
0.000528851
0.000525559
0.000522682
0.000520149
0.000518043
0.000516458
0.000515318
0.000514467
0.000513803
0.000513288
0.000512893
0.000512582
0.000512328
0.000512115
0.000511933
0.000511776
0.000511648
0.000511555
0.000511491
0.000511446
0.000511413
0.000511389
0.000511372
0.000511358
0.000511347
0.000511338
0.000511329
0.000511323
0.000511319
0.000511316
0.000511315
0.000511313
0.000511313
0.000511312
0.000511311
0.000511311
0.000511311
0.00051131
0.00051131
0.00051131
0.00051131
0.00051131
0.00051131
0.00051131
0.00051131
0.00051131
0.00051131
0.00051131
0.00051131
0.000511309
0.000511309
0.000511309
0.000511309
0.000511309
0.000511309
0.000511309
0.000511309
0.000511309
0.000511309
0.000511309
0.000511309
0.000511309
0.000511309
0.000511309
0.000511309
0.00051131
0.00051131
0.00051131
0.00051131
0.00051131
0.00051131
0.00051131
0.00051131
0.00051131
0.00051131
0.00051131
0.00051131
0.00051131
0.00051131
0.00051131
0.00051131
0.00051131
0.00051131
0.00051131
0.00051131
0.00051131
0.00051131
0.00051131
0.00051131
0.00051131
0.00051131
0.00051131
0.00051131
0.00051131
0.00051131
0.00051131
0.00051131
0.00051131
0.00051131
0.00051131
0.00051131
0.00051131
0.00051131
0.00051131
0.00051131
0.00051131
0.00051131
0.00051131
0.00051131
0.00051131
0.00051131
0.00051131
0.00051131
0.00051131
0.00051131
0.00051131
0.00051131
0.00051131
0.00051131
0.00051131
0.00051131
0.00051131
0.00051131
0.000511311
0.000511311
0.000511311
0.000511311
0.000511311
0.000511311
0.000511311
0.000511311
0.000511311
0.000511311
0.000511311
0.000511311
0.000511311
0.000511311
0.000511311
0.000511312
0.000511312
0.000574664
0.000583787
0.000593898
0.000605311
0.000618076
0.000633625
0.000653934
0.000680097
0.000712609
0.000751519
0.000796554
0.000847241
0.000903029
0.000962543
0.00102314
0.00163827
0.00163258
0.00162688
0.00162107
0.00161505
0.00160879
0.00160222
0.00159529
0.00158801
0.00158049
0.00157287
0.00156538
0.00155822
0.00155153
0.00154529
0.00153957
0.00153447
0.00152936
0.00152457
0.00152114
0.00151853
0.00151617
0.00151367
0.001511
0.00150834
0.00150573
0.0015028
0.00149889
0.0014936
0.0014868
0.0014784
0.00146842
0.00145686
0.00144379
0.00142993
0.00141489
0.00139711
0.00137532
0.0013486
0.00131608
0.00127684
0.00123035
0.00117665
0.00111584
0.00104687
0.000971593
0.000896444
0.000825407
0.000760143
0.000701678
0.00065186
0.000614894
0.000591992
0.000576485
0.000564295
0.000554184
0.000546164
0.000540062
0.000535134
0.000530857
0.000527129
0.000523889
0.000521044
0.000518627
0.000516778
0.000515476
0.00051454
0.000513829
0.000513285
0.000512877
0.000512561
0.000512305
0.000512089
0.000511903
0.000511744
0.000511619
0.000511531
0.000511472
0.000511432
0.000511403
0.000511383
0.000511367
0.000511355
0.000511344
0.000511335
0.000511328
0.000511322
0.000511319
0.000511317
0.000511315
0.000511314
0.000511313
0.000511313
0.000511312
0.000511312
0.000511311
0.000511311
0.00051131
0.00051131
0.00051131
0.00051131
0.00051131
0.00051131
0.00051131
0.00051131
0.00051131
0.00051131
0.00051131
0.00051131
0.00051131
0.00051131
0.00051131
0.00051131
0.00051131
0.00051131
0.00051131
0.00051131
0.00051131
0.00051131
0.00051131
0.00051131
0.00051131
0.00051131
0.00051131
0.00051131
0.00051131
0.00051131
0.00051131
0.00051131
0.00051131
0.00051131
0.00051131
0.00051131
0.00051131
0.00051131
0.00051131
0.00051131
0.00051131
0.00051131
0.00051131
0.00051131
0.00051131
0.000511311
0.000511311
0.000511311
0.000511311
0.000511311
0.000511311
0.000511311
0.000511311
0.000511311
0.000511311
0.000511311
0.000511311
0.000511311
0.000511311
0.000511311
0.000511311
0.000511312
0.000511312
0.000511312
0.000511312
0.000511312
0.000511312
0.000511312
0.000511312
0.000511312
0.000511312
0.000511313
0.000511313
0.000511313
0.000511313
0.000511313
0.000511313
0.000511314
0.000511314
0.000511314
0.000511314
0.000511314
0.000511315
0.000511315
0.000511315
0.000511315
0.000511316
0.000511316
0.000511316
0.000511316
0.000511317
0.000511317
0.000511317
0.000511318
0.000511318
0.000511318
0.000677471
0.00070951
0.000748315
0.000793736
0.000845352
0.000902641
0.000963721
0.00102616
0.00108839
0.00114927
0.00120794
0.00126373
0.00131609
0.00136475
0.00140944
0.00144974
0.00161365
0.00160845
0.00160325
0.00159799
0.00159263
0.00158714
0.00158152
0.00157576
0.00156984
0.00156379
0.00155769
0.0015516
0.00154567
0.00154002
0.00153477
0.00153015
0.00152599
0.0015218
0.00151826
0.00151572
0.00151366
0.00151186
0.00150991
0.00150765
0.00150553
0.0015035
0.00150149
0.0015001
0.0014993
0.0014988
0.00149854
0.00149832
0.00149827
0.00149904
0.00149924
0.00149772
0.00149441
0.00148945
0.00148258
0.00147356
0.0014628
0.00145112
0.0014383
0.00142279
0.0014025
0.00137566
0.00134112
0.00129849
0.00124795
0.00119012
0.00112563
0.00105388
0.000975256
0.000896083
0.000820965
0.000752211
0.000691437
0.000641145
0.000605797
0.000584618
0.000570024
0.000558408
0.000549054
0.000541967
0.000536538
0.000531967
0.000527962
0.000524468
0.000521411
0.000518811
0.000516818
0.000515434
0.000514466
0.000513747
0.00051321
0.000512814
0.00051251
0.000512261
0.000512047
0.000511862
0.000511706
0.00051159
0.000511512
0.000511461
0.000511426
0.000511401
0.000511383
0.000511369
0.000511357
0.000511347
0.000511337
0.00051133
0.000511325
0.000511321
0.000511319
0.000511317
0.000511316
0.000511315
0.000511314
0.000511314
0.000511313
0.000511313
0.000511312
0.000511312
0.000511311
0.000511311
0.000511311
0.000511311
0.000511311
0.000511311
0.000511311
0.000511311
0.000511311
0.000511311
0.000511311
0.000511311
0.000511311
0.000511311
0.000511311
0.000511311
0.000511311
0.000511311
0.000511311
0.000511311
0.000511312
0.000511312
0.000511312
0.000511312
0.000511312
0.000511312
0.000511312
0.000511312
0.000511312
0.000511312
0.000511312
0.000511312
0.000511313
0.000511313
0.000511313
0.000511313
0.000511313
0.000511313
0.000511313
0.000511313
0.000511314
0.000511314
0.000511314
0.000511314
0.000511314
0.000511315
0.000511315
0.000511315
0.000511315
0.000511316
0.000511316
0.000511316
0.000511316
0.000511317
0.000511317
0.000511317
0.000511318
0.000511318
0.000511319
0.000511319
0.000511319
0.00051132
0.00051132
0.000511321
0.000511321
0.000511322
0.000511322
0.000511323
0.000511324
0.000511324
0.000511325
0.000511325
0.000511326
0.000511327
0.000511328
0.000511329
0.000511329
0.00051133
0.000511331
0.000511332
0.000511333
0.000511334
0.000511335
0.000511337
0.000511338
0.000511339
0.000511341
0.000511342
0.000511344
0.00106729
0.00113086
0.00119257
0.00125155
0.00130708
0.00135878
0.00140618
0.00144883
0.00148649
0.00151914
0.00154699
0.00157024
0.00158949
0.00158504
0.0015804
0.00157572
0.00157101
0.00156629
0.00156154
0.00155677
0.00155198
0.00154715
0.0015423
0.00153748
0.00153272
0.00152803
0.00152353
0.00151946
0.00151597
0.00151263
0.0015092
0.00150677
0.00150507
0.00150372
0.00150262
0.00150134
0.00150001
0.00149886
0.00149779
0.001497
0.0014966
0.00149648
0.00149655
0.00149685
0.00149722
0.00149779
0.00149911
0.00150062
0.0015019
0.0015032
0.00150473
0.00150659
0.00150865
0.00151081
0.00151216
0.00151165
0.0015095
0.00150518
0.00149861
0.00149025
0.00148079
0.00147029
0.00145799
0.00144201
0.00141973
0.00138913
0.00134965
0.00130168
0.00124596
0.00118328
0.00111403
0.00103697
0.00095318
0.000869885
0.000792146
0.000722714
0.000663683
0.00061851
0.00059045
0.000573327
0.000560622
0.000550477
0.000542775
0.000537038
0.000532348
0.000528222
0.000524586
0.000521404
0.000518717
0.000516675
0.000515282
0.000514327
0.000513636
0.000513131
0.000512763
0.000512476
0.000512236
0.000512027
0.000511846
0.000511699
0.000511593
0.000511521
0.000511473
0.000511439
0.000511414
0.000511396
0.000511381
0.000511369
0.000511358
0.000511348
0.00051134
0.000511334
0.000511329
0.000511325
0.000511322
0.000511321
0.000511319
0.000511318
0.000511318
0.000511317
0.000511317
0.000511316
0.000511316
0.000511315
0.000511315
0.000511315
0.000511315
0.000511315
0.000511315
0.000511315
0.000511315
0.000511315
0.000511316
0.000511316
0.000511316
0.000511316
0.000511316
0.000511317
0.000511317
0.000511317
0.000511317
0.000511317
0.000511318
0.000511318
0.000511318
0.000511319
0.000511319
0.000511319
0.00051132
0.00051132
0.000511321
0.000511321
0.000511321
0.000511322
0.000511322
0.000511323
0.000511324
0.000511324
0.000511325
0.000511325
0.000511326
0.000511327
0.000511328
0.000511328
0.000511329
0.00051133
0.000511331
0.000511332
0.000511333
0.000511334
0.000511335
0.000511336
0.000511337
0.000511339
0.00051134
0.000511341
0.000511343
0.000511344
0.000511346
0.000511347
0.000511349
0.000511351
0.000511353
0.000511355
0.000511357
0.000511359
0.000511362
0.000511364
0.000511367
0.00051137
0.000511373
0.000511376
0.000511379
0.000511383
0.000511386
0.00051139
0.000511394
0.000511398
0.000511402
0.000511407
0.000511412
0.000511417
0.000511423
0.000511428
0.000511434
0.000511438
0.00147243
0.00150883
0.00154004
0.00156625
0.00158793
0.00160588
0.00162101
0.0016338
0.00164464
0.00165382
0.00166139
0.00166706
0.0016708
0.00155502
0.001551
0.00154693
0.00154285
0.0015388
0.00153479
0.00153084
0.00152695
0.00152312
0.00151932
0.00151565
0.00151215
0.00150873
0.00150533
0.00150228
0.00149967
0.00149697
0.00149461
0.0014931
0.00149206
0.0014913
0.00149067
0.00149009
0.0014897
0.00148946
0.00148935
0.00148941
0.00148971
0.00149026
0.00149103
0.00149201
0.00149314
0.00149454
0.00149625
0.00149804
0.00149983
0.00150173
0.00150383
0.00150614
0.00150868
0.00151142
0.00151398
0.00151636
0.00151876
0.00152128
0.00152387
0.00152631
0.00152801
0.00152827
0.00152748
0.00152482
0.00151991
0.00151334
0.00150591
0.00149745
0.00148707
0.00147331
0.00145383
0.00142603
0.00138871
0.00134229
0.00128768
0.00122561
0.00115652
0.00107984
0.000994238
0.000905209
0.000820617
0.000744814
0.000680046
0.000628826
0.000594641
0.00057508
0.00056157
0.000550992
0.000542979
0.00053711
0.000532427
0.000528283
0.000524567
0.000521309
0.000518593
0.000516566
0.000515204
0.00051429
0.000513639
0.000513167
0.000512818
0.000512542
0.000512308
0.000512102
0.000511923
0.000511773
0.000511659
0.000511578
0.000511521
0.00051148
0.00051145
0.000511427
0.00051141
0.000511396
0.000511384
0.000511373
0.000511363
0.000511354
0.000511347
0.000511341
0.000511336
0.000511333
0.000511331
0.00051133
0.000511329
0.000511329
0.000511329
0.000511329
0.000511329
0.000511329
0.00051133
0.00051133
0.00051133
0.000511331
0.000511331
0.000511332
0.000511333
0.000511333
0.000511334
0.000511335
0.000511336
0.000511337
0.000511337
0.000511338
0.000511339
0.00051134
0.000511342
0.000511343
0.000511344
0.000511345
0.000511347
0.000511348
0.00051135
0.000511351
0.000511353
0.000511355
0.000511357
0.000511358
0.00051136
0.000511363
0.000511365
0.000511367
0.00051137
0.000511373
0.000511376
0.000511379
0.000511382
0.000511385
0.000511389
0.000511393
0.000511397
0.000511401
0.000511405
0.00051141
0.000511415
0.00051142
0.000511425
0.000511431
0.000511437
0.000511443
0.000511449
0.000511456
0.000511463
0.00051147
0.000511478
0.000511486
0.000511495
0.000511504
0.000511513
0.000511523
0.000511533
0.000511544
0.000511555
0.000511567
0.00051158
0.000511593
0.000511608
0.000511622
0.000511638
0.000511654
0.000511671
0.000511688
0.000511707
0.000511727
0.000511751
0.000511773
0.00163134
0.00164377
0.00165418
0.00166279
0.00166946
0.00167401
0.00167657
0.00167818
0.00167861
0.00167859
0.00167843
0.00167839
0.00167881
0.00167963
0.00152537
0.00152198
0.00151856
0.00151514
0.00151176
0.00150848
0.0015053
0.00150224
0.00149929
0.00149639
0.0014936
0.00149113
0.00148877
0.0014863
0.00148419
0.00148233
0.00148053
0.00147921
0.0014784
0.00147794
0.00147773
0.00147763
0.0014777
0.00147806
0.00147858
0.00147918
0.0014799
0.0014808
0.0014819
0.00148321
0.00148472
0.00148647
0.00148846
0.00149058
0.00149278
0.00149512
0.00149763
0.00150031
0.00150316
0.00150611
0.00150904
0.00151189
0.00151473
0.0015176
0.00152052
0.00152337
0.00152605
0.00152861
0.00153123
0.00153392
0.00153658
0.00153922
0.0015418
0.00154392
0.00154488
0.00154468
0.00154296
0.00153927
0.00153439
0.00152911
0.00152288
0.00151426
0.00150174
0.00148337
0.00145682
0.00142055
0.00137479
0.00132055
0.00125851
0.00118884
0.0011113
0.00102499
0.000932478
0.000843122
0.00076271
0.000693723
0.000638138
0.000598889
0.000576242
0.000562054
0.000551321
0.000543211
0.000537308
0.00053269
0.000528615
0.000524919
0.000521683
0.000519002
0.000516974
0.000515575
0.000514627
0.000513952
0.000513452
0.000513078
0.000512787
0.000512545
0.000512333
0.000512144
0.000511979
0.000511839
0.000511726
0.00051164
0.000511577
0.000511529
0.000511494
0.000511467
0.000511447
0.000511432
0.00051142
0.00051141
0.000511401
0.000511393
0.000511385
0.00051138
0.000511376
0.000511374
0.000511373
0.000511373
0.000511374
0.000511375
0.000511377
0.000511379
0.000511381
0.000511383
0.000511385
0.000511388
0.00051139
0.000511393
0.000511396
0.000511399
0.000511402
0.000511405
0.000511409
0.000511413
0.000511417
0.000511421
0.000511425
0.00051143
0.000511435
0.00051144
0.000511446
0.000511452
0.000511459
0.000511465
0.000511472
0.00051148
0.000511488
0.000511496
0.000511505
0.000511514
0.000511523
0.000511533
0.000511544
0.000511555
0.000511566
0.000511578
0.000511591
0.000511604
0.000511618
0.000511632
0.000511647
0.000511663
0.000511679
0.000511697
0.000511715
0.000511734
0.000511754
0.000511776
0.000511799
0.000511823
0.000511849
0.000511876
0.000511905
0.000511936
0.000511969
0.000512004
0.000512041
0.000512081
0.000512124
0.000512169
0.000512217
0.000512266
0.000512318
0.000512371
0.000512427
0.000512486
0.00051255
0.000512618
0.00051269
0.000512767
0.000512844
0.00051293
0.000512998
0.00168274
0.00168286
0.00168279
0.00168257
0.00168278
0.00168345
0.0016841
0.00168426
0.00168378
0.00168273
0.0016812
0.00167936
0.00167783
0.00167685
0.00149692
0.0014941
0.00149132
0.00148854
0.00148578
0.00148316
0.0014807
0.00147839
0.00147618
0.00147395
0.00147194
0.0014703
0.00146871
0.00146717
0.00146589
0.00146477
0.00146388
0.00146336
0.00146314
0.00146314
0.0014634
0.00146392
0.00146467
0.0014656
0.00146667
0.00146783
0.00146911
0.00147054
0.00147215
0.00147394
0.00147594
0.00147816
0.00148057
0.00148309
0.0014857
0.00148846
0.00149139
0.00149446
0.00149765
0.00150089
0.00150411
0.00150737
0.0015107
0.00151408
0.00151743
0.00152063
0.00152365
0.00152659
0.00152956
0.00153255
0.00153553
0.00153844
0.00154112
0.00154358
0.00154632
0.0015493
0.00155224
0.00155522
0.00155843
0.00156158
0.00156367
0.00156419
0.00156332
0.00156069
0.00155722
0.00155366
0.00154924
0.00154228
0.00153101
0.00151358
0.00148802
0.00145305
0.00140869
0.00135545
0.00129347
0.00122258
0.00114288
0.00105472
0.00095962
0.000866044
0.000781344
0.000708391
0.000648945
0.000605395
0.000578928
0.000563967
0.000553198
0.000544983
0.000538952
0.000534369
0.000530447
0.000526839
0.000523592
0.000520803
0.000518538
0.000516836
0.000515636
0.000514789
0.000514162
0.000513679
0.000513305
0.00051301
0.000512765
0.000512549
0.000512354
0.000512177
0.00051202
0.000511886
0.000511778
0.000511698
0.000511641
0.000511602
0.000511575
0.000511557
0.000511547
0.000511541
0.000511536
0.000511534
0.000511532
0.000511532
0.000511534
0.000511537
0.000511541
0.000511547
0.000511554
0.000511562
0.000511571
0.00051158
0.000511589
0.000511599
0.00051161
0.000511621
0.000511632
0.000511645
0.000511658
0.000511671
0.000511686
0.000511701
0.000511717
0.000511735
0.000511753
0.000511772
0.000511791
0.000511812
0.000511834
0.000511856
0.000511881
0.000511906
0.000511934
0.000511963
0.000511993
0.000512026
0.00051206
0.000512097
0.000512136
0.000512177
0.000512221
0.000512268
0.000512317
0.00051237
0.000512425
0.000512484
0.000512546
0.000512612
0.000512681
0.000512754
0.00051283
0.000512909
0.000512991
0.000513076
0.000513166
0.000513261
0.000513362
0.000513468
0.000513581
0.000513699
0.000513824
0.000513954
0.00051409
0.000514234
0.000514386
0.000514549
0.000514722
0.000514908
0.000515105
0.000515312
0.000515528
0.000515753
0.000515986
0.000516233
0.000516486
0.00051678
0.00051709
0.00168826
0.00168745
0.00168608
0.00168424
0.00168236
0.00168097
0.00167995
0.00167889
0.00167761
0.00167603
0.00167414
0.00167203
0.00166975
0.00166758
0.00146999
0.00146769
0.00146549
0.00146328
0.00146107
0.00145905
0.00145723
0.00145552
0.00145386
0.00145231
0.00145103
0.00144999
0.00144907
0.0014483
0.00144772
0.00144732
0.00144713
0.00144713
0.0014474
0.00144796
0.00144877
0.00144981
0.00145106
0.00145247
0.00145398
0.00145561
0.00145737
0.00145927
0.00146132
0.00146355
0.00146597
0.00146858
0.00147134
0.00147421
0.00147721
0.00148034
0.00148362
0.00148702
0.0014905
0.001494
0.00149751
0.00150111
0.00150481
0.00150854
0.00151222
0.00151576
0.00151916
0.00152251
0.00152585
0.00152919
0.0015325
0.00153562
0.00153853
0.0015415
0.00154465
0.00154785
0.00155108
0.00155441
0.00155776
0.00156096
0.00156432
0.001568
0.00157167
0.00157541
0.00157962
0.00158401
0.00158726
0.0015888
0.00158916
0.00158856
0.00158713
0.00158494
0.00158116
0.00157439
0.00156311
0.00154571
0.00152068
0.00148695
0.00144403
0.0013917
0.00132959
0.00125744
0.00117585
0.00108622
0.000990554
0.00089489
0.000807913
0.000732867
0.000670852
0.000623028
0.000590448
0.000571683
0.000559893
0.000550817
0.000543843
0.000538647
0.000534581
0.000531038
0.000527743
0.000524736
0.000522091
0.000519835
0.000518002
0.000516604
0.000515577
0.000514813
0.000514227
0.000513772
0.000513422
0.000513148
0.000512922
0.000512725
0.000512549
0.000512394
0.000512261
0.000512156
0.000512081
0.000512035
0.000512011
0.000512003
0.000512005
0.000512014
0.000512028
0.000512045
0.000512066
0.000512089
0.000512114
0.00051214
0.00051217
0.000512201
0.000512234
0.000512269
0.000512307
0.000512347
0.000512389
0.000512435
0.000512483
0.000512534
0.000512588
0.000512646
0.000512707
0.000512773
0.000512843
0.000512918
0.000512997
0.000513081
0.000513169
0.000513261
0.000513357
0.000513456
0.000513561
0.000513671
0.000513786
0.000513908
0.000514036
0.00051417
0.000514311
0.00051446
0.000514617
0.000514783
0.000514958
0.000515143
0.000515336
0.000515539
0.000515752
0.000515976
0.000516212
0.000516462
0.000516729
0.000517012
0.000517314
0.000517634
0.000517973
0.000518334
0.000518717
0.000519128
0.00051957
0.000520049
0.000520568
0.000521131
0.000521737
0.000522383
0.000523064
0.000523777
0.00052452
0.000525299
0.000526118
0.00052699
0.000527918
0.000528921
0.000529946
0.000531093
0.000532215
0.00168181
0.00168013
0.00167814
0.00167589
0.00167345
0.00167094
0.00166873
0.00166687
0.00166522
0.00166363
0.001662
0.00166028
0.0016584
0.00144454
0.00144275
0.00144102
0.0014393
0.00143763
0.00143615
0.00143483
0.0014336
0.00143248
0.00143157
0.00143088
0.00143037
0.00143003
0.00142986
0.00142982
0.00142996
0.00143031
0.00143084
0.00143161
0.00143264
0.00143389
0.00143537
0.00143702
0.0014388
0.00144071
0.00144273
0.00144489
0.00144718
0.00144963
0.00145224
0.00145502
0.00145796
0.00146103
0.00146422
0.00146755
0.00147101
0.0014746
0.00147829
0.00148205
0.00148583
0.00148968
0.0014936
0.00149761
0.00150166
0.00150565
0.00150954
0.00151334
0.00151707
0.00152076
0.00152441
0.00152796
0.00153133
0.00153465
0.00153804
0.00154148
0.00154495
0.00154848
0.00155198
0.0015554
0.00155897
0.00156283
0.00156676
0.0015708
0.00157526
0.00158009
0.00158475
0.00158915
0.00159377
0.00159872
0.00160382
0.00160899
0.00161373
0.00161789
0.00162203
0.00162572
0.00162808
0.00162903
0.00162852
0.00162528
0.00161821
0.00160635
0.00158826
0.00156259
0.00152849
0.00148518
0.00143219
0.00136974
0.00129845
0.00121955
0.00113463
0.00104518
0.000953371
0.000865937
0.000788276
0.000721672
0.000666604
0.000623765
0.000593655
0.000575249
0.000563838
0.000554877
0.000547658
0.00054207
0.000537725
0.000534092
0.000530752
0.000527571
0.000524639
0.000522042
0.000519839
0.000518092
0.000516809
0.000515901
0.00051525
0.000514776
0.000514437
0.000514199
0.000514027
0.000513895
0.000513793
0.000513721
0.00051368
0.000513671
0.000513684
0.000513719
0.000513775
0.000513848
0.000513933
0.000514028
0.000514129
0.000514237
0.000514351
0.00051447
0.000514595
0.000514727
0.000514866
0.000515015
0.000515173
0.000515341
0.000515521
0.000515711
0.000515914
0.000516127
0.00051635
0.000516584
0.000516829
0.000517087
0.000517362
0.000517654
0.000517964
0.000518291
0.000518636
0.000519001
0.000519388
0.0005198
0.000520239
0.000520709
0.000521213
0.000521753
0.000522331
0.000522949
0.000523611
0.000524319
0.000525077
0.000525888
0.00052675
0.000527659
0.000528608
0.000529591
0.000530606
0.000531658
0.000532754
0.000533904
0.000535118
0.000536406
0.000537775
0.000539229
0.000540768
0.00054239
0.000544101
0.000545913
0.000547846
0.000549932
0.000552192
0.000554649
0.000557291
0.000560115
0.000563069
0.000566111
0.000569311
0.000572444
0.000575891
0.000580389
0.00166843
0.00166651
0.00166464
0.00166273
0.00166071
0.00165857
0.00165647
0.00165452
0.00165276
0.00165117
0.00164966
0.00164816
0.0016466
0.00141778
0.00141651
0.00141534
0.00141432
0.00141343
0.00141267
0.00141207
0.00141168
0.00141148
0.00141142
0.00141151
0.00141182