/*--------------------------------*- C++ -*----------------------------------*\
| =========                 |                                                 |
| \\      /  F ield         | OpenFOAM: The Open Source CFD Toolbox           |
|  \\    /   O peration     | Version:  v1706                                 |
|   \\  /    A nd           | Web:      www.OpenFOAM.com                      |
|    \\/     M anipulation  |                                                 |
\*---------------------------------------------------------------------------*/
FoamFile
{
    version     2.0;
    format      ascii;
    class       volScalarField;
    location    "3.6e-05";
    object      Tt;
}
// * * * * * * * * * * * * * * * * * * * * * * * * * * * * * * * * * * * * * //

dimensions      [0 0 0 1 0 0 0];


internalField   nonuniform List<scalar> 
30104
(
144.59
144.619
144.653
144.691
144.735
144.785
144.842
144.907
144.981
145.066
145.162
145.271
145.395
145.537
145.698
145.883
146.093
180.997
179.936
178.834
177.683
176.478
175.211
173.881
172.491
171.041
169.535
168.004
166.662
165.619
164.696
163.787
162.85
161.878
160.871
159.832
158.767
157.683
156.588
155.493
154.407
153.333
152.295
151.351
150.539
149.854
149.25
148.687
148.149
147.634
147.148
146.702
146.31
145.984
145.723
145.51
145.329
145.171
145.035
144.919
144.825
144.749
144.687
144.636
144.592
144.555
144.524
144.498
144.478
144.462
144.449
144.439
144.431
144.424
144.419
144.415
144.412
144.409
144.407
144.405
144.404
144.403
144.402
144.402
144.401
144.401
144.401
144.401
144.4
144.4
144.4
144.4
144.4
144.4
144.4
144.4
144.4
144.4
144.4
144.4
144.4
144.4
144.4
144.4
144.4
144.4
144.4
144.4
144.4
144.4
144.4
144.4
144.4
144.4
144.4
144.4
144.4
144.4
144.4
144.4
144.4
144.4
144.4
144.4
144.4
144.4
144.4
144.4
144.4
144.4
144.4
144.4
144.4
144.4
144.4
144.4
144.4
144.4
144.4
144.4
144.4
144.4
144.4
144.4
144.4
144.4
144.4
144.4
144.4
144.4
144.4
144.4
144.4
144.4
144.4
144.4
144.4
144.4
144.4
144.4
144.4
144.4
144.4
144.4
144.4
144.4
144.4
144.4
144.4
144.4
144.4
144.4
144.4
144.4
144.4
144.4
144.4
144.4
144.4
144.4
144.4
144.4
144.4
144.4
144.4
144.4
144.4
144.4
144.4
144.4
144.4
144.4
144.4
144.4
144.4
144.4
144.4
144.4
144.4
144.4
144.4
144.4
144.4
144.4
144.4
144.4
144.4
144.4
144.4
144.4
145.575
145.755
145.96
146.195
146.463
146.771
147.123
147.526
147.987
148.509
149.098
149.76
150.504
151.344
152.296
153.377
154.6
247.955
247.411
246.862
246.317
245.786
245.276
244.787
244.304
243.8
243.242
242.568
241.636
240.33
238.641
236.599
234.232
231.559
228.575
225.262
221.604
217.61
213.312
208.742
203.92
198.872
193.65
188.398
183.523
179.53
176.085
172.885
169.787
166.751
163.801
161.015
158.504
156.361
154.589
153.092
151.779
150.603
149.55
148.629
147.853
147.223
146.718
146.304
145.955
145.66
145.414
145.214
145.055
144.928
144.824
144.739
144.669
144.611
144.565
144.53
144.502
144.479
144.462
144.448
144.437
144.428
144.422
144.417
144.413
144.41
144.407
144.405
144.404
144.403
144.402
144.402
144.401
144.401
144.401
144.4
144.4
144.4
144.4
144.4
144.4
144.4
144.4
144.4
144.4
144.4
144.4
144.4
144.4
144.4
144.4
144.4
144.4
144.4
144.4
144.4
144.4
144.4
144.4
144.4
144.4
144.4
144.4
144.4
144.4
144.4
144.4
144.4
144.4
144.4
144.4
144.4
144.4
144.4
144.4
144.4
144.4
144.4
144.4
144.4
144.4
144.4
144.4
144.4
144.4
144.4
144.4
144.4
144.4
144.4
144.4
144.4
144.4
144.4
144.4
144.4
144.4
144.4
144.4
144.4
144.4
144.4
144.4
144.4
144.4
144.4
144.4
144.4
144.4
144.4
144.4
144.4
144.4
144.4
144.4
144.4
144.4
144.4
144.4
144.4
144.4
144.4
144.4
144.4
144.4
144.4
144.4
144.4
144.4
144.4
144.4
144.4
144.4
144.4
144.4
144.4
144.4
144.4
144.4
144.4
144.4
144.4
144.4
144.4
144.4
144.4
144.4
144.4
144.4
144.4
148.667
149.313
150.047
150.879
151.821
152.891
154.11
155.498
157.071
158.841
160.815
163.003
165.426
168.126
171.147
174.51
260.908
260.682
260.467
260.269
260.101
259.985
259.96
259.992
260.095
260.263
260.467
260.663
260.779
260.775
260.701
260.497
260.133
259.631
259.02
258.321
257.545
256.662
255.606
254.303
252.672
250.616
248.011
244.681
240.507
235.575
229.993
223.84
217.177
210.078
202.674
195.228
188.296
182.622
177.848
173.549
169.525
165.747
162.294
159.285
156.795
154.767
153.063
151.585
150.29
149.172
148.24
147.492
146.901
146.424
146.029
145.7
145.431
145.216
145.047
144.913
144.805
144.718
144.647
144.59
144.547
144.513
144.487
144.467
144.451
144.439
144.429
144.422
144.417
144.413
144.409
144.407
144.405
144.404
144.403
144.402
144.402
144.401
144.401
144.401
144.4
144.4
144.4
144.4
144.4
144.4
144.4
144.4
144.4
144.4
144.4
144.4
144.4
144.4
144.4
144.4
144.4
144.4
144.4
144.4
144.4
144.4
144.4
144.4
144.4
144.4
144.4
144.4
144.4
144.4
144.4
144.4
144.4
144.4
144.4
144.4
144.4
144.4
144.4
144.4
144.4
144.4
144.4
144.4
144.4
144.4
144.4
144.4
144.4
144.4
144.4
144.4
144.4
144.4
144.4
144.4
144.4
144.4
144.4
144.4
144.4
144.4
144.4
144.4
144.4
144.4
144.4
144.4
144.4
144.4
144.4
144.4
144.4
144.4
144.4
144.4
144.4
144.4
144.4
144.4
144.4
144.4
144.4
144.4
144.4
144.4
144.4
144.4
144.4
144.4
144.4
144.4
144.4
144.4
144.4
144.4
144.4
144.4
144.4
144.4
144.4
144.4
144.4
144.4
144.4
144.4
144.4
144.4
144.4
158.155
160.138
162.361
164.838
167.599
170.691
174.154
178.004
182.234
186.815
191.712
196.893
202.359
208.238
214.75
221.842
264.507
264.35
264.221
264.122
264.064
264.061
264.092
264.18
264.333
264.55
264.817
265.111
265.4
265.658
265.87
266.016
266.084
266.086
266.053
265.978
265.881
265.77
265.634
265.446
265.184
264.833
264.392
263.876
263.312
262.681
261.903
260.872
259.469
257.55
254.975
251.601
247.25
241.799
235.39
228.205
220.377
212.037
203.4
194.897
187.366
181.337
176.219
171.583
167.289
163.388
160.003
157.218
154.983
153.135
151.551
150.178
149.011
148.057
147.307
146.721
146.25
145.863
145.547
145.296
145.1
144.949
144.829
144.732
144.655
144.594
144.548
144.512
144.486
144.465
144.449
144.437
144.428
144.421
144.416
144.412
144.409
144.406
144.405
144.404
144.403
144.402
144.402
144.401
144.401
144.401
144.401
144.4
144.4
144.4
144.4
144.4
144.4
144.4
144.4
144.4
144.4
144.4
144.4
144.4
144.4
144.4
144.4
144.4
144.4
144.4
144.4
144.4
144.4
144.4
144.4
144.4
144.4
144.4
144.4
144.4
144.4
144.4
144.4
144.4
144.4
144.4
144.4
144.4
144.4
144.4
144.4
144.4
144.4
144.4
144.4
144.4
144.4
144.4
144.4
144.4
144.4
144.4
144.4
144.4
144.4
144.4
144.4
144.4
144.4
144.4
144.4
144.4
144.4
144.4
144.4
144.4
144.4
144.4
144.4
144.4
144.4
144.4
144.4
144.4
144.4
144.4
144.4
144.4
144.4
144.4
144.4
144.4
144.4
144.4
144.4
144.4
144.4
144.4
144.4
144.4
144.4
144.4
144.401
144.401
144.401
144.401
144.401
144.401
144.401
144.401
144.401
144.401
144.401
183.843
188.751
194.012
199.598
205.51
211.925
218.971
226.573
234.564
242.735
250.869
258.765
266.251
273.164
279.369
267.388
267.237
267.128
267.061
267.048
267.06
267.098
267.171
267.283
267.434
267.621
267.832
268.049
268.253
268.426
268.558
268.656
268.722
268.784
268.833
268.848
268.85
268.844
268.827
268.8
268.763
268.714
268.662
268.631
268.622
268.614
268.584
268.503
268.342
268.11
267.806
267.399
266.85
266.059
264.868
263.099
260.598
257.248
252.938
247.515
240.953
233.426
225.083
216.065
206.627
197.256
188.81
182.123
176.564
171.582
167.009
162.913
159.423
156.604
154.36
152.505
150.921
149.569
148.453
147.574
146.9
146.372
145.946
145.601
145.328
145.117
144.956
144.83
144.73
144.65
144.589
144.542
144.508
144.481
144.461
144.446
144.435
144.426
144.42
144.415
144.411
144.409
144.407
144.405
144.404
144.403
144.402
144.402
144.401
144.401
144.401
144.401
144.401
144.401
144.4
144.4
144.4
144.4
144.4
144.4
144.4
144.4
144.4
144.4
144.4
144.4
144.4
144.4
144.4
144.4
144.4
144.4
144.4
144.4
144.4
144.4
144.4
144.4
144.4
144.4
144.4
144.4
144.4
144.4
144.4
144.4
144.4
144.4
144.4
144.4
144.4
144.4
144.4
144.4
144.4
144.4
144.4
144.4
144.4
144.4
144.4
144.4
144.4
144.401
144.401
144.401
144.401
144.401
144.401
144.401
144.401
144.401
144.401
144.401
144.401
144.401
144.401
144.401
144.401
144.401
144.401
144.401
144.401
144.401
144.401
144.401
144.401
144.401
144.401
144.401
144.401
144.402
144.402
144.402
144.402
144.402
144.402
144.402
144.402
144.402
144.402
144.402
144.402
144.403
144.403
144.403
144.403
144.403
227.581
235.82
244.273
252.711
260.92
268.705
275.872
282.3
287.962
292.877
297.092
300.669
303.683
306.202
308.286
309.99
270.366
270.185
270.052
269.966
269.939
269.946
269.975
270.031
270.112
270.214
270.333
270.458
270.582
270.697
270.792
270.869
270.929
270.963
270.994
271.037
271.06
271.067
271.062
271.036
271.012
270.996
271
271.018
271.046
271.09
271.161
271.254
271.361
271.513
271.668
271.75
271.844
271.958
272.041
272.043
271.989
271.852
271.625
271.292
270.809
270.065
268.873
267.034
264.394
260.848
256.301
250.604
243.644
235.552
226.483
216.644
206.4
196.385
187.623
180.798
175.069
169.916
165.255
161.204
157.875
155.259
153.167
151.417
149.932
148.702
147.733
146.997
146.431
145.981
145.619
145.334
145.116
144.951
144.824
144.723
144.644
144.583
144.538
144.505
144.481
144.462
144.447
144.436
144.428
144.422
144.417
144.413
144.41
144.408
144.406
144.405
144.404
144.403
144.403
144.402
144.402
144.402
144.401
144.401
144.401
144.401
144.401
144.401
144.401
144.401
144.401
144.401
144.401
144.401
144.401
144.401
144.401
144.401
144.401
144.401
144.401
144.401
144.401
144.401
144.401
144.401
144.401
144.401
144.401
144.401
144.401
144.401
144.401
144.401
144.401
144.401
144.401
144.401
144.401
144.401
144.401
144.401
144.401
144.401
144.401
144.402
144.402
144.402
144.402
144.402
144.402
144.402
144.402
144.402
144.402
144.402
144.402
144.403
144.403
144.403
144.403
144.403
144.403
144.403
144.403
144.404
144.404
144.404
144.404
144.404
144.404
144.405
144.405
144.405
144.405
144.405
144.406
144.406
144.406
144.406
144.407
144.407
144.407
144.408
144.408
144.408
144.409
144.409
144.41
144.41
144.41
144.411
144.41
288.656
293.998
298.58
302.465
305.728
308.445
310.684
312.51
313.983
315.15
316.057
316.745
317.273
274.048
273.818
273.631
273.49
273.397
273.341
273.311
273.301
273.303
273.311
273.325
273.339
273.348
273.352
273.352
273.347
273.332
273.296
273.281
273.271
273.252
273.224
273.179
273.126
273.078
273.038
273.012
273.013
273.023
273.05
273.103
273.173
273.26
273.384
273.501
273.601
273.717
273.867
274.047
274.243
274.455
274.703
274.905
275.083
275.263
275.422
275.521
275.543
275.513
275.396
275.131
274.636
273.777
272.366
270.216
267.195
263.211
258.137
251.759
243.94
234.839
224.689
213.837
202.844
192.597
184.31
177.797
172.149
167.061
162.597
158.885
155.959
153.67
151.787
150.197
148.88
147.843
147.06
146.468
146.003
145.632
145.341
145.121
144.955
144.829
144.73
144.652
144.593
144.549
144.516
144.491
144.471
144.456
144.445
144.436
144.429
144.423
144.419
144.415
144.412
144.41
144.408
144.407
144.406
144.405
144.404
144.404
144.403
144.403
144.403
144.402
144.402
144.402
144.402
144.402
144.402
144.402
144.402
144.402
144.402
144.402
144.402
144.402
144.403
144.403
144.403
144.403
144.403
144.403
144.403
144.403
144.403
144.403
144.403
144.404
144.404
144.404
144.404
144.404
144.404
144.404
144.405
144.405
144.405
144.405
144.405
144.406
144.406
144.406
144.406
144.407
144.407
144.407
144.407
144.408
144.408
144.408
144.409
144.409
144.41
144.41
144.41
144.411
144.411
144.412
144.412
144.413
144.413
144.414
144.415
144.415
144.416
144.417
144.418
144.418
144.419
144.42
144.421
144.422
144.423
144.424
144.426
144.427
144.428
144.429
144.431
144.432
144.434
144.435
144.437
144.439
144.441
144.439
316.004
317.359
318.419
319.228
319.843
320.33
320.73
321.06
321.332
321.544
321.689
321.752
321.742
278.194
277.907
277.656
277.441
277.264
277.119
276.998
276.893
276.796
276.699
276.604
276.508
276.407
276.3
276.195
276.097
275.988
275.882
275.799
275.718
275.634
275.542
275.443
275.344
275.25
275.16
275.083
275.026
274.984
274.956
274.954
274.961
274.983
275.024
275.08
275.15
275.241
275.358
275.502
275.668
275.858
276.068
276.285
276.521
276.791
277.091
277.412
277.755
278.105
278.419
278.708
278.973
279.205
279.396
279.499
279.497
279.407
279.11
278.468
277.329
275.516
272.864
269.253
264.56
258.561
250.988
241.87
231.477
220.171
208.487
197.252
187.643
180.343
174.239
168.771
163.934
159.87
156.644
154.154
152.148
150.463
149.07
147.976
147.157
146.548
146.077
145.703
145.41
145.186
145.016
144.886
144.783
144.701
144.636
144.587
144.549
144.52
144.497
144.479
144.464
144.453
144.443
144.436
144.43
144.425
144.421
144.417
144.415
144.413
144.411
144.41
144.409
144.408
144.408
144.408
144.408
144.407
144.407
144.408
144.408
144.408
144.408
144.408
144.408
144.409
144.409
144.409
144.409
144.41
144.41
144.41
144.411
144.411
144.411
144.412
144.412
144.413
144.413
144.414
144.414
144.415
144.415
144.416
144.417
144.417
144.418
144.419
144.42
144.42
144.421
144.422
144.423
144.424
144.425
144.426
144.427
144.429
144.43
144.431
144.433
144.434
144.436
144.438
144.439
144.441
144.443
144.445
144.447
144.449
144.452
144.454
144.457
144.459
144.462
144.465
144.468
144.472
144.475
144.479
144.483
144.487
144.491
144.496
144.5
144.505
144.51
144.516
144.522
144.528
144.534
144.541
144.548
144.543
323.665
323.978
324.227
324.408
324.512
324.522
324.495
324.446
324.38
324.318
324.262
324.222
324.205
324.172
282.57
282.221
281.899
281.606
281.339
281.098
280.877
280.668
280.466
280.263
280.059
279.86
279.659
279.448
279.247
279.055
278.863
278.687
278.525
278.368
278.212
278.051
277.891
277.736
277.583
277.433
277.294
277.17
277.059
276.96
276.875
276.804
276.749
276.708
276.694
276.701
276.726
276.775
276.849
276.949
277.078
277.238
277.43
277.654
277.91
278.195
278.508
278.843
279.195
279.563
279.95
280.366
280.811
281.275
281.741
282.183
282.581
282.954
283.312
283.665
283.983
284.18
284.21
284.11
283.711
282.827
281.305
278.98
275.701
271.314
265.605
258.285
249.221
238.658
226.94
214.575
202.384
191.531
183.156
176.511
170.645
165.428
161.01
157.487
154.795
152.687
150.943
149.502
148.359
147.492
146.845
146.348
145.951
145.631
145.378
145.183
145.031
144.912
144.816
144.737
144.673
144.622
144.581
144.548
144.522
144.501
144.484
144.47
144.459
144.45
144.444
144.438
144.434
144.431
144.429
144.427
144.426
144.425
144.425
144.425
144.425
144.426
144.426
144.427
144.428
144.429
144.429
144.43
144.431
144.432
144.433
144.435
144.436
144.437
144.439
144.44
144.441
144.443
144.445
144.447
144.449
144.451
144.453
144.455
144.457
144.46
144.462
144.465
144.468
144.471
144.474
144.477
144.481
144.484
144.488
144.492
144.497
144.501
144.506
144.511
144.516
144.522
144.527
144.534
144.54
144.546
144.553
144.561
144.568
144.576
144.585
144.594
144.603
144.613
144.624
144.635
144.647
144.66
144.674
144.688
144.703
144.719
144.736
144.754
144.772
144.792
144.812
144.833
144.856
144.879
144.904
144.932
144.915
327.266
327.197
327.134
327.079
327.05
327.019
326.953
326.856
326.714
326.553
326.39
326.244
326.131
326.035
286.974
286.561
286.171
285.8
285.448
285.114
284.797
284.491
284.191
283.889
283.589
283.299
283.006
282.712
282.428
282.153
281.889
281.639
281.4
281.165
280.941
280.717
280.495
280.274
280.057
279.844
279.64
279.447
279.263
279.089
278.925
278.774
278.639
278.52
278.423
278.349
278.294
278.265
278.268
278.291
278.349
278.445
278.578
278.748
278.952
279.188
279.453
279.75
280.081
280.442
280.836
281.266
281.726
282.205
282.703
283.213
283.736
284.285
284.876
285.505
286.144
286.766
287.326
287.864
288.42
289.006
289.594
290.109
290.474
290.596
290.505
290.035
288.931
287
284.042
279.849
274.218
266.92
257.769
246.897
234.626
221.458
208.239
196.17
186.503
179.283
173.128
167.668
162.996
159.203
156.26
153.996
152.157
150.609
149.33
148.318
147.542
146.949
146.485
146.105
145.79
145.532
145.323
145.157
145.022
144.912
144.82
144.744
144.682
144.634
144.596
144.566
144.543
144.526
144.512
144.502
144.495
144.49
144.487
144.485
144.485
144.485
144.486
144.487
144.489
144.492
144.494
144.497
144.501
144.504
144.508
144.512
144.516
144.52
144.524
144.529
144.534
144.539
144.545
144.551
144.557
144.564
144.571
144.579
144.586
144.595
144.603
144.612
144.622
144.632
144.642
144.653
144.665
144.677
144.69
144.704
144.718
144.734
144.75
144.767
144.786
144.805
144.825
144.847
144.869
144.893
144.917
144.943
144.97
144.998
145.027
145.058
145.091
145.125
145.162
145.201
145.242
145.286
145.333
145.382
145.435
145.491
145.551
145.614
145.68
145.75
145.823
145.899
145.978
146.061
146.148
146.252
146.201
329.692
329.529
329.354
329.184
329.043
328.926
328.812
328.685
328.537
328.369
328.189
328.009
327.845
327.71
291.268
290.798
290.346
289.906
289.476
289.063
288.664
288.273
287.886
287.502
287.125
286.755
286.386
286.024
285.67
285.328
284.996
284.674
284.369
284.072
283.78
283.491
283.205
282.922
282.641
282.365
282.096
281.834
281.579
281.332
281.094
280.867
280.655
280.46
280.284
280.13
279.997
279.888
279.807
279.756
279.75
279.77
279.827
279.923
280.058
280.229
280.436
280.681
280.964
281.285
281.647
282.047
282.477
282.94
283.436
283.962
284.521
285.12
285.757
286.417
287.095
287.788
288.49
289.22
290.012
290.868
291.753
292.627
293.487
294.321
295.195
296.11
297.004
297.813
298.475
298.901
298.996
298.807
298.037
296.363
293.529
289.317
283.551
276.055
266.69
255.547
243.011
229.579
215.999
203.268
192.433
184.213
177.782
172.118
167.101
162.834
159.365
156.641
154.518
152.78
151.288
150.014
148.956
148.103
147.426
146.888
146.449
146.082
145.776
145.527
145.329
145.173
145.05
144.952
144.873
144.811
144.764
144.731
144.707
144.692
144.683
144.679
144.678
144.68
144.684
144.69
144.698
144.707
144.717
144.728
144.739
144.751
144.764
144.778
144.792
144.808
144.824
144.841
144.86
144.879
144.9
144.923
144.946
144.972
144.998
145.026
145.055
145.086
145.118
145.151
145.186
145.222
145.261
145.301
145.344
145.388
145.436
145.486
145.539
145.595
145.655
145.719
145.787
145.858
145.934
146.013
146.096
146.183
146.273
146.368
146.467
146.57
146.679
146.794
146.915
147.043
147.18
147.326
147.483
147.651
147.831
148.024
148.23
148.448
148.679
148.922
149.177
149.445
149.723
150.015
150.315
150.686
150.565
331.515
331.339
331.147
330.951
330.765
330.604
330.473
330.356
330.243
330.122
329.991
329.851
329.709
295.378
294.861
294.356
293.858
293.368
292.89
292.423
291.963
291.508
291.06
290.619
290.185
289.757
289.338
288.925
288.526
288.139
287.76
287.393
287.034
286.681
286.332
285.987
285.643
285.303
284.966
284.634
284.307
283.986
283.67
283.363
283.066
282.783
282.515
282.266
282.036
281.827
281.642
281.483
281.357
281.266
281.211
281.204
281.222
281.279
281.377
281.515
281.694
281.914
282.177
282.483
282.831
283.218
283.647
284.115
284.624
285.176
285.768
286.391
287.044
287.729
288.439
289.179
289.965
290.8
291.663
292.538
293.44
294.374
295.348
296.383
297.465
298.575
299.73
300.92
302.125
303.358
304.581
305.708
306.701
307.48
307.938
308.003
307.74
306.805
304.915
301.853
297.49
291.774
284.612
275.907
265.656
254.081
241.554
228.529
215.66
203.764
193.623
185.742
179.695
174.368
169.545
165.287
161.647
158.625
156.177
154.196
152.514
151.049
149.801
148.778
147.97
147.344
146.856
146.466
146.149
145.898
145.707
145.565
145.464
145.394
145.348
145.319
145.308
145.308
145.316
145.334
145.358
145.386
145.419
145.455
145.493
145.534
145.577
145.623
145.671
145.722
145.776
145.834
145.895
145.961
146.032
146.107
146.187
146.271
146.361
146.455
146.554
146.657
146.765
146.877
146.993
147.116
147.243
147.378
147.519
147.668
147.826
147.994
148.172
148.363
148.566
148.783
149.015
149.261
149.523
149.799
150.088
150.388
150.697
151.017
151.349
151.693
152.051
152.426
152.82
153.234
153.672
154.135
154.628
155.154
155.716
156.318
156.964
157.655
158.39
159.17
159.989
160.835
161.714
162.582
163.687
163.581
333.185
333.053
332.913
332.765
332.613
332.466
332.335
332.222
332.121
332.026
331.928
331.825
331.716
298.179
297.637
297.101
296.574
296.054
295.541
295.035
294.536
294.046
293.561
293.086
292.622
292.165
291.717
291.279
290.849
290.428
290.015
289.607
289.203
288.803
288.404
288.008
287.614
287.224
286.837
286.454
286.076
285.705
285.344
284.995
284.66
284.341
284.041
283.76
283.503
283.271
283.069
282.9
282.768
282.674
282.616
282.609
282.629
282.689
282.791
282.938
283.129
283.365
283.647
283.975
284.349
284.77
285.237
285.75
286.301
286.888
287.512
288.166
288.849
289.573
290.338
291.134
291.958
292.816
293.709
294.636
295.604
296.614
297.665
298.776
299.955
301.175
302.42
303.679
304.935
306.203
307.492
308.781
310.046
311.283
312.492
313.466
314.089
314.359
314.358
314.123
313.424
312.127
310.129
307.314
303.548
298.716
292.704
285.491
277.113
267.616
257.133
245.93
234.262
222.473
211.022
200.458
191.364
184.188
178.368
173.085
168.282
164.08
160.552
157.697
155.444
153.635
152.111
150.831
149.797
149.002
148.418
148.002
147.709
147.503
147.369
147.297
147.277
147.289
147.33
147.397
147.484
147.585
147.698
147.82
147.95
148.089
148.235
148.389
148.553
148.726
148.912
149.109
149.321
149.549
149.793
150.055
150.335
150.632
150.944
151.269
151.604
151.951
152.31
152.682
153.067
153.466
153.881
154.314
154.767
155.241
155.742
156.272
156.834
157.433
158.072
158.754
159.479
160.249
161.061
161.909
162.784
163.68
164.598
165.537
166.499
167.485
168.496
169.536
170.613
171.736
172.914
174.157
175.477
176.877
178.362
179.925
181.575
183.29
185.126
187.007
189.06
191.009
193.243
194.392
334.927
334.817
334.706
334.59
334.471
334.356
334.249
334.154
334.068
333.987
333.907
333.825
301.812
301.239
300.67
300.106
299.548
298.996
298.451
297.912
297.386
296.866
296.353
295.85
295.353
294.864
294.382
293.907
293.439
292.977
292.52
292.066
291.614
291.165
290.717
290.27
289.826
289.384
288.945
288.51
288.081
287.661
287.251
286.853
286.47
286.103
285.755
285.428
285.126
284.851
284.607
284.397
284.223
284.087
283.99
283.93
283.922
283.942
284.003
284.111
284.265
284.467
284.718
285.019
285.37
285.769
286.213
286.696
287.217
287.778
288.376
289.015
289.694
290.409
291.158
291.946
292.774
293.633
294.528
295.463
296.432
297.447
298.524
299.651
300.796
301.949
303.119
304.32
305.559
306.827
308.11
309.39
310.638
311.805
312.826
313.68
314.474
315.278
315.993
316.524
316.873
316.985
316.92
316.611
315.958
314.956
313.586
311.79
309.51
306.682
303.234
299.096
294.19
288.402
281.56
273.46
264.075
253.533
242.073
230.012
217.843
206.221
195.859
187.372
180.907
175.436
170.554
166.318
162.806
160.027
157.926
156.386
155.241
154.384
153.783
153.412
153.241
153.224
153.294
153.46
153.7
153.993
154.324
154.683
155.066
155.47
155.894
156.341
156.811
157.307
157.833
158.391
158.987
159.624
160.306
161.036
161.814
162.639
163.503
164.396
165.312
166.25
167.207
168.185
169.182
170.201
171.245
172.317
173.421
174.561
175.744
176.977
178.266
179.623
181.058
182.58
184.197
185.914
187.73
189.586
191.428
193.241
195.023
196.77
198.483
200.162
201.805
203.405
204.945
206.405
207.759
208.995
210.11
211.129
212.074
212.998
213.915
214.829
215.729
216.506
217.193
217.716
217.349
336.941
336.845
336.754
336.664
336.573
336.481
336.392
336.309
336.233
336.163
305.26
304.663
304.069
303.48
302.894
302.313
301.741
301.176
300.618
300.067
299.523
298.986
298.454
297.929
297.408
296.893
296.382
295.876
295.373
294.873
294.375
293.878
293.382
292.886
292.392
291.899
291.409
290.921
290.439
289.962
289.495
289.038
288.593
288.164
287.751
287.358
286.987
286.642
286.325
286.039
285.786
285.568
285.386
285.243
285.138
285.07
285.054
285.07
285.128
285.236
285.394
285.6
285.857
286.159
286.505
286.896
287.333
287.815
288.35
288.936
289.565
290.227
290.922
291.656
292.431
293.235
294.053
294.9
295.808
296.779
297.778
298.778
299.796
300.849
301.936
303.062
304.225
305.412
306.604
307.766
308.873
309.958
311.013
311.964
312.831
313.62
314.268
314.779
315.173
315.433
315.484
315.448
315.342
315.256
315.17
314.983
314.655
314.197
313.62
312.903
312.011
310.889
309.465
307.667
305.402
302.541
298.953
294.521
289.139
282.686
275.029
266.046
255.68
244.331
232.465
220.567
209.235
199.122
190.8
184.59
180.062
176.417
173.527
171.399
169.982
169.182
168.863
168.883
169.135
169.628
170.284
171.057
171.909
172.819
173.778
174.776
175.812
176.882
177.992
179.145
180.352
181.623
182.972
184.41
185.947
187.589
189.325
191.085
192.841
194.586
196.32
198.037
199.728
201.383
202.99
204.54
206.022
207.434
208.772
210.037
211.232
212.356
213.407
214.378
215.264
216.062
216.775
217.424
218.028
218.597
219.135
219.642
220.108
220.518
220.856
221.109
221.281
221.395
221.488
221.593
221.744
221.957
222.238
222.54
222.839
222.993
223.069
223.038
222.965
222.855
222.514
338.983
338.906
338.834
338.764
338.695
338.627
338.562
338.501
338.445
307.897
307.284
306.677
306.072
305.471
304.877
304.288
303.705
303.127
302.555
301.988
301.425
300.865
300.309
299.756
299.206
298.658
298.113
297.57
297.028
296.486
295.945
295.404
294.862
294.322
293.782
293.244
292.709
292.179
291.656
291.142
290.638
290.147
289.672
289.214
288.777
288.362
287.973
287.612
287.28
286.98
286.712
286.479
286.28
286.118
285.997
285.91
285.872
285.88
285.924
286.017
286.156
286.345
286.584
286.879
287.233
287.64
288.094
288.593
289.131
289.706
290.322
290.977
291.659
292.362
293.105
293.893
294.713
295.56
296.429
297.321
298.232
299.168
300.145
301.164
302.211
303.272
304.322
305.318
306.27
307.273
308.295
309.129
309.863
310.537
311.034
311.428
311.778
312.023
312.164
312.277
312.375
312.395
312.349
312.188
311.866
311.438
310.938
310.399
309.832
309.264
308.768
308.434
308.14
307.781
307.303
306.645
305.724
304.441
302.68
300.322
297.278
293.492
288.894
283.408
276.963
269.494
260.958
251.574
241.83
232.296
223.514
215.973
209.99
205.636
202.739
201.048
200.28
200.217
200.581
201.394
202.454
203.631
204.875
206.153
207.44
208.714
209.96
211.167
212.329
213.434
214.466
215.419
216.298
217.117
217.891
218.642
219.362
220.039
220.656
221.201
221.673
222.08
222.436
222.757
223.052
223.33
223.592
223.836
224.056
224.246
224.405
224.536
224.65
224.757
224.862
224.968
225.069
225.156
225.219
225.248
225.246
225.215
225.151
225.075
225.009
224.98
224.995
225.067
225.188
225.315
225.4
225.412
225.36
225.213
225.035
224.863
224.736
224.641
224.55
341.212
341.15
310.918
310.291
309.668
309.047
308.43
307.816
307.206
306.601
305.999
305.4
304.804
304.21
303.617
303.027
302.437
301.85
301.263
300.678
300.094
299.509
298.925
298.34
297.754
297.167
296.579
295.991
295.403
294.817
294.233
293.655
293.083
292.521
291.97
291.432
290.91
290.407
289.923
289.462
289.025
288.614
288.23
287.874
287.548
287.252
286.987
286.757
286.564
286.409
286.29
286.214
286.204
286.227
286.305
286.445
286.638
286.881
287.176
287.516
287.897
288.317
288.779
289.284
289.821
290.388
290.992
291.634
292.304
292.999
293.721
294.47
295.24
296.032
296.857
297.722
298.614
299.52
300.431
301.324
302.162
302.982
303.907
304.828
305.466
306.034
306.581
306.902
307.12
307.363
307.564
307.655
307.716
307.719
307.651
307.477
307.195
306.795
306.321
305.829
305.411
305.056
304.75
304.51
304.246
303.925
303.545
303.079
302.504
301.812
300.994
300.077
299.153
298.369
297.55
296.517
295.172
293.421
291.148
288.238
284.643
280.299
275.132
269.253
262.879
256.273
249.758
243.697
238.427
234.103
230.716
228.219
226.505
225.424
224.766
224.456
224.402
224.471
224.641
224.851
225.064
225.265
225.447
225.625
225.811
226.006
226.198
226.368
226.497
226.583
226.64
226.685
226.727
226.772
226.822
226.876
226.931
226.981
227.022
227.05
227.065
227.068
227.066
227.065
227.068
227.076
227.088
227.096
227.095
227.08
227.037
226.975
226.899
226.816
226.733
226.654
226.603
226.591
226.608
226.651
226.692
226.704
226.691
226.619
226.489
226.333
226.167
226.023
225.919
225.871
225.879
225.947
313.685
313.046
312.409
311.774
311.14
310.509
309.879
309.252
308.625
308
307.375
306.751
306.126
305.502
304.877
304.253
303.628
303.004
302.379
301.754
301.127
300.498
299.867
299.234
298.598
297.96
297.321
296.682
296.044
295.41
294.78
294.159
293.547
292.946
292.36
291.789
291.235
290.701
290.187
289.695
289.224
288.776
288.354
287.959
287.589
287.246
286.936
286.667
286.435
286.249
286.125
286.047
286.026
286.044
286.106
286.219
286.377
286.579
286.822
287.109
287.441
287.813
288.22
288.664
289.145
289.655
290.195
290.763
291.357
291.974
292.616
293.285
293.99
294.725
295.472
296.223
296.979
297.72
298.417
299.122
299.953
300.705
301.157
301.588
302.013
302.169
302.25
302.378
302.509
302.494
302.441
302.346
302.155
301.852
301.453
300.978
300.498
300.057
299.631
299.229
298.841
298.444
298.011
297.548
297.065
296.568
296.073
295.592
295.148
294.758
294.404
293.941
293.309
292.548
291.657
290.652
289.591
288.573
287.507
286.156
284.42
282.235
279.512
276.205
272.296
267.818
262.874
257.652
252.431
247.515
243.15
239.479
236.523
234.215
232.454
231.142
230.187
229.501
229.025
228.719
228.523
228.412
228.353
228.315
228.283
228.251
228.221
228.193
228.172
228.161
228.156
228.148
228.133
228.111
228.09
228.073
228.06
228.048
228.036
228.023
228.013
228.006
227.999
227.987
227.967
227.938
227.899
227.847
227.787
227.724
227.665
227.611
227.574
227.564
227.575
227.607
227.646
227.668
227.669
227.64
227.561
227.438
227.293
227.152
227.04
226.978
226.971
227.011
227.114
227.213
316.155
315.504
314.854
314.204
313.555
312.905
312.255
311.605
310.954
310.302
309.648
308.993
308.336
307.678
307.019
306.358
305.696
305.033
304.368
303.701
303.031
302.358
301.681
300.999
300.313
299.623
298.931
298.237
297.542
296.85
296.162
295.479
294.805
294.141
293.488
292.849
292.223
291.612
291.019
290.445
289.888
289.347
288.826
288.33
287.861
287.42
287.008
286.638
286.314
286.032
285.788
285.589
285.439
285.327
285.25
285.231
285.247
285.302
285.405
285.555
285.749
285.983
286.256
286.568
286.914
287.293
287.701
288.136
288.599
289.088
289.603
290.147
290.723
291.318
291.919
292.524
293.143
293.749
294.318
294.917
295.629
296.182
296.488
296.816
297.134
297.142
297.123
297.15
297.19
297.11
296.968
296.809
296.56
296.202
295.769
295.299
294.848
294.404
293.95
293.482
292.998
292.498
291.992
291.501
291.047
290.643
290.293
289.989
289.716
289.444
289.132
288.748
288.318
287.882
287.473
287.115
286.805
286.454
285.977
285.425
284.892
284.302
283.519
282.465