/*--------------------------------*- C++ -*----------------------------------*\
| =========                 |                                                 |
| \\      /  F ield         | OpenFOAM: The Open Source CFD Toolbox           |
|  \\    /   O peration     | Version:  v1706                                 |
|   \\  /    A nd           | Web:      www.OpenFOAM.com                      |
|    \\/     M anipulation  |                                                 |
\*---------------------------------------------------------------------------*/
FoamFile
{
    version     2.0;
    format      ascii;
    class       volVectorField;
    location    "3.6e-05";
    object      U;
}
// * * * * * * * * * * * * * * * * * * * * * * * * * * * * * * * * * * * * * //

dimensions      [0 1 -1 0 0 0 0];


internalField   nonuniform List<vector> 
30104
(
(978.366 0.255773 4.02007e-15)
(978.334 0.294197 6.29988e-15)
(978.298 0.338061 5.33144e-15)
(978.257 0.388384 4.03702e-15)
(978.21 0.446563 5.28104e-15)
(978.155 0.514439 4.33493e-15)
(978.089 0.594159 1.45349e-15)
(978.012 0.687671 2.33208e-15)
(977.922 0.796141 5.57352e-15)
(977.82 0.920022 7.13867e-15)
(977.704 1.05855 5.19473e-15)
(977.577 1.21184 4.26061e-15)
(977.437 1.37993 2.67013e-15)
(977.285 1.56383 4.83391e-15)
(977.117 1.76763 6.46005e-15)
(976.931 1.9983 6.3441e-15)
(976.72 2.26458 5.50408e-15)
(938.625 65.6542 1.89712e-15)
(939.879 63.7076 3.77117e-15)
(941.161 61.7335 3.93353e-15)
(942.469 59.739 3.88511e-15)
(943.799 57.7337 3.69935e-15)
(945.143 55.7284 3.87237e-15)
(946.493 53.7329 3.02269e-15)
(947.849 51.7451 4.62666e-15)
(949.223 49.7638 4.23028e-15)
(950.611 47.834 2.51593e-15)
(951.971 45.931 2.88429e-15)
(953.018 44.3267 2.19572e-15)
(953.827 43.0551 4.42256e-15)
(954.728 41.7675 3.95768e-15)
(955.756 40.3819 6.8181e-16)
(956.876 38.8812 2.24482e-15)
(958.06 37.2582 2.41959e-15)
(959.291 35.5038 2.91006e-15)
(960.563 33.6019 4.87028e-15)
(961.869 31.5459 2.24716e-15)
(963.192 29.3549 4.70906e-15)
(964.527 27.0337 5.13784e-15)
(965.899 24.5782 2.91261e-15)
(967.249 22.0765 3.29411e-15)
(968.512 19.5463 3.14894e-15)
(969.903 16.8015 3.38306e-15)
(971.438 14.0577 3.29396e-15)
(972.722 11.6697 3.16526e-15)
(973.681 9.87892 3.31717e-15)
(974.5 8.52851 3.28408e-15)
(975.203 7.42011 1.92236e-15)
(975.79 6.4415 4.07094e-15)
(976.279 5.54506 4.26432e-15)
(976.659 4.75672 3.06043e-15)
(976.905 4.12715 2.0124e-15)
(977.034 3.64191 2.21321e-15)
(977.131 3.22342 5.08935e-15)
(977.265 2.8145 2.34693e-15)
(977.436 2.41875 3.41599e-15)
(977.611 2.05701 4.29574e-15)
(977.768 1.72851 2.79506e-15)
(977.909 1.41841 4.22212e-15)
(978.044 1.1245 3.38629e-15)
(978.169 0.868083 5.03394e-15)
(978.272 0.667767 4.80364e-15)
(978.352 0.52109 3.21831e-15)
(978.413 0.412143 3.29366e-15)
(978.455 0.329676 2.4667e-15)
(978.481 0.269046 3.24571e-15)
(978.494 0.225933 1.16981e-15)
(978.501 0.193327 5.08292e-15)
(978.508 0.164393 2.82123e-15)
(978.518 0.137057 1.25862e-15)
(978.529 0.112326 3.06542e-15)
(978.539 0.0902995 3.73761e-15)
(978.547 0.0703087 1.22329e-15)
(978.555 0.0526101 3.72233e-15)
(978.563 0.0382358 3.35786e-15)
(978.569 0.0277054 2.4559e-15)
(978.573 0.020457 2.19873e-15)
(978.575 0.0155506 1.83984e-15)
(978.576 0.0122957 3.72648e-15)
(978.577 0.0101546 3.66644e-15)
(978.577 0.00854543 2.46083e-15)
(978.577 0.0070329 5.60208e-15)
(978.578 0.0056035 4.11837e-15)
(978.578 0.00434589 3.70387e-15)
(978.579 0.00323299 4.17197e-15)
(978.579 0.0022703 3.69527e-15)
(978.579 0.00152241 3.8491e-15)
(978.58 0.0010216 2.79064e-15)
(978.58 0.000719627 2.79674e-15)
(978.58 0.000541536 3.24869e-15)
(978.58 0.000436655 1.05569e-15)
(978.58 0.000363807 4.37413e-15)
(978.58 0.000291198 4.11592e-15)
(978.58 0.000221335 3.44926e-15)
(978.58 0.00016109 3.79023e-16)
(978.58 0.000109696 -3.09076e-16)
(978.58 6.96001e-05 3.4432e-15)
(978.58 4.4525e-05 7.15869e-16)
(978.58 3.17065e-05 2.50186e-15)
(978.58 2.48768e-05 1.4707e-15)
(978.58 2.08678e-05 8.33701e-16)
(978.58 1.72984e-05 4.9688e-15)
(978.58 1.35095e-05 4.26605e-15)
(978.58 1.01805e-05 3.28902e-15)
(978.58 7.33182e-06 2.10641e-15)
(978.58 4.98731e-06 2.61748e-15)
(978.58 3.43045e-06 3.65004e-15)
(978.58 2.66038e-06 3.1236e-15)
(978.58 2.26453e-06 3.61856e-15)
(978.58 2.04304e-06 5.19386e-15)
(978.58 1.86722e-06 3.12387e-15)
(978.58 1.67774e-06 4.77833e-16)
(978.58 1.48797e-06 3.46654e-15)
(978.58 1.31073e-06 1.12043e-15)
(978.58 1.14481e-06 7.20512e-16)
(978.58 9.98064e-07 3.58043e-15)
(978.58 8.80526e-07 3.2174e-15)
(978.58 8.06584e-07 2.83044e-15)
(978.58 7.77391e-07 3.20591e-15)
(978.58 7.74595e-07 2.31518e-15)
(978.58 7.8951e-07 2.66418e-15)
(978.58 8.16034e-07 2.3882e-15)
(978.58 8.46753e-07 3.05626e-15)
(978.58 8.76394e-07 1.38932e-15)
(978.58 9.0159e-07 1.97894e-15)
(978.58 9.18354e-07 3.67108e-15)
(978.58 9.30191e-07 3.65045e-15)
(978.58 9.41378e-07 3.11921e-15)
(978.58 9.51181e-07 3.26656e-15)
(978.58 9.60568e-07 3.00724e-15)
(978.58 9.71107e-07 2.5614e-15)
(978.58 9.8377e-07 1.71084e-15)
(978.58 9.9893e-07 2.39561e-15)
(978.58 1.0165e-06 2.66956e-15)
(978.58 1.03614e-06 2.99571e-15)
(978.58 1.05743e-06 2.79393e-15)
(978.58 1.07993e-06 2.51483e-15)
(978.58 1.10323e-06 2.81981e-15)
(978.58 1.12711e-06 1.69027e-15)
(978.58 1.1516e-06 3.53081e-15)
(978.58 1.17689e-06 2.89715e-15)
(978.58 1.20324e-06 8.51705e-17)
(978.58 1.23082e-06 2.16575e-16)
(978.58 1.25966e-06 9.68727e-16)
(978.58 1.2897e-06 1.34199e-15)
(978.58 1.32085e-06 2.09802e-15)
(978.58 1.3531e-06 1.41242e-15)
(978.58 1.38651e-06 1.99786e-15)
(978.58 1.42118e-06 2.33579e-15)
(978.58 1.45718e-06 2.04889e-15)
(978.58 1.49455e-06 2.44659e-15)
(978.58 1.53318e-06 1.74546e-15)
(978.58 1.57297e-06 2.56435e-15)
(978.58 1.61383e-06 1.34717e-15)
(978.58 1.65585e-06 2.74386e-15)
(978.58 1.69934e-06 2.39241e-15)
(978.58 1.74478e-06 1.76966e-15)
(978.58 1.79275e-06 3.4589e-15)
(978.58 1.84376e-06 3.4643e-15)
(978.58 1.89819e-06 2.8117e-15)
(978.58 1.95629e-06 3.05592e-15)
(978.58 2.01821e-06 1.51446e-15)
(978.58 2.08401e-06 2.75513e-15)
(978.58 2.15369e-06 4.05125e-15)
(978.58 2.22713e-06 2.92229e-15)
(978.58 2.30419e-06 1.71463e-15)
(978.58 2.38476e-06 1.76087e-15)
(978.58 2.46898e-06 2.83924e-15)
(978.58 2.55721e-06 1.37796e-15)
(978.58 2.65009e-06 2.57881e-15)
(978.58 2.74829e-06 2.13062e-15)
(978.58 2.85227e-06 3.12373e-15)
(978.58 2.96205e-06 2.75224e-15)
(978.58 3.07713e-06 2.3187e-15)
(978.58 3.19666e-06 2.91485e-15)
(978.58 3.31961e-06 2.01253e-15)
(978.58 3.4451e-06 1.24648e-15)
(978.58 3.57263e-06 1.6838e-15)
(978.58 3.70214e-06 2.60386e-15)
(978.58 3.83391e-06 1.11777e-15)
(978.58 3.96825e-06 2.44499e-15)
(978.58 4.10529e-06 2.25451e-15)
(978.58 4.24475e-06 2.62101e-15)
(978.58 4.38593e-06 3.62249e-15)
(978.58 4.528e-06 2.20901e-15)
(978.58 4.67039e-06 1.65689e-15)
(978.58 4.81321e-06 8.42268e-16)
(978.58 4.95744e-06 2.80571e-15)
(978.58 5.10479e-06 1.62102e-15)
(978.58 5.25719e-06 2.08189e-15)
(978.58 5.41618e-06 1.11489e-15)
(978.58 5.5822e-06 1.32284e-15)
(978.58 5.75431e-06 1.39561e-15)
(978.58 5.93024e-06 2.87581e-15)
(978.58 6.10737e-06 1.76521e-15)
(978.58 6.28397e-06 1.73768e-15)
(978.58 6.46116e-06 1.84524e-15)
(978.58 6.64435e-06 1.32425e-15)
(978.58 6.84361e-06 1.85111e-15)
(978.58 7.07154e-06 2.86975e-15)
(978.58 7.33737e-06 2.12841e-15)
(978.58 7.64312e-06 2.85517e-15)
(978.58 7.98088e-06 2.01861e-15)
(978.58 8.34002e-06 1.98968e-15)
(978.58 8.7033e-06 2.81345e-15)
(978.58 9.05346e-06 3.07371e-15)
(978.58 9.39411e-06 2.4196e-15)
(978.58 9.73373e-06 2.14939e-15)
(978.58 1.00554e-05 1.90012e-15)
(978.58 9.4736e-06 1.70296e-15)
(977.145 1.53118 1.45641e-14)
(976.919 1.77409 1.44822e-14)
(976.662 2.05211 1.23349e-14)
(976.37 2.36816 1.26998e-14)
(976.04 2.72481 1.34127e-14)
(975.669 3.126 1.29562e-14)
(975.25 3.57877 1.24035e-14)
(974.776 4.09371 1.40293e-14)
(974.235 4.6847 1.54445e-14)
(973.615 5.3664 1.3721e-14)
(972.9 6.15675 1.40679e-14)
(972.083 7.06632 1.58775e-14)
(971.143 8.11254 1.66047e-14)
(970.057 9.31701 1.51392e-14)
(968.803 10.6948 1.50292e-14)
(967.371 12.2529 1.45831e-14)
(965.764 13.9915 1.25007e-14)
(811.771 271.06 1.61746e-15)
(812.958 269.497 4.67535e-15)
(814.323 267.742 5.86173e-15)
(815.935 265.72 5.6389e-15)
(817.865 263.357 5.5209e-15)
(820.166 260.603 5.5902e-15)
(822.866 257.437 5.16059e-15)
(825.953 253.887 5.76302e-15)
(829.408 250.005 6.115e-15)
(833.27 245.765 3.72039e-15)
(837.568 241.133 1.88671e-15)
(842.358 236.02 4.10752e-15)
(847.723 230.086 3.04367e-15)
(853.511 223.308 2.76573e-15)
(859.564 215.84 1.30209e-15)
(865.819 207.778 2.64002e-15)
(872.248 199.169 3.20741e-15)
(878.808 190.061 4.75462e-15)
(885.437 180.496 7.51348e-15)
(892.053 170.514 5.57763e-15)
(898.581 160.149 7.60435e-15)
(905.015 149.428 7.92254e-15)
(911.4 138.425 7.72707e-15)
(917.748 127.24 7.65533e-15)
(924.031 115.913 7.57503e-15)
(930.144 104.64 7.46517e-15)
(935.751 93.6862 7.42512e-15)
(940.292 83.5954 7.92488e-15)
(943.787 75.3972 7.39244e-15)
(947.177 68.3443 8.22589e-15)
(950.684 61.7082 6.75483e-15)
(954.235 55.1308 9.72642e-15)
(957.692 48.5484 8.71136e-15)
(960.984 41.932 8.00664e-15)
(964.146 35.2368 5.48508e-15)
(966.989 28.8569 8.06323e-15)
(969.169 23.539 9.04479e-15)
(970.789 19.5144 7.41092e-15)
(972.122 16.4059 7.61677e-15)
(973.277 13.8263 1.00493e-14)
(974.262 11.5864 9.07333e-15)
(975.035 9.66971 1.07494e-14)
(975.583 8.09924 7.56294e-15)
(975.971 6.82387 8.49853e-15)
(976.301 5.75317 1.08689e-14)
(976.632 4.82963 8.60797e-15)
(976.958 4.03015 6.51217e-15)
(977.254 3.33022 6.65953e-15)
(977.516 2.70084 1.00872e-14)
(977.747 2.13579 6.38717e-15)
(977.941 1.65758 8.61737e-15)
(978.095 1.28455 8.57382e-15)
(978.212 1.0054 7.34962e-15)
(978.301 0.794298 7.78055e-15)
(978.363 0.632035 5.37866e-15)
(978.405 0.507953 6.11057e-15)
(978.433 0.413083 8.36367e-15)
(978.455 0.337517 8.4155e-15)
(978.476 0.274347 1.01555e-14)
(978.495 0.221024 7.86331e-15)
(978.513 0.175816 6.55332e-15)
(978.528 0.136701 6.99049e-15)
(978.541 0.103019 8.00901e-15)
(978.553 0.0757911 7.10934e-15)
(978.561 0.0556505 9.59993e-15)
(978.567 0.0414767 9.08289e-15)
(978.57 0.0314716 6.71314e-15)
(978.573 0.0243013 6.66634e-15)
(978.574 0.0190719 9.08225e-15)
(978.575 0.015047 7.9104e-15)
(978.576 0.0117738 7.91834e-15)
(978.577 0.00908557 7.19135e-15)
(978.578 0.00684275 7.92699e-15)
(978.578 0.00495034 6.97477e-15)
(978.579 0.00344755 1.09284e-14)
(978.579 0.00238867 8.36123e-15)
(978.58 0.00170245 6.72899e-15)
(978.58 0.00125716 5.75359e-15)
(978.58 0.000957031 5.30855e-15)
(978.58 0.000740499 6.44435e-15)
(978.58 0.000569206 3.9077e-15)
(978.58 0.000430319 5.29684e-15)
(978.58 0.000317268 7.07827e-15)
(978.58 0.000225332 8.03405e-15)
(978.58 0.000156404 8.28784e-15)
(978.58 0.00011105 7.27671e-15)
(978.58 8.29818e-05 6.09821e-15)
(978.58 6.48502e-05 5.53167e-15)
(978.58 5.21439e-05 7.76122e-15)
(978.58 4.22612e-05 6.96305e-15)
(978.58 3.40662e-05 8.27958e-15)
(978.58 2.72426e-05 7.55774e-15)
(978.58 2.15187e-05 7.47777e-15)
(978.58 1.68577e-05 5.72216e-15)
(978.58 1.33528e-05 3.09136e-15)
(978.58 1.0974e-05 6.54775e-15)
(978.58 9.48241e-06 3.68901e-15)
(978.58 8.5574e-06 5.57608e-15)
(978.58 7.98672e-06 8.02923e-15)
(978.58 7.63178e-06 5.7937e-15)
(978.58 7.38248e-06 6.65001e-15)
(978.58 7.1695e-06 5.19878e-15)
(978.58 6.96819e-06 6.31365e-15)
(978.58 6.79814e-06 7.37647e-15)
(978.58 6.65292e-06 7.51293e-15)
(978.58 6.50329e-06 6.15972e-15)
(978.58 6.38405e-06 5.42075e-15)
(978.58 6.31631e-06 7.39987e-15)
(978.58 6.31058e-06 6.25309e-15)
(978.58 6.36321e-06 6.46115e-15)
(978.58 6.46143e-06 9.22618e-15)
(978.58 6.59246e-06 8.83287e-15)
(978.58 6.74467e-06 5.44301e-15)
(978.58 6.90746e-06 6.3616e-15)
(978.58 7.07252e-06 5.95136e-15)
(978.58 7.23514e-06 5.39649e-15)
(978.58 7.39376e-06 8.12546e-15)
(978.58 7.54911e-06 8.06499e-15)
(978.58 7.70335e-06 6.6366e-15)
(978.58 7.85946e-06 6.41201e-15)
(978.58 8.02053e-06 4.48805e-15)
(978.58 8.18902e-06 5.05624e-15)
(978.58 8.36631e-06 8.72492e-15)
(978.58 8.5528e-06 7.04678e-15)
(978.58 8.74845e-06 4.45636e-15)
(978.58 8.95347e-06 4.10881e-15)
(978.58 9.16876e-06 4.17914e-15)
(978.58 9.39578e-06 4.14768e-15)
(978.58 9.63619e-06 3.85167e-15)
(978.58 9.89138e-06 5.11131e-15)
(978.58 1.01623e-05 6.12955e-15)
(978.58 1.04495e-05 3.50464e-15)
(978.58 1.07535e-05 4.68271e-15)
(978.58 1.1075e-05 5.26939e-15)
(978.58 1.14154e-05 6.22772e-15)
(978.58 1.17768e-05 6.94884e-15)
(978.58 1.21612e-05 5.45783e-15)
(978.58 1.257e-05 4.72202e-15)
(978.58 1.30031e-05 6.38811e-15)
(978.58 1.3459e-05 7.24974e-15)
(978.58 1.39356e-05 7.40019e-15)
(978.58 1.44306e-05 7.23716e-15)
(978.58 1.49423e-05 6.60791e-15)
(978.58 1.54696e-05 6.46214e-15)
(978.58 1.6012e-05 6.90468e-15)
(978.58 1.65691e-05 6.14449e-15)
(978.58 1.71408e-05 5.54105e-15)
(978.58 1.77275e-05 6.83746e-15)
(978.58 1.83301e-05 5.0036e-15)
(978.58 1.89498e-05 4.68261e-15)
(978.58 1.95875e-05 5.33219e-15)
(978.58 2.02434e-05 5.36423e-15)
(978.58 2.09165e-05 6.74239e-15)
(978.58 2.16047e-05 6.25941e-15)
(978.58 2.23065e-05 6.12236e-15)
(978.58 2.30219e-05 6.62481e-15)
(978.58 2.37535e-05 5.43911e-15)
(978.58 2.45072e-05 6.73556e-15)
(978.58 2.52905e-05 5.87688e-15)
(978.58 2.61114e-05 4.41386e-15)
(978.58 2.69767e-05 5.6787e-15)
(978.58 2.78905e-05 4.99556e-15)
(978.58 2.88545e-05 4.56605e-15)
(978.58 2.9869e-05 4.31731e-15)
(978.58 3.09346e-05 3.57147e-15)
(978.58 3.20531e-05 4.9881e-15)
(978.58 3.32295e-05 6.77569e-15)
(978.58 3.44701e-05 6.50296e-15)
(978.58 3.5782e-05 5.63931e-15)
(978.58 3.71696e-05 5.9047e-15)
(978.58 3.86335e-05 4.94704e-15)
(978.58 4.01701e-05 3.33091e-15)
(978.58 4.17725e-05 5.46883e-15)
(978.58 4.34334e-05 5.29595e-15)
(978.58 4.51484e-05 4.44549e-15)
(978.58 4.69194e-05 4.86148e-15)
(978.58 4.87571e-05 5.1391e-15)
(978.58 5.06793e-05 4.97915e-15)
(978.58 5.27067e-05 4.50029e-15)
(978.58 5.48518e-05 4.57479e-15)
(978.58 5.71113e-05 4.52477e-15)
(978.58 5.94572e-05 3.95489e-15)
(978.58 6.18401e-05 4.60934e-15)
(978.58 6.4202e-05 4.3863e-15)
(978.58 6.64963e-05 3.64314e-15)
(978.58 6.87178e-05 4.01455e-15)
(978.58 7.0898e-05 6.46216e-15)
(978.58 7.31184e-05 6.57846e-15)
(978.58 7.55152e-05 6.95591e-15)
(978.58 7.80057e-05 6.72311e-15)
(978.58 8.10297e-05 5.65557e-15)
(978.58 8.51492e-05 4.28642e-15)
(978.58 8.2279e-05 3.96695e-15)
(973.382 5.35201 2.09415e-14)
(972.602 6.16759 2.24781e-14)
(971.704 7.11226 2.14466e-14)
(970.676 8.20006 2.1784e-14)
(969.494 9.45436 2.3014e-14)
(968.129 10.8988 2.11667e-14)
(966.556 12.5532 2.08113e-14)
(964.759 14.4316 2.13603e-14)
(962.735 16.5419 2.14256e-14)
(960.49 18.8938 2.1147e-14)
(958.039 21.4908 2.23425e-14)
(955.365 24.3685 2.32137e-14)
(952.446 27.5302 2.00618e-14)
(949.205 31.0334 2.08009e-14)
(945.471 35.0382 2.31236e-14)
(941.104 39.6978 2.2199e-14)
(800.431 298.828 5.93505e-15)
(801.111 298.235 5.63849e-15)
(801.801 297.785 5.16185e-15)
(802.516 297.537 5.53786e-15)
(803.272 297.523 5.75134e-15)
(804.088 297.727 4.74723e-15)
(804.986 298.106 5.45457e-15)
(805.961 298.602 8.47073e-15)
(807.017 299.141 7.24707e-15)
(808.165 299.676 8.2129e-15)
(809.408 300.21 9.05614e-15)
(810.747 300.707 7.90697e-15)
(812.17 301.027 9.67599e-15)
(813.653 301.052 7.57187e-15)
(815.206 300.773 6.43681e-15)
(816.799 300.234 5.83942e-15)
(818.403 299.439 5.77536e-15)
(820.075 298.238 6.42298e-15)
(822.039 296.358 6.19982e-15)
(824.64 293.596 4.53812e-15)
(827.946 289.922 6.29873e-15)
(831.863 285.472 5.6683e-15)
(836.306 280.396 5.38897e-15)
(841.268 274.716 6.18272e-15)
(846.801 268.3 6.41499e-15)
(852.973 260.915 7.10728e-15)
(859.807 252.31 7.48632e-15)
(867.346 242.178 8.95036e-15)
(875.644 229.948 8.36692e-15)
(884.327 215.714 9.62922e-15)
(893.167 199.929 9.70002e-15)
(902.125 182.986 1.08916e-14)
(911.167 165.138 1.05735e-14)
(920.135 146.65 1.16725e-14)
(928.626 128.111 1.10829e-14)
(936.04 110.306 1.4173e-14)
(941.852 94.2703 9.60045e-15)
(946.18 81.5417 1.16832e-14)
(950.186 71.1456 1.28114e-14)
(954.158 61.924 1.23362e-14)
(957.985 53.2798 1.28234e-14)
(961.582 44.9315 1.48944e-14)
(964.902 36.9047 1.1122e-14)
(967.687 29.7628 1.35631e-14)
(969.761 24.1232 1.23261e-14)
(971.373 19.8551 1.27013e-14)
(972.749 16.4429 1.40119e-14)
(973.92 13.5666 1.40579e-14)
(974.836 11.1455 1.31059e-14)
(975.482 9.17006 1.11246e-14)
(975.933 7.56918 1.10088e-14)
(976.309 6.24453 1.22963e-14)
(976.673 5.13702 1.1628e-14)
(977.017 4.20792 1.0787e-14)
(977.32 3.41304 1.27767e-14)
(977.585 2.7153 1.45867e-14)
(977.814 2.11035 1.16436e-14)
(978.003 1.61905 1.20052e-14)
(978.15 1.24726 1.43319e-14)
(978.259 0.971037 1.29116e-14)
(978.338 0.761761 1.27758e-14)
(978.392 0.601597 1.19327e-14)
(978.426 0.478931 1.27484e-14)
(978.451 0.382691 1.26976e-14)
(978.474 0.304507 9.8513e-15)
(978.495 0.240614 1.05798e-14)
(978.513 0.188182 1.36693e-14)
(978.529 0.144172 1.12923e-14)
(978.542 0.107297 1.19537e-14)
(978.554 0.078214 1.39465e-14)
(978.562 0.0571034 1.12094e-14)
(978.568 0.0423563 1.09599e-14)
(978.571 0.0319365 1.30562e-14)
(978.573 0.0244311 1.23348e-14)
(978.574 0.0188634 1.09901e-14)
(978.575 0.0145299 1.04258e-14)
(978.576 0.0110946 1.3348e-14)
(978.577 0.00835242 1.16111e-14)
(978.578 0.00611351 1.06705e-14)
(978.579 0.0043292 9.62936e-15)
(978.579 0.00303536 1.08737e-14)
(978.579 0.00217875 1.15655e-14)
(978.58 0.00161721 1.26004e-14)
(978.58 0.00123282 1.10941e-14)
(978.58 0.000954482 1.14831e-14)
(978.58 0.0007408 1.13779e-14)
(978.58 0.000572874 1.0396e-14)
(978.58 0.000438616 9.68621e-15)
(978.58 0.000329111 9.68939e-15)
(978.58 0.000242972 1.04847e-14)
(978.58 0.000180885 1.25881e-14)
(978.58 0.000139264 1.06825e-14)
(978.58 0.000111366 9.13871e-15)
(978.58 9.18539e-05 1.06054e-14)
(978.58 7.75993e-05 7.98684e-15)
(978.58 6.66375e-05 9.28012e-15)
(978.58 5.77652e-05 8.09684e-15)
(978.58 5.03173e-05 1.07711e-14)
(978.58 4.39077e-05 9.7909e-15)
(978.58 3.84275e-05 9.26226e-15)
(978.58 3.39329e-05 9.93921e-15)
(978.58 3.04592e-05 1.02014e-14)
(978.58 2.80229e-05 9.66961e-15)
(978.58 2.65944e-05 1.19465e-14)
(978.58 2.59745e-05 1.18107e-14)
(978.58 2.58723e-05 8.68529e-15)
(978.58 2.6136e-05 8.94413e-15)
(978.58 2.66474e-05 1.16227e-14)
(978.58 2.72374e-05 1.0509e-14)
(978.58 2.77395e-05 1.18619e-14)
(978.58 2.82205e-05 1.20104e-14)
(978.58 2.86719e-05 1.06744e-14)
(978.58 2.91006e-05 9.15056e-15)
(978.58 2.95305e-05 9.95507e-15)
(978.58 2.99845e-05 9.8633e-15)
(978.58 3.0484e-05 9.68938e-15)
(978.58 3.10415e-05 1.04499e-14)
(978.58 3.16603e-05 1.06002e-14)
(978.58 3.23367e-05 9.66686e-15)
(978.58 3.30628e-05 1.08563e-14)
(978.58 3.3829e-05 1.0483e-14)
(978.58 3.46274e-05 9.69863e-15)
(978.58 3.54539e-05 1.05156e-14)
(978.58 3.63091e-05 1.04767e-14)
(978.58 3.71973e-05 9.72547e-15)
(978.58 3.81242e-05 8.70837e-15)
(978.58 3.90939e-05 8.27277e-15)
(978.58 4.01087e-05 9.01537e-15)
(978.58 4.1169e-05 6.47565e-15)
(978.58 4.22751e-05 7.82071e-15)
(978.58 4.34288e-05 8.35312e-15)
(978.58 4.4634e-05 7.99816e-15)
(978.58 4.5897e-05 1.03531e-14)
(978.58 4.72236e-05 9.1271e-15)
(978.58 4.86167e-05 8.59661e-15)
(978.58 5.00746e-05 8.4139e-15)
(978.58 5.15924e-05 8.69221e-15)
(978.58 5.31662e-05 8.87243e-15)
(978.58 5.47974e-05 1.04159e-14)
(978.58 5.64944e-05 8.97926e-15)
(978.58 5.82708e-05 8.80325e-15)
(978.58 6.01414e-05 9.19601e-15)
(978.58 6.21182e-05 9.20718e-15)
(978.58 6.42093e-05 8.96831e-15)
(978.58 6.64195e-05 8.04929e-15)
(978.58 6.87528e-05 8.00394e-15)
(978.58 7.12126e-05 8.74327e-15)
(978.58 7.38021e-05 1.02439e-14)
(978.58 7.65229e-05 8.85827e-15)
(978.58 7.93746e-05 7.86198e-15)
(978.58 8.23564e-05 8.82449e-15)
(978.58 8.54684e-05 8.28863e-15)
(978.58 8.87156e-05 8.74858e-15)
(978.58 9.21087e-05 7.04205e-15)
(978.58 9.5664e-05 6.81383e-15)
(978.58 9.9398e-05 9.04563e-15)
(978.58 0.000103322 8.8679e-15)
(978.58 0.000107437 9.04739e-15)
(978.58 0.000111734 7.61129e-15)
(978.58 0.000116193 7.6423e-15)
(978.58 0.000120796 7.40001e-15)
(978.58 0.000125533 6.06847e-15)
(978.58 0.0001304 6.40666e-15)
(978.58 0.000135408 7.24226e-15)
(978.58 0.000140571 8.0795e-15)
(978.58 0.000145904 8.16625e-15)
(978.58 0.000151413 7.39806e-15)
(978.58 0.000157092 8.00133e-15)
(978.58 0.000162926 1.0152e-14)
(978.58 0.000168898 7.56779e-15)
(978.58 0.000175002 7.52924e-15)
(978.58 0.000181251 8.59294e-15)
(978.58 0.000187678 8.95432e-15)
(978.58 0.000194337 7.45279e-15)
(978.58 0.000201289 7.23819e-15)
(978.58 0.000208587 6.95968e-15)
(978.58 0.000216252 8.13779e-15)
(978.58 0.000224265 7.36098e-15)
(978.58 0.000232562 6.43677e-15)
(978.58 0.000241071 5.99105e-15)
(978.58 0.00024974 7.13271e-15)
(978.58 0.0002586 6.62866e-15)
(978.58 0.000267785 7.60342e-15)
(978.58 0.000277546 7.53091e-15)
(978.58 0.000288183 7.20635e-15)
(978.58 0.00029995 8.20932e-15)
(978.58 0.000312922 6.95679e-15)
(978.58 0.000326921 6.74388e-15)
(978.58 0.000341779 8.7624e-15)
(978.58 0.000356626 7.07249e-15)
(978.58 0.00037142 6.88161e-15)
(978.58 0.000393323 7.70054e-15)
(978.58 0.000384834 7.12797e-15)
(961.497 17.411 2.99836e-14)
(958.975 19.9934 2.88608e-14)
(956.19 22.8684 2.91661e-14)
(953.119 26.0737 3.19415e-14)
(949.745 29.6066 3.00124e-14)
(945.963 33.5619 2.71158e-14)
(941.609 38.1003 2.89647e-14)
(936.562 43.3608 2.88168e-14)
(930.782 49.427 2.80539e-14)
(924.322 56.2992 3.05807e-14)
(917.25 63.9395 3.26378e-14)
(909.739 72.17 2.98735e-14)
(901.649 81.0815 2.84587e-14)
(892.854 90.7098 2.7081e-14)
(883.122 101.17 2.78749e-14)
(872.389 112.599 2.69653e-14)
(801.95 314.343 3.208e-15)
(803.056 314.201 2.37899e-15)
(804.121 314.071 2.46119e-15)
(805.12 313.992 2.87845e-15)
(806.052 313.984 4.22639e-15)
(806.936 314.045 4.22007e-15)
(807.792 314.164 2.4954e-15)
(808.652 314.32 2.94147e-15)
(809.545 314.479 4.40768e-15)
(810.491 314.618 4.05078e-15)
(811.489 314.728 2.93278e-15)
(812.534 314.777 4.41596e-15)
(813.621 314.708 3.96662e-15)
(814.75 314.476 5.61654e-15)
(815.913 314.071 7.76944e-15)
(817.097 313.484 8.15512e-15)
(818.312 312.709 7.43159e-15)
(819.497 311.879 6.68627e-15)
(820.592 311.364 6.03097e-15)
(821.725 311.514 8.33968e-15)
(822.926 312.207 9.88472e-15)
(824.112 313.198 1.06868e-14)
(825.249 314.273 9.11888e-15)
(826.348 315.268 9.26111e-15)
(827.457 316.028 7.18666e-15)
(828.681 316.371 8.80472e-15)
(830.188 316.096 9.05161e-15)
(832.236 315.003 1.04373e-14)
(834.949 312.869 1.29974e-14)
(838.274 309.574 1.11826e-14)
(842.165 305.105 1.0256e-14)
(846.643 299.47 1.27498e-14)
(851.734 292.663 1.13052e-14)
(857.4 284.622 1.29376e-14)
(863.591 275.128 1.3231e-14)
(870.347 263.75 1.42393e-14)
(877.828 250.034 1.40856e-14)
(886.235 233.434 1.51275e-14)
(895.25 214.321 1.39741e-14)
(904.635 193.535 1.20779e-14)
(914.219 171.778 1.56009e-14)
(923.63 149.737 1.43038e-14)
(932.241 128.313 1.50897e-14)
(939.431 108.381 1.66091e-14)
(944.861 91.356 1.70395e-14)
(949.189 78.1374 1.63358e-14)
(953.364 67.1779 1.67212e-14)
(957.422 57.2959 1.61694e-14)
(961.252 47.9163 1.77998e-14)
(964.787 38.9663 1.44237e-14)
(967.782 30.9968 1.5027e-14)
(970.013 24.707 1.83919e-14)
(971.705 20.0209 1.74131e-14)
(973.115 16.3448 1.6361e-14)
(974.272 13.3152 1.72595e-14)
(975.13 10.8292 1.74908e-14)
(975.708 8.83282 1.58099e-14)
(976.127 7.2147 1.60488e-14)
(976.505 5.87777 1.7734e-14)
(976.873 4.77152 1.73063e-14)
(977.208 3.84476 1.74291e-14)
(977.502 3.04423 1.64543e-14)
(977.758 2.34781 1.4848e-14)
(977.972 1.77342 1.64243e-14)
(978.137 1.3385 1.32788e-14)
(978.258 1.02372 1.45452e-14)
(978.341 0.792613 1.83167e-14)
(978.396 0.619295 1.67726e-14)
(978.429 0.488042 1.62432e-14)
(978.454 0.385915 1.70557e-14)
(978.476 0.303683 1.61345e-14)
(978.498 0.237113 1.57479e-14)
(978.516 0.182659 1.61344e-14)
(978.532 0.137099 1.59068e-14)
(978.546 0.0997654 1.64258e-14)
(978.557 0.0715814 1.49412e-14)
(978.564 0.0520192 1.61697e-14)
(978.569 0.0387069 1.52871e-14)
(978.572 0.0293886 1.60868e-14)
(978.573 0.0226199 1.5524e-14)
(978.574 0.0174545 1.7519e-14)
(978.575 0.013387 1.51149e-14)
(978.576 0.0101756 1.53891e-14)
(978.577 0.00759002 1.44554e-14)
(978.578 0.00551639 1.64672e-14)
(978.579 0.00396487 1.56518e-14)
(978.579 0.0029034 1.4432e-14)
(978.579 0.00219706 1.38446e-14)
(978.579 0.00170884 1.28444e-14)
(978.58 0.00135446 1.54632e-14)
(978.58 0.00108484 1.70269e-14)
(978.58 0.000872047 1.47585e-14)
(978.58 0.000700757 1.41854e-14)
(978.58 0.000559631 1.52861e-14)
(978.58 0.000442558 1.33699e-14)
(978.58 0.000348677 1.25561e-14)
(978.58 0.000277721 1.23105e-14)
(978.58 0.000227111 1.27609e-14)
(978.58 0.00019197 1.38706e-14)
(978.58 0.00016745 1.20801e-14)
(978.58 0.000150277 1.44727e-14)
(978.58 0.000138254 1.32661e-14)
(978.58 0.000129539 1.40975e-14)
(978.58 0.000122673 1.54174e-14)
(978.58 0.000116857 1.41663e-14)
(978.58 0.000111916 1.29398e-14)
(978.58 0.00010797 1.47803e-14)
(978.58 0.000104614 1.40286e-14)
(978.58 0.000101769 1.32218e-14)
(978.58 9.99361e-05 1.21135e-14)
(978.58 9.92668e-05 1.43345e-14)
(978.58 9.97534e-05 1.52322e-14)
(978.58 0.000101131 1.26291e-14)
(978.58 0.000103149 1.2854e-14)
(978.58 0.000105574 1.28129e-14)
(978.58 0.000108218 1.14221e-14)
(978.58 0.000110955 1.30467e-14)
(978.58 0.000113711 1.30245e-14)
(978.58 0.000116458 1.47142e-14)
(978.58 0.000119207 1.67161e-14)
(978.58 0.000121993 1.35411e-14)
(978.58 0.000124859 1.24411e-14)
(978.58 0.000127847 1.40369e-14)
(978.58 0.000130982 1.3766e-14)
(978.58 0.000134278 1.40204e-14)
(978.58 0.000137738 1.38083e-14)
(978.58 0.000141369 1.16749e-14)
(978.58 0.000145185 1.28381e-14)
(978.58 0.000149207 1.41495e-14)
(978.58 0.000153461 1.26113e-14)
(978.58 0.000157973 1.24305e-14)
(978.58 0.000162757 1.15307e-14)
(978.58 0.000167818 1.15413e-14)
(978.58 0.000173155 1.15581e-14)
(978.58 0.000178773 1.18161e-14)
(978.58 0.000184701 1.19147e-14)
(978.58 0.000190988 1.31482e-14)
(978.58 0.000197688 1.29188e-14)
(978.58 0.000204837 1.14141e-14)
(978.58 0.00021244 1.13068e-14)
(978.58 0.000220474 1.02047e-14)
(978.58 0.000228901 1.21292e-14)
(978.58 0.000237688 1.21113e-14)
(978.58 0.000246818 1.24343e-14)
(978.58 0.000256282 1.11214e-14)
(978.58 0.000266082 1.41566e-14)
(978.58 0.000276219 1.24266e-14)
(978.58 0.000286691 1.3266e-14)
(978.58 0.000297499 1.25332e-14)
(978.58 0.000308648 1.22961e-14)
(978.58 0.000320153 1.26325e-14)
(978.58 0.000332033 1.04605e-14)
(978.58 0.000344309 1.08784e-14)
(978.58 0.00035699 1.013e-14)
(978.58 0.000370065 1.05741e-14)
(978.58 0.000383508 1.03807e-14)
(978.58 0.000397305 1.17569e-14)
(978.58 0.000411471 1.22638e-14)
(978.58 0.000426076 1.17563e-14)
(978.58 0.000441244 1.0897e-14)
(978.58 0.000457128 1.23061e-14)
(978.58 0.00047388 1.13424e-14)
(978.58 0.000491618 1.11765e-14)
(978.58 0.00051041 1.00406e-14)
(978.58 0.000530279 1.09715e-14)
(978.58 0.000551226 1.15408e-14)
(978.58 0.000573269 1.01171e-14)
(978.58 0.000596464 9.84125e-15)
(978.58 0.00062092 1.07053e-14)
(978.58 0.000646775 9.66478e-15)
(978.58 0.000674168 1.28832e-14)
(978.58 0.000703199 1.06902e-14)
(978.58 0.000733896 1.1687e-14)
(978.579 0.000766192 1.19423e-14)
(978.579 0.000799943 1.15133e-14)
(978.579 0.000834972 1.01917e-14)
(978.579 0.000871167 1.22597e-14)
(978.579 0.000908551 1.03852e-14)
(978.579 0.000947366 9.97883e-15)
(978.579 0.000988004 9.62357e-15)
(978.579 0.00103098 1.058e-14)
(978.579 0.00107663 9.11534e-15)
(978.579 0.00112501 9.18976e-15)
(978.579 0.00117563 9.79132e-15)
(978.579 0.00122755 9.73226e-15)
(978.579 0.00127964 9.51527e-15)
(978.579 0.00133094 8.87622e-15)
(978.579 0.00138125 8.52022e-15)
(978.579 0.00143116 1.06606e-14)
(978.579 0.00148365 1.05118e-14)
(978.579 0.00153311 1.09273e-14)
(978.579 0.0016259 1.04641e-14)
(978.579 0.00159832 9.34574e-15)
(928.892 50.5283 3.62897e-14)
(922.043 57.6856 3.80547e-14)
(914.504 65.6748 4.11022e-14)
(906.441 74.327 4.07191e-14)
(897.64 83.808 3.78079e-14)
(888.042 94.0704 3.73883e-14)
(877.436 105.245 3.81309e-14)
(865.807 117.427 3.72413e-14)
(853.311 130.567 3.68214e-14)
(840.158 144.54 3.94111e-14)
(826.566 159.18 3.73048e-14)
(812.783 174.256 3.45665e-14)
(799.052 189.51 3.4077e-14)
(785.73 204.605 3.14422e-14)
(773.196 219.108 3.17966e-14)
(801.638 317.762 4.19068e-15)
(802.703 317.947 3.29191e-15)
(803.796 318.137 3.17024e-15)
(804.892 318.358 2.49239e-15)
(805.974 318.631 5.32458e-15)
(807.026 318.959 3.0508e-15)
(808.04 319.337 4.86538e-15)
(809.029 319.749 5.52545e-15)
(810.006 320.183 5.87535e-15)
(810.988 320.629 5.68468e-15)
(811.987 321.074 5.15958e-15)
(813.016 321.488 5.92721e-15)
(814.091 321.838 5.30304e-15)
(815.232 322.102 7.11423e-15)
(816.469 322.263 1.85901e-15)
(817.88 322.314 7.0791e-15)
(819.432 322.365 6.19799e-15)
(821.029 322.692 4.79682e-15)
(822.746 323.414 7.05809e-15)
(824.197 324.057 5.13612e-15)
(825.352 324.581 4.20345e-15)
(826.371 325.059 5.78899e-15)
(827.355 325.521 6.18503e-15)
(828.324 325.893 6.66457e-15)
(829.305 326.086 6.94852e-15)
(830.315 326.096 7.54968e-15)
(831.328 326.026 7.72391e-15)
(832.393 326.099 8.34547e-15)
(833.564 326.404 9.11459e-15)
(834.766 326.893 9.38043e-15)
(835.88 327.478 1.02224e-14)
(836.835 328.047 1.13203e-14)
(837.668 328.422 1.12461e-14)
(838.573 328.21 1.33902e-14)
(839.863 326.984 1.29866e-14)
(841.687 324.831 1.60881e-14)
(844.045 321.863 1.51319e-14)
(846.93 317.939 1.64647e-14)
(850.329 312.9 1.49093e-14)
(854.227 306.712 1.43015e-14)
(858.612 299.321 1.38553e-14)
(863.524 290.445 1.58052e-14)
(869.124 279.51 1.52088e-14)
(875.654 265.889 1.55638e-14)
(883.419 249.094 1.55411e-14)
(892.483 228.93 1.70105e-14)
(902.352 206.299 1.77177e-14)
(912.557 182.307 1.90677e-14)
(922.566 157.939 2.0228e-14)
(931.689 134.299 1.99023e-14)
(939.306 112.411 2.1594e-14)
(945.183 93.4971 2.17994e-14)
(949.752 78.9599 2.2368e-14)
(954.078 67.1802 2.04194e-14)
(958.25 56.6559 2.06877e-14)
(962.186 46.6788 2.21781e-14)
(965.791 37.2848 2.20975e-14)
(968.751 29.1955 2.31838e-14)
(970.905 23.0398 2.01407e-14)
(972.54 18.4986 1.82399e-14)
(973.868 14.9272 2.21744e-14)
(974.881 12.0249 2.36015e-14)
(975.572 9.69563 1.90341e-14)
(976.04 7.83128 2.04389e-14)
(976.432 6.31001 2.10245e-14)
(976.81 5.06836 2.06071e-14)
(977.161 4.04722 2.12962e-14)
(977.471 3.17847 2.14148e-14)
(977.742 2.42807 2.06717e-14)
(977.97 1.8108 2.14048e-14)
(978.145 1.34729 2.02944e-14)
(978.268 1.01847 2.11577e-14)
(978.35 0.782226 1.98603e-14)
(978.402 0.607448 2.32402e-14)