/*--------------------------------*- C++ -*----------------------------------*\
| =========                 |                                                 |
| \\      /  F ield         | OpenFOAM: The Open Source CFD Toolbox           |
|  \\    /   O peration     | Version:  v1706                                 |
|   \\  /    A nd           | Web:      www.OpenFOAM.com                      |
|    \\/     M anipulation  |                                                 |
\*---------------------------------------------------------------------------*/
FoamFile
{
    version     2.0;
    format      ascii;
    class       volVectorField;
    location    "1.2e-05";
    object      U;
}
// * * * * * * * * * * * * * * * * * * * * * * * * * * * * * * * * * * * * * //

dimensions      [0 1 -1 0 0 0 0];


internalField   nonuniform List<vector> 
29987
(
(2764.5 -2.08805e-08 4.07919e-11)
(2764.5 -6.56077e-09 1.19716e-11)
(2764.5 -3.15977e-09 5.80756e-12)
(2764.5 -1.95713e-09 3.47794e-12)
(2764.5 -1.33713e-09 2.31983e-12)
(2764.5 -9.66982e-10 1.69635e-12)
(2764.5 -7.30557e-10 1.27479e-12)
(2764.5 -5.72206e-10 9.99625e-13)
(2764.5 -4.62256e-10 8.07228e-13)
(2764.5 -3.79342e-10 6.86194e-13)
(2764.5 -3.20865e-10 5.22572e-13)
(2764.5 -2.7415e-10 4.53534e-13)
(2764.5 -2.36016e-10 4.2494e-13)
(2764.5 -2.05324e-10 3.50439e-13)
(2764.5 -1.81586e-10 3.10611e-13)
(2764.5 -1.65552e-10 2.61535e-13)
(2764.5 -1.46863e-10 2.24707e-13)
(2764.5 -1.35086e-10 1.94103e-13)
(2764.5 -1.21473e-10 1.85379e-13)
(2764.5 -1.11732e-10 1.72975e-13)
(2764.5 -9.95163e-11 1.65466e-13)
(2764.5 -9.69458e-11 1.39907e-13)
(2764.5 -8.68158e-11 1.32744e-13)
(2764.5 -8.09303e-11 1.14326e-13)
(2764.5 -7.52746e-11 1.18283e-13)
(2764.5 -7.24951e-11 1.12568e-13)
(2764.5 -6.82989e-11 9.08238e-14)
(2764.5 -6.64034e-11 7.62566e-14)
(2764.5 -5.93515e-11 8.94002e-14)
(2764.5 -5.86076e-11 8.07098e-14)
(2764.5 -5.37294e-11 8.26458e-14)
(2764.5 -5.24422e-11 7.14951e-14)
(2764.5 -4.97521e-11 6.7956e-14)
(2764.5 -5.03636e-11 6.37921e-14)
(2764.5 -4.55812e-11 6.40039e-14)
(2764.5 -4.7134e-11 5.63827e-14)
(2764.5 -4.25157e-11 5.38879e-14)
(2764.5 -3.91146e-11 4.30676e-14)
(2764.5 -4.10305e-11 4.25e-14)
(2764.5 -4.12766e-11 4.6279e-14)
(2764.5 -3.95565e-11 3.94292e-14)
(2764.5 -3.50844e-11 4.01078e-14)
(2764.5 -3.82907e-11 4.38854e-14)
(2764.5 -3.39515e-11 3.97369e-14)
(2764.5 -3.42824e-11 3.88371e-14)
(2764.5 -3.22676e-11 3.22273e-14)
(2764.5 -3.39529e-11 4.2095e-14)
(2764.5 -3.15855e-11 3.30912e-14)
(2764.5 -3.07593e-11 3.03335e-14)
(2764.5 -3.12425e-11 3.28658e-14)
(2764.5 -2.89842e-11 3.07182e-14)
(2764.5 -2.91958e-11 3.05375e-14)
(2764.5 -2.98485e-11 2.9219e-14)
(2764.5 -2.92549e-11 2.74724e-14)
(2764.5 -3.01341e-11 2.87244e-14)
(2764.5 -2.80098e-11 2.10099e-14)
(2764.5 -2.96334e-11 2.05319e-14)
(2764.5 -2.78731e-11 2.10043e-14)
(2764.5 -2.95954e-11 1.97616e-14)
(2764.5 -3.05335e-11 2.41438e-14)
(2764.5 -2.73145e-11 2.50203e-14)
(2764.5 -2.39998e-11 1.41612e-14)
(2764.5 -2.65917e-11 1.80779e-14)
(2764.5 -2.53253e-11 2.13342e-14)
(2764.5 -2.57903e-11 1.66275e-14)
(2764.5 -2.7341e-11 1.40502e-14)
(2764.5 -2.68173e-11 1.4397e-14)
(2764.5 -2.52693e-11 1.79154e-14)
(2764.5 -2.4492e-11 1.8412e-14)
(2764.5 -2.3152e-11 1.59884e-14)
(2764.5 -2.53772e-11 1.46307e-14)
(2764.5 -2.428e-11 1.58984e-14)
(2764.5 -2.53412e-11 1.32614e-14)
(2764.5 -2.31401e-11 1.40879e-14)
(2764.5 -2.42637e-11 1.83436e-14)
(2764.5 -2.5452e-11 1.576e-14)
(2764.5 -2.53453e-11 1.44821e-14)
(2764.5 -2.44835e-11 1.62074e-14)
(2764.5 -2.51196e-11 1.07386e-14)
(2764.5 -2.4394e-11 7.55192e-15)
(2764.5 -2.42738e-11 1.2218e-14)
(2764.5 -2.435e-11 1.11573e-14)
(2764.5 -2.31797e-11 7.62175e-15)
(2764.5 -2.3285e-11 1.08665e-14)
(2764.5 -2.43406e-11 1.1964e-14)
(2764.5 -2.39506e-11 1.02756e-14)
(2764.5 -2.48758e-11 9.06355e-15)
(2764.5 -2.5749e-11 9.23259e-15)
(2764.5 -2.33923e-11 1.31232e-14)
(2764.5 -2.45407e-11 9.1574e-15)
(2764.5 -2.52291e-11 6.34868e-15)
(2764.5 -2.4145e-11 6.3616e-15)
(2764.5 -2.15367e-11 9.9234e-15)
(2764.5 -2.3267e-11 1.25611e-14)
(2764.5 -2.36974e-11 1.21078e-14)
(2764.5 -2.32155e-11 1.15591e-14)
(2764.5 -2.29365e-11 8.52926e-15)
(2764.5 -2.20573e-11 1.06742e-14)
(2764.5 -2.3218e-11 1.05745e-14)
(2764.5 -2.25227e-11 7.80955e-15)
(2764.5 -2.44588e-11 6.93237e-15)
(2764.5 -2.53784e-11 1.24945e-14)
(2764.5 -2.48779e-11 1.25917e-14)
(2764.5 -2.44244e-11 1.00251e-14)
(2764.5 -2.26493e-11 1.04316e-14)
(2764.5 -2.39427e-11 9.22239e-15)
(2764.5 -2.5699e-11 7.1581e-15)
(2764.5 -2.79543e-11 7.14934e-15)
(2764.5 -2.6367e-11 9.17395e-15)
(2764.5 -2.5006e-11 6.40864e-15)
(2764.5 -2.52668e-11 7.18543e-15)
(2764.5 -2.56879e-11 6.94441e-15)
(2764.5 -2.53978e-11 9.39656e-15)
(2764.5 -2.492e-11 8.85189e-15)
(2764.5 -2.65254e-11 9.88694e-15)
(2764.5 -2.59306e-11 6.77351e-15)
(2764.5 -2.67767e-11 7.69099e-15)
(2764.5 -2.69066e-11 1.10409e-14)
(2764.5 -2.68537e-11 8.89872e-15)
(2764.5 -2.81387e-11 5.72705e-15)
(2764.5 -2.99014e-11 8.32124e-15)
(2764.5 -2.9486e-11 9.6242e-15)
(2764.5 -3.11037e-11 7.41276e-15)
(2764.5 -3.32721e-11 8.44322e-15)
(2764.5 -3.2923e-11 9.17822e-15)
(2764.5 -3.25212e-11 8.33447e-15)
(2764.5 -3.02918e-11 8.95647e-15)
(2764.5 -3.07049e-11 7.47424e-15)
(2764.5 -3.20654e-11 9.06316e-15)
(2764.5 -3.43581e-11 6.49511e-15)
(2764.5 -3.22826e-11 1.23545e-14)
(2764.5 -3.25182e-11 1.13197e-14)
(2764.5 -3.24877e-11 7.30898e-15)
(2764.5 -3.21608e-11 4.89686e-15)
(2764.5 -3.15391e-11 6.21834e-15)
(2764.5 -2.96282e-11 4.15518e-15)
(2764.5 -2.82555e-11 8.97544e-15)
(2764.5 -2.86081e-11 7.66023e-15)
(2764.5 -2.97206e-11 5.28094e-15)
(2764.5 -2.91173e-11 7.95236e-15)
(2764.5 -2.90615e-11 3.99966e-15)
(2764.5 -3.13036e-11 1.88575e-15)
(2764.5 -3.87074e-11 8.90343e-15)
(2764.5 -3.6765e-11 4.00177e-15)
(2764.5 -3.66912e-11 7.42204e-15)
(2764.5 -3.6626e-11 7.05093e-15)
(2764.5 -3.20415e-11 9.77981e-15)
(2764.5 -3.12867e-11 9.94726e-15)
(2764.5 -3.50204e-11 5.26714e-15)
(2764.5 -3.61934e-11 5.66982e-15)
(2764.5 -3.90594e-11 3.32826e-15)
(2764.5 -4.02232e-11 5.13777e-15)
(2764.5 -4.0995e-11 2.20479e-15)
(2764.5 -3.98669e-11 1.07799e-14)
(2764.5 -3.82887e-11 4.33244e-15)
(2764.5 -4.11556e-11 1.09988e-14)
(2764.5 -6.6963e-08 1.17856e-10)
(2764.5 -2.47887e-08 4.14594e-11)
(2764.5 -1.13546e-08 1.87955e-11)
(2764.5 -6.60792e-09 1.10973e-11)
(2764.5 -4.39225e-09 7.40735e-12)
(2764.5 -3.14264e-09 5.31612e-12)
(2764.5 -2.36995e-09 3.96309e-12)
(2764.5 -1.8566e-09 3.07181e-12)
(2764.5 -1.4968e-09 2.49801e-12)
(2764.5 -1.23193e-09 2.03186e-12)
(2764.5 -1.02854e-09 1.62029e-12)
(2764.5 -8.7703e-10 1.4238e-12)
(2764.5 -7.55456e-10 1.19711e-12)
(2764.5 -6.61368e-10 1.04978e-12)
(2764.5 -5.86728e-10 8.91692e-13)
(2764.5 -5.24994e-10 8.26093e-13)
(2764.5 -4.67262e-10 7.10333e-13)
(2764.5 -4.31818e-10 6.32501e-13)
(2764.5 -3.85974e-10 5.84706e-13)
(2764.5 -3.56442e-10 5.25317e-13)
(2764.5 -3.25535e-10 4.86644e-13)
(2764.5 -3.07581e-10 4.15729e-13)
(2764.5 -2.81714e-10 3.96973e-13)
(2764.5 -2.58513e-10 3.53302e-13)
(2764.5 -2.38646e-10 3.46142e-13)
(2764.5 -2.23795e-10 3.30952e-13)
(2764.5 -2.13442e-10 2.92167e-13)
(2764.5 -2.07514e-10 2.67136e-13)
(2764.5 -1.94863e-10 2.71128e-13)
(2764.5 -1.89408e-10 2.47413e-13)
(2764.5 -1.74233e-10 2.14036e-13)
(2764.5 -1.62639e-10 2.19925e-13)
(2764.5 -1.5794e-10 1.87271e-13)
(2764.5 -1.57408e-10 1.74026e-13)
(2764.5 -1.4564e-10 1.7519e-13)
(2764.5 -1.48744e-10 1.74429e-13)
(2764.5 -1.39102e-10 1.56783e-13)
(2764.5 -1.24224e-10 1.52473e-13)
(2764.5 -1.23146e-10 1.38722e-13)
(2764.5 -1.24391e-10 1.28138e-13)
(2764.5 -1.26986e-10 1.15282e-13)
(2764.5 -1.15878e-10 1.18485e-13)
(2764.5 -1.13709e-10 1.28626e-13)
(2764.5 -1.12809e-10 1.15747e-13)
(2764.5 -1.08264e-10 8.99676e-14)
(2764.5 -1.04339e-10 1.0364e-13)
(2764.5 -1.02671e-10 1.11826e-13)
(2764.5 -9.90578e-11 9.32106e-14)
(2764.5 -9.51618e-11 8.88856e-14)
(2764.5 -1.01721e-10 9.5598e-14)
(2764.5 -9.66819e-11 9.63052e-14)
(2764.5 -9.39574e-11 8.38133e-14)
(2764.5 -8.83021e-11 8.14287e-14)
(2764.5 -9.03417e-11 6.46463e-14)
(2764.5 -9.03723e-11 6.94373e-14)
(2764.5 -8.08742e-11 6.05165e-14)
(2764.5 -8.45361e-11 6.36703e-14)
(2764.5 -8.11929e-11 6.29193e-14)
(2764.5 -8.48587e-11 6.92976e-14)
(2764.5 -8.75414e-11 7.1726e-14)
(2764.5 -8.87673e-11 6.35692e-14)
(2764.5 -8.18661e-11 4.55673e-14)
(2764.5 -7.96067e-11 6.18237e-14)
(2764.5 -8.12566e-11 5.92619e-14)
(2764.5 -7.74288e-11 5.33193e-14)
(2764.5 -7.83146e-11 5.26297e-14)
(2764.5 -7.80221e-11 4.37398e-14)
(2764.5 -7.81949e-11 5.25016e-14)
(2764.5 -8.01476e-11 5.36137e-14)
(2764.5 -7.63382e-11 4.78855e-14)
(2764.5 -7.70229e-11 4.79815e-14)
(2764.5 -7.15261e-11 4.86046e-14)
(2764.5 -7.76645e-11 4.30806e-14)
(2764.5 -7.46062e-11 4.64698e-14)
(2764.5 -7.12957e-11 4.89948e-14)
(2764.5 -7.30314e-11 5.06013e-14)
(2764.5 -7.15278e-11 4.441e-14)
(2764.5 -7.3888e-11 4.48103e-14)
(2764.5 -7.36809e-11 2.91751e-14)
(2764.5 -7.11177e-11 2.82531e-14)
(2764.5 -7.13517e-11 3.4241e-14)
(2764.5 -7.6025e-11 3.3402e-14)
(2764.5 -7.42621e-11 3.17778e-14)
(2764.5 -7.12763e-11 4.01592e-14)
(2764.5 -7.30576e-11 4.56145e-14)
(2764.5 -6.98368e-11 4.12691e-14)
(2764.5 -6.90405e-11 3.4035e-14)
(2764.5 -7.21837e-11 4.05524e-14)
(2764.5 -7.01505e-11 3.73317e-14)
(2764.5 -6.94213e-11 2.61915e-14)
(2764.5 -7.16016e-11 2.96394e-14)
(2764.5 -7.69846e-11 2.5533e-14)
(2764.5 -7.30313e-11 3.34304e-14)
(2764.5 -6.89056e-11 3.39992e-14)
(2764.5 -7.36828e-11 3.97074e-14)
(2764.5 -7.23231e-11 3.32027e-14)
(2764.5 -7.3244e-11 2.60331e-14)
(2764.5 -7.04911e-11 2.67416e-14)
(2764.5 -7.17604e-11 2.61965e-14)
(2764.5 -6.85656e-11 2.58171e-14)
(2764.5 -6.84471e-11 2.55342e-14)
(2764.5 -7.25377e-11 2.6651e-14)
(2764.5 -7.36275e-11 3.15499e-14)
(2764.5 -7.76138e-11 2.08756e-14)
(2764.5 -7.40918e-11 2.15877e-14)
(2764.5 -7.2605e-11 2.11086e-14)
(2764.5 -7.04096e-11 2.25999e-14)
(2764.5 -7.28765e-11 2.14608e-14)
(2764.5 -7.79468e-11 1.86682e-14)
(2764.5 -7.57915e-11 2.12802e-14)
(2764.5 -7.34548e-11 2.47572e-14)
(2764.5 -7.53391e-11 2.31701e-14)
(2764.5 -7.59701e-11 2.24948e-14)
(2764.5 -7.38168e-11 2.3455e-14)
(2764.5 -7.59479e-11 2.59904e-14)
(2764.5 -7.47819e-11 2.51976e-14)
(2764.5 -7.45859e-11 2.62799e-14)
(2764.5 -7.60407e-11 2.59366e-14)
(2764.5 -7.51625e-11 2.22302e-14)
(2764.5 -7.40978e-11 1.93829e-14)
(2764.5 -7.74728e-11 2.14407e-14)
(2764.5 -7.86867e-11 2.19462e-14)
(2764.5 -7.69699e-11 2.21723e-14)
(2764.5 -7.95915e-11 2.35333e-14)
(2764.5 -8.34319e-11 2.44564e-14)
(2764.5 -8.55751e-11 2.27199e-14)
(2764.5 -8.50716e-11 2.20741e-14)
(2764.5 -8.48406e-11 2.10466e-14)
(2764.5 -8.58351e-11 2.17935e-14)
(2764.5 -8.82144e-11 2.42208e-14)
(2764.5 -8.8093e-11 2.426e-14)
(2764.5 -8.76425e-11 1.8331e-14)
(2764.5 -8.82733e-11 1.84872e-14)
(2764.5 -8.74584e-11 2.02962e-14)
(2764.5 -9.18994e-11 1.96163e-14)
(2764.5 -9.2536e-11 1.86876e-14)
(2764.5 -9.20532e-11 2.39063e-14)
(2764.5 -9.03954e-11 1.5579e-14)
(2764.5 -8.96001e-11 1.71994e-14)
(2764.5 -9.5075e-11 2.07457e-14)
(2764.5 -8.86839e-11 1.826e-14)
(2764.5 -8.68339e-11 2.03791e-14)
(2764.5 -9.3309e-11 1.76952e-14)
(2764.5 -9.6687e-11 2.2379e-14)
(2764.5 -9.47157e-11 1.66812e-14)
(2764.5 -1.01554e-10 2.20521e-14)
(2764.5 -1.0605e-10 2.08061e-14)
(2764.5 -9.84757e-11 2.15007e-14)
(2764.5 -9.61384e-11 2.77768e-14)
(2764.5 -9.16212e-11 1.99061e-14)
(2764.5 -9.84847e-11 1.71198e-14)
(2764.5 -1.00973e-10 1.31038e-14)
(2764.5 -1.02389e-10 1.35888e-14)
(2764.5 -1.07699e-10 1.73591e-14)
(2764.5 -1.05515e-10 1.7927e-14)
(2764.5 -1.10888e-10 2.14074e-14)
(2764.5 -1.06287e-07 1.82006e-10)
(2764.5 -4.53362e-08 7.33449e-11)
(2764.5 -2.12479e-08 3.34506e-11)
(2764.5 -1.20369e-08 1.9208e-11)
(2764.5 -7.84466e-09 1.2529e-11)
(2764.5 -5.56273e-09 8.85191e-12)
(2764.5 -4.1783e-09 6.68239e-12)
(2764.5 -3.26713e-09 5.15492e-12)
(2764.5 -2.6243e-09 4.15852e-12)
(2764.5 -2.15723e-09 3.36052e-12)
(2764.5 -1.80085e-09 2.788e-12)
(2764.5 -1.53698e-09 2.40784e-12)
(2764.5 -1.32421e-09 2.02083e-12)
(2764.5 -1.15474e-09 1.74881e-12)
(2764.5 -1.02393e-09 1.54187e-12)
(2764.5 -9.14019e-10 1.36338e-12)
(2764.5 -8.15431e-10 1.17111e-12)
(2764.5 -7.44086e-10 1.07336e-12)
(2764.5 -6.77034e-10 9.62617e-13)
(2764.5 -6.17229e-10 8.94155e-13)
(2764.5 -5.62197e-10 8.03574e-13)
(2764.5 -5.31809e-10 6.86124e-13)
(2764.5 -4.90884e-10 6.66357e-13)
(2764.5 -4.54236e-10 6.02109e-13)
(2764.5 -4.19875e-10 5.9332e-13)
(2764.5 -3.90454e-10 5.44944e-13)
(2764.5 -3.63807e-10 5.225e-13)
(2764.5 -3.52132e-10 4.70428e-13)
(2764.5 -3.36538e-10 4.21313e-13)
(2764.5 -3.22178e-10 4.06957e-13)
(2764.5 -3.03959e-10 3.70758e-13)
(2764.5 -2.86197e-10 3.70103e-13)
(2764.5 -2.73255e-10 3.14984e-13)
(2764.5 -2.68888e-10 3.12012e-13)
(2764.5 -2.51616e-10 3.06444e-13)
(2764.5 -2.48117e-10 2.75349e-13)
(2764.5 -2.39846e-10 2.5644e-13)
(2764.5 -2.26239e-10 2.61547e-13)
(2764.5 -2.17417e-10 2.50242e-13)
(2764.5 -2.05478e-10 2.23334e-13)
(2764.5 -2.08843e-10 2.1358e-13)
(2764.5 -2.02944e-10 2.08249e-13)
(2764.5 -1.9218e-10 2.11856e-13)
(2764.5 -1.918e-10 1.96776e-13)
(2764.5 -1.8533e-10 1.65411e-13)
(2764.5 -1.77291e-10 1.75298e-13)
(2764.5 -1.72326e-10 1.76462e-13)
(2764.5 -1.63896e-10 1.69172e-13)
(2764.5 -1.61292e-10 1.62471e-13)
(2764.5 -1.64721e-10 1.75586e-13)
(2764.5 -1.68035e-10 1.56225e-13)
(2764.5 -1.59763e-10 1.44816e-13)
(2764.5 -1.51687e-10 1.36406e-13)
(2764.5 -1.54741e-10 1.28499e-13)
(2764.5 -1.51593e-10 1.21761e-13)
(2764.5 -1.43438e-10 1.20075e-13)
(2764.5 -1.44207e-10 1.12518e-13)
(2764.5 -1.36704e-10 1.07169e-13)
(2764.5 -1.38584e-10 1.18587e-13)
(2764.5 -1.43951e-10 1.12104e-13)
(2764.5 -1.44623e-10 1.06183e-13)
(2764.5 -1.39221e-10 1.0665e-13)
(2764.5 -1.3446e-10 1.02653e-13)
(2764.5 -1.33047e-10 8.36573e-14)
(2764.5 -1.31392e-10 9.31307e-14)
(2764.5 -1.28932e-10 8.95136e-14)
(2764.5 -1.31333e-10 7.90704e-14)
(2764.5 -1.29656e-10 9.28371e-14)
(2764.5 -1.29318e-10 8.27979e-14)
(2764.5 -1.28174e-10 7.78176e-14)
(2764.5 -1.29926e-10 7.65826e-14)
(2764.5 -1.2417e-10 7.88223e-14)
(2764.5 -1.27577e-10 7.32601e-14)
(2764.5 -1.26785e-10 7.60328e-14)
(2764.5 -1.23074e-10 8.16877e-14)
(2764.5 -1.22863e-10 8.04163e-14)
(2764.5 -1.17464e-10 6.78002e-14)
(2764.5 -1.18851e-10 6.87785e-14)
(2764.5 -1.24887e-10 6.85907e-14)
(2764.5 -1.22708e-10 6.50342e-14)
(2764.5 -1.15996e-10 6.26335e-14)
(2764.5 -1.18006e-10 5.87842e-14)
(2764.5 -1.23044e-10 5.54821e-14)
(2764.5 -1.20202e-10 5.60977e-14)
(2764.5 -1.22408e-10 5.72322e-14)
(2764.5 -1.19431e-10 5.52029e-14)
(2764.5 -1.21413e-10 6.11357e-14)
(2764.5 -1.2165e-10 6.73957e-14)
(2764.5 -1.19008e-10 5.89983e-14)
(2764.5 -1.17355e-10 5.56893e-14)
(2764.5 -1.1668e-10 5.08413e-14)
(2764.5 -1.19037e-10 5.13901e-14)
(2764.5 -1.22534e-10 5.88212e-14)
(2764.5 -1.17368e-10 6.35768e-14)
(2764.5 -1.18597e-10 6.69976e-14)
(2764.5 -1.23226e-10 4.71566e-14)
(2764.5 -1.2187e-10 4.04067e-14)
(2764.5 -1.18496e-10 4.43327e-14)
(2764.5 -1.18172e-10 4.80633e-14)
(2764.5 -1.18169e-10 4.79146e-14)
(2764.5 -1.16514e-10 4.17732e-14)
(2764.5 -1.17255e-10 4.7191e-14)
(2764.5 -1.18345e-10 4.86843e-14)
(2764.5 -1.22055e-10 4.14114e-14)
(2764.5 -1.22435e-10 4.90972e-14)
(2764.5 -1.21211e-10 4.42843e-14)
(2764.5 -1.20032e-10 3.9606e-14)
(2764.5 -1.20155e-10 3.5068e-14)
(2764.5 -1.26115e-10 3.78764e-14)
(2764.5 -1.28194e-10 4.19837e-14)
(2764.5 -1.25114e-10 3.59975e-14)
(2764.5 -1.24698e-10 3.50003e-14)
(2764.5 -1.26662e-10 3.52216e-14)
(2764.5 -1.25306e-10 3.8642e-14)
(2764.5 -1.28527e-10 3.78869e-14)
(2764.5 -1.29517e-10 4.45661e-14)
(2764.5 -1.27429e-10 4.77054e-14)
(2764.5 -1.28292e-10 4.79024e-14)
(2764.5 -1.27855e-10 3.99737e-14)
(2764.5 -1.24129e-10 3.81468e-14)
(2764.5 -1.2521e-10 3.93443e-14)
(2764.5 -1.28467e-10 3.85623e-14)
(2764.5 -1.29085e-10 3.63161e-14)
(2764.5 -1.28494e-10 3.29543e-14)
(2764.5 -1.30652e-10 3.39422e-14)
(2764.5 -1.34263e-10 3.53639e-14)
(2764.5 -1.35004e-10 3.43977e-14)
(2764.5 -1.34934e-10 3.56193e-14)
(2764.5 -1.38065e-10 4.02663e-14)
(2764.5 -1.42661e-10 3.78523e-14)
(2764.5 -1.45084e-10 3.4095e-14)
(2764.5 -1.47812e-10 3.82566e-14)
(2764.5 -1.49947e-10 4.27992e-14)
(2764.5 -1.47036e-10 3.19612e-14)
(2764.5 -1.48524e-10 3.37709e-14)
(2764.5 -1.51209e-10 2.89383e-14)
(2764.5 -1.51963e-10 2.2286e-14)
(2764.5 -1.48541e-10 3.73952e-14)
(2764.5 -1.47585e-10 3.77829e-14)
(2764.5 -1.48125e-10 3.4672e-14)
(2764.5 -1.4737e-10 2.81261e-14)
(2764.5 -1.47082e-10 2.5185e-14)
(2764.5 -1.47765e-10 3.29847e-14)
(2764.5 -1.51919e-10 2.80635e-14)
(2764.5 -1.52755e-10 3.36657e-14)
(2764.5 -1.58007e-10 2.87527e-14)
(2764.5 -1.63798e-10 3.07398e-14)
(2764.5 -1.64357e-10 2.5844e-14)
(2764.5 -1.66389e-10 3.91825e-14)
(2764.5 -1.63991e-10 3.168e-14)
(2764.5 -1.65678e-10 3.3826e-14)
(2764.5 -1.69265e-10 3.05167e-14)
(2764.5 -1.70862e-10 3.35811e-14)
(2764.5 -1.75405e-10 2.47106e-14)
(2764.5 -1.73034e-10 3.31466e-14)
(2764.5 -1.73901e-10 3.06139e-14)
(2764.5 -1.37734e-07 2.33297e-10)
(2764.5 -6.63944e-08 1.05176e-10)
(2764.5 -3.25548e-08 4.94621e-11)
(2764.5 -1.83165e-08 2.76984e-11)
(2764.5 -1.17522e-08 1.77844e-11)
(2764.5 -8.25131e-09 1.25209e-11)
(2764.5 -6.16502e-09 9.41305e-12)
(2764.5 -4.811e-09 7.30062e-12)
(2764.5 -3.85604e-09 5.84015e-12)
(2764.5 -3.16131e-09 4.78151e-12)
(2764.5 -2.63602e-09 3.90407e-12)
(2764.5 -2.24167e-09 3.37291e-12)
(2764.5 -1.93627e-09 2.88397e-12)
(2764.5 -1.69022e-09 2.50053e-12)
(2764.5 -1.49831e-09 2.24831e-12)
(2764.5 -1.32831e-09 1.92868e-12)
(2764.5 -1.18555e-09 1.68624e-12)
(2764.5 -1.08318e-09 1.50294e-12)
(2764.5 -9.86248e-10 1.33272e-12)
(2764.5 -8.97686e-10 1.2621e-12)
(2764.5 -8.21056e-10 1.11481e-12)
(2764.5 -7.66413e-10 1.02789e-12)
(2764.5 -7.12982e-10 9.48847e-13)
(2764.5 -6.59843e-10 8.73194e-13)
(2764.5 -6.15188e-10 8.12342e-13)
(2764.5 -5.71483e-10 7.48954e-13)
(2764.5 -5.35914e-10 7.01728e-13)
(2764.5 -5.06097e-10 6.37281e-13)
(2764.5 -4.81509e-10 6.13599e-13)
(2764.5 -4.61424e-10 5.69291e-13)
(2764.5 -4.36091e-10 5.40783e-13)
(2764.5 -4.12457e-10 5.09959e-13)
(2764.5 -3.97212e-10 4.89774e-13)
(2764.5 -3.8303e-10 4.52975e-13)
(2764.5 -3.6604e-10 4.29982e-13)
(2764.5 -3.54093e-10 3.94207e-13)
(2764.5 -3.4239e-10 3.79157e-13)
(2764.5 -3.33179e-10 3.43089e-13)
(2764.5 -3.16222e-10 3.52571e-13)
(2764.5 -3.00326e-10 3.16599e-13)
(2764.5 -2.96213e-10 3.03445e-13)
(2764.5 -2.97156e-10 2.83848e-13)
(2764.5 -2.82777e-10 2.84514e-13)
(2764.5 -2.71828e-10 2.65832e-13)
(2764.5 -2.61919e-10 2.68519e-13)
(2764.5 -2.57557e-10 2.43153e-13)
(2764.5 -2.48396e-10 2.4509e-13)
(2764.5 -2.38844e-10 2.36968e-13)
(2764.5 -2.30732e-10 2.39217e-13)
(2764.5 -2.32626e-10 2.3157e-13)
(2764.5 -2.36588e-10 2.07472e-13)
(2764.5 -2.29554e-10 2.06187e-13)
(2764.5 -2.20864e-10 1.9261e-13)
(2764.5 -2.16329e-10 1.86239e-13)
(2764.5 -2.13707e-10 1.681e-13)
(2764.5 -2.09436e-10 1.75229e-13)
(2764.5 -2.0526e-10 1.6767e-13)
(2764.5 -2.00165e-10 1.60772e-13)
(2764.5 -1.96419e-10 1.66555e-13)
(2764.5 -2.00852e-10 1.62569e-13)
(2764.5 -2.05962e-10 1.52973e-13)
(2764.5 -2.00907e-10 1.39481e-13)
(2764.5 -1.98969e-10 1.32657e-13)
(2764.5 -1.92229e-10 1.2916e-13)
(2764.5 -1.88639e-10 1.46214e-13)
(2764.5 -1.81745e-10 1.34224e-13)
(2764.5 -1.83185e-10 1.23867e-13)
(2764.5 -1.81264e-10 1.29482e-13)
(2764.5 -1.82224e-10 1.09039e-13)
(2764.5 -1.80914e-10 1.05481e-13)
(2764.5 -1.80791e-10 1.06845e-13)
(2764.5 -1.7681e-10 1.13327e-13)
(2764.5 -1.79623e-10 1.11582e-13)
(2764.5 -1.79892e-10 1.15478e-13)
(2764.5 -1.79235e-10 1.09075e-13)
(2764.5 -1.74562e-10 1.02553e-13)
(2764.5 -1.68251e-10 1.08411e-13)
(2764.5 -1.64099e-10 1.0965e-13)
(2764.5 -1.70444e-10 1.04066e-13)
(2764.5 -1.75091e-10 9.30716e-14)
(2764.5 -1.69618e-10 8.34911e-14)
(2764.5 -1.65402e-10 9.23001e-14)
(2764.5 -1.67643e-10 8.71709e-14)
(2764.5 -1.66645e-10 8.89602e-14)
(2764.5 -1.66609e-10 8.52026e-14)
(2764.5 -1.65165e-10 8.95618e-14)
(2764.5 -1.66e-10 8.77074e-14)
(2764.5 -1.69647e-10 8.13861e-14)
(2764.5 -1.67024e-10 7.58671e-14)
(2764.5 -1.65439e-10 7.86886e-14)
(2764.5 -1.68039e-10 7.90866e-14)
(2764.5 -1.66398e-10 8.04683e-14)
(2764.5 -1.66778e-10 8.06987e-14)
(2764.5 -1.65582e-10 8.84632e-14)
(2764.5 -1.64907e-10 7.76666e-14)
(2764.5 -1.6641e-10 7.2451e-14)
(2764.5 -1.70541e-10 7.50975e-14)
(2764.5 -1.69739e-10 6.77146e-14)
(2764.5 -1.67554e-10 6.67566e-14)
(2764.5 -1.63207e-10 6.47217e-14)
(2764.5 -1.64118e-10 5.87522e-14)
(2764.5 -1.63316e-10 6.35488e-14)
(2764.5 -1.65237e-10 6.59167e-14)
(2764.5 -1.65612e-10 6.68645e-14)
(2764.5 -1.67238e-10 6.62383e-14)
(2764.5 -1.67259e-10 6.35468e-14)
(2764.5 -1.67463e-10 5.97452e-14)
(2764.5 -1.65807e-10 5.79211e-14)
(2764.5 -1.67391e-10 5.55311e-14)
(2764.5 -1.7365e-10 4.93786e-14)
(2764.5 -1.75794e-10 5.05965e-14)
(2764.5 -1.7473e-10 4.89635e-14)
(2764.5 -1.74717e-10 5.57407e-14)
(2764.5 -1.72188e-10 5.70131e-14)
(2764.5 -1.71852e-10 6.18294e-14)
(2764.5 -1.77727e-10 6.17576e-14)
(2764.5 -1.78831e-10 6.15016e-14)
(2764.5 -1.83733e-10 5.58392e-14)
(2764.5 -1.84204e-10 5.03741e-14)
(2764.5 -1.81679e-10 5.42838e-14)
(2764.5 -1.80304e-10 5.44594e-14)
(2764.5 -1.82049e-10 5.32592e-14)
(2764.5 -1.83536e-10 4.96429e-14)
(2764.5 -1.82409e-10 5.07486e-14)
(2764.5 -1.8109e-10 5.39229e-14)
(2764.5 -1.82659e-10 5.14251e-14)
(2764.5 -1.86018e-10 5.57526e-14)
(2764.5 -1.85803e-10 5.72939e-14)
(2764.5 -1.87168e-10 5.11353e-14)
(2764.5 -1.91331e-10 4.95215e-14)
(2764.5 -1.95826e-10 5.0354e-14)
(2764.5 -2.01344e-10 5.13029e-14)
(2764.5 -2.07128e-10 4.92284e-14)
(2764.5 -2.08623e-10 4.69993e-14)
(2764.5 -2.08206e-10 4.72274e-14)
(2764.5 -2.09248e-10 4.59853e-14)
(2764.5 -2.1359e-10 5.39922e-14)
(2764.5 -2.14111e-10 5.59888e-14)
(2764.5 -2.08941e-10 5.43562e-14)
(2764.5 -2.06279e-10 4.41112e-14)
(2764.5 -2.05202e-10 4.36782e-14)
(2764.5 -2.06833e-10 4.61133e-14)
(2764.5 -2.06882e-10 4.37958e-14)
(2764.5 -2.12582e-10 4.35215e-14)
(2764.5 -2.10331e-10 4.75293e-14)
(2764.5 -2.12482e-10 4.49868e-14)
(2764.5 -2.20956e-10 4.71051e-14)
(2764.5 -2.22302e-10 4.47985e-14)
(2764.5 -2.23403e-10 4.85369e-14)
(2764.5 -2.2734e-10 4.16987e-14)
(2764.5 -2.29185e-10 4.72941e-14)
(2764.5 -2.32144e-10 4.60652e-14)
(2764.5 -2.34637e-10 5.11319e-14)
(2764.5 -2.39412e-10 4.02295e-14)
(2764.5 -2.41466e-10 4.37683e-14)
(2764.5 -2.36368e-10 3.91988e-14)
(2764.5 -1.627e-07 2.73939e-10)
(2764.5 -8.68453e-08 1.35964e-10)
(2764.5 -4.48814e-08 6.63586e-11)
(2764.5 -2.54236e-08 3.67652e-11)
(2764.5 -1.61572e-08 2.34772e-11)
(2764.5 -1.12332e-08 1.64383e-11)
(2764.5 -8.33434e-09 1.21884e-11)
(2764.5 -6.48398e-09 9.48604e-12)
(2764.5 -5.19065e-09 7.61272e-12)
(2764.5 -4.24384e-09 6.27519e-12)
(2764.5 -3.53784e-09 5.15709e-12)
(2764.5 -3.00485e-09 4.3594e-12)
(2764.5 -2.58765e-09 3.70419e-12)
(2764.5 -2.26119e-09 3.22094e-12)
(2764.5 -2.00164e-09 2.85988e-12)
(2764.5 -1.77702e-09 2.50656e-12)
(2764.5 -1.58926e-09 2.1876e-12)
(2764.5 -1.44109e-09 1.98747e-12)
(2764.5 -1.31268e-09 1.79999e-12)
(2764.5 -1.19904e-09 1.6296e-12)
(2764.5 -1.09849e-09 1.48701e-12)
(2764.5 -1.02078e-09 1.37062e-12)
(2764.5 -9.49245e-10 1.23224e-12)
(2764.5 -8.79844e-10 1.15039e-12)
(2764.5 -8.20822e-10 1.03869e-12)
(2764.5 -7.62838e-10 1.001e-12)
(2764.5 -7.18639e-10 9.12677e-13)
(2764.5 -6.75496e-10 8.69885e-13)
(2764.5 -6.33147e-10 8.32849e-13)
(2764.5 -6.03941e-10 7.65477e-13)
(2764.5 -5.72742e-10 6.96632e-13)
(2764.5 -5.5035e-10 6.68636e-13)
(2764.5 -5.25716e-10 6.16044e-13)
(2764.5 -5.03718e-10 5.69009e-13)
(2764.5 -4.84429e-10 5.54081e-13)
(2764.5 -4.64549e-10 5.32258e-13)
(2764.5 -4.48109e-10 4.9357e-13)
(2764.5 -4.38523e-10 4.63428e-13)
(2764.5 -4.21139e-10 4.32978e-13)
(2764.5 -4.01063e-10 4.05828e-13)
(2764.5 -3.87057e-10 4.11024e-13)
(2764.5 -3.81065e-10 3.94172e-13)
(2764.5 -3.7781e-10 3.77377e-13)
(2764.5 -3.66051e-10 3.66584e-13)
(2764.5 -3.47975e-10 3.51131e-13)
(2764.5 -3.36332e-10 3.32374e-13)
(2764.5 -3.24836e-10 3.13005e-13)
(2764.5 -3.15966e-10 3.06664e-13)
(2764.5 -3.04833e-10 2.92417e-13)
(2764.5 -3.00818e-10 2.68078e-13)
(2764.5 -3.0609e-10 2.74644e-13)
(2764.5 -3.01099e-10 2.63372e-13)
(2764.5 -2.88392e-10 2.54031e-13)
(2764.5 -2.82442e-10 2.42219e-13)
(2764.5 -2.77422e-10 2.40969e-13)
(2764.5 -2.74647e-10 2.35971e-13)
(2764.5 -2.68655e-10 2.12499e-13)
(2764.5 -2.62628e-10 2.04648e-13)
(2764.5 -2.57363e-10 2.13314e-13)
(2764.5 -2.54315e-10 1.97638e-13)
(2764.5 -2.6584e-10 1.88875e-13)
(2764.5 -2.64169e-10 1.77762e-13)
(2764.5 -2.60182e-10 1.79959e-13)
(2764.5 -2.52434e-10 1.90592e-13)
(2764.5 -2.45484e-10 1.71442e-13)
(2764.5 -2.39456e-10 1.74351e-13)
(2764.5 -2.3853e-10 1.69053e-13)
(2764.5 -2.37162e-10 1.54997e-13)
(2764.5 -2.34939e-10 1.62774e-13)
(2764.5 -2.31006e-10 1.59919e-13)
(2764.5 -2.34865e-10 1.48992e-13)
(2764.5 -2.29658e-10 1.49962e-13)
(2764.5 -2.27761e-10 1.43241e-13)
(2764.5 -2.30167e-10 1.41107e-13)
(2764.5 -2.31688e-10 1.40767e-13)
(2764.5 -2.30562e-10 1.3939e-13)
(2764.5 -2.23265e-10 1.40601e-13)
(2764.5 -2.1767e-10 1.32833e-13)
(2764.5 -2.18586e-10 1.20515e-13)
(2764.5 -2.21809e-10 1.22782e-13)
(2764.5 -2.26169e-10 1.2677e-13)
(2764.5 -2.21924e-10 1.1848e-13)
(2764.5 -2.18656e-10 1.15333e-13)
(2764.5 -2.14755e-10 1.16687e-13)
(2764.5 -2.16039e-10 1.13303e-13)
(2764.5 -2.14614e-10 1.09404e-13)
(2764.5 -2.10043e-10 1.02566e-13)
(2764.5 -2.17912e-10 1.07963e-13)
(2764.5 -2.1497e-10 1.12857e-13)
(2764.5 -2.14949e-10 1.12091e-13)
(2764.5 -2.15286e-10 1.05295e-13)
(2764.5 -2.17897e-10 1.0099e-13)
(2764.5 -2.17019e-10 9.98521e-14)
(2764.5 -2.1539e-10 9.7933e-14)
(2764.5 -2.14008e-10 9.7254e-14)
(2764.5 -2.09445e-10 9.799e-14)
(2764.5 -2.11319e-10 8.97637e-14)
(2764.5 -2.188e-10 8.84544e-14)
(2764.5 -2.17898e-10 8.99878e-14)
(2764.5 -2.14778e-10 8.35201e-14)
(2764.5 -2.12085e-10 7.88711e-14)
(2764.5 -2.12502e-10 8.35339e-14)
(2764.5 -2.12862e-10 8.5398e-14)
(2764.5 -2.13345e-10 7.79689e-14)
(2764.5 -2.15125e-10 7.80537e-14)
(2764.5 -2.15214e-10 8.17799e-14)
(2764.5 -2.17957e-10 7.90685e-14)
(2764.5 -2.15739e-10 7.87169e-14)
(2764.5 -2.13729e-10 7.39101e-14)
(2764.5 -2.16495e-10 7.524e-14)
(2764.5 -2.25488e-10 7.4662e-14)
(2764.5 -2.27122e-10 7.29996e-14)
(2764.5 -2.24447e-10 7.60637e-14)
(2764.5 -2.22849e-10 6.43922e-14)
(2764.5 -2.19128e-10 6.32314e-14)
(2764.5 -2.19391e-10 6.74987e-14)
(2764.5 -2.2047e-10 7.32255e-14)
(2764.5 -2.28185e-10 6.9989e-14)
(2764.5 -2.34513e-10 7.34728e-14)
(2764.5 -2.35515e-10 7.42382e-14)
(2764.5 -2.3708e-10 6.95772e-14)
(2764.5 -2.37963e-10 6.64468e-14)
(2764.5 -2.39939e-10 6.79806e-14)
(2764.5 -2.39608e-10 7.05908e-14)
(2764.5 -2.36375e-10 6.55619e-14)
(2764.5 -2.3568e-10 6.85199e-14)
(2764.5 -2.37938e-10 7.28561e-14)
(2764.5 -2.40169e-10 6.28767e-14)
(2764.5 -2.41518e-10 6.06257e-14)
(2764.5 -2.40868e-10 6.03557e-14)
(2764.5 -2.42843e-10 6.12565e-14)
(2764.5 -2.47689e-10 6.4919e-14)
(2764.5 -2.54074e-10 6.39892e-14)
(2764.5 -2.592e-10 6.66124e-14)
(2764.5 -2.61886e-10 6.68861e-14)
(2764.5 -2.6355e-10 6.4992e-14)
(2764.5 -2.68212e-10 6.96115e-14)
(2764.5 -2.73642e-10 6.32711e-14)
(2764.5 -2.74349e-10 6.43224e-14)
(2764.5 -2.73616e-10 5.45398e-14)
(2764.5 -2.70034e-10 5.89888e-14)
(2764.5 -2.68038e-10 5.85001e-14)
(2764.5 -2.70288e-10 5.98019e-14)
(2764.5 -2.73884e-10 6.08013e-14)
(2764.5 -2.75862e-10 6.04374e-14)
(2764.5 -2.72036e-10 6.59343e-14)
(2764.5 -2.77744e-10 5.78856e-14)
(2764.5 -2.79126e-10 5.194e-14)
(2764.5 -2.80966e-10 5.55144e-14)
(2764.5 -2.86426e-10 5.78164e-14)
(2764.5 -2.89149e-10 5.17393e-14)
(2764.5 -2.89765e-10 6.01365e-14)
(2764.5 -2.90928e-10 5.55447e-14)
(2764.5 -2.95008e-10 5.55662e-14)
(2764.5 -3.05708e-10 6.15303e-14)
(2764.5 -3.02697e-10 6.07889e-14)
(2764.5 -1.82787e-07 3.07142e-10)
(2764.5 -1.06072e-07 1.64665e-10)
(2764.5 -5.78154e-08 8.35253e-11)
(2764.5 -3.32765e-08 4.65132e-11)
(2764.5 -2.10671e-08 2.94627e-11)
(2764.5 -1.4534e-08 2.04506e-11)
(2764.5 -1.0709e-08 1.52523e-11)
(2764.5 -8.29281e-09 1.17324e-11)
(2764.5 -6.63048e-09 9.35655e-12)
(2764.5 -5.41345e-09 7.66496e-12)
(2764.5 -4.50885e-09 6.35962e-12)
(2764.5 -3.81653e-09 5.36183e-12)
(2764.5 -3.28198e-09 4.59342e-12)
(2764.5 -2.86818e-09 4.01964e-12)
(2764.5 -2.53453e-09 3.48316e-12)
(2764.5 -2.26148e-09 3.05869e-12)
(2764.5 -2.02766e-09 2.72633e-12)
(2764.5 -1.82963e-09 2.42749e-12)
(2764.5 -1.65322e-09 2.20658e-12)
(2764.5 -1.51511e-09 1.97484e-12)
(2764.5 -1.39221e-09 1.82479e-12)
(2764.5 -1.2881e-09 1.66712e-12)
(2764.5 -1.20114e-09 1.52069e-12)
(2764.5 -1.11453e-09 1.36792e-12)
(2764.5 -1.03668e-09 1.29183e-12)
(2764.5 -9.63622e-10 1.22168e-12)
(2764.5 -9.05274e-10 1.12658e-12)
(2764.5 -8.52218e-10 1.06882e-12)
(2764.5 -8.02021e-10 9.82143e-13)
(2764.5 -7.57201e-10 8.95516e-13)
(2764.5 -7.21624e-10 8.56697e-13)
(2764.5 -6.91982e-10 8.02547e-13)
(2764.5 -6.64117e-10 7.55476e-13)
(2764.5 -6.36037e-10 7.23024e-13)
(2764.5 -6.12856e-10 6.80648e-13)
(2764.5 -5.83728e-10 6.16376e-13)
(2764.5 -5.59043e-10 6.20718e-13)
(2764.5 -5.41915e-10 5.77788e-13)
(2764.5 -5.25594e-10 5.50652e-13)
(2764.5 -5.07838e-10 5.2972e-13)
(2764.5 -4.89455e-10 4.93796e-13)
(2764.5 -4.73142e-10 4.7031e-13)
(2764.5 -4.71362e-10 4.53937e-13)
(2764.5 -4.56076e-10 4.45153e-13)
(2764.5 -4.41181e-10 4.21557e-13)
(2764.5 -4.24605e-10 4.20501e-13)
(2764.5 -4.06467e-10 3.83751e-13)
(2764.5 -3.9395e-10 3.73867e-13)
(2764.5 -3.875e-10 3.65918e-13)
(2764.5 -3.77727e-10 3.41294e-13)
(2764.5 -3.73267e-10 3.31723e-13)
(2764.5 -3.69373e-10 3.19005e-13)
(2764.5 -3.59281e-10 3.05544e-13)
(2764.5 -3.5273e-10 3.02392e-13)
(2764.5 -3.4748e-10 2.8791e-13)
(2764.5 -3.4147e-10 2.7303e-13)
(2764.5 -3.36961e-10 2.637e-13)
(2764.5 -3.26115e-10 2.64317e-13)
(2764.5 -3.1687e-10 2.53524e-13)
(2764.5 -3.1098e-10 2.43105e-13)
(2764.5 -3.2141e-10 2.42032e-13)
(2764.5 -3.26061e-10 2.27748e-13)
(2764.5 -3.24319e-10 2.23157e-13)
(2764.5 -3.15431e-10 2.14782e-13)
(2764.5 -3.08379e-10 2.0834e-13)
(2764.5 -2.99818e-10 2.14919e-13)
(2764.5 -2.95614e-10 2.02135e-13)
(2764.5 -2.96023e-10 1.87017e-13)
(2764.5 -2.90979e-10 1.98425e-13)
(2764.5 -2.87742e-10 1.88977e-13)
(2764.5 -2.85667e-10 1.78233e-13)
(2764.5 -2.83187e-10 1.77248e-13)
(2764.5 -2.80159e-10 1.77229e-13)
(2764.5 -2.81272e-10 1.64577e-13)
(2764.5 -2.82864e-10 1.72322e-13)
(2764.5 -2.85313e-10 1.70446e-13)
(2764.5 -2.81037e-10 1.63002e-13)
(2764.5 -2.71481e-10 1.55367e-13)
(2764.5 -2.67076e-10 1.65625e-13)
(2764.5 -2.65915e-10 1.58532e-13)
(2764.5 -2.73063e-10 1.52723e-13)
(2764.5 -2.76483e-10 1.4119e-13)
(2764.5 -2.72341e-10 1.4239e-13)