/*--------------------------------*- C++ -*----------------------------------*\
| =========                 |                                                 |
| \\      /  F ield         | OpenFOAM: The Open Source CFD Toolbox           |
|  \\    /   O peration     | Version:  v1706                                 |
|   \\  /    A nd           | Web:      www.OpenFOAM.com                      |
|    \\/     M anipulation  |                                                 |
\*---------------------------------------------------------------------------*/
FoamFile
{
    version     2.0;
    format      ascii;
    class       volScalarField;
    location    "1.2e-05";
    object      wallHeatFlux;
}
// * * * * * * * * * * * * * * * * * * * * * * * * * * * * * * * * * * * * * //

dimensions      [1 0 -3 0 0 0 0];


internalField   uniform 0;

boundaryField
{
    cone
    {
        type            calculated;
        value           nonuniform List<scalar> 
147
(
1.06948e+06
1.06917e+06
1.06883e+06
1.06845e+06
1.06802e+06
1.06753e+06
1.06696e+06
1.06633e+06
1.06562e+06
1.06485e+06
1.06401e+06
1.0631e+06
1.06211e+06
1.06106e+06
1.05995e+06
1.05876e+06
1.0575e+06
1.05618e+06
1.05479e+06
1.05333e+06
1.0518e+06
1.0502e+06
1.04854e+06
1.0468e+06
1.04499e+06
1.04312e+06
1.04118e+06
1.03916e+06
1.03708e+06
1.03493e+06
1.03271e+06
1.03043e+06
1.02807e+06
1.02565e+06
1.02316e+06
1.02061e+06
1.01799e+06
1.0153e+06
1.01255e+06
1.00974e+06
1.00686e+06
1.00391e+06
1.00091e+06
997838
994705
991511
988256
984939
981563
978127
974632
971079
967468
963799
960075
956295
952460
948571
944627
940631
936581
932479
928326
924123
919870
915567
911216
906817
902371
897880
893343
888760
884134
879465
874753
870001
865206
860372
855498
850586
845636
840650
835627
830568
825475
820349
815189
809998
804776
799523
794241
788929
783589
778222
772830
767411
761969
756503
751014
745502
739970
734419
728848
723258
717651
712028
706390
700737
695068
689388
683696
677994
672279
666556
660826
655089
649343
643592
637836
632076
626311
620545
614779
609014
603249
597486
591725
585967
580212
574461
568715
562975
557242
551515
545797
540087
534387
528696
523017
517350
511697
506060
500446
494855
489277
483709
1.07062e+06
)
;
    }
    inlet
    {
        type            calculated;
        value           uniform 0;
    }
    rWedge
    {
        type            wedge;
    }
    lWedge
    {
        type            wedge;
    }
    outlet
    {
        type            calculated;
        value           nonuniform 0();
    }
    procBoundary3to2
    {
        type            processor;
        value           uniform 0;
    }
}


// ************************************************************************* //
