/*--------------------------------*- C++ -*----------------------------------*\
| =========                 |                                                 |
| \\      /  F ield         | OpenFOAM: The Open Source CFD Toolbox           |
|  \\    /   O peration     | Version:  v1706                                 |
|   \\  /    A nd           | Web:      www.OpenFOAM.com                      |
|    \\/     M anipulation  |                                                 |
\*---------------------------------------------------------------------------*/
FoamFile
{
    version     2.0;
    format      ascii;
    class       volScalarField;
    location    "3.7e-05";
    object      alpha;
}
// * * * * * * * * * * * * * * * * * * * * * * * * * * * * * * * * * * * * * //

dimensions      [1 -1 -1 0 0 0 0];


internalField   nonuniform List<scalar> 
29871
(
1.41381e-05
1.4151e-05
1.41656e-05
1.41821e-05
1.42006e-05
1.4221e-05
1.42436e-05
1.42687e-05
1.42968e-05
1.43286e-05
1.43649e-05
1.4406e-05
1.44522e-05
1.45033e-05
1.45592e-05
1.46194e-05
1.46839e-05
1.47539e-05
1.48313e-05
1.49178e-05
1.50131e-05
1.51158e-05
1.52243e-05
1.53375e-05
1.54543e-05
1.55734e-05
1.56935e-05
1.58131e-05
1.5931e-05
1.60472e-05
1.61647e-05
1.63034e-05
1.64737e-05
1.6665e-05
1.68658e-05
1.70672e-05
1.72631e-05
1.74495e-05
1.7624e-05
1.77852e-05
1.79331e-05
1.80681e-05
1.81909e-05
1.8302e-05
1.84019e-05
1.84907e-05
1.85684e-05
1.8635e-05
1.86905e-05
1.87356e-05
1.8771e-05
1.87972e-05
1.88151e-05
1.88262e-05
1.8829e-05
1.88264e-05
1.88202e-05
1.88118e-05
1.87997e-05
1.87839e-05
1.87676e-05
1.87496e-05
1.87295e-05
1.87074e-05
1.86837e-05
1.86588e-05
1.8632e-05
1.86035e-05
1.85741e-05
1.85434e-05
1.85104e-05
1.8476e-05
1.84412e-05
1.8405e-05
1.83671e-05
1.8328e-05
1.82875e-05
1.82454e-05
1.82022e-05
1.8158e-05
1.81125e-05
1.80661e-05
1.8019e-05
1.79714e-05
1.79233e-05
1.7875e-05
1.78264e-05
1.77774e-05
1.7728e-05
1.7678e-05
1.76274e-05
1.75759e-05
1.75235e-05
1.74702e-05
1.74159e-05
1.73608e-05
1.73049e-05
1.72485e-05
1.71916e-05
1.71344e-05
1.70769e-05
1.70192e-05
1.69613e-05
1.69031e-05
1.68448e-05
1.45955e-05
1.46701e-05
1.47545e-05
1.48495e-05
1.49551e-05
1.50715e-05
1.51988e-05
1.53382e-05
1.54925e-05
1.56642e-05
1.58544e-05
1.6062e-05
1.62852e-05
1.65215e-05
1.67682e-05
1.70227e-05
1.72836e-05
1.75529e-05
1.78481e-05
1.81802e-05
1.85427e-05
1.89244e-05
1.93138e-05
1.97005e-05
2.00754e-05
2.04315e-05
2.07639e-05
2.10692e-05
2.13461e-05
2.15944e-05
2.18148e-05
2.20048e-05
2.21633e-05
2.22927e-05
2.23958e-05
2.24758e-05
2.25355e-05
2.25775e-05
2.26052e-05
2.26227e-05
2.26342e-05
2.26427e-05
2.26499e-05
2.26564e-05
2.26624e-05
2.26677e-05
2.26722e-05
2.26739e-05
2.26724e-05
2.26686e-05
2.26624e-05
2.26526e-05
2.26391e-05
2.2622e-05
2.26013e-05
2.25775e-05
2.25516e-05
2.25231e-05
2.24933e-05
2.24642e-05
2.24346e-05
2.24035e-05
2.23725e-05
2.23418e-05
2.23114e-05
2.22817e-05
2.22521e-05
2.22221e-05
2.21922e-05
2.21625e-05
2.21323e-05
2.21029e-05
2.20733e-05
2.20433e-05
2.20132e-05
2.1983e-05
2.19518e-05
2.192e-05
2.18883e-05
2.18559e-05
2.1823e-05
2.17899e-05
2.17568e-05
2.17235e-05
2.16902e-05
2.1657e-05
2.1624e-05
2.15911e-05
2.15582e-05
2.15253e-05
2.14925e-05
2.14596e-05
2.14269e-05
2.13945e-05
2.13624e-05
2.13309e-05
2.12998e-05
2.12692e-05
2.12389e-05
2.12089e-05
2.11791e-05
2.11495e-05
2.112e-05
2.10907e-05
2.10615e-05
1.56777e-05
1.58814e-05
1.61078e-05
1.63563e-05
1.66253e-05
1.69124e-05
1.72148e-05
1.75305e-05
1.78596e-05
1.82129e-05
1.86053e-05
1.90318e-05
1.94817e-05
1.99419e-05
2.03997e-05
2.08436e-05
2.1265e-05
2.16574e-05
2.20164e-05
2.23363e-05
2.2615e-05
2.28555e-05
2.30619e-05
2.32386e-05
2.33898e-05
2.3519e-05
2.36282e-05
2.37188e-05
2.37911e-05
2.38453e-05
2.38835e-05
2.39095e-05
2.39264e-05
2.39368e-05
2.39402e-05
2.3938e-05
2.39317e-05
2.39196e-05
2.39004e-05
2.38736e-05
2.38406e-05
2.38037e-05
2.37648e-05
2.37253e-05
2.36861e-05
2.36481e-05
2.36117e-05
2.35776e-05
2.35454e-05
2.35151e-05
2.34864e-05
2.34588e-05
2.34319e-05
2.34049e-05
2.33773e-05
2.33485e-05
2.33182e-05
2.32865e-05
2.32529e-05
2.32177e-05
2.31811e-05
2.31434e-05
2.31051e-05
2.30659e-05
2.30262e-05
2.29864e-05
2.29457e-05
2.29077e-05
2.28691e-05
2.28271e-05
2.27893e-05
2.27552e-05
2.27169e-05
2.26773e-05
2.26422e-05
2.26088e-05
2.25725e-05
2.25369e-05
2.25041e-05
2.24708e-05
2.24373e-05
2.24049e-05
2.23732e-05
2.23416e-05
2.23103e-05
2.22796e-05
2.22493e-05
2.22191e-05
2.21893e-05
2.21597e-05
2.21305e-05
2.21015e-05
2.20728e-05
2.20445e-05
2.20166e-05
2.19893e-05
2.19627e-05
2.1937e-05
2.19122e-05
2.18883e-05
2.18653e-05
2.18432e-05
2.18218e-05
2.18011e-05
2.17811e-05
2.17617e-05
1.83286e-05
1.87462e-05
1.91996e-05
1.96789e-05
2.01714e-05
2.06635e-05
2.11427e-05
2.15992e-05
2.2025e-05
2.24125e-05
2.2756e-05
2.30562e-05
2.33157e-05
2.3538e-05
2.3727e-05
2.38865e-05
2.40201e-05
2.41308e-05
2.42207e-05
2.42915e-05
2.43449e-05
2.43829e-05
2.44084e-05
2.44255e-05
2.44383e-05
2.44492e-05
2.44595e-05
2.4469e-05
2.4477e-05
2.44779e-05
2.44741e-05
2.44652e-05
2.44521e-05
2.44361e-05
2.44178e-05
2.4398e-05
2.43779e-05
2.43586e-05
2.43406e-05
2.43225e-05
2.43017e-05
2.42762e-05
2.42459e-05
2.42116e-05
2.41745e-05
2.41359e-05
2.40967e-05
2.40577e-05
2.40196e-05
2.39828e-05
2.39475e-05
2.39138e-05
2.38814e-05
2.385e-05
2.3819e-05
2.37878e-05
2.37559e-05
2.37227e-05
2.36877e-05
2.36507e-05
2.36114e-05
2.35702e-05
2.35272e-05
2.34826e-05
2.34363e-05
2.33895e-05
2.33411e-05
2.32948e-05
2.3248e-05
2.3197e-05
2.31502e-05
2.31074e-05
2.30606e-05
2.30117e-05
2.29678e-05
2.29259e-05
2.28814e-05
2.28372e-05
2.27962e-05
2.27553e-05
2.27146e-05
2.26755e-05
2.26373e-05
2.25993e-05
2.25621e-05
2.25258e-05
2.24899e-05
2.24543e-05
2.24192e-05
2.23848e-05
2.23509e-05
2.23174e-05
2.22845e-05
2.22522e-05
2.22204e-05
2.21892e-05
2.21587e-05
2.2129e-05
2.21002e-05
2.20724e-05
2.20458e-05
2.20203e-05
2.19959e-05
2.19727e-05
2.19505e-05
2.19294e-05
2.19844e-05
2.24114e-05
2.27933e-05
2.31292e-05
2.34209e-05
2.36713e-05
2.38844e-05
2.40646e-05
2.4216e-05
2.43421e-05
2.4446e-05
2.45302e-05
2.45973e-05
2.46494e-05
2.46884e-05
2.47169e-05
2.47384e-05
2.47558e-05
2.47704e-05
2.47826e-05
2.47923e-05
2.47986e-05
2.47981e-05
2.47937e-05
2.47846e-05
2.47726e-05
2.47593e-05
2.47463e-05
2.47354e-05
2.47281e-05
2.47246e-05
2.47233e-05
2.47204e-05
2.47134e-05
2.47016e-05
2.46854e-05
2.46661e-05
2.46449e-05
2.46234e-05
2.46032e-05
2.45854e-05
2.45679e-05
2.45484e-05
2.45256e-05
2.44989e-05
2.44684e-05
2.44349e-05
2.43991e-05
2.43618e-05
2.43237e-05
2.42856e-05
2.42478e-05
2.42107e-05
2.41744e-05
2.4139e-05
2.41042e-05
2.40697e-05
2.40352e-05
2.40002e-05
2.39643e-05
2.39271e-05
2.38882e-05
2.38476e-05
2.38051e-05
2.37609e-05
2.37148e-05
2.36671e-05
2.3618e-05
2.35686e-05
2.35196e-05
2.34669e-05
2.34159e-05
2.33696e-05
2.33187e-05
2.32639e-05
2.32143e-05
2.31685e-05
2.3119e-05
2.30681e-05
2.30206e-05
2.29736e-05
2.29283e-05
2.28856e-05
2.28424e-05
2.27987e-05
2.27576e-05
2.27179e-05
2.26782e-05
2.26383e-05
2.25994e-05
2.25616e-05
2.25246e-05
2.2488e-05
2.2452e-05
2.24168e-05
2.23825e-05
2.2349e-05
2.23162e-05
2.22843e-05
2.22534e-05
2.22234e-05
2.21944e-05
2.21664e-05
2.21395e-05
2.21137e-05
2.20892e-05
2.20659e-05
2.44156e-05
2.45413e-05
2.46443e-05
2.47276e-05
2.47939e-05
2.48454e-05
2.48844e-05
2.49138e-05
2.49373e-05
2.49571e-05
2.49741e-05
2.49885e-05
2.5e-05
2.50083e-05
2.50119e-05
2.50107e-05
2.50069e-05
2.50011e-05
2.49943e-05
2.49876e-05
2.49812e-05
2.49755e-05
2.49713e-05
2.49677e-05
2.49624e-05
2.49537e-05
2.49412e-05
2.4927e-05
2.4912e-05
2.48984e-05
2.48879e-05
2.4882e-05
2.48778e-05
2.48726e-05
2.48646e-05
2.48532e-05
2.48383e-05
2.48204e-05
2.48006e-05
2.47799e-05
2.47597e-05
2.47412e-05
2.4724e-05
2.4707e-05
2.46885e-05
2.46676e-05
2.4644e-05
2.46179e-05
2.45895e-05
2.45591e-05
2.45274e-05
2.44948e-05
2.44618e-05
2.44284e-05
2.43952e-05
2.43624e-05
2.43295e-05
2.42966e-05
2.42636e-05
2.423e-05
2.41953e-05
2.41595e-05
2.4122e-05
2.40828e-05
2.40416e-05
2.39984e-05
2.39532e-05
2.39059e-05
2.38569e-05
2.38074e-05
2.37556e-05
2.37029e-05
2.36531e-05
2.36031e-05
2.35451e-05
2.34916e-05
2.34412e-05
2.33914e-05
2.33341e-05
2.32786e-05
2.32276e-05
2.31792e-05
2.31328e-05
2.3083e-05
2.30329e-05
2.29874e-05
2.29442e-05
2.28993e-05
2.28528e-05
2.28092e-05
2.27677e-05
2.27262e-05
2.26845e-05
2.26437e-05
2.26044e-05
2.25662e-05
2.25286e-05
2.24919e-05
2.24562e-05
2.24216e-05
2.2388e-05
2.23555e-05
2.23242e-05
2.2294e-05
2.22651e-05
2.22375e-05
2.22113e-05
2.4998e-05
2.50398e-05
2.50718e-05
2.50977e-05
2.51195e-05
2.5138e-05
2.51535e-05
2.51658e-05
2.51746e-05
2.5179e-05
2.51785e-05
2.51762e-05
2.51724e-05
2.51682e-05
2.51639e-05
2.516e-05
2.5157e-05
2.51553e-05
2.5154e-05
2.51512e-05
2.51452e-05
2.51372e-05
2.51275e-05
2.51168e-05
2.51061e-05
2.50977e-05
2.50912e-05
2.50851e-05
2.50779e-05
2.50685e-05
2.5057e-05
2.50434e-05
2.50289e-05
2.50151e-05
2.5004e-05
2.49955e-05
2.49897e-05
2.49844e-05
2.49779e-05
2.49694e-05
2.49583e-05
2.49447e-05
2.4929e-05
2.49121e-05
2.48952e-05
2.4879e-05
2.4864e-05
2.48496e-05
2.48345e-05
2.48178e-05
2.47993e-05
2.4779e-05
2.47563e-05
2.47315e-05
2.47052e-05
2.46779e-05
2.46493e-05
2.46202e-05
2.45913e-05
2.4562e-05
2.45322e-05
2.45026e-05
2.44727e-05
2.44418e-05
2.44101e-05
2.43773e-05
2.43427e-05
2.43064e-05
2.42682e-05
2.42277e-05
2.41851e-05
2.41401e-05
2.40934e-05
2.40452e-05
2.39944e-05
2.39443e-05
2.38965e-05
2.3841e-05
2.37859e-05
2.37337e-05
2.36853e-05
2.36285e-05
2.35679e-05
2.35142e-05
2.34636e-05
2.34157e-05
2.33605e-05
2.33057e-05
2.32569e-05
2.32113e-05
2.31628e-05
2.31109e-05
2.30632e-05
2.3019e-05
2.2974e-05
2.2927e-05
2.28823e-05
2.28403e-05
2.27986e-05
2.27568e-05
2.27166e-05
2.2678e-05
2.26403e-05
2.26034e-05
2.25678e-05
2.25337e-05
2.25008e-05
2.24691e-05
2.24387e-05
2.24097e-05
2.53264e-05
2.53318e-05
2.53321e-05
2.53307e-05
2.53282e-05
2.53249e-05
2.53217e-05
2.5319e-05
2.53171e-05
2.53168e-05
2.53159e-05
2.53128e-05
2.53075e-05
2.53003e-05
2.52916e-05
2.52825e-05
2.52741e-05
2.52674e-05
2.52632e-05
2.52589e-05
2.52536e-05
2.52467e-05
2.52378e-05
2.52275e-05
2.52164e-05
2.52055e-05
2.51959e-05
2.51875e-05
2.51803e-05
2.5173e-05
2.51649e-05
2.51551e-05
2.51439e-05
2.51324e-05
2.5121e-05
2.51112e-05
2.51036e-05
2.50974e-05
2.50923e-05
2.5087e-05
2.50806e-05
2.50724e-05
2.50619e-05
2.50494e-05
2.50361e-05
2.50219e-05
2.50078e-05
2.49948e-05
2.49822e-05
2.49689e-05
2.49547e-05
2.49397e-05
2.49232e-05
2.49045e-05
2.48838e-05
2.48624e-05
2.48394e-05
2.48148e-05
2.47906e-05
2.47661e-05
2.47399e-05
2.4714e-05
2.46885e-05
2.46618e-05
2.46343e-05
2.46065e-05
2.45771e-05
2.45462e-05
2.45141e-05
2.44796e-05
2.44429e-05
2.44044e-05
2.43634e-05
2.43208e-05
2.42749e-05
2.42284e-05
2.41836e-05
2.41339e-05
2.40805e-05
2.403e-05
2.39827e-05
2.39321e-05
2.38706e-05
2.38157e-05
2.37644e-05
2.37165e-05
2.36596e-05
2.3602e-05
2.35519e-05
2.35046e-05
2.34552e-05
2.33994e-05
2.33485e-05
2.33021e-05
2.32553e-05
2.32044e-05
2.31569e-05
2.3113e-05
2.30679e-05
2.30221e-05
2.29799e-05
2.29397e-05
2.2899e-05
2.28586e-05
2.28208e-05
2.27847e-05
2.27496e-05
2.27154e-05
2.26824e-05
2.2651e-05
2.54717e-05
2.54716e-05
2.54709e-05
2.54679e-05
2.54629e-05
2.54558e-05
2.54475e-05
2.5439e-05
2.54315e-05
2.54261e-05
2.54219e-05
2.54177e-05
2.54125e-05
2.54056e-05
2.53973e-05
2.5388e-05
2.53783e-05
2.53691e-05
2.53613e-05
2.53551e-05
2.53497e-05
2.53443e-05
2.53381e-05
2.53306e-05
2.53221e-05
2.53128e-05
2.53035e-05
2.52947e-05
2.5287e-05
2.52799e-05
2.52732e-05
2.52658e-05
2.52574e-05
2.52483e-05
2.52385e-05
2.52287e-05
2.52199e-05
2.52125e-05
2.52065e-05
2.5201e-05
2.5196e-05
2.51906e-05
2.51838e-05
2.51753e-05
2.51662e-05
2.51553e-05
2.5143e-05
2.51315e-05
2.51206e-05
2.51087e-05
2.50965e-05
2.50842e-05
2.5072e-05
2.50581e-05
2.50415e-05
2.50248e-05
2.50082e-05
2.49876e-05
2.49673e-05
2.49478e-05
2.49256e-05
2.49028e-05
2.48812e-05
2.48588e-05
2.48347e-05
2.48115e-05
2.47869e-05
2.47606e-05
2.47342e-05
2.47058e-05
2.4675e-05
2.46432e-05
2.46096e-05
2.45736e-05
2.45338e-05
2.44934e-05
2.44539e-05
2.44106e-05
2.43613e-05
2.43151e-05
2.42709e-05
2.42268e-05
2.41679e-05
2.41146e-05
2.4065e-05
2.40186e-05
2.39635e-05
2.39053e-05
2.38557e-05
2.38082e-05
2.37594e-05
2.37014e-05
2.36491e-05
2.36016e-05
2.35547e-05
2.35018e-05
2.34522e-05
2.34069e-05
2.33594e-05
2.33118e-05
2.3268e-05
2.32268e-05
2.31837e-05
2.31403e-05
2.31008e-05
2.30641e-05
2.30275e-05
2.29909e-05
2.29556e-05
2.29221e-05
2.55881e-05
2.55823e-05
2.55777e-05
2.55731e-05
2.55675e-05
2.55604e-05
2.55521e-05
2.5543e-05
2.55338e-05
2.55254e-05
2.55185e-05
2.55131e-05
2.55083e-05
2.55032e-05
2.54974e-05
2.54907e-05
2.54832e-05
2.54752e-05
2.54674e-05
2.54605e-05
2.54546e-05
2.54494e-05
2.54444e-05
2.54388e-05
2.54325e-05
2.54253e-05
2.54174e-05
2.54092e-05
2.54012e-05
2.53938e-05
2.53869e-05
2.53801e-05
2.5373e-05
2.53655e-05
2.53573e-05
2.53486e-05
2.53399e-05
2.53318e-05
2.53247e-05
2.53185e-05
2.5313e-05
2.53082e-05
2.53029e-05
2.5297e-05
2.52908e-05
2.52836e-05
2.52733e-05
2.52641e-05
2.52557e-05
2.52449e-05
2.52334e-05
2.52232e-05
2.52134e-05
2.52025e-05
2.51886e-05
2.51759e-05
2.51644e-05
2.51474e-05
2.51307e-05
2.51157e-05
2.50974e-05
2.50774e-05
2.50593e-05
2.50411e-05
2.50193e-05
2.49992e-05
2.49792e-05
2.49565e-05
2.49341e-05
2.49116e-05
2.48855e-05
2.48589e-05
2.48327e-05
2.48033e-05
2.47693e-05
2.47356e-05
2.47028e-05
2.46659e-05
2.46221e-05
2.45814e-05
2.45423e-05
2.45036e-05
2.44494e-05
2.44005e-05
2.43545e-05
2.43115e-05
2.4259e-05
2.42027e-05
2.41553e-05
2.4109e-05
2.40616e-05
2.40033e-05
2.39514e-05
2.39042e-05
2.38581e-05
2.38043e-05
2.37539e-05
2.37081e-05
2.36596e-05
2.36115e-05
2.35669e-05
2.35253e-05
2.34807e-05
2.34356e-05
2.33947e-05
2.33567e-05
2.33206e-05
2.32821e-05
2.32443e-05
2.3209e-05
2.56899e-05
2.56812e-05
2.56741e-05
2.56686e-05
2.56636e-05
2.56586e-05
2.56529e-05
2.56464e-05
2.56393e-05
2.5632e-05
2.56251e-05
2.56192e-05
2.56142e-05
2.56098e-05
2.56054e-05
2.56006e-05
2.55951e-05
2.5589e-05
2.55824e-05
2.55757e-05
2.55695e-05
2.55639e-05
2.55588e-05
2.55538e-05
2.55486e-05
2.55428e-05
2.55364e-05
2.55294e-05
2.55221e-05
2.55148e-05
2.55077e-05
2.55009e-05
2.54942e-05
2.54874e-05
2.54803e-05
2.54728e-05
2.54649e-05
2.5457e-05
2.54496e-05
2.54427e-05
2.54365e-05
2.54314e-05
2.54265e-05
2.54213e-05
2.54167e-05
2.54117e-05
2.5404e-05
2.5397e-05
2.53909e-05
2.5382e-05
2.53719e-05
2.5363e-05
2.53547e-05
2.53462e-05
2.53346e-05
2.53244e-05
2.53158e-05
2.53027e-05
2.52889e-05
2.5277e-05
2.52635e-05
2.52455e-05
2.52301e-05
2.52162e-05
2.51965e-05
2.51785e-05
2.51625e-05
2.51423e-05
2.51225e-05
2.51044e-05
2.5082e-05
2.50599e-05
2.50391e-05
2.50147e-05
2.49857e-05
2.4958e-05
2.4932e-05
2.49003e-05
2.48624e-05
2.48277e-05
2.47946e-05
2.47596e-05
2.47112e-05
2.46686e-05
2.46272e-05
2.45889e-05
2.45385e-05
2.44865e-05
2.44423e-05
2.43985e-05
2.43522e-05
2.42954e-05
2.42463e-05
2.42006e-05
2.41554e-05
2.41015e-05
2.40516e-05
2.4006e-05
2.39579e-05
2.39099e-05
2.38651e-05
2.38237e-05
2.37784e-05
2.37323e-05
2.36908e-05
2.36522e-05
2.36157e-05
2.35779e-05
2.35373e-05
2.34999e-05
2.58027e-05
2.57955e-05
2.57882e-05
2.57813e-05
2.57754e-05
2.57705e-05
2.57662e-05
2.5762e-05
2.57575e-05
2.57525e-05
2.57469e-05
2.57411e-05
2.57355e-05
2.57304e-05
2.57259e-05
2.57218e-05
2.57177e-05
2.57135e-05
2.57088e-05
2.57036e-05
2.5698e-05
2.56924e-05
2.56868e-05
2.56816e-05
2.56767e-05
2.56719e-05
2.56669e-05
2.56616e-05
2.56558e-05
2.56496e-05
2.5643e-05
2.56363e-05
2.56297e-05
2.56232e-05
2.56168e-05
2.56103e-05
2.56036e-05
2.55967e-05
2.55896e-05
2.55825e-05
2.55756e-05
2.55691e-05
2.55636e-05
2.55586e-05
2.55535e-05
2.55494e-05
2.55456e-05
2.554e-05
2.55347e-05
2.55305e-05
2.55235e-05
2.55157e-05
2.55084e-05
2.55012e-05
2.54944e-05
2.54854e-05
2.54764e-05
2.54694e-05
2.54602e-05
2.54485e-05
2.54388e-05
2.5429e-05
2.54141e-05
2.54008e-05
2.53897e-05
2.5373e-05
2.53566e-05
2.53431e-05
2.53257e-05
2.53072e-05
2.52917e-05
2.52726e-05
2.52532e-05
2.52357e-05
2.52148e-05
2.51899e-05
2.5167e-05
2.51466e-05
2.51181e-05
2.50859e-05
2.50566e-05
2.50297e-05
2.49963e-05
2.49548e-05
2.49186e-05
2.4882e-05
2.48481e-05
2.47996e-05
2.47537e-05
2.47131e-05
2.4673e-05
2.4626e-05
2.45734e-05
2.45286e-05
2.44854e-05
2.444e-05
2.43868e-05
2.43388e-05
2.42944e-05
2.42471e-05
2.41992e-05
2.41548e-05
2.41138e-05
2.40688e-05
2.40225e-05
2.39808e-05
2.39421e-05
2.39046e-05
2.38683e-05
2.38258e-05
2.37862e-05
2.59137e-05
2.59087e-05
2.59032e-05
2.58976e-05
2.58922e-05
2.58873e-05
2.58831e-05
2.58793e-05
2.58757e-05
2.5872e-05
2.58679e-05
2.58635e-05
2.5859e-05
2.58544e-05
2.58502e-05
2.58462e-05
2.58426e-05
2.58389e-05
2.58352e-05
2.58312e-05
2.58268e-05
2.58221e-05
2.58173e-05
2.58125e-05
2.58078e-05
2.58033e-05
2.57988e-05
2.57942e-05
2.57894e-05
2.57842e-05
2.57786e-05
2.57728e-05
2.57668e-05
2.57608e-05
2.57549e-05
2.5749e-05
2.5743e-05
2.57369e-05
2.57307e-05
2.57244e-05
2.57181e-05
2.5712e-05
2.57065e-05
2.57015e-05
2.56965e-05
2.56926e-05
2.56894e-05
2.5685e-05
2.5681e-05
2.56782e-05
2.5673e-05
2.56674e-05
2.56624e-05
2.56561e-05
2.56507e-05
2.56443e-05
2.56363e-05
2.56303e-05
2.56238e-05
2.56142e-05
2.56061e-05
2.55988e-05
2.5587e-05
2.55756e-05
2.55664e-05
2.55529e-05
2.55379e-05
2.5526e-05
2.55115e-05
2.54938e-05
2.54793e-05
2.54634e-05
2.54445e-05
2.54283e-05
2.5411e-05
2.53889e-05
2.5369e-05
2.53521e-05
2.53253e-05
2.52981e-05
2.52731e-05
2.52511e-05
2.52183e-05
2.51834e-05
2.51523e-05
2.51212e-05
2.50892e-05
2.50436e-05
2.50044e-05
2.49668e-05
2.49308e-05
2.48828e-05
2.48364e-05
2.47955e-05
2.47557e-05
2.47079e-05
2.46576e-05
2.46127e-05
2.45699e-05
2.45229e-05
2.44752e-05
2.44316e-05
2.4391e-05
2.43474e-05
2.43014e-05
2.42596e-05
2.42209e-05
2.41827e-05
2.41467e-05
2.41034e-05
2.40626e-05
2.40259e-05
2.39914e-05
2.60317e-05
2.6028e-05
2.6024e-05
2.60198e-05
2.60156e-05
2.60115e-05
2.60076e-05
2.60042e-05
2.60011e-05
2.59981e-05
2.59951e-05
2.59919e-05
2.59885e-05
2.5985e-05
2.59814e-05
2.5978e-05
2.59748e-05
2.59717e-05
2.59686e-05
2.59655e-05
2.59621e-05
2.59585e-05
2.59547e-05
2.59507e-05
2.59466e-05
2.59427e-05
2.59387e-05
2.59348e-05
2.59308e-05
2.59266e-05
2.59221e-05
2.59174e-05
2.59124e-05
2.59073e-05
2.59022e-05
2.5897e-05
2.58919e-05
2.58867e-05
2.58815e-05
2.58763e-05
2.58709e-05
2.58657e-05
2.58607e-05
2.5856e-05
2.58515e-05
2.58479e-05
2.58449e-05
2.58414e-05
2.58386e-05
2.58365e-05
2.58328e-05
2.58293e-05
2.58262e-05
2.58213e-05
2.58171e-05
2.58128e-05
2.58063e-05
2.5801e-05
2.57964e-05
2.57887e-05
2.57815e-05
2.57761e-05
2.5767e-05
2.57568e-05
2.57492e-05
2.57384e-05
2.57247e-05
2.57139e-05
2.57017e-05
2.5685e-05
2.5671e-05
2.56573e-05
2.56388e-05
2.56223e-05
2.56074e-05
2.5587e-05
2.5568e-05
2.55522e-05
2.55281e-05
2.55043e-05
2.54819e-05
2.54626e-05
2.54304e-05
2.54008e-05
2.53731e-05
2.53478e-05
2.53134e-05
2.52739e-05
2.52401e-05
2.52055e-05
2.51714e-05
2.51245e-05
2.50843e-05
2.5046e-05
2.5009e-05
2.49597e-05
2.49136e-05
2.48716e-05
2.4831e-05
2.47833e-05
2.47362e-05
2.4694e-05
2.46539e-05
2.46116e-05
2.45659e-05
2.45243e-05
2.44854e-05
2.44466e-05
2.44087e-05
2.43676e-05
2.43268e-05
2.42894e-05
2.42541e-05
2.61634e-05
2.61597e-05
2.61564e-05
2.61534e-05
2.61505e-05
2.61475e-05
2.61445e-05
2.61414e-05
2.61384e-05
2.61356e-05
2.6133e-05
2.61307e-05
2.61284e-05
2.61262e-05
2.61238e-05
2.61214e-05
2.61188e-05
2.61163e-05
2.61137e-05
2.61113e-05
2.61089e-05
2.61066e-05
2.61042e-05
2.61016e-05
2.60989e-05
2.60959e-05
2.60929e-05
2.60898e-05
2.60866e-05
2.60835e-05
2.60804e-05
2.60772e-05
2.60739e-05
2.60703e-05
2.60666e-05
2.60627e-05
2.60587e-05
2.60547e-05
2.60506e-05
2.60465e-05
2.60424e-05
2.60383e-05
2.60342e-05
2.60301e-05
2.60261e-05
2.60222e-05
2.60186e-05
2.60155e-05
2.60129e-05
2.60101e-05
2.60082e-05
2.60067e-05
2.60042e-05
2.60023e-05
2.60005e-05
2.59971e-05
2.59942e-05
2.59914e-05
2.59866e-05
2.59821e-05
2.59787e-05
2.59727e-05
2.59662e-05
2.59618e-05
2.59546e-05
2.59454e-05
2.59389e-05
2.593e-05
2.59175e-05
2.59075e-05
2.58969e-05
2.58813e-05
2.58673e-05
2.58549e-05
2.58372e-05
2.58199e-05
2.58056e-05
2.57866e-05
2.57668e-05
2.57505e-05
2.57295e-05
2.57066e-05
2.56856e-05
2.56668e-05
2.56365e-05
2.56101e-05
2.55843e-05
2.5562e-05
2.55263e-05
2.54924e-05
2.54614e-05
2.54315e-05
2.53948e-05
2.5353e-05
2.53172e-05
2.52812e-05
2.52445e-05
2.5196e-05
2.51542e-05
2.51146e-05
2.50763e-05
2.50275e-05
2.49819e-05
2.49411e-05
2.49017e-05
2.48599e-05
2.48147e-05
2.47735e-05
2.47346e-05
2.46955e-05
2.46563e-05
2.46165e-05
2.45766e-05
2.45387e-05
2.45025e-05
2.62925e-05
2.62896e-05
2.6287e-05
2.62846e-05
2.62825e-05
2.62804e-05
2.62784e-05
2.62764e-05
2.62744e-05
2.62725e-05
2.62707e-05
2.62691e-05
2.62676e-05
2.62662e-05
2.62648e-05
2.62634e-05
2.6262e-05
2.62604e-05
2.62589e-05
2.62573e-05
2.62558e-05
2.62544e-05
2.62529e-05
2.62514e-05
2.62498e-05
2.62481e-05
2.62462e-05
2.62442e-05
2.62422e-05
2.62402e-05
2.62381e-05
2.62361e-05
2.62339e-05
2.62317e-05
2.62294e-05
2.62269e-05
2.62243e-05
2.62216e-05
2.62189e-05
2.62161e-05
2.62134e-05
2.62106e-05
2.62078e-05
2.6205e-05
2.62022e-05
2.61995e-05
2.61969e-05
2.61947e-05
2.61926e-05
2.61907e-05
2.61895e-05
2.61884e-05
2.61869e-05
2.61861e-05
2.61851e-05
2.6183e-05
2.61814e-05
2.61797e-05
2.61761e-05
2.61726e-05
2.61699e-05
2.61651e-05
2.61592e-05
2.61554e-05
2.61493e-05
2.61407e-05
2.61346e-05
2.61269e-05
2.61153e-05
2.61055e-05
2.60958e-05
2.60813e-05
2.6067e-05
2.6055e-05
2.60384e-05
2.60201e-05
2.60051e-05
2.59875e-05
2.59663e-05
2.5948e-05
2.59297e-05
2.59062e-05
2.58843e-05
2.58653e-05
2.58382e-05
2.58124e-05
2.57877e-05
2.57655e-05
2.57306e-05
2.57e-05
2.56702e-05
2.56435e-05
2.5605e-05
2.5568e-05
2.55342e-05
2.55017e-05
2.54622e-05
2.54174e-05
2.53789e-05
2.53406e-05
2.53042e-05
2.52558e-05
2.52119e-05
2.5172e-05
2.51325e-05
2.50917e-05
2.50476e-05
2.50067e-05
2.49678e-05
2.49289e-05
2.48895e-05
2.48498e-05
2.48104e-05
2.47722e-05
2.47353e-05
2.4699e-05
2.64435e-05
2.64404e-05
2.64375e-05
2.64349e-05
2.64325e-05
2.64303e-05
2.64281e-05
2.6426e-05
2.64241e-05
2.64223e-05
2.64208e-05
2.64195e-05
2.64183e-05
2.64172e-05
2.64162e-05
2.64153e-05
2.64144e-05
2.64135e-05
2.64128e-05
2.64122e-05
2.64117e-05
2.64113e-05
2.64109e-05
2.64105e-05
2.64101e-05
2.64097e-05
2.64093e-05
2.64088e-05
2.64085e-05
2.64081e-05
2.64078e-05
2.64074e-05
2.64069e-05
2.64064e-05
2.64058e-05
2.64051e-05
2.64044e-05
2.64036e-05
2.64029e-05
2.64021e-05
2.64014e-05
2.64005e-05
2.63996e-05
2.63985e-05
2.63974e-05
2.63962e-05
2.63949e-05
2.63936e-05
2.63923e-05
2.63909e-05
2.63895e-05
2.63881e-05
2.63867e-05
2.63853e-05
2.6384e-05
2.63828e-05
2.63818e-05
2.63811e-05
2.63804e-05
2.63797e-05
2.63794e-05
2.63789e-05
2.63777e-05
2.63769e-05
2.63757e-05
2.6373e-05
2.63704e-05
2.6368e-05
2.63637e-05
2.63583e-05
2.63546e-05
2.63488e-05
2.63405e-05
2.63343e-05
2.63269e-05
2.63157e-05
2.63056e-05
2.62962e-05
2.62824e-05
2.62674e-05
2.62551e-05
2.62392e-05
2.622e-05
2.62036e-05
2.61867e-05
2.61647e-05
2.61441e-05
2.6126e-05
2.61027e-05
2.60786e-05
2.60576e-05
2.6034e-05
2.60067e-05
2.59813e-05
2.59586e-05
2.59267e-05
2.58966e-05
2.58671e-05
2.58407e-05
2.58028e-05
2.57688e-05
2.57356e-05
2.57052e-05
2.5664e-05
2.5623e-05
2.55862e-05
2.5549e-05
2.55136e-05
2.5467e-05
2.54248e-05
2.53854e-05
2.53458e-05
2.53058e-05
2.52636e-05
2.5223e-05
2.5184e-05
2.51452e-05
2.5106e-05
2.50665e-05
2.50273e-05
2.49888e-05
2.49511e-05
2.49141e-05
2.65747e-05
2.65725e-05
2.65705e-05
2.65687e-05
2.65672e-05
2.65659e-05
2.65647e-05
2.65637e-05
2.65627e-05
2.65619e-05
2.65613e-05
2.65608e-05
2.65605e-05
2.65604e-05
2.65604e-05
2.65605e-05
2.65607e-05
2.65609e-05
2.65612e-05
2.65616e-05
2.65622e-05
2.65628e-05
2.65635e-05
2.65643e-05
2.65651e-05
2.65659e-05
2.65667e-05
2.65676e-05
2.65684e-05
2.65693e-05
2.65703e-05
2.65712e-05
2.65722e-05
2.65731e-05
2.6574e-05
2.65748e-05
2.65756e-05
2.65763e-05
2.65771e-05
2.65779e-05
2.65786e-05
2.65793e-05
2.658e-05
2.65806e-05
2.65811e-05
2.65815e-05
2.65818e-05
2.65821e-05
2.65822e-05
2.65823e-05
2.65824e-05
2.65823e-05
2.65821e-05
2.65819e-05
2.65816e-05
2.65813e-05
2.6581e-05
2.65807e-05
2.65804e-05
2.65801e-05
2.658e-05
2.65796e-05
2.65788e-05
2.65782e-05
2.6577e-05
2.65747e-05
2.65724e-05
2.65699e-05
2.65656e-05
2.65603e-05
2.65562e-05
2.65501e-05
2.65415e-05
2.65347e-05
2.65269e-05
2.65155e-05
2.65044e-05
2.64946e-05
2.64809e-05
2.64648e-05
2.64515e-05
2.64358e-05
2.64158e-05
2.63976e-05
2.63805e-05
2.63582e-05
2.63352e-05
2.63154e-05
2.62929e-05
2.62664e-05
2.62425e-05
2.62204e-05
2.61924e-05
2.61645e-05
2.61394e-05
2.61122e-05
2.60807e-05
2.60501e-05
2.6022e-05
2.59881e-05
2.59547e-05
2.59212e-05
2.58901e-05
2.58498e-05
2.58113e-05
2.57754e-05
2.57388e-05
2.57029e-05
2.566e-05
2.56192e-05
2.55801e-05
2.55408e-05
2.55011e-05
2.54605e-05
2.54205e-05
2.53814e-05
2.53426e-05
2.53037e-05
2.52645e-05
2.52254e-05
2.51866e-05
2.51485e-05
2.51108e-05
2.67094e-05
2.67081e-05
2.6707e-05
2.67062e-05
2.67056e-05
2.67051e-05
2.67049e-05
2.67049e-05
2.67049e-05
2.67051e-05
2.67055e-05
2.6706e-05
2.67067e-05
2.67076e-05
2.67086e-05
2.67098e-05
2.67111e-05
2.67124e-05
2.67139e-05
2.67155e-05
2.67172e-05
2.6719e-05
2.67209e-05
2.67229e-05
2.6725e-05
2.67271e-05
2.67293e-05
2.67315e-05
2.67338e-05
2.67361e-05
2.67385e-05
2.67409e-05
2.67433e-05
2.67458e-05
2.67482e-05
2.67507e-05
2.67531e-05
2.67555e-05
2.67579e-05
2.67602e-05
2.67626e-05
2.67649e-05
2.67672e-05
2.67694e-05
2.67715e-05
2.67735e-05
2.67754e-05
2.67772e-05
2.67788e-05
2.67802e-05
2.67815e-05
2.67827e-05
2.67836e-05
2.67844e-05
2.6785e-05
2.67854e-05
2.67856e-05
2.67856e-05
2.67855e-05
2.67852e-05
2.67849e-05
2.67842e-05
2.67833e-05
2.67821e-05
2.67805e-05
2.67779e-05
2.67752e-05
2.67719e-05
2.6767e-05
2.67614e-05
2.67562e-05
2.67492e-05
2.67399e-05
2.67319e-05
2.6723e-05
2.67108e-05
2.66981e-05
2.66872e-05
2.66727e-05
2.66553e-05
2.66403e-05
2.66241e-05
2.66033e-05
2.65828e-05
2.65646e-05
2.6542e-05
2.65168e-05
2.64945e-05
2.64721e-05
2.6444e-05
2.64175e-05
2.63936e-05
2.63664e-05
2.63355e-05
2.6308e-05
2.6282e-05
2.62508e-05
2.62175e-05
2.61871e-05
2.61566e-05
2.61232e-05
2.60885e-05
2.60548e-05
2.60182e-05
2.59812e-05
2.59449e-05
2.59084e-05
2.58719e-05
2.58326e-05
2.5793e-05
2.57542e-05
2.57153e-05
2.56761e-05
2.56365e-05
2.5597e-05
2.5558e-05
2.55193e-05
2.54806e-05
2.54417e-05
2.54027e-05
2.5364e-05
2.53256e-05
2.52874e-05
2.68469e-05
2.68467e-05
2.68466e-05
2.68467e-05
2.6847e-05
2.68476e-05
2.68483e-05
2.68492e-05
2.68503e-05
2.68516e-05
2.6853e-05
2.68546e-05
2.68564e-05
2.68583e-05
2.68604e-05
2.68627e-05
2.68651e-05
2.68677e-05
2.68704e-05
2.68732e-05
2.68762e-05
2.68793e-05
2.68825e-05
2.68858e-05
2.68893e-05
2.68928e-05
2.68965e-05
2.69002e-05
2.69039e-05
2.69078e-05
2.69117e-05
2.69156e-05
2.69197e-05
2.69237e-05
2.69278e-05
2.69319e-05
2.6936e-05
2.694e-05
2.6944e-05
2.6948e-05
2.6952e-05
2.69559e-05
2.69597e-05
2.69635e-05
2.69671e-05
2.69705e-05
2.69738e-05
2.69769e-05
2.69798e-05
2.69824e-05
2.69848e-05
2.69868e-05
2.69886e-05
2.69901e-05
2.69912e-05
2.6992e-05
2.69924e-05
2.69924e-05
2.69921e-05
2.69915e-05
2.69905e-05
2.69891e-05
2.69874e-05
2.69852e-05
2.69824e-05
2.69789e-05
2.6975e-05
2.69703e-05
2.69642e-05
2.69575e-05
2.69506e-05
2.6942e-05
2.69314e-05
2.69216e-05
2.69109e-05
2.68972e-05
2.68825e-05
2.68697e-05
2.68538e-05
2.68346e-05
2.68173e-05
2.67999e-05
2.67779e-05
2.67549e-05
2.67347e-05
2.67115e-05
2.66844e-05
2.66593e-05
2.66359e-05
2.6607e-05
2.65776e-05
2.6551e-05
2.65243e-05
2.64913e-05
2.64615e-05
2.64334e-05
2.64042e-05
2.63679e-05
2.63355e-05
2.63046e-05
2.62728e-05
2.62364e-05
2.62004e-05
2.61652e-05
2.61295e-05
2.60933e-05
2.60569e-05
2.60201e-05
2.59824e-05
2.59441e-05
2.59058e-05
2.58674e-05
2.58287e-05
2.57898e-05
2.57509e-05
2.57122e-05
2.56737e-05
2.56351e-05
2.55965e-05
2.55578e-05
2.55191e-05
2.54806e-05
2.54423e-05
2.54041e-05
2.53659e-05
2.6987e-05
2.69877e-05
2.69886e-05
2.69897e-05
2.69911e-05
2.69926e-05
2.69943e-05
2.69963e-05
2.69984e-05
2.70008e-05
2.70033e-05
2.7006e-05
2.70089e-05
2.7012e-05
2.70153e-05
2.70188e-05
2.70224e-05
2.70263e-05
2.70303e-05
2.70344e-05
2.70387e-05
2.70432e-05
2.70478e-05
2.70525e-05
2.70574e-05
2.70625e-05
2.70676e-05
2.70728e-05
2.70782e-05
2.70836e-05
2.70891e-05
2.70946e-05
2.71002e-05
2.71059e-05
2.71116e-05
2.71173e-05
2.7123e-05
2.71286e-05
2.71342e-05
2.71398e-05
2.71452e-05
2.71506e-05
2.71558e-05
2.71609e-05
2.71657e-05
2.71704e-05
2.71748e-05
2.7179e-05
2.71828e-05
2.71862e-05
2.71893e-05
2.71919e-05
2.71941e-05
2.71959e-05
2.71971e-05
2.71978e-05
2.71979e-05
2.71975e-05
2.71966e-05
2.71951e-05
2.71931e-05
2.71905e-05
2.71873e-05
2.71835e-05
2.7179e-05
2.71737e-05
2.71679e-05
2.71611e-05
2.71532e-05
2.71445e-05
2.71353e-05
2.71245e-05
2.71119e-05
2.70997e-05
2.70865e-05
2.70707e-05
2.70536e-05
2.70382e-05
2.70202e-05
2.69988e-05
2.69786e-05
2.69592e-05
2.69356e-05
2.691e-05
2.68871e-05
2.68629e-05
2.68339e-05
2.6806e-05
2.67806e-05
2.67511e-05
2.67189e-05
2.66896e-05
2.66621e-05
2.66281e-05
2.65954e-05
2.65653e-05
2.65365e-05
2.64988e-05
2.64641e-05
2.64321e-05
2.64009e-05
2.63635e-05
2.63252e-05
2.62897e-05
2.62547e-05
2.6219e-05
2.61827e-05
2.61461e-05
2.6109e-05
2.60714e-05
2.60337e-05
2.59958e-05
2.59578e-05
2.59195e-05
2.58812e-05
2.58428e-05
2.58045e-05
2.57663e-05
2.57279e-05
2.56895e-05
2.56511e-05
2.56127e-05
2.55743e-05
2.5536e-05
2.54975e-05
2.71291e-05
2.71308e-05
2.71327e-05
2.71349e-05
2.71372e-05
2.71398e-05
2.71426e-05
2.71456e-05
2.71489e-05
2.71523e-05
2.7156e-05
2.71599e-05
2.7164e-05
2.71683e-05
2.71728e-05
2.71776e-05
2.71825e-05
2.71876e-05
2.7193e-05
2.71985e-05
2.72042e-05
2.72101e-05
2.72161e-05
2.72223e-05
2.72287e-05
2.72352e-05
2.72419e-05
2.72487e-05
2.72556e-05
2.72625e-05
2.72696e-05
2.72767e-05
2.72839e-05
2.72911e-05
2.72983e-05
2.73055e-05
2.73127e-05
2.73198e-05
2.73268e-05
2.73336e-05
2.73404e-05
2.73469e-05
2.73533e-05
2.73594e-05
2.73652e-05
2.73708e-05
2.73759e-05
2.73807e-05
2.7385e-05
2.73888e-05
2.73921e-05
2.73949e-05
2.7397e-05
2.73985e-05
2.73993e-05
2.73993e-05
2.73987e-05
2.73974e-05
2.73952e-05
2.73924e-05
2.73887e-05
2.73843e-05
2.73791e-05
2.73731e-05
2.73662e-05
2.73585e-05
2.73501e-05
2.73406e-05
2.733e-05
2.73187e-05
2.73065e-05
2.72928e-05
2.72777e-05
2.72625e-05
2.72462e-05
2.72276e-05