/*--------------------------------*- C++ -*----------------------------------*\
| =========                 |                                                 |
| \\      /  F ield         | OpenFOAM: The Open Source CFD Toolbox           |
|  \\    /   O peration     | Version:  v1706                                 |
|   \\  /    A nd           | Web:      www.OpenFOAM.com                      |
|    \\/     M anipulation  |                                                 |
\*---------------------------------------------------------------------------*/
FoamFile
{
    version     2.0;
    format      ascii;
    class       volScalarField;
    location    "3.7e-05";
    object      kappatr;
}
// * * * * * * * * * * * * * * * * * * * * * * * * * * * * * * * * * * * * * //

dimensions      [1 1 -3 -1 0 0 0];


internalField   nonuniform List<scalar> 
29871
(
0.0146868
0.0147002
0.0147154
0.0147325
0.0147517
0.014773
0.0147965
0.0148225
0.0148516
0.0148847
0.0149224
0.0149651
0.0150131
0.0150662
0.0151243
0.0151868
0.0152539
0.0153265
0.015407
0.0154968
0.0155958
0.0157024
0.0158152
0.0159328
0.0160541
0.0161778
0.0163025
0.0164268
0.0165493
0.01667
0.016792
0.0169362
0.017113
0.0173117
0.0175203
0.0177296
0.0179331
0.0181268
0.018308
0.0184755
0.0186291
0.0187694
0.0188969
0.0190123
0.0191161
0.0192083
0.0192891
0.0193582
0.0194159
0.0194628
0.0194995
0.0195267
0.0195454
0.0195569
0.0195598
0.0195571
0.0195506
0.019542
0.0195293
0.0195129
0.019496
0.0194773
0.0194564
0.0194334
0.0194088
0.019383
0.0193552
0.0193255
0.019295
0.0192631
0.0192288
0.0191931
0.019157
0.0191194
0.01908
0.0190393
0.0189973
0.0189536
0.0189087
0.0188627
0.0188155
0.0187673
0.0187184
0.0186689
0.018619
0.0185687
0.0185182
0.0184674
0.0184161
0.0183642
0.0183115
0.018258
0.0182036
0.0181482
0.0180919
0.0180346
0.0179765
0.0179179
0.0178589
0.0177994
0.0177397
0.0176798
0.0176196
0.0175592
0.0174985
0.015162
0.0152395
0.0153272
0.0154258
0.0155355
0.0156564
0.0157887
0.0159335
0.0160937
0.0162722
0.0164697
0.0166854
0.0169173
0.0171628
0.017419
0.0176834
0.0179544
0.0182341
0.0185408
0.0188859
0.0192624
0.0196589
0.0200634
0.0204651
0.0208545
0.0212245
0.0215697
0.021887
0.0221746
0.0224326
0.0226615
0.0228588
0.0230235
0.0231579
0.023265
0.0233482
0.0234101
0.0234538
0.0234825
0.0235007
0.0235127
0.0235215
0.0235289
0.0235357
0.023542
0.0235475
0.0235522
0.0235539
0.0235523
0.0235484
0.023542
0.0235318
0.0235178
0.0235
0.0234785
0.0234538
0.0234268
0.0233973
0.0233663
0.0233361
0.0233054
0.0232731
0.0232409
0.0232089
0.0231773
0.0231465
0.0231158
0.0230846
0.0230535
0.0230227
0.0229913
0.0229607
0.02293
0.0228989
0.0228675
0.0228362
0.0228038
0.0227708
0.0227378
0.0227042
0.02267
0.0226356
0.0226012
0.0225667
0.0225321
0.0224976
0.0224633
0.022429
0.0223949
0.0223608
0.0223266
0.0222925
0.0222585
0.0222248
0.0221915
0.0221588
0.0221265
0.0220947
0.0220632
0.0220321
0.0220011
0.0219703
0.0219397
0.0219092
0.0218789
0.0162862
0.0164978
0.0167329
0.0169911
0.0172706
0.0175688
0.017883
0.0182108
0.0185528
0.0189198
0.0193274
0.0197705
0.0202378
0.0207159
0.0211914
0.0216526
0.0220903
0.022498
0.0228709
0.0232032
0.0234927
0.0237426
0.0239569
0.0241405
0.0242976
0.0244318
0.0245453
0.0246394
0.0247145
0.0247708
0.0248105
0.0248374
0.024855
0.0248658
0.0248694
0.0248671
0.0248606
0.024848
0.024828
0.0248002
0.0247659
0.0247276
0.0246872
0.0246461
0.0246054
0.0245659
0.0245282
0.0244926
0.0244593
0.0244278
0.0243979
0.0243693
0.0243413
0.0243133
0.0242846
0.0242547
0.0242233
0.0241903
0.0241554
0.0241188
0.0240808
0.0240417
0.0240018
0.0239612
0.0239199
0.0238785
0.0238363
0.0237967
0.0237567
0.0237131
0.0236738
0.0236384
0.0235986
0.0235574
0.023521
0.0234863
0.0234486
0.0234116
0.0233775
0.023343
0.0233081
0.0232744
0.0232415
0.0232087
0.0231762
0.0231443
0.0231128
0.0230815
0.0230505
0.0230198
0.0229894
0.0229593
0.0229295
0.0229001
0.0228711
0.0228427
0.0228152
0.0227885
0.0227627
0.0227379
0.022714
0.022691
0.0226688
0.0226473
0.0226265
0.0226063
0.0190399
0.0194738
0.0199447
0.0204427
0.0209543
0.0214655
0.0219633
0.0224375
0.0228799
0.0232824
0.0236392
0.023951
0.0242207
0.0244516
0.0246479
0.0248136
0.0249524
0.0250673
0.0251607
0.0252343
0.0252898
0.0253292
0.0253557
0.0253735
0.0253868
0.0253981
0.0254088
0.0254187
0.025427
0.0254279
0.0254239
0.0254147
0.0254011
0.0253845
0.0253655
0.0253449
0.025324
0.025304
0.0252853
0.0252665
0.0252449
0.0252184
0.0251869
0.0251513
0.0251128
0.0250726
0.0250319
0.0249914
0.0249518
0.0249136
0.024877
0.0248419
0.0248082
0.0247756
0.0247434
0.0247111
0.0246779
0.0246434
0.024607
0.0245686
0.0245278
0.024485
0.0244403
0.024394
0.0243459
0.0242973
0.024247
0.0241989
0.0241503
0.0240973
0.0240487
0.0240043
0.0239556
0.0239048
0.0238592
0.0238157
0.0237694
0.0237235
0.0236809
0.0236385
0.0235962
0.0235556
0.0235158
0.0234764
0.0234378
0.0234
0.0233627
0.0233258
0.0232894
0.0232536
0.0232183
0.0231836
0.0231494
0.0231158
0.0230828
0.0230504
0.0230187
0.0229879
0.0229579
0.0229291
0.0229014
0.0228749
0.0228496
0.0228255
0.0228024
0.0227805
0.0228376
0.0232812
0.0236779
0.0240269
0.0243299
0.02459
0.0248114
0.0249985
0.0251558
0.0252869
0.0253948
0.0254823
0.025552
0.0256061
0.0256466
0.0256762
0.0256986
0.0257166
0.0257318
0.0257445
0.0257546
0.0257611
0.0257606
0.025756
0.0257466
0.0257341
0.0257202
0.0257068
0.0256954
0.0256878
0.0256842
0.0256828
0.0256798
0.0256726
0.0256603
0.0256435
0.0256234
0.0256014
0.025579
0.0255581
0.0255396
0.0255214
0.0255012
0.0254775
0.0254497
0.0254181
0.0253832
0.025346
0.0253073
0.0252678
0.0252281
0.0251889
0.0251504
0.0251127
0.0250759
0.0250397
0.0250039
0.024968
0.0249317
0.0248944
0.0248557
0.0248154
0.0247731
0.024729
0.0246831
0.0246353
0.0245856
0.0245346
0.0244833
0.0244325
0.0243776
0.0243247
0.0242766
0.0242237
0.0241668
0.0241153
0.0240677
0.0240163
0.0239634
0.0239141
0.0238652
0.0238182
0.0237738
0.023729
0.0236836
0.0236409
0.0235996
0.0235584
0.0235169
0.0234765
0.0234373
0.0233988
0.0233608
0.0233234
0.0232869
0.0232512
0.0232164
0.0231824
0.0231492
0.0231171
0.0230859
0.0230558
0.0230267
0.0229987
0.022972
0.0229465
0.0229224
0.0253632
0.0254938
0.0256008
0.0256873
0.0257561
0.0258097
0.0258502
0.0258808
0.0259052
0.0259257
0.0259434
0.0259583
0.0259703
0.0259789
0.0259826
0.0259814
0.0259775
0.0259714
0.0259643
0.0259574
0.0259508
0.0259448
0.0259405
0.0259368
0.0259312
0.0259222
0.0259092
0.0258944
0.0258789
0.0258647
0.0258538
0.0258477
0.0258433
0.0258379
0.0258297
0.0258178
0.0258023
0.0257837
0.0257632
0.0257416
0.0257206
0.0257014
0.0256836
0.0256659
0.0256467
0.025625
0.0256005
0.0255733
0.0255438
0.0255123
0.0254793
0.0254455
0.0254112
0.0253765
0.0253421
0.0253079
0.0252738
0.0252396
0.0252053
0.0251704
0.0251344
0.0250971
0.0250582
0.0250175
0.0249747
0.0249299
0.0248828
0.0248337
0.0247828
0.0247314
0.0246776
0.0246229
0.0245711
0.0245192
0.0244589
0.0244033
0.0243509
0.0242993
0.0242397
0.0241821
0.0241291
0.0240788
0.0240306
0.0239789
0.0239268
0.0238796
0.0238347
0.0237881
0.0237397
0.0236945
0.0236513
0.0236082
0.0235649
0.0235225
0.0234817
0.023442
0.023403
0.0233648
0.0233278
0.0232918
0.0232569
0.0232232
0.0231906
0.0231593
0.0231292
0.0231005
0.0230733
0.0259682
0.0260116
0.0260449
0.0260718
0.0260944
0.0261137
0.0261297
0.0261425
0.0261517
0.0261562
0.0261558
0.0261533
0.0261494
0.026145
0.0261405
0.0261365
0.0261334
0.0261316
0.0261303
0.0261273
0.0261212
0.0261128
0.0261028
0.0260916
0.0260805
0.0260717
0.026065
0.0260587
0.0260512
0.0260414
0.0260295
0.0260153
0.0260003
0.025986
0.0259745
0.0259657
0.0259596
0.0259541
0.0259474
0.0259385
0.025927
0.0259129
0.0258965
0.0258789
0.0258614
0.0258445
0.025829
0.0258141
0.0257984
0.025781
0.0257618
0.0257407
0.0257171
0.0256914
0.0256641
0.0256357
0.025606
0.0255757
0.0255457
0.0255153
0.0254843
0.0254536
0.0254225
0.0253904
0.0253575
0.0253234
0.0252875
0.0252498
0.0252101
0.025168
0.0251237
0.0250771
0.0250285
0.0249785
0.0249257
0.0248736
0.0248239
0.0247663
0.0247091
0.0246548
0.0246046
0.0245456
0.0244826
0.0244268
0.0243743
0.0243245
0.0242672
0.0242102
0.0241595
0.0241122
0.0240618
0.0240079
0.0239583
0.0239124
0.0238657
0.0238168
0.0237704
0.0237268
0.0236834
0.02364
0.0235983
0.0235582
0.0235191
0.0234807
0.0234437
0.0234082
0.0233741
0.0233411
0.0233095
0.0232794
0.0263094
0.0263149
0.0263153
0.0263138
0.0263112
0.0263078
0.0263045
0.0263017
0.0262997
0.0262994
0.0262984
0.0262952
0.0262897
0.0262822
0.0262732
0.0262637
0.026255
0.0262481
0.0262437
0.0262393
0.0262337
0.0262266
0.0262174
0.0262066
0.0261951
0.0261838
0.0261737
0.0261651
0.0261576
0.02615
0.0261416
0.0261314
0.0261198
0.0261078
0.026096
0.0260858
0.0260779
0.0260715
0.0260662
0.0260607
0.026054
0.0260455
0.0260346
0.0260216
0.0260078
0.025993
0.0259784
0.0259649
0.0259518
0.025938
0.0259232
0.0259077
0.0258906
0.025871
0.0258496
0.0258273
0.0258035
0.0257779
0.0257528
0.0257273
0.0257001
0.0256731
0.0256467
0.025619
0.0255904
0.0255616
0.025531
0.0254989
0.0254655
0.0254296
0.0253916
0.0253516
0.025309
0.0252647
0.025217
0.0251688
0.0251222
0.0250706
0.0250151
0.0249626
0.0249135
0.0248609
0.024797
0.02474
0.0246867
0.0246369
0.0245778
0.024518
0.024466
0.0244169
0.0243655
0.0243075
0.0242547
0.0242065
0.0241579
0.024105
0.0240557
0.02401
0.0239632
0.0239156
0.0238718
0.02383
0.0237878
0.0237458
0.0237065
0.023669
0.0236325
0.023597
0.0235627
0.0235301
0.0264603
0.0264602
0.0264594
0.0264563
0.0264512
0.0264438
0.0264352
0.0264264
0.0264186
0.0264129
0.0264086
0.0264042
0.0263988
0.0263916
0.026383
0.0263733
0.0263633
0.0263537
0.0263456
0.0263392
0.0263335
0.0263279
0.0263215
0.0263137
0.0263049
0.0262952
0.0262855
0.0262765
0.0262685
0.0262611
0.0262541
0.0262464
0.0262377
0.0262283
0.0262181
0.0262079
0.0261987
0.026191
0.0261848
0.0261791
0.0261739
0.0261683
0.0261612
0.0261524
0.0261429
0.0261316
0.0261188
0.0261069
0.0260956
0.0260832
0.0260706
0.0260577
0.0260451
0.0260306
0.0260134
0.0259961
0.0259788
0.0259574
0.0259363
0.0259161
0.025893
0.0258693
0.0258469
0.0258236
0.0257985
0.0257745
0.025749
0.0257216
0.0256942
0.0256647
0.0256327
0.0255996
0.0255648
0.0255274
0.025486
0.025444
0.025403
0.0253581
0.0253068
0.0252588
0.0252129
0.0251671
0.0251059
0.0250506
0.024999
0.0249508
0.0248935
0.0248331
0.0247816
0.0247322
0.0246815
0.0246213
0.0245669
0.0245176
0.0244689
0.0244139
0.0243624
0.0243153
0.024266
0.0242165
0.0241711
0.0241283
0.0240835
0.0240385
0.0239974
0.0239592
0.0239212
0.0238832
0.0238465
0.0238118
0.0265812
0.0265752
0.0265704
0.0265657
0.0265598
0.0265525
0.0265438
0.0265344
0.0265249
0.0265161
0.0265089
0.0265033
0.0264983
0.0264931
0.026487
0.02648
0.0264722
0.026464
0.0264559
0.0264487
0.0264425
0.0264371
0.0264319
0.0264262
0.0264196
0.0264121
0.0264038
0.0263954
0.0263871
0.0263794
0.0263722
0.0263651
0.0263577
0.0263499
0.0263415
0.0263324
0.0263234
0.026315
0.0263076
0.0263011
0.0262955
0.0262904
0.026285
0.0262788
0.0262724
0.0262649
0.0262542
0.0262446
0.0262359
0.0262247
0.0262127
0.0262022
0.026192
0.0261806
0.0261663
0.026153
0.026141
0.0261234
0.0261061
0.0260904
0.0260715
0.0260507
0.0260318
0.026013
0.0259904
0.0259695
0.0259487
0.0259251
0.0259018
0.0258785
0.0258513
0.0258238
0.0257965
0.025766
0.0257307
0.0256956
0.0256616
0.0256232
0.0255777
0.0255355
0.0254948
0.0254546
0.0253983
0.0253475
0.0252998
0.0252551
0.0252005
0.0251421
0.0250928
0.0250447
0.0249954
0.0249349
0.024881
0.0248319
0.024784
0.0247282
0.0246759
0.0246283
0.0245778
0.0245279
0.0244816
0.0244384
0.024392
0.0243451
0.0243027
0.0242632
0.0242257
0.0241858
0.0241465
0.0241098
0.026687
0.0266779
0.0266706
0.0266648
0.0266597
0.0266544
0.0266485
0.0266418
0.0266344
0.0266268
0.0266197
0.0266135
0.0266084
0.0266038
0.0265992
0.0265942
0.0265885
0.0265821
0.0265752
0.0265684
0.0265619
0.0265561
0.0265507
0.0265456
0.0265401
0.0265342
0.0265275
0.0265202
0.0265127
0.0265051
0.0264977
0.0264907
0.0264837
0.0264766
0.0264693
0.0264614
0.0264533
0.0264451
0.0264373
0.0264302
0.0264237
0.0264184
0.0264133
0.0264079
0.0264031
0.026398
0.02639
0.0263827
0.0263764
0.0263671
0.0263566
0.0263473
0.0263388
0.0263299
0.0263179
0.0263072
0.0262983
0.0262848
0.0262704
0.0262581
0.026244
0.0262254
0.0262093
0.0261949
0.0261744
0.0261557
0.0261391
0.0261181
0.0260976
0.0260787
0.0260555
0.0260325
0.0260109
0.0259856
0.0259554
0.0259266
0.0258996
0.0258667
0.0258273
0.0257913
0.0257569
0.0257206
0.0256703
0.025626
0.0255831
0.0255432
0.0254909
0.0254369
0.025391
0.0253454
0.0252974
0.0252384
0.0251874
0.0251399
0.0250929
0.0250369
0.0249851
0.0249377
0.0248877
0.0248378
0.0247914
0.0247483
0.0247012
0.0246534
0.0246103
0.0245702
0.0245323
0.024493
0.0244509
0.024412
0.0268041
0.0267967
0.0267891
0.0267819
0.0267758
0.0267707
0.0267663
0.0267619
0.0267572
0.026752
0.0267462
0.0267402
0.0267343
0.026729
0.0267243
0.0267201
0.0267159
0.0267114
0.0267066
0.0267012
0.0266954
0.0266895
0.0266838
0.0266784
0.0266733
0.0266683
0.0266631
0.0266576
0.0266516
0.0266451
0.0266383
0.0266313
0.0266245
0.0266177
0.026611
0.0266043
0.0265974
0.0265902
0.0265827
0.0265754
0.0265683
0.0265615
0.0265558
0.0265506
0.0265452
0.026541
0.0265371
0.0265312
0.0265258
0.0265214
0.0265141
0.026506
0.0264984
0.026491
0.0264839
0.0264746
0.0264652
0.0264579
0.0264484
0.0264362
0.0264262
0.026416
0.0264004
0.0263867
0.0263751
0.0263578
0.0263407
0.0263267
0.0263087
0.0262894
0.0262733
0.0262535
0.0262333
0.0262151
0.0261935
0.0261675
0.0261437
0.0261226
0.0260929
0.0260595
0.0260291
0.0260011
0.0259665
0.0259234
0.0258857
0.0258477
0.0258124
0.0257621
0.0257144
0.0256723
0.0256306
0.0255818
0.0255272
0.0254806
0.0254357
0.0253886
0.0253333
0.0252835
0.0252373
0.0251881
0.0251384
0.0250922
0.0250497
0.0250029
0.0249549
0.0249115
0.0248713
0.0248324
0.0247947
0.0247505
0.0247094
0.0269195
0.0269142
0.0269085
0.0269027
0.0268971
0.026892
0.0268877
0.0268837
0.02688
0.0268761
0.0268719
0.0268673
0.0268626
0.0268579
0.0268535
0.0268494
0.0268455
0.0268418
0.0268379
0.0268337
0.0268292
0.0268243
0.0268193
0.0268143
0.0268094
0.0268047
0.0268001
0.0267953
0.0267903
0.0267849
0.0267791
0.0267731
0.0267669
0.0267607
0.0267545
0.0267483
0.0267421
0.0267358
0.0267294
0.0267229
0.0267163
0.02671
0.0267043
0.026699
0.0266938
0.0266898
0.0266864
0.0266819
0.0266777
0.0266748
0.0266694
0.0266636
0.0266584
0.0266519
0.0266462
0.0266396
0.0266313
0.0266251
0.0266183
0.0266084
0.0265999
0.0265924
0.0265801
0.0265682
0.0265587
0.0265447
0.0265291
0.0265167
0.0265016
0.0264832
0.0264682
0.0264517
0.0264321
0.0264152
0.0263973
0.0263743
0.0263536
0.026336
0.0263082
0.02628
0.026254
0.0262312
0.0261971
0.0261608
0.0261285
0.0260962
0.0260629
0.0260155
0.0259749
0.0259358
0.0258984
0.0258486
0.0258004
0.0257579
0.0257165
0.0256669
0.0256146
0.0255679
0.0255235
0.0254747
0.0254251
0.0253798
0.0253377
0.0252924
0.0252445
0.0252011
0.025161
0.0251213
0.0250838
0.0250389
0.0249965
0.0249584
0.0249225
0.0270421
0.0270381
0.027034
0.0270297
0.0270253
0.027021
0.027017
0.0270135
0.0270102
0.0270071
0.027004
0.0270007
0.0269972
0.0269935
0.0269898
0.0269863
0.0269829
0.0269797
0.0269765
0.0269732
0.0269698
0.026966
0.026962
0.0269579
0.0269537
0.0269495
0.0269454
0.0269414
0.0269372
0.0269328
0.0269282
0.0269233
0.0269181
0.0269128
0.0269075
0.0269021
0.0268968
0.0268914
0.026886
0.0268806
0.026875
0.0268695
0.0268644
0.0268595
0.0268549
0.0268511
0.026848
0.0268443
0.0268414
0.0268393
0.0268355
0.0268317
0.0268285
0.0268234
0.0268191
0.0268146
0.0268079
0.0268024
0.0267976
0.0267896
0.0267822
0.0267765
0.026767
0.0267564
0.0267486
0.0267373
0.0267231
0.0267119
0.0266992
0.0266819
0.0266673
0.0266531
0.0266339
0.0266168
0.0266012
0.02658
0.0265603
0.026544
0.0265189
0.0264941
0.0264709
0.0264508
0.0264174
0.0263866
0.0263578
0.0263316
0.0262958
0.0262549
0.0262197
0.0261837
0.0261483
0.0260997
0.0260579
0.0260181
0.0259796
0.0259284
0.0258805
0.0258369
0.0257947
0.0257452
0.0256963
0.0256524
0.0256108
0.0255668
0.0255194
0.0254761
0.0254358
0.0253954
0.025356
0.0253134
0.025271
0.0252321
0.0251954
0.0271788
0.027175
0.0271716
0.0271685
0.0271654
0.0271624
0.0271592
0.027156
0.0271529
0.0271499
0.0271473
0.0271448
0.0271425
0.0271402
0.0271377
0.0271352
0.0271325
0.0271299
0.0271273
0.0271247
0.0271223
0.0271198
0.0271173
0.0271147
0.0271118
0.0271088
0.0271056
0.0271023
0.0270991
0.0270959
0.0270926
0.0270893
0.0270858
0.0270822
0.0270783
0.0270743
0.0270701
0.0270659
0.0270617
0.0270574
0.0270532
0.0270489
0.0270446
0.0270404
0.0270362
0.0270322
0.0270284
0.0270252
0.0270225
0.0270196
0.0270176
0.0270161
0.0270134
0.0270114
0.0270096
0.0270061
0.0270031
0.0270002
0.0269951
0.0269905
0.0269869
0.0269807
0.026974
0.0269694
0.026962
0.0269524
0.0269456
0.0269364
0.0269234
0.026913
0.0269019
0.0268858
0.0268713
0.0268583
0.02684
0.026822
0.0268071
0.0267874
0.0267668
0.0267499
0.0267282
0.0267044
0.0266825
0.026663
0.0266315
0.026604
0.0265773
0.0265541
0.026517
0.0264818
0.0264496
0.0264185
0.0263804
0.026337
0.0262998
0.0262624
0.0262243
0.0261739
0.0261305
0.0260893
0.0260496
0.0259989
0.0259515
0.0259091
0.0258681
0.0258247
0.0257778
0.025735
0.0256946
0.025654
0.0256133
0.0255719
0.0255304
0.0254911
0.0254535
0.0273129
0.0273099
0.0273072
0.0273048
0.0273025
0.0273004
0.0272983
0.0272963
0.0272942
0.0272922
0.0272903
0.0272886
0.0272871
0.0272857
0.0272842
0.0272828
0.0272812
0.0272796
0.027278
0.0272764
0.0272749
0.0272734
0.0272718
0.0272703
0.0272686
0.0272668
0.0272649
0.0272628
0.0272607
0.0272586
0.0272565
0.0272543
0.0272521
0.0272498
0.0272474
0.0272448
0.0272421
0.0272393
0.0272365
0.0272336
0.0272307
0.0272279
0.0272249
0.0272221
0.0272192
0.0272164
0.0272137
0.0272113
0.0272092
0.0272072
0.027206
0.0272048
0.0272032
0.0272024
0.0272014
0.0271992
0.0271976
0.0271957
0.027192
0.0271884
0.0271856
0.0271806
0.0271745
0.0271705
0.0271642
0.0271553
0.027149
0.0271409
0.0271289
0.0271187
0.0271087
0.0270936
0.0270787
0.0270662
0.027049
0.02703
0.0270144
0.0269961
0.0269741
0.0269551
0.0269361
0.0269117
0.0268889
0.0268692
0.026841
0.0268142
0.0267885
0.0267655
0.0267292
0.0266975
0.0266665
0.0266387
0.0265987
0.0265603
0.0265252
0.0264915
0.0264504
0.0264039
0.0263639
0.0263241
0.0262863
0.026236
0.0261904
0.0261489
0.026108
0.0260655
0.0260197
0.0259772
0.0259369
0.0258964
0.0258555
0.0258143
0.0257734
0.0257337
0.0256953
0.0256576
0.0274699
0.0274665
0.0274636
0.0274609
0.0274584
0.0274561
0.0274538
0.0274517
0.0274497
0.0274478
0.0274462
0.0274448
0.0274436
0.0274425
0.0274415
0.0274405
0.0274395
0.0274387
0.0274379
0.0274373
0.0274368
0.0274364
0.027436
0.0274356
0.0274351
0.0274347
0.0274342
0.0274338
0.0274334
0.0274331
0.0274327
0.0274323
0.0274318
0.0274313
0.0274306
0.0274299
0.0274292
0.0274284
0.0274276
0.0274269
0.027426
0.0274252
0.0274242
0.0274231
0.0274219
0.0274207
0.0274193
0.027418
0.0274166
0.0274152
0.0274138
0.0274123
0.0274108
0.0274094
0.027408
0.0274068
0.0274057
0.027405
0.0274043
0.0274035
0.0274032
0.0274027
0.0274015
0.0274006
0.0273994
0.0273966
0.0273939
0.0273914
0.0273869
0.0273813
0.0273775
0.0273715
0.0273628
0.0273564
0.0273487
0.0273371
0.0273265
0.0273168
0.0273025
0.0272869
0.0272741
0.0272576
0.0272377
0.0272206
0.0272031
0.0271801
0.0271588
0.02714
0.0271158
0.0270908
0.0270689
0.0270444
0.0270161
0.0269897
0.0269661
0.0269329
0.0269017
0.0268711
0.0268436
0.0268043
0.026769
0.0267344
0.0267029
0.0266601
0.0266174
0.0265793
0.0265406
0.0265038
0.0264555
0.0264116
0.0263706
0.0263295
0.0262879
0.0262441
0.026202
0.0261615
0.0261211
0.0260804
0.0260394
0.0259986
0.0259586
0.0259195
0.025881
0.0276062
0.0276038
0.0276017
0.0275999
0.0275983
0.0275969
0.0275957
0.0275946
0.0275937
0.0275928
0.0275922
0.0275917
0.0275914
0.0275913
0.0275913
0.0275914
0.0275915
0.0275918
0.0275921
0.0275925
0.0275931
0.0275938
0.0275945
0.0275953
0.0275961
0.027597
0.0275978
0.0275987
0.0275996
0.0276005
0.0276015
0.0276025
0.0276035
0.0276044
0.0276053
0.0276062
0.027607
0.0276078
0.0276086
0.0276094
0.0276102
0.0276109
0.0276116
0.0276122
0.0276128
0.0276132
0.0276135
0.0276138
0.0276139
0.027614
0.0276141
0.027614
0.0276138
0.0276136
0.0276133
0.0276129
0.0276126
0.0276124
0.0276121
0.0276117
0.0276116
0.0276112
0.0276104
0.0276097
0.0276085
0.0276061
0.0276037
0.0276011
0.0275966
0.0275912
0.0275869
0.0275805
0.0275716
0.0275646
0.0275565
0.0275446
0.0275331
0.0275229
0.0275086
0.027492
0.0274782
0.0274619
0.0274411
0.0274221
0.0274044
0.0273812
0.0273574
0.0273367
0.0273134
0.0272858
0.0272611
0.0272381
0.0272089
0.02718
0.0271539
0.0271257
0.0270929
0.0270611
0.027032
0.0269967
0.026962
0.0269272
0.0268949
0.026853
0.0268131
0.0267757
0.0267377
0.0267005
0.0266559
0.0266135
0.0265729
0.0265321
0.0264908
0.0264487
0.0264071
0.0263665
0.0263262
0.0262857
0.026245
0.0262044
0.0261642
0.0261245
0.0260854
0.027746
0.0277447
0.0277436
0.0277427
0.0277421
0.0277416
0.0277414
0.0277413
0.0277414
0.0277416
0.027742
0.0277425
0.0277433
0.0277442
0.0277452
0.0277464
0.0277478
0.0277492
0.0277507
0.0277523
0.0277541
0.027756
0.027758
0.0277601
0.0277622
0.0277644
0.0277667
0.027769
0.0277714
0.0277738
0.0277762
0.0277787
0.0277813
0.0277838
0.0277864
0.0277889
0.0277914
0.0277939
0.0277964
0.0277988
0.0278013
0.0278037
0.0278061
0.0278084
0.0278106
0.0278127
0.0278146
0.0278164
0.0278181
0.0278196
0.027821
0.0278222
0.0278232
0.027824
0.0278246
0.0278249
0.0278252
0.0278252
0.0278251
0.0278248
0.0278244
0.0278238
0.0278228
0.0278216
0.0278199
0.0278172
0.0278144
0.027811
0.0278059
0.0278001
0.0277947
0.0277874
0.0277777
0.0277694
0.0277602
0.0277474
0.0277343
0.0277229
0.0277079
0.0276898
0.0276743
0.0276575
0.0276358
0.0276145
0.0275956
0.0275721
0.027546
0.0275227
0.0274995
0.0274704
0.0274428
0.027418
0.0273897
0.0273576
0.0273291
0.0273021
0.0272697
0.0272351
0.0272034
0.0271718
0.0271371
0.027101
0.027066
0.027028
0.0269895
0.0269519
0.0269139
0.0268761
0.0268352
0.0267941
0.0267538
0.0267134
0.0266726
0.0266315
0.0265905
0.02655
0.0265098
0.0264695
0.0264291
0.0263887
0.0263484
0.0263085
0.0262689
0.0278889
0.0278886
0.0278886
0.0278887
0.027889
0.0278895
0.0278903
0.0278913
0.0278924
0.0278937
0.0278952
0.0278969
0.0278987
0.0279007
0.0279029
0.0279053
0.0279078
0.0279105
0.0279133
0.0279162
0.0279193
0.0279225
0.0279258
0.0279293
0.0279329
0.0279366
0.0279403
0.0279442
0.0279481
0.0279521
0.0279562
0.0279603
0.0279645
0.0279687
0.0279729
0.0279772
0.0279814
0.0279856
0.0279898
0.0279939
0.027998
0.0280021
0.0280061
0.02801
0.0280137
0.0280173
0.0280207
0.0280239
0.0280269
0.0280296
0.0280321
0.0280342
0.0280361
0.0280376
0.0280388
0.0280396
0.02804
0.02804
0.0280397
0.0280391
0.0280381
0.0280366
0.0280348
0.0280326
0.0280297
0.028026
0.0280219
0.0280171
0.0280108
0.0280038
0.0279966
0.0279877
0.0279767
0.0279665
0.0279554
0.0279411
0.0279259
0.0279125
0.027896
0.0278761
0.0278581
0.02784
0.0278172
0.0277933
0.0277723
0.0277483
0.02772
0.027694
0.0276697
0.0276397
0.0276091
0.0275815
0.0275537
0.0275194
0.0274885
0.0274593
0.027429
0.0273913
0.0273576
0.0273255
0.0272925
0.0272547
0.0272173
0.0271807
0.0271436
0.027106
0.0270682
0.02703
0.0269909
0.026951
0.0269112
0.0268713
0.0268312
0.0267908
0.0267504
0.0267102
0.0266701
0.02663
0.0265899
0.0265497
0.0265095
0.0264695
0.0264297
0.02639
0.0263504
0.0280344
0.0280351
0.0280361
0.0280373
0.0280386
0.0280402
0.028042
0.028044
0.0280463
0.0280487
0.0280513
0.0280542
0.0280572
0.0280604
0.0280638
0.0280674
0.0280712
0.0280752
0.0280794
0.0280837
0.0280881
0.0280928
0.0280976
0.0281025
0.0281076
0.0281128
0.0281181
0.0281236
0.0281291
0.0281347
0.0281404
0.0281462
0.028152
0.0281579
0.0281638
0.0281698
0.0281757
0.0281815
0.0281873
0.0281931
0.0281988
0.0282043
0.0282097
0.028215
0.0282201
0.0282249
0.0282295
0.0282338
0.0282378
0.0282414
0.0282445
0.0282473
0.0282496
0.0282514
0.0282527
0.0282534
0.0282535
0.0282531
0.0282521
0.0282506
0.0282485
0.0282458
0.0282424
0.0282385
0.0282338
0.0282284
0.0282223
0.0282153
0.028207
0.028198
0.0281885
0.0281772
0.0281642
0.0281515
0.0281378
0.0281213
0.0281036
0.0280876
0.0280689
0.0280467
0.0280257
0.0280056
0.0279811
0.0279545
0.0279307
0.0279055
0.0278754
0.0278464
0.02782
0.0277893
0.0277559
0.0277255
0.0276969
0.0276616
0.0276277
0.0275963
0.0275664
0.0275273
0.0274912
0.027458
0.0274256
0.0273867
0.027347
0.0273101
0.0272737
0.0272366
0.0271989
0.0271608
0.0271223
0.0270833
0.0270441
0.0270047
0.0269652
0.0269255
0.0268857
0.0268458
0.0268061
0.0267663
0.0267264
0.0266866
0.0266467
0.0266068
0.0265669
0.0265271
0.0264871
0.0281821
0.0281838
0.0281858
0.028188
0.0281905
0.0281931
0.028196
0.0281992
0.0282025
0.0282061
0.02821
0.028214
0.0282183
0.0282227
0.0282274
0.0282324
0.0282375
0.0282428
0.0282484
0.0282541
0.02826
0.0282661
0.0282724
0.0282789
0.0282855
0.0282923
0.0282992
0.0283062
0.0283134
0.0283206
0.028328
0.0283354
0.0283428
0.0283503
0.0283578
0.0283653
0.0283727
0.0283801
0.0283874
0.0283945
0.0284015
0.0284083
0.0284149
0.0284213
0.0284273
0.0284331
0.0284384
0.0284434
0.0284479
0.0284518
0.0284553
0.0284581
0.0284603
0.0284619
0.0284627
0.0284627
0.0284621
0.0284607
0.0284585
0.0284555
0.0284517
0.0284471
0.0284417
0.0284355
0.0284283
0.0284204
0.0284116
0.0284018
0.0283908
0.0283789
0.0283663
0.0283521
0.0283364
0.0283206
0.0283037
0.0282843
0.0282637
0.0282444
0.0282227
0.0281979
0.0281736
0.0281507
0.0281239
0.0280944
0.0280675
0.0280405
0.0280086
0.0279765
0.0279473
0.0279159
0.0278801
0.027847
0.0278164
0.0277807
0.0277439
0.0277107
0.0276795
0.0276403
0.0276018
0.0275672
0.0275338
0.0274957
0.0274539
0.0274161
0.0273797
0.0273429
0.0273055
0.0272675
0.0272293
0.0271908
0.0271522
0.0271134
0.0270745
0.0270354
0.0269962
0.0269569
0.0269174
0.0268781
0.0268387
0.0267993
0.0267598
0.0267201
0.0266803
0.0266405
0.0266005
0.0283288
0.0283313
0.0283341
0.0283372
0.0283405
0.028344
0.0283478
0.0283519
0.0283562
0.0283607
0.0283655
0.0283706
0.0283759
0.0283814
0.0283872
0.0283932
0.0283995
0.028406
0.0284127
0.0284197
0.0284269
0.0284343
0.0284419
0.0284497
0.0284576
0.0284658
0.0284741
0.0284825
0.0284911
0.0284998
0.0285086
0.0285175
0.0285264
0.0285353
0.0285442
0.0285531
0.028562
0.0285707
0.0285793
0.0285878
0.028596
0.028604
0.0286117
0.0286191
0.0286262
0.0286328
0.0286389
0.0286446
0.0286497
0.0286542
0.028658
0.0286611
0.0286634
0.0286649
0.0286655
0.0286653
0.0286642
0.0286621
0.028659
0.028655
0.0286499
0.0286438
0.0286367
0.0286286
0.0286195
0.0286093
0.0285982
0.028586
0.0285728
0.0285584
0.028543
0.0285267
0.0285089
0.0284898
0.0284703
0.0284496
0.0284268
0.0284028
0.0283797
0.0283547
0.0283268
0.0282989
0.0282726
0.0282431
0.0282107
0.0281803
0.0281508
0.0281169
0.0280819
0.0280497
0.0280171
0.0279794
0.0279436
0.0279105
0.0278747
0.0278354
0.0278003
0.0277672
0.0277288
0.0276881
0.0276522
0.0276172
0.0275801
0.0275374
0.0274987
0.027462
0.0274252
0.0273879
0.0273503
0.0273124
0.0272743
0.0272362
0.027198
0.0271598
0.0271214
0.0270829
0.027044
0.0270053
0.0269665
0.0269278
0.0268889
0.0268498
0.0268105
0.026771
0.0267313
0.0266914
0.0284782
0.0284819
0.0284857
0.0284899
0.0284943
0.0284989
0.0285039
0.0285091
0.0285145
0.0285203
0.0285263
0.0285326
0.0285392
0.028546
0.0285531
0.0285605
0.0285681
0.028576
0.0285841
0.0285925
0.0286011
0.02861
0.028619
0.0286282
0.0286377
0.0286473
0.028657
0.0286669
0.028677
0.0286871
0.0286972
0.0287074
0.0287176
0.0287278
0.0287379
0.028748
0.0287579
0.0287676
0.0287771
0.0287864
0.0287953
0.0288039
0.0288121
0.0288198
0.028827
0.0288337
0.0288397
0.0288451
0.0288497
0.0288536
0.0288566
0.0288587
0.0288599
0.0288599
0.0288591
0.0288572
0.0288542
0.02885
0.0288446
0.0288381
0.0288303
0.0288213
0.0288111
0.0287997
0.0287871
0.0287733
0.0287584
0.0287423
0.0287251
0.0287067
0.0286872
0.0286666
0.0286448
0.0286217
0.0285979
0.0285731
0.0285464
0.0285187
0.0284914
0.0284625
0.0284312
0.0283996
0.0283696
0.0283369
0.0283015
0.0282675
0.0282352
0.0281991
0.0281612
0.0281261
0.0280918
0.0280526
0.0280142
0.0279787
0.0279426
0.0279018
0.0278645
0.0278294
0.0277922
0.02775
0.0277125
0.0276764
0.0276398
0.0275976
0.0275585
0.0275213
0.0274846
0.0274475
0.0274102
0.0273728
0.0273354
0.0272979
0.0272604
0.027223
0.0271855
0.0271476
0.0271095
0.0270716
0.0270336
0.0269956
0.0269574
0.0269189
0.0268801
0.0268411
0.0268018
0.0267622
0.0267222
0.0266818
0.0286284
0.0286331
0.028638
0.0286433
0.0286488
0.0286546
0.0286607
0.0286671
0.0286737
0.0286807
0.0286879
0.0286955
0.0287033
0.0287115
0.0287199
0.0287285
0.0287375
0.0287467
0.0287562
0.0287659
0.0287759
0.0287861
0.0287965
0.0288071
0.0288179
0.0288288
0.0288398
0.028851
0.0288622
0.0288735
0.0288848
0.0288961
0.0289074
0.0289185
0.0289295
0.0289403
0.0289509
0.0289612
0.0289712
0.0289808
0.02899
0.0289986
0.0290068
0.0290143
0.0290211
0.0290272
0.0290325
0.029037
0.0290406
0.0290431
0.0290447
0.0290451
0.0290445
0.0290427
0.0290396
0.0290353
0.0290297
0.0290227
0.0290144
0.0290047
0.0289936
0.0289811
0.0289672
0.028952
0.0289354
0.0289175
0.0288983
0.0288778
0.0288561
0.0288332
0.0288092
0.028784
0.0287575
0.02873
0.0287017
0.0286723
0.0286414
0.0286095
0.0285778
0.0285448
0.0285098
0.0284745
0.0284405
0.0284045
0.028366
0.0283286
0.028293
0.0282546
0.0282141
0.0281763
0.02814
0.0280996
0.0280591
0.0280215
0.0279847
0.0279432
0.027904
0.0278673
0.0278308
0.0277886
0.0277495
0.0277127
0.0276764
0.027636
0.0275968
0.0275596
0.0275229
0.0274863
0.0274497
0.027413
0.0273764
0.0273398
0.0273033
0.0272669
0.0272302
0.0271933
0.0271563
0.0271193
0.0270823
0.0270452
0.0270078
0.0269701
0.0269321
0.0268937
0.026855
0.0268158
0.0267762
0.0267362
0.0287789
0.0287846
0.0287906
0.0287969
0.0288036
0.0288105
0.0288177
0.0288253
0.0288331
0.0288413
0.0288497
0.0288585
0.0288676
0.0288769
0.0288866
0.0288965
0.0289067
0.0289172
0.0289279
0.0289389
0.0289501
0.0289615
0.0289731
0.0289849
0.0289968
0.0290089
0.029021
0.0290332
0.0290454
0.0290576
0.0290697
0.0290817
0.0290936
0.0291054
0.0291168
0.029128
0.0291388
0.0291493
0.0291592
0.0291687
0.0291775
0.0291857
0.0291932
0.0291999
0.0292057
0.0292107
0.0292146
0.0292175
0.0292194
0.0292199
0.0292194
0.0292176
0.0292145
0.02921
0.0292041
0.0291967
0.0291878
0.0291775
0.0291656
0.0291521
0.0291371
0.0291206
0.0291026
0.029083