/*--------------------------------*- C++ -*----------------------------------*\
| =========                 |                                                 |
| \\      /  F ield         | OpenFOAM: The Open Source CFD Toolbox           |
|  \\    /   O peration     | Version:  v1706                                 |
|   \\  /    A nd           | Web:      www.OpenFOAM.com                      |
|    \\/     M anipulation  |                                                 |
\*---------------------------------------------------------------------------*/
FoamFile
{
    version     2.0;
    format      ascii;
    class       volScalarField;
    location    "3.7e-05";
    object      Mach;
}
// * * * * * * * * * * * * * * * * * * * * * * * * * * * * * * * * * * * * * //

dimensions      [0 0 0 0 0 0 0];


internalField   nonuniform List<scalar> 
29871
(
3.97195
3.96878
3.96518
3.96109
3.95647
3.95128
3.94548
3.939
3.93167
3.92339
3.91404
3.90362
3.89217
3.87984
3.86677
3.85302
3.83851
3.82297
3.80563
3.78574
3.76311
3.73807
3.71126
3.68351
3.65548
3.62761
3.60019
3.5735
3.54773
3.52309
3.49839
3.46995
3.43568
3.39806
3.3597
3.32235
3.28705
3.25438
3.22455
3.19753
3.17312
3.15104
3.13099
3.11278
3.09627
3.08142
3.06821
3.05672
3.04693
3.03881
3.03229
3.02731
3.02376
3.02148
3.0205
3.02063
3.02139
3.02282
3.02497
3.02773
3.03071
3.03392
3.03748
3.04139
3.04558
3.04997
3.05464
3.05962
3.06472
3.07007
3.07584
3.08178
3.08775
3.09402
3.10063
3.10744
3.11451
3.1219
3.12951
3.13736
3.14549
3.15384
3.16236
3.17103
3.17984
3.18875
3.19776
3.20686
3.2161
3.22548
3.23503
3.24478
3.25472
3.26487
3.27521
3.2857
3.29633
3.30705
3.31786
3.32874
3.33969
3.3507
3.36177
3.37291
3.38411
3.85549
3.83676
3.81579
3.7926
3.76731
3.7401
3.71097
3.67972
3.64569
3.6079
3.56592
3.51996
3.47079
3.41941
3.36683
3.31385
3.26122
3.20785
3.15137
3.09004
3.0256
2.96034
2.89616
2.8345
2.77643
2.72268
2.67368
2.62967
2.5907
2.55657
2.52712
2.50269
2.48303
2.46738
2.45511
2.44579
2.43908
2.43473
2.43246
2.43184
2.43234
2.43357
2.43527
2.43734
2.43973
2.44243
2.44542
2.4488
2.45254
2.45654
2.46077
2.46527
2.47003
2.475
2.48013
2.4854
2.49078
2.49563
2.50122
2.50748
2.51217
2.51613
2.52048
2.52491
2.52919
2.53318
2.537
2.54071
2.54428
2.54765
2.55086
2.55391
2.55697
2.55995
2.5628
2.56564
2.56854
2.57131
2.574
2.57676
2.57954
2.58224
2.58489
2.5875
2.59007
2.59257
2.59504
2.59751
2.60001
2.60256
2.60516
2.60786
2.61065
2.61354
2.61653
2.61962
2.62279
2.62601
2.62927
2.63256
2.63585
2.63916
2.64249
2.64584
2.64922
3.60268
3.55824
3.5092
3.45573
3.39855
3.33873
3.27723
3.21512
3.15191
3.08618
3.01576
2.94179
2.86645
2.79192
2.72003
2.65218
2.58933
2.53208
2.48083
2.4364
2.39882
2.36738
2.34127
2.31971
2.30194
2.28733
2.27544
2.26597
2.25877
2.25378
2.25084
2.24957
2.24965
2.25084
2.25301
2.25593
2.25942
2.26348
2.26808
2.27347
2.27947
2.28568
2.29187
2.29794
2.30381
2.30947
2.31489
2.32009
2.32514
2.33009
2.33501
2.33998
2.34507
2.35035
2.35586
2.36161
2.36765
2.37391
2.38037
2.38703
2.39395
2.40099
2.40795
2.41466
2.42175
2.42876
2.43555
2.4429
2.44878
2.45487
2.46133
2.46741
2.47219
2.47801
2.48383
2.48867
2.49341
2.49871
2.50353
2.50781
2.51221
2.51652
2.52048
2.52427
2.52793
2.53141
2.53471
2.5379
2.54098
2.54395
2.54682
2.54961
2.55234
2.55503
2.5577
2.56036
2.56301
2.56566
2.56827
2.57082
2.5733
2.57571
2.57803
2.58029
2.58247
2.58459
3.06657
2.99193
2.91368
2.8338
2.75455
2.67793
2.60549
2.53836
2.47728
2.42315
2.37648
2.33672
2.30314
2.275
2.25159
2.23221
2.21623
2.20313
2.19255
2.18428
2.17818
2.17404
2.17153
2.17022
2.16959
2.16931
2.16921
2.16931
2.16977
2.17094
2.17299
2.17565
2.17862
2.18179
2.18515
2.18868
2.19227
2.19584
2.19931
2.20282
2.20675
2.21135
2.2166
2.22236
2.22848
2.23481
2.24127
2.24778
2.25428
2.26074
2.26713
2.27346
2.27973
2.28596
2.29218
2.29844
2.30476
2.31117
2.31771
2.32439
2.33125
2.33828
2.34545
2.35273
2.36004
2.36785
2.37552
2.38386
2.3908
2.39809
2.40604
2.41356
2.41961
2.42679
2.43426
2.44077
2.44695
2.45394
2.46059
2.4666
2.47273
2.47877
2.48447
2.49006
2.49549
2.50072
2.50583
2.51088
2.51581
2.5206
2.52528
2.52986
2.5343
2.53858
2.54271
2.54672
2.55063
2.55443
2.55818
2.56192
2.56564
2.56932
2.57295
2.57651
2.57999
2.58339
2.48327
2.42322
2.37093
2.32601
2.28783
2.25564
2.22872
2.20632
2.18772
2.17236
2.15982
2.1498
2.14198
2.13602
2.13163
2.12855
2.12638
2.12478
2.12353
2.12256
2.12195
2.12184
2.12242
2.12372
2.12565
2.1278
2.12998
2.13205
2.13387
2.13535
2.13638
2.13723
2.13848
2.14044
2.14314
2.14645
2.15024
2.15434
2.15863
2.16297
2.16673
2.17005
2.17351
2.17749
2.18208
2.18722
2.19277
2.19861
2.20462
2.21069
2.21676
2.22277
2.22873
2.23465
2.24055
2.24651
2.2526
2.25885
2.26533
2.27208
2.27913
2.28647
2.2941
2.30199
2.31011
2.31838
2.32678
2.33559
2.34457
2.35322
2.36158
2.37054
2.37961
2.3866
2.3949
2.40323
2.41127
2.41801
2.42595
2.434
2.441
2.4483
2.45535
2.46176
2.46833
2.47491
2.48095
2.48684
2.4928
2.49867
2.50428
2.50973
2.51512
2.5204
2.52549
2.53039
2.53508
2.53959
2.54393
2.54809
2.55209
2.55598
2.55979
2.56355
2.56727
2.57093
2.57456
2.16186
2.14645
2.13396
2.12398
2.11612
2.11002
2.10539
2.10193
2.09924
2.09701
2.09512
2.09363
2.09254
2.09194
2.09194
2.09265
2.09371
2.09491
2.09614
2.09732
2.09837
2.09938
2.10037
2.10125
2.10236
2.10397
2.10609
2.1088
2.11136
2.11383
2.11595
2.1173
2.11809
2.119
2.12045
2.12254
2.1252
2.12827
2.13156
2.13489
2.13838
2.14177
2.14501
2.14824
2.1517
2.15555
2.15985
2.16453
2.16955
2.17483
2.18027
2.1858
2.19138
2.19698
2.20258
2.20818
2.21385
2.21963
2.22554
2.23167
2.23808
2.24478
2.25182
2.25923
2.26697
2.27503
2.28339
2.29206
2.30101
2.31036
2.31942
2.3289
2.33863
2.34744
2.35603
2.36567
2.37467
2.38314
2.39101
2.4003
2.4091
2.4175
2.42564
2.43278
2.4407
2.44862
2.45596
2.4626
2.46962
2.47699
2.48371
2.49015
2.49666
2.50312
2.5093
2.51525
2.52104
2.52664
2.53203
2.53718
2.54214
2.5469
2.55149
2.55594
2.56027
2.56449
2.56862
2.09077
2.08568
2.08178
2.07866
2.07604
2.07386
2.07214
2.07084
2.07003
2.06982
2.07026
2.07088
2.07161
2.07221
2.07288
2.07339
2.07388
2.07444
2.07492
2.07557
2.07665
2.07839
2.08013
2.08186
2.08356
2.08555
2.08673
2.08772
2.08883
2.09038
2.09241
2.09446
2.09666
2.09861
2.10054
2.10178
2.10291
2.10392
2.10513
2.10672
2.10873
2.11115
2.11384
2.11687
2.11995
2.12295
2.12587
2.12875
2.13174
2.13497
2.13851
2.1424
2.14663
2.15118
2.15596
2.16091
2.166
2.17119
2.17641
2.18165
2.18698
2.19241
2.19791
2.20361
2.20955
2.21573
2.22225
2.22913
2.23636
2.24398
2.25195
2.26023
2.26909
2.27817
2.28732
2.29689
2.30671
2.31523
2.32535
2.33492
2.34513
2.35289
2.36263
2.37273
2.38184
2.39104
2.39856
2.4079
2.41683
2.42535
2.43271
2.44069
2.44925
2.45728
2.46447
2.47182
2.47966
2.48699
2.49381
2.50066
2.50738
2.51379
2.51997
2.526
2.53181
2.53737
2.54274
2.54797
2.55304
2.55794
2.0512
2.05078
2.05098
2.05128
2.0517
2.05196
2.05243
2.05263
2.05286
2.05316
2.05345
2.05398
2.05519
2.0564
2.05764
2.05902
2.06044
2.06166
2.06261
2.06315
2.06393
2.06514
2.06645
2.06804
2.06971
2.07136
2.07285
2.07415
2.07542
2.07672
2.07823
2.07981
2.08169
2.08366
2.08557
2.08736
2.08881
2.08993
2.09104
2.09219
2.09353
2.09517
2.09713
2.09948
2.10215
2.10477
2.10741
2.11008
2.11271
2.11538
2.11825
2.12135
2.12472
2.1284
2.1324
2.13665
2.14108
2.14568
2.15055
2.15532
2.16016
2.16525
2.17032
2.17543
2.1808
2.18632
2.19202
2.1981
2.20445
2.21113
2.21821
2.22556
2.23346
2.24187
2.25022
2.25921
2.26873
2.27714
2.28675
2.29646
2.30674
2.31546
2.3246
2.33525
2.3447
2.3547
2.36249
2.37263
2.38234
2.39147
2.39967
2.40821
2.41772
2.42657
2.43455
2.44262
2.45147
2.45984
2.46728
2.47497
2.48297
2.49026
2.49717
2.50423
2.5111
2.51754
2.5238
2.52999
2.53603
2.54183
2.03376
2.03394
2.03412
2.03457
2.03564
2.03654
2.03764
2.03884
2.04003
2.04095
2.04144
2.04198
2.04276
2.04372
2.04488
2.04618
2.04752
2.04876
2.04993
2.0509
2.05171
2.05265
2.05369
2.05492
2.05634
2.05785
2.05942
2.06092
2.06231
2.06357
2.06495
2.06632
2.06787
2.0696
2.07136
2.07315
2.07485
2.07637
2.07773
2.07884
2.08007
2.08141
2.08288
2.0847
2.08697
2.08904
2.09145
2.09396
2.09643
2.09878
2.1014
2.1041
2.10715
2.11017
2.11348
2.11726
2.12121
2.12494
2.12941
2.13393
2.13807
2.14285
2.14764
2.15231
2.1572
2.16244
2.16751
2.17297
2.17876
2.18461
2.19083
2.19744
2.20444
2.21178
2.21924
2.22743
2.23623
2.24404
2.25278
2.26219
2.27187
2.28084
2.28914
2.29976
2.30927
2.31955
2.32753
2.33782
2.34798
2.35727
2.36606
2.37477
2.38494
2.39422
2.40289
2.41136
2.42087
2.42996
2.43784
2.44646
2.45502
2.4632
2.47053
2.47833
2.48615
2.49353
2.50034
2.50727
2.51425
2.5209
2.02085
2.02165
2.02206
2.02253
2.02323
2.02408
2.0251
2.02622
2.02735
2.02838
2.02928
2.03002
2.03069
2.03143
2.03231
2.03333
2.03448
2.0357
2.03694
2.03808
2.03908
2.04
2.04092
2.04193
2.04308
2.04436
2.04577
2.04724
2.04869
2.05007
2.05142
2.05276
2.05416
2.05569
2.05731
2.05901
2.06073
2.0624
2.064
2.06543
2.06683
2.06821
2.06954
2.07115
2.07312
2.07483
2.07681
2.07928
2.08175
2.08366
2.0862
2.08901
2.09192
2.09443
2.09739
2.10091
2.10459
2.10739
2.11173
2.11608
2.11943
2.12403
2.12873
2.13294
2.13745
2.14249
2.14723
2.15223
2.15766
2.16308
2.1685
2.17453
2.18108
2.18724
2.19392
2.20135
2.20944
2.21628
2.22419
2.23302
2.24204
2.25037
2.258
2.26819
2.27745
2.28756
2.29535
2.30551
2.31572
2.32497
2.33387
2.3426
2.35307
2.3625
2.37155
2.38011
2.38999
2.39949
2.40771
2.41692
2.42582
2.43458
2.44214
2.45053
2.45888
2.46671
2.47447
2.48149
2.48914
2.49658
2.00825
2.00921
2.01001
2.01065
2.01122
2.01185
2.01259
2.01345
2.0144
2.01541
2.0164
2.01727
2.01802
2.0187
2.01942
2.02021
2.02111
2.02213
2.02323
2.02436
2.02544
2.02645
2.0274
2.02835
2.02936
2.03046
2.03168
2.03301
2.03441
2.03583
2.03724
2.03863
2.04003
2.04147
2.043
2.04462
2.04631
2.04803
2.04974
2.05137
2.05296
2.0546
2.05603
2.05761
2.05944
2.06109
2.06282
2.06515
2.06752
2.06933
2.07179
2.07452
2.0774
2.08
2.08257
2.08598
2.08944
2.09195
2.09591
2.10002
2.1033
2.10728
2.11194
2.11626
2.12003
2.12513
2.12995
2.13416
2.13958
2.14488
2.14966
2.15554
2.16169
2.16676
2.17297
2.17982
2.1873
2.19301
2.2004
2.20851
2.21698
2.22411
2.23152
2.24102
2.24978
2.25938
2.26664
2.27667
2.2865
2.29569
2.30415
2.313
2.32341
2.33281
2.34178
2.35034
2.36035
2.36994
2.37841
2.38782
2.39692
2.406
2.41365
2.42238
2.43105
2.43914
2.44736
2.45473
2.46243
2.47041
1.99456
1.99539
1.99628
1.99714
1.99788
1.99849
1.99905
1.99961
2.00023
2.00095
2.00175
2.00261
2.00347
2.00427
2.00499
2.00568
2.00637
2.00711
2.00794
2.00886
2.00986
2.0109
2.01193
2.01293
2.01391
2.01489
2.01592
2.01702
2.01822
2.01952
2.02088
2.0223
2.02373
2.02517
2.02664
2.02815
2.02973
2.03139
2.03311
2.03488
2.03664
2.03836
2.04016
2.04179
2.04341
2.04533
2.04706
2.04872
2.05095
2.05321
2.05506
2.05759
2.0601
2.06286
2.06569
2.06815
2.07131
2.07473
2.07742
2.08081
2.08478
2.08825
2.09169
2.09624
2.10061
2.10409
2.10906
2.11401
2.11783
2.12306
2.12846
2.13282
2.13859
2.14448
2.14899
2.15495
2.16138
2.1683
2.17303
2.18022
2.18762
2.1956
2.20138
2.20898
2.21765
2.2259
2.23452
2.24144
2.25126
2.26043
2.26961
2.27701
2.28638
2.29637
2.30565
2.31394
2.3228
2.33271
2.34216
2.35062
2.36
2.36915
2.37831
2.38602
2.39489
2.40372
2.41201
2.42019
2.42821
2.43542
2.4437
1.98137
1.98197
1.98264
1.98335
1.98405
1.98468
1.98525
1.98576
1.98627
1.98682
1.98743
1.98811
1.98885
1.98959
1.99031
1.991
1.99167
1.99235
1.99307
1.99385
1.99471
1.99563
1.9966
1.99759
1.99858
1.99958
2.00059
2.00165
2.00277
2.00398
2.00527
2.00663
2.00806
2.00952
2.01102
2.01256
2.01415
2.0158
2.01752
2.01931
2.02114
2.02298
2.02486
2.02669
2.02845
2.03044
2.0323
2.03404
2.03624
2.03845
2.04039
2.04298
2.04545
2.04791
2.05094
2.05354
2.05637
2.05985
2.06281
2.06579
2.06969
2.0733
2.07647
2.08081
2.0852
2.08867
2.09332
2.09833
2.10224
2.10708
2.11256
2.11696
2.12219
2.12803
2.13281
2.13831
2.14453
2.1509
2.15518
2.1623
2.1691
2.17645
2.18137
2.18915
2.19697
2.20502
2.2121
2.21917
2.22856
2.23703
2.24587
2.25257
2.26236
2.27165
2.28081
2.28804
2.29754
2.30712
2.31636
2.32443
2.33372
2.3428
2.35181
2.35969
2.36842
2.37732
2.38569
2.39376
2.40213
2.40891
2.41725
2.42511
2.43264
1.96743
1.96787
1.96835
1.96887
1.96943
1.96999
1.97053
1.97102
1.97149
1.97196
1.97245
1.97298
1.97357
1.97419
1.97484
1.9755
1.97614
1.97679
1.97745
1.97815
1.9789
1.97971
1.98059
1.98152
1.98248
1.98346
1.98447
1.98551
1.9866
1.98775
1.98898
1.99028
1.99167
1.99312
1.99463
1.99618
1.99779
1.99946
2.00119
2.00299
2.00486
2.00677
2.00873
2.0107
2.01264
2.01467
2.01667
2.01857
2.02081
2.023
2.02504
2.02765
2.03012
2.03249
2.03554
2.03829
2.04097
2.04443
2.04758
2.05044
2.05422
2.05794
2.06106
2.06514
2.06955
2.07308
2.0774
2.08241
2.08653
2.09099
2.09647
2.10121
2.10583
2.11164
2.11691
2.12177
2.12794
2.13405
2.13846
2.14534
2.15178
2.15831
2.16313
2.17086
2.17795
2.1858
2.19126
2.19918
2.20769
2.21581
2.22347
2.23047
2.24004
2.24868
2.25735
2.2643
2.27408
2.28314
2.29219
2.29959
2.30894
2.31784
2.32656
2.33443
2.34292
2.35172
2.35997
2.3679
2.37606
2.38353
2.39151
2.39926
2.40669
1.95193
1.95234
1.95271
1.95306
1.95341
1.95379
1.9542
1.95464
1.95509
1.95553
1.95595
1.95636
1.95677
1.95721
1.95768
1.95819
1.95874
1.95931
1.9599
1.9605
1.96112
1.96176
1.96244
1.96317
1.96396
1.9648
1.9657
1.96664
1.96763
1.96865
1.96971
1.97083
1.97201
1.97327
1.97461
1.97603
1.97752
1.97907
1.98069
1.98237
1.98411
1.98593
1.98781
1.98976
1.99178
1.99384
1.99591
1.99803
2.00016
2.00225
2.00451
2.00674
2.00893
2.01151
2.01399
2.01642
2.01941
2.02223
2.02492
2.0283
2.03155
2.03447
2.0381
2.0419
2.04509
2.04893
2.05335
2.05698
2.06102
2.06599
2.07027
2.07446
2.07986
2.08488
2.0892
2.09486
2.10049
2.10501
2.11092
2.11707
2.12184
2.12816
2.13453
2.14058
2.14559
2.15308
2.15977
2.16684
2.17199
2.18014
2.18777
2.19591
2.20186
2.20992
2.21873
2.22709
2.23466
2.24209
2.25161
2.2602
2.26893
2.27585
2.28529
2.29393
2.30236
2.30992
2.31818
2.32675
2.33475
2.34254
2.35049
2.35843
2.36625
2.37386
2.38119
1.93666
1.93699
1.93729
1.93757
1.93785
1.93812
1.93842
1.93873
1.93907
1.93942
1.93977
1.94012
1.94047
1.94083
1.94121
1.94162
1.94207
1.94255
1.94306
1.9436
1.94416
1.94475
1.94536
1.94602
1.94674
1.9475
1.94833
1.94922
1.95015
1.95114
1.95217
1.95326
1.95441
1.95563
1.95693
1.9583
1.95976
1.96129
1.9629
1.96458
1.96633
1.96816
1.97005
1.97202
1.97407
1.97618
1.97833
1.98053
1.98278
1.98503
1.98734
1.98967
1.99201
1.99455
1.99707
1.9996
2.00252
2.00536
2.00813
2.01142
2.01469
2.01771
2.02123
2.02506
2.02835
2.03203
2.03645
2.04016
2.044
2.0489
2.05329
2.05734
2.06255
2.06774
2.07204
2.07739
2.08318
2.08791
2.09326
2.09938
2.10484
2.11016
2.11659
2.12287
2.1279
2.13499
2.14156
2.14791
2.15328
2.16122
2.16832
2.17595
2.18138
2.18982
2.1978
2.20621
2.21243
2.22065
2.22952
2.23774
2.24606
2.25287
2.26211
2.27044
2.2785
2.28606
2.29403
2.30228
2.31004
2.31765
2.32542
2.33332
2.34109
2.3486
2.35585
2.36294
1.91934
1.9196
1.91984
1.92005
1.92025
1.92045
1.92066
1.92088
1.9211
1.92131
1.92152
1.92172
1.92191
1.92211
1.92233
1.92256
1.92281
1.92307
1.92334
1.92362
1.92391
1.92421
1.92454
1.92489
1.92529
1.92571
1.92617
1.92666
1.92719
1.92775
1.92834
1.92899
1.92969
1.93044
1.93126
1.93214
1.93308
1.93407
1.93513
1.93624
1.93743
1.93868
1.94002
1.94144
1.94294
1.94453
1.94619
1.94794
1.94976
1.95166
1.95363
1.95569
1.95782
1.96002
1.96228
1.9646
1.96695
1.96934
1.97178
1.97424
1.9768
1.97939
1.98202
1.98488
1.98774
1.99059
1.99381
1.99705
2.00016
2.00363
2.00742
2.01079
2.01438
2.01877
2.02254
2.02629
2.03106
2.03554
2.03953
2.04447
2.04976
2.05415
2.05913
2.06493
2.07004
2.07491
2.08096
2.08689
2.09174
2.09792
2.10429
2.10975
2.11587
2.12251
2.12898
2.13433
2.14181
2.14874
2.15564
2.16131
2.16954
2.17701
2.18506
2.19077
2.19921
2.20743
2.21539
2.22322
2.23007
2.23888
2.24688
2.2546
2.26236
2.27015
2.27806
2.28559
2.29301
2.30054
2.30819
2.3158
2.3232
2.33038
2.33738
1.9038
1.90396
1.9041
1.90423
1.90434
1.90445
1.90455
1.90466
1.90478
1.90489
1.90501
1.90513
1.90524
1.90536
1.90548
1.90562
1.90577
1.90594
1.90612
1.90632
1.90653
1.90676
1.90701
1.90728
1.90759
1.90793
1.90831
1.90873
1.90918
1.90967
1.91021
1.91079
1.91142
1.91211
1.91286
1.91368
1.91456
1.91551
1.91652
1.91759
1.91874
1.91996
1.92126
1.92264
1.9241
1.92566
1.9273
1.92902
1.93083
1.93272
1.93469
1.93675
1.93888
1.9411
1.94339
1.94575
1.94816
1.95062
1.95314
1.95569
1.9583
1.96097
1.96368
1.96652
1.96941
1.97233
1.97549
1.97871
1.98188
1.98531
1.98902
1.99246
1.99601
2.00031
2.00414
2.00785
2.01244
2.017
2.021
2.02564
2.03096
2.03547
2.04013
2.04582
2.05121
2.0559
2.06169
2.06774
2.07284
2.07841
2.08473
2.0909
2.09605
2.1026
2.10907
2.11503
2.12128
2.12821
2.13494
2.14105
2.14864
2.15594
2.1633
2.16927
2.17738
2.18512
2.19265
2.20011
2.20721
2.21544
2.22314
2.23061
2.23824
2.24596
2.25359
2.26096
2.2682
2.27548
2.28285
2.2902
2.29743
2.30449
2.31139
1.88788
1.88793
1.88797
1.888
1.88803
1.88804
1.88806
1.88807
1.88809
1.88811
1.88814
1.88816
1.88819
1.88823
1.88826
1.88831
1.88838
1.88845
1.88855
1.88866
1.88879
1.88894
1.88911
1.88931
1.88954
1.8898
1.89009
1.89043
1.89081
1.89124
1.89171
1.89222
1.89279
1.89342
1.8941
1.89486
1.89568
1.89657
1.89753
1.89856
1.89966
1.90084
1.9021
1.90344
1.90487
1.90638
1.90799
1.90968
1.91146
1.91334
1.91529
1.91734
1.91947
1.92168
1.92397
1.92634
1.92878
1.93129
1.93385
1.93646
1.93914
1.94186
1.94463
1.94749
1.95042
1.95339
1.95651
1.95971
1.96292
1.96632
1.96994
1.97342
1.97695
1.98113
1.98498
1.9887
1.99309
1.99769
2.00172
2.0061
2.01134
2.01598
2.02043
2.02588
2.03144
2.03612
2.04152
2.04752
2.05305
2.05813
2.0644
2.07065
2.0759
2.08183
2.08835
2.09478
2.10017
2.10668
2.11335
2.11998
2.12668
2.13377
2.14077
2.14753
2.15488
2.16218
2.16931
2.17656
2.18387
2.19152
2.19895
2.20621
2.21358
2.22106
2.22847
2.2357
2.24278
2.24985
2.25694
2.26403
2.27103
2.27793
2.28469
1.87163
1.87158
1.87153
1.87146
1.8714
1.87133
1.87125
1.87118
1.8711
1.87103
1.87097
1.87091
1.87085
1.8708
1.87075
1.87072
1.87069
1.87068
1.87069
1.87072
1.87077
1.87084
1.87093
1.87105
1.8712
1.87138
1.8716
1.87186
1.87217
1.87252
1.87292
1.87337
1.87388
1.87444
1.87506
1.87575
1.87651
1.87735
1.87825
1.87923
1.88029
1.88143
1.88264
1.88394
1.88533
1.8868
1.88836
1.89002
1.89177
1.89361
1.89554
1.89756
1.89966
1.90186
1.90414
1.9065
1.90895
1.91146
1.91404
1.91669
1.91939
1.92216
1.92497
1.92785
1.9308
1.9338
1.93691
1.9401
1.94332
1.94669
1.95022
1.95372
1.95724
1.96127
1.96511
1.96884
1.97305
1.97761
1.98166
1.98585
1.99095
1.99568
2.00003
2.00515
2.01072
2.0155
2.02051
2.02639
2.03216
2.03704
2.04302
2.04915
2.05489
2.06019
2.06681
2.07299
2.07873
2.0843
2.09114
2.09757
2.10413
2.11045
2.11743
2.1244
2.13137
2.13832
2.14523
2.15226
2.15946
2.16674
2.17391
2.18098
2.18809
2.19527
2.20242
2.20946
2.21639
2.22326
2.23011
2.23694
2.24369
2.25041
2.25702
2.26355
2.26999
1.85514
1.855
1.85485
1.85469
1.85454
1.85438
1.85422
1.85406
1.85389
1.85373
1.85358
1.85343
1.85329
1.85315
1.85302
1.8529
1.85279
1.8527
1.85263
1.85257
1.85254
1.85252
1.85254
1.85258
1.85265
1.85276
1.85291
1.85309
1.85333
1.85361
1.85394
1.85432
1.85476
1.85526
1.85583
1.85646
1.85716
1.85793
1.85878
1.8597
1.86071
1.8618
1.86296
1.86422
1.86556
1.86699
1.86851
1.87012
1.87182
1.87362
1.87551
1.87749
1.87956
1.88173
1.88398
1.88632
1.88874
1.89124
1.89381
1.89645
1.89917
1.90194
1.90477
1.90766
1.91062
1.91363
1.91672
1.91989
1.92311
1.92644
1.9299
1.93338
1.93688
1.94075
1.94456
1.94828
1.95232
1.95679
1.96083
1.96489
1.96977
1.97454
1.97884
1.98363
1.98909
1.99399
1.9987
2.00435
2.01015
2.01504
2.02056
2.02661
2.0326
2.03757
2.04397
2.05
2.05613
2.06106
2.06788
2.07411
2.08068
2.08615
2.09298
2.09987
2.10661
2.11331
2.12003
2.12684
2.13378
2.14076
2.14769
2.15455
2.16141
2.16829
2.17516
2.18197
2.18871
2.19538
2.20199
2.20859
2.21514
2.22163
2.22806
2.23442
2.24072
1.83847
1.83823
1.83799
1.83775
1.83751
1.83726
1.83702
1.83677
1.83652
1.83628
1.83604
1.8358
1.83558
1.83536
1.83514
1.83494
1.83475
1.83458
1.83442
1.83428
1.83417
1.83408
1.83402
1.83398
1.83398
1.83402
1.83409
1.8342
1.83437
1.83458
1.83484
1.83516
1.83553
1.83597
1.83647
1.83704
1.83768
1.83839
1.83918
1.84005
1.841
1.84203
1.84315
1.84435
1.84564
1.84701
1.84848
1.85004
1.85169
1.85344
1.85528
1.85721
1.85923
1.86135
1.86355
1.86585
1.86823
1.87069
1.87322
1.87584
1.87852
1.88128
1.88409
1.88697
1.88991
1.8929
1.89597
1.89911
1.9023
1.90558
1.90897
1.91241
1.91587
1.91959
1.92333
1.92702
1.9309
1.93522
1.93922
1.94318
1.9478
1.95253
1.95677
1.96127
1.96655
1.97149
1.97601
1.98133
1.98699
1.99199
1.99706
2.00297
2.00893
2.01383
2.01975
2.02579
2.03196
2.03667
2.04314
2.04933
2.05569
2.06097
2.06726
2.074
2.08046
2.08691
2.09341
2.09999
2.10664
2.11333
2.11999
2.12661
2.13322
2.13982
2.1464
2.15296
2.15944
2.1659
2.17231
2.17867
2.18499
2.19126
2.19749
2.20367
2.2098
1.82199
1.82168
1.82136
1.82103
1.82071
1.82038
1.82005
1.81972
1.81939
1.81906
1.81873
1.81841
1.81809
1.81778
1.81748
1.81719
1.81691
1.81664
1.81638
1.81615
1.81593
1.81574
1.81557
1.81543
1.81533
1.81525
1.81521
1.81522
1.81526
1.81535
1.81549
1.81569
1.81594
1.81625
1.81662
1.81706
1.81757
1.81814
1.81879
1.81952
1.82033
1.82122
1.82219
1.82325
1.82439
1.82562
1.82694
1.82834
1.82984
1.83143
1.83312
1.83489
1.83676
1.83872
1.84077
1.84291
1.84514
1.84745
1.84985
1.85233
1.85488
1.85751
1.86021
1.86298
1.86581
1.8687
1.87165
1.87467
1.87776
1.88089
1.8841
1.88741
1.89077
1.89416
1.89774
1.90138
1.905
1.90873
1.91285
1.91678
1.92064
1.92499
1.9296
1.93375
1.93801
1.94303
1.94793
1.9523
1.95724
1.96269
1.96774
1.97245
1.97809
1.98385
1.98882
1.99417
2.00016
2.00611
2.0109
2.01678
2.02297
2.02897
2.03433
2.04007
2.04659
2.05277
2.05892
2.06514
2.07144
2.07779
2.08417
2.09054
2.09689
2.10322
2.10953
2.11583
2.12209
2.12834
2.13455
2.14071
2.14683
2.15292
2.15898
2.165
2.17098
2.17693
1.80523
1.80483
1.80443
1.80402
1.80362
1.80321
1.8028
1.80238
1.80197
1.80156
1.80116
1.80075
1.80036
1.79997
1.79958
1.79921
1.79885
1.79851
1.79818
1.79787
1.79758
1.79731
1.79707
1.79686
1.79667
1.79653
1.79642
1.79635
1.79633
1.79635
1.79642
1.79655
1.79674
1.79698
1.79729
1.79766
1.7981
1.79861
1.79919
1.79986
1.8006
1.80142
1.80232
1.80331
1.80439
1.80555
1.80679
1.80813
1.80956
1.81107
1.81268
1.81438
1.81616
1.81804
1.82001
1.82206
1.8242
1.82643
1.82874
1.83113
1.8336
1.83615
1.83876
1.84145
1.8442
1.84701
1.84988
1.85282
1.85582
1.85887
1.86198
1.86518
1.86843
1.87173
1.87515
1.87867
1.88217
1.88576
1.88964
1.89345
1.89718
1.90125
1.90566
1.9097
1.91373
1.91845
1.9232
1.92743
1.93199
1.93719
1.94215
1.94659
1.95184
1.95732
1.96234
1.96716
1.97292
1.97852
1.98353
1.98871
1.99477
2.00042
2.00586
2.01118
2.01735
2.02324
2.02907
2.03496
2.04094
2.04696
2.05301
2.05907
2.06511
2.07114
2.07714
2.08312
2.08912
2.0951
2.10103
2.10693
2.1128
2.11864
2.12447
2.13027
2.13605
2.14181
2.14754
2.15325
1.78846
1.78799
1.78751
1.78702
1.78653
1.78605
1.78556
1.78507
1.78458
1.78409
1.78361
1.78313
1.78265
1.78219
1.78173
1.78128
1.78084
1.78042
1.78002
1.77963
1.77927
1.77893
1.77862
1.77833
1.77808
1.77786
1.77769
1.77755
1.77745
1.77741
1.77741
1.77747
1.77759
1.77776
1.778
1.7783
1.77867
1.77911
1.77962
1.78021
1.78088
1.78162
1.78245
1.78336
1.78436
1.78544
1.7866
1.78785
1.78919
1.79062
1.79213
1.79373
1.79542
1.7972
1.79906
1.80101
1.80304
1.80516
1.80735
1.80963
1.81199
1.81441
1.81691
1.81948
1.82212
1.82481
1.82757
1.83039
1.83326
1.83619
1.83918
1.84224
1.84535
1.84851
1.85176
1.85511
1.85846
1.86188
1.86551
1.86915
1.87272
1.87651
1.88064
1.88452
1.88834
1.8927
1.89722
1.90128
1.90548
1.91035
1.91512
1.91933
1.9241
1.92928
1.93419
1.93861
1.94394
1.94921
1.95429
1.95889
1.96452
1.96992
1.97528
1.98034
1.98604
1.99161
1.9971
2.00263
2.00824
2.01391
2.0196
2.02531
2.03102
2.03672
2.04238
2.04805
2.05375
2.05942
2.06507
2.07069
2.07629
2.08188
2.08746
2.09303
2.09859
2.10415
2.10969
2.11523
1.77174
1.77119
1.77063
1.77007
1.76951
1.76895
1.76838
1.76782
1.76725
1.76669
1.76613
1.76558
1.76503
1.76449
1.76396
1.76343
1.76293
1.76243
1.76195
1.7615
1.76106
1.76065
1.76027
1.75991
1.75959
1.7593
1.75905
1.75884
1.75868
1.75856
1.75849
1.75848
1.75852
1.75862
1.75878
1.75901
1.7593
1.75966
1.76009
1.7606
1.76118
1.76184
1.76258
1.7634
1.7643
1.76529
1.76635
1.7675
1.76874
1.77006
1.77146
1.77295
1.77452
1.77617
1.77791
1.77973
1.78163
1.78361
1.78566
1.7878
1.79001
1.79229
1.79464
1.79705
1.79954
1.80208
1.80468
1.80734
1.81005
1.81282
1.81565
1.81853
1.82146
1.82444
1.8275
1.83063
1.83379
1.837
1.84037
1.84379
1.84716
1.85067
1.85446
1.85812
1.86171
1.86569
1.86989
1.87373
1.87759
1.88207
1.88654
1.89051
1.89478
1.89961
1.90426
1.90835
1.91311
1.91807
1.92296
1.92718
1.93225
1.93735
1.9424
1.94724
1.95242
1.95763
1.96276
1.96791
1.97312
1.9784
1.98371
1.98904
1.99439
1.99973
2.00504
2.01036
2.01573
2.02109
2.02643
2.03175
2.03707
2.04239
2.04772
2.05305
2.05838
2.06372
2.06907
2.07442
1.75512
1.75449
1.75386
1.75323
1.75259
1.75196
1.75132
1.75068
1.75004
1.74941
1.74878
1.74815
1.74753
1.74691
1.74631
1.74572
1.74514
1.74457
1.74402
1.74349
1.74299
1.7425
1.74205
1.74162
1.74122
1.74086
1.74054
1.74026
1.74002
1.73983
1.73968
1.73959
1.73955
1.73957
1.73965
1.73979
1.74
1.74027
1.74061
1.74102
1.74151
1.74207
1.74271
1.74342
1.74421
1.74508
1.74603
1.74706
1.74817
1.74936
1.75064
1.75199
1.75342
1.75493
1.75651
1.75818
1.75992
1.76174
1.76363
1.76559
1.76762
1.76972
1.77189
1.77412
1.77641
1.77876
1.78116
1.78362
1.78613
1.7887
1.79132
1.79399
1.79671
1.79947
1.80229
1.80517
1.80809
1.81106
1.81414
1.81729
1.82042
1.82364
1.82704
1.83042
1.83372
1.83728
1.84107
1.84462
1.84813
1.85214
1.8562
1.85987
1.86366
1.86804
1.8723
1.87608
1.88025
1.88483
1.88934
1.89328
1.89776
1.90245
1.90709
1.91161
1.91631
1.92108
1.92583
1.93058
1.93538
1.94024
1.94515
1.95007
1.95502
1.95999
1.96493
1.96988
1.97489
1.97992
1.98493
1.98994
1.99496
2
2.00506
2.01014
2.01523
2.02035
2.02549
2.03065
2.03585
1.73792
1.73722
1.73652
1.73581
1.73511
1.7344
1.73369
1.73298
1.73228
1.73157
1.73088
1.73018
1.7295
1.72882
1.72816
1.72751
1.72687
1.72625
1.72565
1.72507
1.72451
1.72398
1.72348
1.72301
1.72257
1.72217
1.72181
1.72149
1.72122
1.72099
1.72081
1.72068
1.72061
1.7206
1.72064
1.72075
1.72092
1.72116
1.72146
1.72183
1.72228
1.72279
1.72338
1.72405
1.72479
1.7256
1.72649
1.72746
1.7285
1.72962
1.73081
1.73207
1.73341
1.73483
1.73631
1.73787
1.73949
1.74119
1.74295
1.74477
1.74665
1.7486
1.75061
1.75268
1.7548
1.75697
1.75919
1.76146
1.76377
1.76613
1.76856
1.77103
1.77354
1.77609
1.77869
1.78131
1.78397
1.78671
1.78952
1.79233
1.7952
1.79819
1.8012
1.80416
1.80727
1.81057
1.81376
1.81688
1.82036
1.82392
1.82724
1.83056
1.83441
1.83818
1.84162
1.84522
1.84933
1.85334
1.85696
1.8609
1.86506
1.86923
1.87334
1.87755
1.88185
1.88616
1.89048
1.89486
1.89929
1.90376
1.90827
1.9128
1.91736
1.92193
1.9265
1.93111
1.93579
1.94047
1.94516
1.94987
1.95461
1.95939
1.9642
1.96904
1.97393
1.97885
1.98381
1.98882
1.72152
1.72075
1.71998
1.71921
1.71843
1.71765
1.71687
1.7161
1.71532
1.71455
1.71378
1.71302
1.71226
1.71152
1.71078
1.71006
1.70935
1.70865
1.70798
1.70732
1.70669
1.70608
1.7055
1.70495
1.70443
1.70394
1.70349
1.70308
1.70272
1.7024
1.70212
1.70189
1.70172
1.7016
1.70153
1.70153
1.70158
1.7017
1.70187
1.70212
1.70243
1.70281
1.70326
1.70377
1.70436
1.70501
1.70574
1.70654
1.70741
1.70835
1.70936
1.71043
1.71158
1.71279
1.71407
1.71541
1.71682
1.71829
1.71982
1.7214
1.72303
1.72473
1.72648
1.72829
1.73015
1.73204
1.73398
1.73597
1.738
1.74007
1.74218
1.74433
1.74652
1.74875
1.75101
1.75327
1.75556
1.75791
1.7603
1.76271
1.76517
1.76773
1.77033
1.77291
1.77557
1.77836
1.78113
1.78385
1.78677
1.78979
1.79271
1.79557
1.7988
1.80201
1.80503
1.80811
1.81162
1.81504
1.81828
1.82168
1.82525
1.82887
1.83249
1.83618
1.83995
1.84377
1.84762
1.85152
1.85548
1.8595
1.86358
1.86769
1.87182
1.87599
1.88018
1.88439
1.88868
1.89302
1.89738
1.90177
1.9062
1.91069
1.91523
1.91981
1.92445
1.92914
1.93389
1.9387
1.70447
1.70363
1.70279
1.70195
1.7011
1.70025
1.69941
1.69856
1.69772
1.69688
1.69605
1.69522
1.6944
1.69359
1.69279
1.692
1.69123
1.69047
1.68974
1.68902
1.68833
1.68766
1.68702
1.68641
1.68583
1.68528
1.68478
1.68431
1.68388
1.68349
1.68315
1.68286
1.68262
1.68243
1.68229
1.68221
1.68219
1.68222
1.68232
1.68248
1.68269
1.68298
1.68332
1.68374
1.68421
1.68476
1.68537
1.68604
1.68677
1.68757
1.68844
1.68936
1.69035
1.69139
1.69249
1.69364
1.69486
1.69613
1.69745
1.6988
1.70021
1.70167
1.70318
1.70475
1.70634
1.70796
1.7096
1.71128
1.71299
1.71472
1.71648
1.71827
1.72012
1.722
1.7239
1.72583
1.72778
1.72976
1.73176
1.73378
1.73587
1.73799
1.7401
1.74225
1.74448
1.74674
1.74899
1.75135
1.75381
1.75623
1.7586
1.76117
1.76376
1.76629
1.76883
1.77164
1.77444
1.77721
1.78005
1.78299
1.78602
1.78909
1.79223
1.79544
1.79873
1.80206
1.80546
1.80893
1.81246
1.81607
1.81973
1.82343
1.82718
1.83097
1.8348
1.83868
1.84266
1.84668
1.85075
1.85487
1.85905
1.86331
1.86762
1.872
1.87645
1.88097
1.88558
1.68749
1.68658
1.68567
1.68475
1.68384
1.68292
1.682
1.68109
1.68018
1.67927
1.67836
1.67747
1.67658
1.6757
1.67483
1.67397
1.67313
1.67231
1.6715
1.67071
1.66995
1.66921
1.6685
1.66781
1.66716
1.66654
1.66595
1.6654
1.66489
1.66442
1.66399
1.66361
1.66328
1.66299
1.66276
1.66257
1.66245
1.66237
1.66236
1.6624
1.66249
1.66265
1.66287
1.66314
1.66348
1.66387
1.66432
1.66483
1.6654
1.66602
1.66669
1.66743
1.66821
1.66904
1.66991
1.67083
1.67182
1.67286
1.67392
1.675
1.67612
1.67728
1.67849
1.67973
1.68103
1.68234
1.68368
1.68504
1.68641
1.68781
1.68922
1.69067
1.69214
1.69364
1.69514
1.69665
1.69818
1.69971
1.70124
1.7028
1.70437
1.70595
1.70753
1.70915
1.71082
1.71248
1.71419
1.71597
1.71777
1.71958
1.72149
1.72343
1.72537
1.72732
1.72941
1.73156
1.73375
1.73599
1.7383
1.7407
1.74318
1.74574
1.74837
1.75109
1.75388
1.75675
1.75971
1.76275
1.76587
1.76906
1.77233
1.77566
1.77904
1.78249
1.78599
1.78957
1.79324
1.79698
1.80079
1.80466
1.80862
1.81265
1.81677
1.82096
1.82525
1.82963
1.8341
1.83869
1.67156
1.67058
1.6696
1.66861
1.66763
1.66664
1.66564
1.66465
1.66366
1.66268
1.66169
1.66071
1.65974
1.65877
1.65781
1.65686
1.65593
1.655
1.6541
1.65321
1.65233
1.65148
1.65065
1.64985
1.64907
1.64832
1.6476
1.64691
1.64626
1.64564
1.64507
1.64453
1.64403
1.64358
1.64317
1.64281
1.64249
1.64223
1.64202