/*--------------------------------*- C++ -*----------------------------------*\
| =========                 |                                                 |
| \\      /  F ield         | OpenFOAM: The Open Source CFD Toolbox           |
|  \\    /   O peration     | Version:  v1706                                 |
|   \\  /    A nd           | Web:      www.OpenFOAM.com                      |
|    \\/     M anipulation  |                                                 |
\*---------------------------------------------------------------------------*/
FoamFile
{
    version     2.0;
    format      ascii;
    class       volScalarField;
    location    "3.7e-05";
    object      mu;
}
// * * * * * * * * * * * * * * * * * * * * * * * * * * * * * * * * * * * * * //

dimensions      [1 -1 -1 0 0 0 0];


internalField   nonuniform List<scalar> 
29871
(
1.04176e-05
1.0427e-05
1.04378e-05
1.045e-05
1.04636e-05
1.04786e-05
1.04953e-05
1.05138e-05
1.05345e-05
1.05579e-05
1.05846e-05
1.0615e-05
1.0649e-05
1.06867e-05
1.07278e-05
1.07722e-05
1.08197e-05
1.08713e-05
1.09283e-05
1.09921e-05
1.10623e-05
1.11379e-05
1.12179e-05
1.13013e-05
1.13874e-05
1.14751e-05
1.15636e-05
1.16517e-05
1.17387e-05
1.18242e-05
1.19108e-05
1.2013e-05
1.21385e-05
1.22794e-05
1.24274e-05
1.25758e-05
1.27202e-05
1.28576e-05
1.29861e-05
1.31049e-05
1.32139e-05
1.33133e-05
1.34038e-05
1.34857e-05
1.35593e-05
1.36247e-05
1.3682e-05
1.3731e-05
1.3772e-05
1.38052e-05
1.38313e-05
1.38506e-05
1.38638e-05
1.38719e-05
1.3874e-05
1.38721e-05
1.38675e-05
1.38614e-05
1.38524e-05
1.38408e-05
1.38288e-05
1.38155e-05
1.38007e-05
1.37844e-05
1.37669e-05
1.37486e-05
1.37289e-05
1.37079e-05
1.36862e-05
1.36635e-05
1.36392e-05
1.36139e-05
1.35883e-05
1.35616e-05
1.35337e-05
1.35048e-05
1.3475e-05
1.3444e-05
1.34122e-05
1.33796e-05
1.33461e-05
1.33119e-05
1.32772e-05
1.32421e-05
1.32067e-05
1.3171e-05
1.31352e-05
1.30992e-05
1.30628e-05
1.30259e-05
1.29886e-05
1.29507e-05
1.29121e-05
1.28728e-05
1.28328e-05
1.27922e-05
1.2751e-05
1.27094e-05
1.26675e-05
1.26254e-05
1.2583e-05
1.25405e-05
1.24978e-05
1.24549e-05
1.24119e-05
1.07546e-05
1.08095e-05
1.08718e-05
1.09417e-05
1.10195e-05
1.11053e-05
1.11991e-05
1.13019e-05
1.14155e-05
1.15421e-05
1.16822e-05
1.18352e-05
1.19996e-05
1.21738e-05
1.23555e-05
1.2543e-05
1.27353e-05
1.29337e-05
1.31512e-05
1.3396e-05
1.3663e-05
1.39443e-05
1.42313e-05
1.45162e-05
1.47924e-05
1.50548e-05
1.52997e-05
1.55247e-05
1.57287e-05
1.59117e-05
1.60741e-05
1.6214e-05
1.63309e-05
1.64262e-05
1.65022e-05
1.65612e-05
1.66051e-05
1.66361e-05
1.66564e-05
1.66693e-05
1.66778e-05
1.66841e-05
1.66894e-05
1.66942e-05
1.66986e-05
1.67025e-05
1.67059e-05
1.67071e-05
1.6706e-05
1.67032e-05
1.66986e-05
1.66914e-05
1.66814e-05
1.66688e-05
1.66536e-05
1.66361e-05
1.66169e-05
1.6596e-05
1.6574e-05
1.65526e-05
1.65308e-05
1.65079e-05
1.6485e-05
1.64624e-05
1.644e-05
1.64181e-05
1.63963e-05
1.63742e-05
1.63521e-05
1.63303e-05
1.6308e-05
1.62863e-05
1.62645e-05
1.62424e-05
1.62202e-05
1.6198e-05
1.6175e-05
1.61516e-05
1.61282e-05
1.61044e-05
1.60801e-05
1.60557e-05
1.60313e-05
1.60068e-05
1.59823e-05
1.59578e-05
1.59335e-05
1.59092e-05
1.5885e-05
1.58608e-05
1.58366e-05
1.58124e-05
1.57883e-05
1.57643e-05
1.57407e-05
1.57175e-05
1.56946e-05
1.5672e-05
1.56497e-05
1.56276e-05
1.56057e-05
1.55838e-05
1.55621e-05
1.55405e-05
1.5519e-05
1.1552e-05
1.17021e-05
1.18689e-05
1.2052e-05
1.22502e-05
1.24618e-05
1.26846e-05
1.29172e-05
1.31597e-05
1.342e-05
1.37092e-05
1.40234e-05
1.43549e-05
1.46941e-05
1.50313e-05
1.53585e-05
1.56689e-05
1.59581e-05
1.62226e-05
1.64583e-05
1.66637e-05
1.68409e-05
1.6993e-05
1.71232e-05
1.72346e-05
1.73298e-05
1.74103e-05
1.7477e-05
1.75303e-05
1.75702e-05
1.75984e-05
1.76175e-05
1.76299e-05
1.76376e-05
1.76402e-05
1.76385e-05
1.76339e-05
1.7625e-05
1.76108e-05
1.75911e-05
1.75668e-05
1.75396e-05
1.75109e-05
1.74818e-05
1.74529e-05
1.74249e-05
1.73981e-05
1.73729e-05
1.73493e-05
1.73269e-05
1.73057e-05
1.72854e-05
1.72656e-05
1.72457e-05
1.72254e-05
1.72042e-05
1.71819e-05
1.71584e-05
1.71337e-05
1.71078e-05
1.70808e-05
1.70531e-05
1.70248e-05
1.6996e-05
1.69667e-05
1.69373e-05
1.69074e-05
1.68793e-05
1.68509e-05
1.682e-05
1.67922e-05
1.6767e-05
1.67388e-05
1.67096e-05
1.66838e-05
1.66591e-05
1.66324e-05
1.66061e-05
1.6582e-05
1.65575e-05
1.65327e-05
1.65089e-05
1.64855e-05
1.64622e-05
1.64392e-05
1.64166e-05
1.63942e-05
1.6372e-05
1.635e-05
1.63282e-05
1.63067e-05
1.62853e-05
1.62642e-05
1.62433e-05
1.62228e-05
1.62026e-05
1.61831e-05
1.61641e-05
1.61459e-05
1.61283e-05
1.61113e-05
1.6095e-05
1.60792e-05
1.6064e-05
1.60492e-05
1.60349e-05
1.35053e-05
1.3813e-05
1.41471e-05
1.45003e-05
1.48632e-05
1.52257e-05
1.55789e-05
1.59152e-05
1.6229e-05
1.65145e-05
1.67676e-05
1.69888e-05
1.718e-05
1.73438e-05
1.74831e-05
1.76006e-05
1.7699e-05
1.77806e-05
1.78468e-05
1.7899e-05
1.79384e-05
1.79663e-05
1.79851e-05
1.79978e-05
1.80071e-05
1.80152e-05
1.80228e-05
1.80298e-05
1.80357e-05
1.80363e-05
1.80335e-05
1.8027e-05
1.80173e-05
1.80056e-05
1.7992e-05
1.79775e-05
1.79627e-05
1.79485e-05
1.79352e-05
1.79219e-05
1.79065e-05
1.78877e-05
1.78654e-05
1.78401e-05
1.78128e-05
1.77843e-05
1.77555e-05
1.77267e-05
1.76987e-05
1.76715e-05
1.76455e-05
1.76207e-05
1.75968e-05
1.75737e-05
1.75508e-05
1.75279e-05
1.75044e-05
1.74799e-05
1.74541e-05
1.74268e-05
1.73979e-05
1.73675e-05
1.73358e-05
1.7303e-05
1.72689e-05
1.72344e-05
1.71987e-05
1.71646e-05
1.71301e-05
1.70925e-05
1.7058e-05
1.70265e-05
1.6992e-05
1.6956e-05
1.69236e-05
1.68928e-05
1.686e-05
1.68274e-05
1.67972e-05
1.67671e-05
1.67371e-05
1.67083e-05
1.66801e-05
1.66521e-05
1.66247e-05
1.65979e-05
1.65715e-05
1.65453e-05
1.65194e-05
1.6494e-05
1.64691e-05
1.64444e-05
1.64202e-05
1.63964e-05
1.63729e-05
1.635e-05
1.63275e-05
1.63056e-05
1.62843e-05
1.62639e-05
1.62443e-05
1.62255e-05
1.62075e-05
1.61904e-05
1.61741e-05
1.61585e-05
1.6199e-05
1.65136e-05
1.6795e-05
1.70426e-05
1.72575e-05
1.7442e-05
1.7599e-05
1.77318e-05
1.78433e-05
1.79363e-05
1.80129e-05
1.80749e-05
1.81243e-05
1.81627e-05
1.81914e-05
1.82124e-05
1.82283e-05
1.82411e-05
1.82519e-05
1.82609e-05
1.8268e-05
1.82727e-05
1.82723e-05
1.8269e-05
1.82624e-05
1.82535e-05
1.82437e-05
1.82342e-05
1.82261e-05
1.82207e-05
1.82181e-05
1.82172e-05
1.8215e-05
1.82099e-05
1.82012e-05
1.81893e-05
1.8175e-05
1.81594e-05
1.81435e-05
1.81287e-05
1.81155e-05
1.81026e-05
1.80883e-05
1.80715e-05
1.80518e-05
1.80293e-05
1.80046e-05
1.79783e-05
1.79508e-05
1.79227e-05
1.78946e-05
1.78668e-05
1.78395e-05
1.78127e-05
1.77866e-05
1.7761e-05
1.77356e-05
1.77101e-05
1.76844e-05
1.76579e-05
1.76305e-05
1.76018e-05
1.75719e-05
1.75406e-05
1.7508e-05
1.74741e-05
1.74389e-05
1.74027e-05
1.73663e-05
1.73302e-05
1.72914e-05
1.72538e-05
1.72197e-05
1.71822e-05
1.71418e-05
1.71053e-05
1.70715e-05
1.7035e-05
1.69975e-05
1.69626e-05
1.69279e-05
1.68946e-05
1.6863e-05
1.68312e-05
1.67991e-05
1.67688e-05
1.67395e-05
1.67102e-05
1.66809e-05
1.66522e-05
1.66244e-05
1.65971e-05
1.65701e-05
1.65436e-05
1.65177e-05
1.64924e-05
1.64677e-05
1.64435e-05
1.642e-05
1.63972e-05
1.63752e-05
1.63538e-05
1.63331e-05
1.63133e-05
1.62943e-05
1.62762e-05
1.62591e-05
1.79904e-05
1.80831e-05
1.8159e-05
1.82203e-05
1.82692e-05
1.83071e-05
1.83359e-05
1.83576e-05
1.83749e-05
1.83894e-05
1.8402e-05
1.84125e-05
1.84211e-05
1.84272e-05
1.84298e-05
1.84289e-05
1.84262e-05
1.84218e-05
1.84168e-05
1.84119e-05
1.84072e-05
1.8403e-05
1.83999e-05
1.83973e-05
1.83934e-05
1.83869e-05
1.83777e-05
1.83673e-05
1.83562e-05
1.83462e-05
1.83384e-05
1.83341e-05
1.8331e-05
1.83272e-05
1.83213e-05
1.83129e-05
1.83019e-05
1.82887e-05
1.82741e-05
1.82589e-05
1.8244e-05
1.82303e-05
1.82177e-05
1.82051e-05
1.81915e-05
1.81761e-05
1.81587e-05
1.81395e-05
1.81186e-05
1.80962e-05
1.80728e-05
1.80488e-05
1.80245e-05
1.79999e-05
1.79754e-05
1.79512e-05
1.7927e-05
1.79028e-05
1.78784e-05
1.78537e-05
1.78281e-05
1.78017e-05
1.77741e-05
1.77452e-05
1.77149e-05
1.76831e-05
1.76497e-05
1.76149e-05
1.75787e-05
1.75423e-05
1.75041e-05
1.74653e-05
1.74286e-05
1.73917e-05
1.7349e-05
1.73096e-05
1.72724e-05
1.72358e-05
1.71936e-05
1.71526e-05
1.7115e-05
1.70794e-05
1.70452e-05
1.70085e-05
1.69716e-05
1.69381e-05
1.69063e-05
1.68732e-05
1.68389e-05
1.68068e-05
1.67762e-05
1.67456e-05
1.67149e-05
1.66848e-05
1.66559e-05
1.66277e-05
1.66e-05
1.6573e-05
1.65467e-05
1.65212e-05
1.64964e-05
1.64725e-05
1.64494e-05
1.64272e-05
1.64058e-05
1.63855e-05
1.63662e-05
1.84196e-05
1.84504e-05
1.8474e-05
1.84931e-05
1.85091e-05
1.85227e-05
1.85341e-05
1.85432e-05
1.85497e-05
1.85529e-05
1.85526e-05
1.85509e-05
1.85481e-05
1.8545e-05
1.85418e-05
1.8539e-05
1.85367e-05
1.85355e-05
1.85346e-05
1.85324e-05
1.85281e-05
1.85221e-05
1.8515e-05
1.85071e-05
1.84992e-05
1.8493e-05
1.84882e-05
1.84837e-05
1.84784e-05
1.84715e-05
1.84631e-05
1.8453e-05
1.84423e-05
1.84322e-05
1.8424e-05
1.84178e-05
1.84135e-05
1.84096e-05
1.84048e-05
1.83985e-05
1.83903e-05
1.83803e-05
1.83687e-05
1.83562e-05
1.83438e-05
1.83319e-05
1.83208e-05
1.83102e-05
1.82991e-05
1.82868e-05
1.82732e-05
1.82582e-05
1.82415e-05
1.82232e-05
1.82039e-05
1.81837e-05
1.81626e-05
1.81412e-05
1.81199e-05
1.80983e-05
1.80763e-05
1.80546e-05
1.80325e-05
1.80097e-05
1.79864e-05
1.79622e-05
1.79367e-05
1.791e-05
1.78818e-05
1.7852e-05
1.78206e-05
1.77875e-05
1.7753e-05
1.77175e-05
1.76801e-05
1.76432e-05
1.76079e-05
1.7567e-05
1.75265e-05
1.7488e-05
1.74523e-05
1.74105e-05
1.73658e-05
1.73262e-05
1.7289e-05
1.72537e-05
1.7213e-05
1.71726e-05
1.71367e-05
1.71031e-05
1.70673e-05
1.70291e-05
1.6994e-05
1.69614e-05
1.69282e-05
1.68936e-05
1.68606e-05
1.68297e-05
1.67989e-05
1.67682e-05
1.67385e-05
1.67101e-05
1.66824e-05
1.66551e-05
1.66289e-05
1.66038e-05
1.65795e-05
1.65562e-05
1.65337e-05
1.65124e-05
1.86616e-05
1.86655e-05
1.86658e-05
1.86647e-05
1.86629e-05
1.86604e-05
1.86581e-05
1.86561e-05
1.86547e-05
1.86545e-05
1.86538e-05
1.86515e-05
1.86476e-05
1.86423e-05
1.86359e-05
1.86292e-05
1.8623e-05
1.86181e-05
1.8615e-05
1.86119e-05
1.86079e-05
1.86028e-05
1.85963e-05
1.85887e-05
1.85805e-05
1.85725e-05
1.85654e-05
1.85592e-05
1.85539e-05
1.85485e-05
1.85426e-05
1.85353e-05
1.85271e-05
1.85186e-05
1.85102e-05
1.8503e-05
1.84974e-05
1.84928e-05
1.84891e-05
1.84852e-05
1.84805e-05
1.84744e-05
1.84667e-05
1.84575e-05
1.84477e-05
1.84372e-05
1.84268e-05
1.84172e-05
1.8408e-05
1.83981e-05
1.83877e-05
1.83766e-05
1.83645e-05
1.83507e-05
1.83355e-05
1.83196e-05
1.83027e-05
1.82846e-05
1.82668e-05
1.82487e-05
1.82294e-05
1.82103e-05
1.81915e-05
1.81718e-05
1.81516e-05
1.81311e-05
1.81094e-05
1.80867e-05
1.8063e-05
1.80376e-05
1.80106e-05
1.79822e-05
1.7952e-05
1.79206e-05
1.78867e-05
1.78525e-05
1.78195e-05
1.77829e-05
1.77435e-05
1.77063e-05
1.76715e-05
1.76342e-05
1.75888e-05
1.75484e-05
1.75106e-05
1.74753e-05
1.74334e-05
1.73909e-05
1.7354e-05
1.73192e-05
1.72827e-05
1.72416e-05
1.72042e-05
1.717e-05
1.71355e-05
1.7098e-05
1.7063e-05
1.70306e-05
1.69974e-05
1.69636e-05
1.69326e-05
1.69029e-05
1.6873e-05
1.68432e-05
1.68153e-05
1.67887e-05
1.67629e-05
1.67376e-05
1.67133e-05
1.66902e-05
1.87686e-05
1.87686e-05
1.8768e-05
1.87658e-05
1.87621e-05
1.87569e-05
1.87508e-05
1.87446e-05
1.8739e-05
1.8735e-05
1.87319e-05
1.87289e-05
1.8725e-05
1.87199e-05
1.87138e-05
1.87069e-05
1.86998e-05
1.8693e-05
1.86873e-05
1.86827e-05
1.86787e-05
1.86747e-05
1.86702e-05
1.86647e-05
1.86584e-05
1.86515e-05
1.86447e-05
1.86382e-05
1.86326e-05
1.86273e-05
1.86223e-05
1.86169e-05
1.86107e-05
1.8604e-05
1.85968e-05
1.85896e-05
1.85831e-05
1.85776e-05
1.85732e-05
1.85692e-05
1.85655e-05
1.85615e-05
1.85565e-05
1.85502e-05
1.85435e-05
1.85355e-05
1.85264e-05
1.8518e-05
1.85099e-05
1.85012e-05
1.84922e-05
1.84831e-05
1.84741e-05
1.84639e-05
1.84517e-05
1.84393e-05
1.84271e-05
1.84119e-05
1.83969e-05
1.83826e-05
1.83662e-05
1.83495e-05
1.83335e-05
1.8317e-05
1.82992e-05
1.82821e-05
1.82641e-05
1.82446e-05
1.82252e-05
1.82043e-05
1.81816e-05
1.81581e-05
1.81334e-05
1.81069e-05
1.80775e-05
1.80478e-05
1.80187e-05
1.79868e-05
1.79505e-05
1.79164e-05
1.78838e-05
1.78514e-05
1.7808e-05
1.77687e-05
1.77321e-05
1.76979e-05
1.76573e-05
1.76144e-05
1.75779e-05
1.75429e-05
1.75069e-05
1.74642e-05
1.74256e-05
1.73906e-05
1.73561e-05
1.73171e-05
1.72806e-05
1.72472e-05
1.72122e-05
1.71771e-05
1.71448e-05
1.71145e-05
1.70827e-05
1.70508e-05
1.70216e-05
1.69946e-05
1.69676e-05
1.69406e-05
1.69146e-05
1.689e-05
1.88544e-05
1.88501e-05
1.88468e-05
1.88433e-05
1.88392e-05
1.8834e-05
1.88279e-05
1.88212e-05
1.88144e-05
1.88082e-05
1.88031e-05
1.87991e-05
1.87956e-05
1.87919e-05
1.87876e-05
1.87826e-05
1.87771e-05
1.87712e-05
1.87655e-05
1.87604e-05
1.8756e-05
1.87522e-05
1.87485e-05
1.87444e-05
1.87397e-05
1.87344e-05
1.87286e-05
1.87226e-05
1.87167e-05
1.87112e-05
1.87061e-05
1.87011e-05
1.86959e-05
1.86903e-05
1.86843e-05
1.86779e-05
1.86715e-05
1.86655e-05
1.86603e-05
1.86557e-05
1.86517e-05
1.86481e-05
1.86443e-05
1.86399e-05
1.86353e-05
1.863e-05
1.86224e-05
1.86157e-05
1.86095e-05
1.86015e-05
1.8593e-05
1.85855e-05
1.85783e-05
1.85703e-05
1.85601e-05
1.85506e-05
1.85422e-05
1.85296e-05
1.85174e-05
1.85063e-05
1.84929e-05
1.84781e-05
1.84647e-05
1.84513e-05
1.84353e-05
1.84205e-05
1.84058e-05
1.8389e-05
1.83725e-05
1.83559e-05
1.83367e-05
1.83171e-05
1.82978e-05
1.82761e-05
1.82511e-05
1.82262e-05
1.82021e-05
1.81749e-05
1.81426e-05
1.81126e-05
1.80838e-05
1.80553e-05
1.80153e-05
1.79793e-05
1.79455e-05
1.79137e-05
1.78751e-05
1.78336e-05
1.77986e-05
1.77645e-05
1.77296e-05
1.76866e-05
1.76484e-05
1.76136e-05
1.75796e-05
1.754e-05
1.75029e-05
1.74691e-05
1.74334e-05
1.73979e-05
1.73651e-05
1.73344e-05
1.73015e-05
1.72683e-05
1.72382e-05
1.72102e-05
1.71836e-05
1.71553e-05
1.71274e-05
1.71014e-05
1.89294e-05
1.8923e-05
1.89178e-05
1.89137e-05
1.891e-05
1.89063e-05
1.89021e-05
1.88974e-05
1.88921e-05
1.88867e-05
1.88817e-05
1.88773e-05
1.88736e-05
1.88704e-05
1.88671e-05
1.88636e-05
1.88596e-05
1.8855e-05
1.88502e-05
1.88453e-05
1.88407e-05
1.88366e-05
1.88328e-05
1.88291e-05
1.88253e-05
1.8821e-05
1.88163e-05
1.88111e-05
1.88058e-05
1.88004e-05
1.87952e-05
1.87902e-05
1.87852e-05
1.87802e-05
1.8775e-05
1.87694e-05
1.87636e-05
1.87578e-05
1.87523e-05
1.87473e-05
1.87427e-05
1.87389e-05
1.87353e-05
1.87315e-05
1.87281e-05
1.87244e-05
1.87187e-05
1.87136e-05
1.87091e-05
1.87025e-05
1.86951e-05
1.86885e-05
1.86824e-05
1.86762e-05
1.86676e-05
1.86601e-05
1.86537e-05
1.86441e-05
1.8634e-05
1.86252e-05
1.86152e-05
1.8602e-05
1.85906e-05
1.85804e-05
1.85658e-05
1.85526e-05
1.85408e-05
1.85259e-05
1.85113e-05
1.8498e-05
1.84815e-05
1.84652e-05
1.84499e-05
1.84319e-05
1.84105e-05
1.83901e-05
1.83709e-05
1.83476e-05
1.83197e-05
1.82941e-05
1.82697e-05
1.82439e-05
1.82083e-05
1.81769e-05
1.81464e-05
1.81181e-05
1.8081e-05
1.80427e-05
1.80101e-05
1.79778e-05
1.79437e-05
1.79019e-05
1.78657e-05
1.7832e-05
1.77987e-05
1.7759e-05
1.77222e-05
1.76887e-05
1.76532e-05
1.76178e-05
1.75848e-05
1.75543e-05
1.75209e-05
1.7487e-05
1.74564e-05
1.74279e-05
1.74011e-05
1.73732e-05
1.73433e-05
1.73157e-05
1.90125e-05
1.90072e-05
1.90018e-05
1.89967e-05
1.89924e-05
1.89888e-05
1.89856e-05
1.89825e-05
1.89792e-05
1.89755e-05
1.89714e-05
1.89671e-05
1.8963e-05
1.89592e-05
1.89559e-05
1.89529e-05
1.89499e-05
1.89468e-05
1.89433e-05
1.89395e-05
1.89354e-05
1.89312e-05
1.89271e-05
1.89233e-05
1.89197e-05
1.89161e-05
1.89125e-05
1.89086e-05
1.89043e-05
1.88997e-05
1.88948e-05
1.88899e-05
1.88851e-05
1.88803e-05
1.88755e-05
1.88708e-05
1.88658e-05
1.88607e-05
1.88555e-05
1.88503e-05
1.88452e-05
1.88404e-05
1.88363e-05
1.88327e-05
1.88289e-05
1.88259e-05
1.88231e-05
1.88189e-05
1.88151e-05
1.88119e-05
1.88068e-05
1.8801e-05
1.87957e-05
1.87904e-05
1.87854e-05
1.87787e-05
1.87721e-05
1.87669e-05
1.87601e-05
1.87516e-05
1.87444e-05
1.87372e-05
1.87261e-05
1.87164e-05
1.87082e-05
1.86959e-05
1.86838e-05
1.86739e-05
1.86611e-05
1.86474e-05
1.8636e-05
1.86219e-05
1.86076e-05
1.85947e-05
1.85794e-05
1.8561e-05
1.85441e-05
1.85291e-05
1.8508e-05
1.84844e-05
1.84628e-05
1.84429e-05
1.84183e-05
1.83878e-05
1.8361e-05
1.83341e-05
1.83091e-05
1.82734e-05
1.82396e-05
1.82097e-05
1.81801e-05
1.81455e-05
1.81067e-05
1.80737e-05
1.80418e-05
1.80084e-05
1.79692e-05
1.79339e-05
1.79011e-05
1.78663e-05
1.7831e-05
1.77982e-05
1.77681e-05
1.77349e-05
1.77008e-05
1.76701e-05
1.76416e-05
1.7614e-05
1.75872e-05
1.75558e-05
1.75267e-05
1.90943e-05
1.90906e-05
1.90866e-05
1.90824e-05
1.90784e-05
1.90749e-05
1.90718e-05
1.9069e-05
1.90663e-05
1.90635e-05
1.90606e-05
1.90573e-05
1.9054e-05
1.90506e-05
1.90475e-05
1.90446e-05
1.90419e-05
1.90392e-05
1.90365e-05
1.90335e-05
1.90303e-05
1.90268e-05
1.90233e-05
1.90197e-05
1.90163e-05
1.90129e-05
1.90096e-05
1.90063e-05
1.90027e-05
1.89989e-05
1.89948e-05
1.89905e-05
1.89861e-05
1.89817e-05
1.89773e-05
1.89729e-05
1.89685e-05
1.89641e-05
1.89595e-05
1.89549e-05
1.89502e-05
1.89457e-05
1.89417e-05
1.8938e-05
1.89343e-05
1.89314e-05
1.8929e-05
1.89258e-05
1.89229e-05
1.89207e-05
1.89169e-05
1.89128e-05
1.89092e-05
1.89045e-05
1.89005e-05
1.88958e-05
1.88899e-05
1.88855e-05
1.88807e-05
1.88736e-05
1.88676e-05
1.88623e-05
1.88536e-05
1.88451e-05
1.88384e-05
1.88285e-05
1.88174e-05
1.88086e-05
1.87979e-05
1.87849e-05
1.87743e-05
1.87625e-05
1.87486e-05
1.87366e-05
1.87239e-05
1.87076e-05
1.86929e-05
1.86805e-05
1.86608e-05
1.86407e-05
1.86223e-05
1.86061e-05
1.85819e-05
1.85562e-05
1.85333e-05
1.85104e-05
1.84868e-05
1.84531e-05
1.84243e-05
1.83966e-05
1.83701e-05
1.83347e-05
1.83005e-05
1.82704e-05
1.8241e-05
1.82058e-05
1.81688e-05
1.81357e-05
1.81041e-05
1.80695e-05
1.80344e-05
1.80022e-05
1.79724e-05
1.79402e-05
1.79063e-05
1.78755e-05
1.7847e-05
1.78188e-05
1.77923e-05
1.77604e-05
1.77303e-05
1.77033e-05
1.76778e-05
1.91813e-05
1.91785e-05
1.91756e-05
1.91725e-05
1.91694e-05
1.91663e-05
1.91635e-05
1.9161e-05
1.91587e-05
1.91565e-05
1.91543e-05
1.91519e-05
1.91494e-05
1.91468e-05
1.91442e-05
1.91417e-05
1.91393e-05
1.9137e-05
1.91348e-05
1.91325e-05
1.913e-05
1.91273e-05
1.91245e-05
1.91216e-05
1.91186e-05
1.91156e-05
1.91127e-05
1.91098e-05
1.91069e-05
1.91038e-05
1.91005e-05
1.9097e-05
1.90934e-05
1.90896e-05
1.90858e-05
1.9082e-05
1.90782e-05
1.90744e-05
1.90706e-05
1.90667e-05
1.90628e-05
1.90589e-05
1.90553e-05
1.90518e-05
1.90485e-05
1.90459e-05
1.90436e-05
1.9041e-05
1.90389e-05
1.90375e-05
1.90347e-05
1.90321e-05
1.90298e-05
1.90262e-05
1.90231e-05
1.90199e-05
1.90152e-05
1.90113e-05
1.90078e-05
1.90022e-05
1.89969e-05
1.89929e-05
1.89862e-05
1.89787e-05
1.89731e-05
1.89651e-05
1.89551e-05
1.89471e-05
1.89381e-05
1.89258e-05
1.89154e-05
1.89054e-05
1.88917e-05
1.88796e-05
1.88686e-05
1.88535e-05
1.88396e-05
1.8828e-05
1.88102e-05
1.87926e-05
1.87762e-05
1.87619e-05
1.87382e-05
1.87163e-05
1.86959e-05
1.86773e-05
1.8652e-05
1.86229e-05
1.85979e-05
1.85725e-05
1.85473e-05
1.85128e-05
1.84832e-05
1.8455e-05
1.84277e-05
1.83914e-05
1.83574e-05
1.83264e-05
1.82965e-05
1.82614e-05
1.82267e-05
1.81956e-05
1.81661e-05
1.81348e-05
1.81012e-05
1.80705e-05
1.80419e-05
1.80133e-05
1.79853e-05
1.79551e-05
1.7925e-05
1.78975e-05
1.78714e-05
1.92783e-05
1.92756e-05
1.92732e-05
1.92709e-05
1.92688e-05
1.92666e-05
1.92643e-05
1.92621e-05
1.92599e-05
1.92578e-05
1.92559e-05
1.92542e-05
1.92525e-05
1.92509e-05
1.92491e-05
1.92473e-05
1.92455e-05
1.92436e-05
1.92417e-05
1.92399e-05
1.92382e-05
1.92364e-05
1.92347e-05
1.92328e-05
1.92307e-05
1.92286e-05
1.92263e-05
1.9224e-05
1.92217e-05
1.92194e-05
1.92171e-05
1.92148e-05
1.92123e-05
1.92097e-05
1.9207e-05
1.92041e-05
1.92012e-05
1.91982e-05
1.91952e-05
1.91922e-05
1.91892e-05
1.91861e-05
1.91831e-05
1.91801e-05
1.91771e-05
1.91743e-05
1.91716e-05
1.91693e-05
1.91674e-05
1.91653e-05
1.91639e-05
1.91628e-05
1.9161e-05
1.91596e-05
1.91582e-05
1.91557e-05
1.91537e-05
1.91516e-05
1.9148e-05
1.91447e-05
1.91422e-05
1.91378e-05
1.9133e-05
1.91298e-05
1.91245e-05
1.91177e-05
1.91129e-05
1.91063e-05
1.90971e-05
1.90897e-05
1.90819e-05
1.90704e-05
1.90601e-05
1.90509e-05
1.9038e-05
1.90252e-05
1.90146e-05
1.90007e-05
1.8986e-05
1.8974e-05
1.89586e-05
1.89417e-05
1.89262e-05
1.89124e-05
1.88901e-05
1.88706e-05
1.88516e-05
1.88352e-05
1.88089e-05
1.87839e-05
1.8761e-05
1.8739e-05
1.8712e-05
1.86812e-05
1.86548e-05
1.86283e-05
1.86012e-05
1.85655e-05
1.85347e-05
1.85055e-05
1.84773e-05
1.84414e-05
1.84077e-05
1.83777e-05
1.83486e-05
1.83178e-05
1.82845e-05
1.82542e-05
1.82255e-05
1.81967e-05
1.81678e-05
1.81385e-05
1.81091e-05
1.80812e-05
1.80545e-05
1.93734e-05
1.93713e-05
1.93693e-05
1.93676e-05
1.9366e-05
1.93645e-05
1.93631e-05
1.93616e-05
1.93601e-05
1.93587e-05
1.93574e-05
1.93562e-05
1.93551e-05
1.93541e-05
1.9353e-05
1.9352e-05
1.93509e-05
1.93498e-05
1.93486e-05
1.93475e-05
1.93464e-05
1.93453e-05
1.93443e-05
1.93432e-05
1.9342e-05
1.93407e-05
1.93393e-05
1.93379e-05
1.93364e-05
1.93349e-05
1.93334e-05
1.93318e-05
1.93303e-05
1.93286e-05
1.93269e-05
1.93251e-05
1.93232e-05
1.93212e-05
1.93192e-05
1.93171e-05
1.93151e-05
1.93131e-05
1.9311e-05
1.93089e-05
1.93069e-05
1.93049e-05
1.9303e-05
1.93013e-05
1.92998e-05
1.92984e-05
1.92975e-05
1.92967e-05
1.92956e-05
1.9295e-05
1.92943e-05
1.92928e-05
1.92916e-05
1.92903e-05
1.92876e-05
1.92851e-05
1.92831e-05
1.92795e-05
1.92752e-05
1.92724e-05
1.92679e-05
1.92616e-05
1.92571e-05
1.92514e-05
1.92428e-05
1.92356e-05
1.92285e-05
1.92178e-05
1.92073e-05
1.91984e-05
1.91862e-05
1.91727e-05
1.91616e-05
1.91487e-05
1.9133e-05
1.91196e-05
1.91061e-05
1.90888e-05
1.90727e-05
1.90587e-05
1.90387e-05
1.90196e-05
1.90014e-05
1.89851e-05
1.89594e-05
1.89368e-05
1.89149e-05
1.88952e-05
1.88668e-05
1.88396e-05
1.88147e-05
1.87907e-05
1.87616e-05
1.87286e-05
1.87002e-05
1.8672e-05
1.86452e-05
1.86095e-05
1.85772e-05
1.85478e-05
1.85187e-05
1.84886e-05
1.84561e-05
1.8426e-05
1.83973e-05
1.83687e-05
1.83396e-05
1.83104e-05
1.82814e-05
1.82532e-05
1.8226e-05
1.81992e-05
1.94847e-05
1.94824e-05
1.94802e-05
1.94783e-05
1.94766e-05
1.94749e-05
1.94733e-05
1.94718e-05
1.94704e-05
1.94691e-05
1.9468e-05
1.9467e-05
1.94661e-05
1.94653e-05
1.94646e-05
1.94639e-05
1.94632e-05
1.94626e-05
1.94621e-05
1.94616e-05
1.94613e-05
1.9461e-05
1.94607e-05
1.94604e-05
1.94601e-05
1.94598e-05
1.94595e-05
1.94592e-05
1.94589e-05
1.94586e-05
1.94583e-05
1.94581e-05
1.94577e-05
1.94573e-05
1.94569e-05
1.94564e-05
1.94558e-05
1.94553e-05
1.94548e-05
1.94542e-05
1.94536e-05
1.9453e-05
1.94523e-05
1.94515e-05
1.94507e-05
1.94498e-05
1.94489e-05
1.94479e-05
1.94469e-05
1.94459e-05
1.94449e-05
1.94439e-05
1.94428e-05
1.94418e-05
1.94409e-05
1.944e-05
1.94392e-05
1.94387e-05
1.94382e-05
1.94376e-05
1.94375e-05
1.94371e-05
1.94362e-05
1.94356e-05
1.94347e-05
1.94327e-05
1.94308e-05
1.94291e-05
1.94259e-05
1.94219e-05
1.94192e-05
1.94149e-05
1.94088e-05
1.94042e-05
1.93988e-05
1.93905e-05
1.93831e-05
1.93762e-05
1.9366e-05
1.93549e-05
1.93459e-05
1.93342e-05
1.932e-05
1.93079e-05
1.92955e-05
1.92792e-05
1.92641e-05
1.92507e-05
1.92336e-05
1.92158e-05
1.92003e-05
1.91829e-05
1.91628e-05
1.91441e-05
1.91274e-05
1.91039e-05
1.90817e-05
1.906e-05
1.90405e-05
1.90126e-05
1.89876e-05
1.89631e-05
1.89407e-05
1.89103e-05
1.88801e-05
1.8853e-05
1.88256e-05
1.87995e-05
1.87652e-05
1.87341e-05
1.8705e-05
1.86758e-05
1.86464e-05
1.86153e-05
1.85854e-05
1.85567e-05
1.85281e-05
1.84991e-05
1.84701e-05
1.84411e-05
1.84128e-05
1.8385e-05
1.83577e-05
1.95814e-05
1.95797e-05
1.95783e-05
1.9577e-05
1.95758e-05
1.95749e-05
1.9574e-05
1.95732e-05
1.95725e-05
1.95719e-05
1.95715e-05
1.95711e-05
1.95709e-05
1.95708e-05
1.95708e-05
1.95709e-05
1.9571e-05
1.95712e-05
1.95714e-05
1.95717e-05
1.95721e-05
1.95726e-05
1.95731e-05
1.95737e-05
1.95743e-05
1.95749e-05
1.95755e-05
1.95761e-05
1.95767e-05
1.95774e-05
1.95781e-05
1.95788e-05
1.95795e-05
1.95802e-05
1.95808e-05
1.95814e-05
1.9582e-05
1.95826e-05
1.95831e-05
1.95837e-05
1.95842e-05
1.95848e-05
1.95853e-05
1.95857e-05
1.95861e-05
1.95864e-05
1.95866e-05
1.95868e-05
1.95869e-05
1.9587e-05
1.9587e-05
1.9587e-05
1.95868e-05
1.95867e-05
1.95865e-05
1.95862e-05
1.9586e-05
1.95858e-05
1.95856e-05
1.95854e-05
1.95853e-05
1.9585e-05
1.95844e-05
1.95839e-05
1.95831e-05
1.95814e-05
1.95797e-05
1.95778e-05
1.95746e-05
1.95708e-05
1.95677e-05
1.95632e-05
1.95569e-05
1.95519e-05
1.95462e-05
1.95378e-05
1.95296e-05
1.95224e-05
1.95122e-05
1.95004e-05
1.94906e-05
1.9479e-05
1.94643e-05
1.94509e-05
1.94383e-05
1.94218e-05
1.94049e-05
1.93903e-05
1.93737e-05
1.93542e-05
1.93366e-05
1.93203e-05
1.92996e-05
1.92791e-05
1.92606e-05
1.92406e-05
1.92173e-05
1.91948e-05
1.91741e-05
1.91491e-05
1.91245e-05
1.90998e-05
1.90769e-05
1.90472e-05
1.90189e-05
1.89924e-05
1.89654e-05
1.8939e-05
1.89074e-05
1.88773e-05
1.88485e-05
1.88195e-05
1.87903e-05
1.87604e-05
1.87309e-05
1.87021e-05
1.86735e-05
1.86448e-05
1.86159e-05
1.85871e-05
1.85586e-05
1.85305e-05
1.85027e-05
1.96806e-05
1.96797e-05
1.96789e-05
1.96783e-05
1.96778e-05
1.96775e-05
1.96773e-05
1.96773e-05
1.96773e-05
1.96775e-05
1.96777e-05
1.96781e-05
1.96787e-05
1.96793e-05
1.968e-05
1.96809e-05
1.96818e-05
1.96828e-05
1.96839e-05
1.96851e-05
1.96863e-05
1.96877e-05
1.96891e-05
1.96906e-05
1.96921e-05
1.96937e-05
1.96953e-05
1.96969e-05
1.96986e-05
1.97003e-05
1.9702e-05
1.97038e-05
1.97056e-05
1.97074e-05
1.97092e-05
1.9711e-05
1.97128e-05
1.97146e-05
1.97163e-05
1.97181e-05
1.97198e-05
1.97215e-05
1.97232e-05
1.97248e-05
1.97264e-05
1.97279e-05
1.97293e-05
1.97305e-05
1.97317e-05
1.97328e-05
1.97338e-05
1.97346e-05
1.97353e-05
1.97359e-05
1.97363e-05
1.97366e-05
1.97367e-05
1.97367e-05
1.97367e-05
1.97365e-05
1.97362e-05
1.97357e-05
1.9735e-05
1.97342e-05
1.9733e-05
1.97311e-05
1.97291e-05
1.97267e-05
1.97231e-05
1.97189e-05
1.97151e-05
1.97099e-05
1.97031e-05
1.96972e-05
1.96906e-05
1.96816e-05
1.96723e-05
1.96642e-05
1.96536e-05
1.96407e-05
1.96297e-05
1.96178e-05
1.96024e-05
1.95873e-05
1.95739e-05
1.95572e-05
1.95387e-05
1.95222e-05
1.95057e-05
1.94851e-05
1.94655e-05
1.94479e-05
1.94279e-05
1.94051e-05
1.93848e-05
1.93657e-05
1.93427e-05
1.93182e-05
1.92957e-05
1.92733e-05
1.92487e-05
1.92231e-05
1.91983e-05
1.91713e-05
1.9144e-05
1.91173e-05
1.90904e-05
1.90635e-05
1.90345e-05
1.90054e-05
1.89768e-05
1.89481e-05
1.89192e-05
1.889e-05
1.8861e-05
1.88322e-05
1.88037e-05
1.87752e-05
1.87465e-05
1.87178e-05
1.86893e-05
1.86609e-05
1.86328e-05
1.9782e-05
1.97817e-05
1.97817e-05
1.97818e-05
1.9782e-05
1.97824e-05
1.97829e-05
1.97836e-05
1.97844e-05
1.97854e-05
1.97864e-05
1.97876e-05
1.97889e-05
1.97903e-05
1.97919e-05
1.97936e-05
1.97954e-05
1.97973e-05
1.97992e-05
1.98013e-05
1.98035e-05
1.98058e-05
1.98081e-05
1.98106e-05
1.98132e-05
1.98158e-05
1.98184e-05
1.98212e-05
1.98239e-05
1.98268e-05
1.98297e-05
1.98326e-05
1.98355e-05
1.98385e-05
1.98415e-05
1.98445e-05
1.98475e-05
1.98505e-05
1.98535e-05
1.98564e-05
1.98594e-05
1.98622e-05
1.98651e-05
1.98678e-05
1.98705e-05
1.9873e-05
1.98754e-05
1.98777e-05
1.98798e-05
1.98818e-05
1.98835e-05
1.9885e-05
1.98864e-05
1.98874e-05
1.98883e-05
1.98888e-05
1.98891e-05
1.98891e-05
1.98889e-05
1.98885e-05
1.98878e-05
1.98867e-05
1.98854e-05
1.98838e-05
1.98818e-05
1.98792e-05
1.98763e-05
1.98728e-05
1.98684e-05
1.98634e-05
1.98584e-05
1.9852e-05
1.98442e-05
1.9837e-05
1.98291e-05
1.9819e-05
1.98082e-05
1.97987e-05
1.9787e-05
1.97729e-05
1.97601e-05
1.97473e-05
1.97311e-05
1.97142e-05
1.96993e-05
1.96822e-05
1.96622e-05
1.96437e-05
1.96264e-05
1.96052e-05
1.95835e-05
1.95639e-05
1.95442e-05
1.95199e-05
1.94979e-05
1.94772e-05
1.94557e-05
1.9429e-05
1.94051e-05
1.93823e-05
1.93589e-05
1.93321e-05
1.93056e-05
1.92796e-05
1.92533e-05
1.92267e-05
1.91998e-05
1.91727e-05
1.9145e-05
1.91167e-05
1.90885e-05
1.90602e-05
1.90317e-05
1.9003e-05
1.89744e-05
1.89458e-05
1.89174e-05
1.8889e-05
1.88606e-05
1.88321e-05
1.88035e-05
1.87752e-05
1.87469e-05
1.87188e-05
1.86907e-05
1.98852e-05
1.98857e-05
1.98864e-05
1.98872e-05
1.98881e-05
1.98893e-05
1.98906e-05
1.9892e-05
1.98936e-05
1.98953e-05
1.98972e-05
1.98992e-05
1.99013e-05
1.99036e-05
1.9906e-05
1.99086e-05
1.99113e-05
1.99141e-05
1.9917e-05
1.99201e-05
1.99233e-05
1.99266e-05
1.99299e-05
1.99335e-05
1.99371e-05
1.99408e-05
1.99445e-05
1.99484e-05
1.99523e-05
1.99563e-05
1.99604e-05
1.99645e-05
1.99686e-05
1.99728e-05
1.9977e-05
1.99812e-05
1.99854e-05
1.99895e-05
1.99936e-05
1.99977e-05
2.00017e-05
2.00057e-05
2.00095e-05
2.00133e-05
2.00169e-05
2.00203e-05
2.00236e-05
2.00266e-05
2.00294e-05
2.00319e-05
2.00342e-05
2.00362e-05
2.00378e-05
2.00391e-05
2.004e-05
2.00405e-05
2.00405e-05
2.00403e-05
2.00396e-05
2.00385e-05
2.0037e-05
2.00351e-05
2.00327e-05
2.00299e-05
2.00266e-05
2.00227e-05
2.00184e-05
2.00135e-05
2.00076e-05
2.00012e-05
1.99944e-05
1.99865e-05
1.99772e-05
1.99682e-05
1.99585e-05
1.99468e-05
1.99342e-05
1.99229e-05
1.99096e-05
1.98939e-05
1.9879e-05
1.98647e-05
1.98473e-05
1.98285e-05
1.98116e-05
1.97937e-05
1.97724e-05
1.97518e-05
1.9733e-05
1.97113e-05
1.96876e-05
1.96661e-05
1.96457e-05
1.96207e-05
1.95966e-05
1.95744e-05
1.95532e-05
1.95254e-05
1.94999e-05
1.94763e-05
1.94533e-05
1.94257e-05
1.93975e-05
1.93714e-05
1.93456e-05
1.93193e-05
1.92926e-05
1.92655e-05
1.92382e-05
1.92105e-05
1.91827e-05
1.91548e-05
1.91268e-05
1.90986e-05
1.90703e-05
1.90421e-05
1.90139e-05
1.89857e-05
1.89574e-05
1.89291e-05
1.89008e-05
1.88725e-05
1.88443e-05
1.8816e-05
1.87877e-05
1.99899e-05
1.99911e-05
1.99925e-05
1.99941e-05
1.99958e-05
1.99977e-05
1.99998e-05
2.0002e-05
2.00044e-05
2.0007e-05
2.00097e-05
2.00126e-05
2.00156e-05
2.00187e-05
2.00221e-05
2.00256e-05
2.00292e-05
2.0033e-05
2.00369e-05
2.0041e-05
2.00452e-05
2.00495e-05
2.0054e-05
2.00586e-05
2.00633e-05
2.00681e-05
2.0073e-05
2.0078e-05
2.0083e-05
2.00882e-05
2.00934e-05
2.00986e-05
2.01039e-05
2.01092e-05
2.01145e-05
2.01198e-05
2.01251e-05
2.01303e-05
2.01355e-05
2.01406e-05
2.01455e-05
2.01504e-05
2.01551e-05
2.01596e-05
2.01639e-05
2.01679e-05
2.01717e-05
2.01752e-05
2.01784e-05
2.01812e-05
2.01837e-05
2.01857e-05
2.01873e-05
2.01883e-05
2.01889e-05
2.01889e-05
2.01885e-05
2.01875e-05
2.0186e-05
2.01839e-05
2.01812e-05
2.01779e-05
2.0174e-05
2.01696e-05
2.01646e-05
2.01589e-05
2.01527e-05
2.01457e-05
2.01379e-05
2.01295e-05
2.01206e-05
2.01105e-05
2.00994e-05
2.00881e-05
2.00761e-05
2.00624e-05
2.00478e-05