/*--------------------------------*- C++ -*----------------------------------*\
| =========                 |                                                 |
| \\      /  F ield         | OpenFOAM: The Open Source CFD Toolbox           |
|  \\    /   O peration     | Version:  v1706                                 |
|   \\  /    A nd           | Web:      www.OpenFOAM.com                      |
|    \\/     M anipulation  |                                                 |
\*---------------------------------------------------------------------------*/
FoamFile
{
    version     2.0;
    format      ascii;
    class       volScalarField;
    location    "3.7e-05";
    object      p;
}
// * * * * * * * * * * * * * * * * * * * * * * * * * * * * * * * * * * * * * //

dimensions      [1 -1 -2 0 0 0 0];


internalField   nonuniform List<scalar> 
29871
(
22.1991
22.2416
22.29
22.3444
22.4044
22.4698
22.5406
22.6177
22.7028
22.7998
22.913
23.0462
23.202
23.3813
23.5838
23.8082
24.0525
24.3207
24.6163
24.9377
25.2784
25.6319
25.9943
26.368
26.7587
27.1705
27.6039
28.0564
28.5239
29.0055
29.4994
30.1243
30.9796
32.0496
33.2874
34.6444
36.0788
37.5559
39.0465
40.5262
41.975
43.3775
44.7213
45.9955
47.1897
48.2937
49.2982
50.1939
50.9755
51.6418
52.1949
52.6382
52.9802
53.2324
53.3946
53.4927
53.5265
53.5323
53.4818
53.3846
53.2812
53.1606
53.0141
52.8425
52.6495
52.4414
52.2105
51.9571
51.6953
51.4197
51.117
50.7973
50.4739
50.1379
49.7835
49.4182
49.0421
48.6522
48.2523
47.8447
47.4282
47.0044
46.5764
46.1461
45.7147
45.2834
44.8526
44.4217
43.9899
43.5559
43.1188
42.6774
42.2307
41.7778
41.3185
40.8534
40.384
39.9121
39.4396
38.9677
38.4974
38.0296
37.5646
37.1026
36.6435
23.6008
23.8371
24.1105
24.4258
24.7865
25.1947
25.6517
26.1632
26.7383
27.3833
28.0989
28.8843
29.7408
30.6727
31.687
32.7895
33.9934
35.3017
36.8603
38.8288
41.2518
44.124
47.4127
51.0688
55.0362
59.2572
63.6765
68.2399
72.8971
77.6011
82.3248
86.8881
91.1214
95.0105
98.5818
101.861
104.859
107.589
110.064
112.333
114.454
116.478
118.435
120.336
122.179
123.953
125.645
127.225
128.675
129.984
131.135
132.109
132.898
133.499
133.922
134.169
134.264
134.266
134.057
133.803
133.497
133.12
132.697
132.239
131.753
131.26
130.74
130.187
129.621
129.038
128.411
127.797
127.175
126.52
125.845
125.165
124.44
123.687
122.931
122.151
121.343
120.523
119.697
118.86
118.013
117.163
116.315
115.466
114.614
113.76
112.903
112.04
111.172
110.299
109.424
108.548
107.67
106.791
105.908
105.023
104.133
103.239
102.342
101.441
100.537
27.2587
28.0198
28.8767
29.8313
30.8867
32.0498
33.3293
34.7418
36.2992
38.0997
40.3409
43.1067
46.4266
50.2918
54.6694
59.5118
64.7629
70.3622
76.2544
82.2373
88.091
93.7299
99.1226
104.258
109.126
113.716
118.007
121.975
125.584
128.805
131.633
134.135
136.372
138.38
140.181
141.806
143.281
144.595
145.721
146.595
147.226
147.683
148.028
148.305
148.545
148.772
149.007
149.264
149.55
149.866
150.21
150.571
150.936
151.286
151.604
151.874
152.079
152.22
152.288
152.274
152.186
152.022
151.804
151.552
151.227
150.856
150.421
150.056
149.672
149.085
148.606
148.294
147.834
147.212
146.739
146.331
145.8
145.247
144.789
144.3
143.771
143.264
142.769
142.258
141.74
141.226
140.71
140.185
139.649
139.106
138.556
137.997
137.428
136.849
136.259
135.66
135.053
134.442
133.83
133.218
132.609
132.002
131.394
130.783
130.165
129.54
38.3791
40.6916
43.5449
46.9964
51.0614
55.723
60.9408
66.6608
72.8211
79.2693
85.7386
92.0851
98.2181
104.075
109.61
114.788
119.587
123.992
128.004
131.599
134.744
137.425
139.664
141.542
143.17
144.644
146.031
147.355
148.604
149.697
150.56
151.195
151.661
152.01
152.277
152.494
152.705
152.96
153.304
153.742
154.198
154.591
154.886
155.087
155.214
155.295
155.351
155.401
155.46
155.542
155.655
155.802
155.984
156.194
156.42
156.645
156.853
157.025
157.145
157.2
157.174
157.072
156.889
156.634
156.314
155.901
155.402
154.963
154.502
153.802
153.198
152.78
152.211
151.451
150.839
150.302
149.641
148.945
148.347
147.722
147.057
146.423
145.802
145.164
144.522
143.891
143.257
142.614
141.963
141.311
140.657
140
139.343
138.686
138.032
137.378
136.727
136.081
135.439
134.805
134.183
133.574
132.979
132.396
131.827
131.27
70.3215
76.9485
83.7177
90.4545
97.0326
103.359
109.365
115
120.23
125.042
129.416
133.319
136.733
139.662
142.124
144.158
145.852
147.297
148.563
149.696
150.715
151.613
152.342
152.875
153.197
153.365
153.435
153.463
153.507
153.639
153.91
154.327
154.791
155.197
155.488
155.658
155.728
155.726
155.692
155.673
155.774
155.984
156.227
156.438
156.58
156.646
156.645
156.598
156.521
156.434
156.354
156.295
156.263
156.263
156.299
156.364
156.445
156.537
156.624
156.689
156.72
156.703
156.627
156.491
156.289
156.027
155.694
155.264
154.827
154.396
153.791
153.198
152.821
152.268
151.462
150.819
150.347
149.725
148.992
148.35
147.677
147.028
146.457
145.85
145.178
144.563
143.984
143.387
142.753
142.116
141.495
140.877
140.249
139.616
138.984
138.36
137.741
137.126
136.514
135.909
135.309
134.711
134.118
133.531
132.952
132.384
131.826
122.867
127.82
132.273
136.199
139.596
142.483
144.885
146.862
148.509
149.918
151.149
152.228
153.171
153.975
154.613
155.046
155.307
155.427
155.465
155.47
155.451
155.435
155.477
155.595
155.73
155.813
155.798
155.687
155.543
155.406
155.333
155.409
155.619
155.875
156.1
156.25
156.311
156.289
156.208
156.1
155.975
155.897
155.893
155.951
156.03
156.089
156.107
156.087
156.032
155.941
155.833
155.728
155.628
155.536
155.472
155.439
155.423
155.426
155.45
155.474
155.485
155.479
155.437
155.351
155.217
155.024
154.77
154.447
154.059
153.649
153.147
152.568
152.141
151.699
150.918
150.219
149.736
149.275
148.499
147.668
146.962
146.37
145.865
145.209
144.448
143.836
143.316
142.714
142.002
141.359
140.773
140.169
139.527
138.873
138.241
137.626
137.012
136.395
135.786
135.187
134.596
134.009
133.427
132.85
132.28
131.716
131.163
144.012
146.542
148.623
150.359
151.84
153.116
154.214
155.155
155.936
156.526
156.909
157.118
157.213
157.239
157.219
157.183
157.161
157.182
157.262
157.354
157.377
157.307
157.198
157.036
156.83
156.637
156.556
156.528
156.513
156.455
156.348
156.181
155.981
155.784
155.62
155.554
155.574
155.664
155.771
155.857
155.896
155.878
155.809
155.692
155.562
155.448
155.383
155.374
155.387
155.391
155.38
155.353
155.286
155.175
155.053
154.926
154.774
154.624
154.513
154.412
154.313
154.251
154.21
154.16
154.117
154.066
153.985
153.88
153.734
153.53
153.281
152.976
152.61
152.192
151.671
151.188
150.814
150.182
149.459
148.911
148.547
147.898
146.959
146.182
145.611
145.193
144.505
143.663
143.014
142.535
141.953
141.178
140.507
139.969
139.39
138.687
138.019
137.437
136.842
136.211
135.592
135.002
134.423
133.839
133.261
132.698
132.143
131.592
131.046
130.508
157.553
158.166
158.561
158.768
158.885
158.909
158.887
158.858
158.844
158.883
158.964
159.018
158.99
158.905
158.76
158.57
158.366
158.163
158.067
158.022
157.965
157.878
157.739
157.552
157.329
157.09
156.869
156.673
156.534
156.417
156.308
156.161
155.981
155.796
155.6
155.43
155.324
155.283
155.286
155.323
155.368
155.39
155.364
155.293
155.192
155.057
154.923
154.834
154.781
154.722
154.662
154.617
154.566
154.454
154.314
154.19
154.026
153.817
153.65
153.512
153.327
153.171
153.071
152.952
152.837
152.748
152.635
152.511
152.385
152.203
151.981
151.742
151.442
151.088
150.642
150.174
149.821
149.33
148.634
148.055
147.695
147.234
146.306
145.467
144.885
144.516
143.844
142.942
142.255
141.785
141.265
140.455
139.729
139.199
138.653
137.908
137.237
136.697
136.098
135.409
134.823
134.293
133.719
133.113
132.555
132.023
131.495
130.96
130.427
129.905
160.473
160.515
160.598
160.642
160.618
160.524
160.369
160.172
159.96
159.781
159.676
159.608
159.524
159.397
159.226
159.017
158.784
158.538
158.305
158.117
157.961
157.838
157.709
157.554
157.37
157.165
156.942
156.724
156.533
156.363
156.227
156.086
155.925
155.761
155.581
155.388
155.211
155.074
154.98
154.928
154.902
154.898
154.867
154.806
154.752
154.646
154.472
154.348
154.265
154.149
154.013
153.906
153.839
153.731
153.544
153.4
153.282
153.037
152.813
152.671
152.443
152.196
152.041
151.871
151.665
151.521
151.368
151.179
151.037
150.863
150.625
150.402
150.172
149.875
149.475
149.06
148.751
148.354
147.701
147.136
146.786
146.451
145.582
144.746
144.169
143.828
143.205
142.273
141.559
141.092
140.636
139.812
139.038
138.497
137.993
137.241
136.556
136.035
135.413
134.718
134.145
133.668
133.095
132.454
131.907
131.443
130.952
130.419
129.893
129.387
161.59
161.399
161.277
161.185
161.077
160.93
160.742
160.518
160.273
160.019
159.784
159.593
159.441
159.301
159.152
158.983
158.793
158.585
158.364
158.152
157.964
157.806
157.667
157.527
157.375
157.203
157.011
156.805
156.597
156.4
156.221
156.052
155.882
155.715
155.539
155.346
155.147
154.957
154.794
154.658
154.551
154.484
154.406
154.313
154.267
154.195
153.995
153.847
153.781
153.633
153.41
153.236
153.149
153.03
152.773
152.596
152.527
152.264
151.971
151.846
151.623
151.27
151.077
150.907
150.589
150.377
150.202
149.934
149.739
149.57
149.288
149.034
148.855
148.606
148.208
147.841
147.604
147.267
146.652
146.13
145.822
145.548
144.733
143.963
143.43
143.129
142.534
141.602
140.894
140.443
140.03
139.196
138.407
137.861
137.399
136.655
135.959
135.441
134.808
134.123
133.558
133.122
132.562
131.906
131.349
130.895
130.493
129.981
129.437
128.94
161.789
161.515
161.261
161.053
160.883
160.727
160.565
160.388
160.193
159.981
159.762
159.557
159.379
159.225
159.084
158.94
158.786
158.616
158.429
158.234
158.04
157.859
157.694
157.541
157.389
157.23
157.057
156.868
156.667
156.462
156.259
156.062
155.87
155.683
155.493
155.295
155.086
154.873
154.67
154.477
154.293
154.16
154.029
153.879
153.792
153.709
153.505
153.344
153.273
153.102
152.841
152.622
152.484
152.35
152.061
151.827
151.74
151.493
151.156
151.004
150.814
150.405
150.144
149.997
149.617
149.301
149.129
148.805
148.516
148.341
148.011
147.704
147.561
147.324
146.89
146.555
146.396
146.081
145.495
145.035
144.797
144.52
143.755
143.092
142.636
142.395
141.77
140.876
140.221
139.816
139.404
138.554
137.801
137.288
136.856
136.108
135.408
134.888
134.273
133.603
133.048
132.643
132.097
131.436
130.873
130.415
130.059
129.641
129.08
128.561
161.791
161.584
161.36
161.131
160.917
160.73
160.566
160.416
160.268
160.112
159.943
159.762
159.576
159.397
159.232
159.08
158.937
158.794
158.644
158.483
158.31
158.128
157.946
157.768
157.597
157.433
157.269
157.099
156.918
156.725
156.521
156.309
156.095
155.881
155.67
155.459
155.244
155.022
154.794
154.565
154.335
154.102
153.909
153.726
153.516
153.366
153.244
153.031
152.846
152.746
152.54
152.281
152.052
151.851
151.68
151.402
151.105
150.954
150.729
150.371
150.162
149.982
149.575
149.257
149.092
148.713
148.313
148.117
147.785
147.391
147.181
146.844
146.465
146.305
146.051
145.582
145.27
145.173
144.824
144.26
143.871
143.717
143.372
142.672
142.127
141.77
141.569
140.877
140.068
139.507
139.19
138.7
137.86
137.194
136.762
136.318
135.545
134.868
134.369
133.786
133.128
132.58
132.194
131.669
131.017
130.456
129.997
129.648
129.341
128.799
128.251
161.562
161.394
161.217
161.031
160.842
160.661
160.494
160.342
160.2
160.06
159.916
159.764
159.604
159.44
159.279
159.123
158.975
158.831
158.687
158.538
158.38
158.212
158.036
157.857
157.677
157.5
157.324
157.147
156.964
156.771
156.567
156.353
156.13
155.902
155.671
155.438
155.202
154.962
154.716
154.466
154.208
153.947
153.705
153.471
153.214
153.005
152.829
152.588
152.37
152.226
151.982
151.723
151.508
151.241
151.022
150.765
150.424
150.198
149.979
149.612
149.337
149.145
148.762
148.397
148.201
147.841
147.391
147.151
146.834
146.365
146.093
145.784
145.335
145.091
144.834
144.352
144.036
143.951
143.539
142.998
142.68
142.586
142.144
141.516
141.082
140.847
140.603
139.846
139.181
138.74
138.504
137.887
137.119
136.566
136.242
135.704
134.933
134.316
133.874
133.317
132.66
132.119
131.736
131.258
130.63
130.072
129.616
129.27
129.024
128.529
127.973
127.511
127.117
161.405
161.254
161.103
160.949
160.789
160.629
160.472
160.323
160.182
160.047
159.914
159.778
159.637
159.49
159.34
159.189
159.04
158.893
158.748
158.6
158.448
158.288
158.12
157.944
157.762
157.578
157.392
157.203
157.011
156.813
156.605
156.386
156.158
155.92
155.675
155.424
155.168
154.908
154.643
154.372
154.092
153.808
153.53
153.25
152.959
152.701
152.463
152.182
151.933
151.735
151.452
151.185
150.961
150.655
150.388
150.134
149.776
149.484
149.249
148.881
148.543
148.325
147.961
147.556
147.326
146.983
146.507
146.224
145.918
145.415
145.074
144.793
144.306
143.952
143.705
143.235
142.861
142.721
142.293
141.776
141.509
141.415
140.888
140.327
139.987
139.868
139.456
138.755
138.241
137.929
137.683
136.977
136.325
135.896
135.637
134.992
134.267
133.735
133.382
132.821
132.156
131.631
131.264
130.838
130.241
129.697
129.25
128.89
128.607
128.212
127.711
127.263
126.877
161.62
161.461
161.31
161.168
161.03
160.894
160.755
160.614
160.473
160.333
160.197
160.065
159.936
159.808
159.677
159.543
159.403
159.26
159.114
158.968
158.821
158.672
158.52
158.362
158.197
158.024
157.843
157.655
157.462
157.264
157.062
156.854
156.638
156.413
156.177
155.931
155.675
155.41
155.138
154.859
154.574
154.282
153.983
153.677
153.37
153.056
152.738
152.437
152.141
151.823
151.542
151.28
150.961
150.68
150.423
150.087
149.787
149.517
149.147
148.81
148.548
148.175
147.787
147.536
147.179
146.738
146.472
146.139
145.65
145.325
145.025
144.518
144.115
143.838
143.359
142.903
142.644
142.218
141.75
141.522
141.147
140.632
140.358
140.215
139.665
139.153
138.888
138.793
138.251
137.644
137.25
137.068
136.683
136.004
135.485
135.177
134.895
134.183
133.545
133.115
132.845
132.252
131.588
131.096
130.769
130.384
129.814
129.295
128.866
128.495
128.166
127.815
127.401
126.995
126.626
161.54
161.395
161.255
161.121
160.992
160.866
160.741
160.614
160.486
160.358
160.23
160.103
159.978
159.853
159.728
159.6
159.468
159.332
159.191
159.046
158.899
158.749
158.595
158.436
158.271
158.098
157.917
157.727
157.529
157.324
157.113
156.895
156.669
156.434
156.19
155.935
155.669
155.393
155.106
154.811
154.508
154.197
153.879
153.553
153.221
152.881
152.538
152.2
151.858
151.51
151.188
150.867
150.518
150.209
149.905
149.543
149.221
148.92
148.534
148.171
147.878
147.49
147.069
146.784
146.42
145.951
145.647
145.315
144.818
144.452
144.151
143.657
143.2
142.913
142.465
141.937
141.634
141.265
140.727
140.385
140.093
139.588
139.208
139.016
138.539
138.036
137.795
137.656
137.075
136.54
136.233
136.109
135.598
134.997
134.589
134.392
133.996
133.311
132.776
132.435
132.208
131.596
130.964
130.508
130.196
129.853
129.337
128.849
128.44
128.074
127.728
127.384
127.024
126.665
126.324
126
162.473
162.315
162.164
162.02
161.881
161.747
161.615
161.484
161.354
161.226
161.102
160.98
160.862
160.745
160.629
160.511
160.392
160.272
160.152
160.031
159.909
159.787
159.663
159.535
159.403
159.266
159.124
158.978
158.827
158.671
158.509
158.342
158.167
157.984
157.791
157.59
157.379
157.16
156.933
156.697
156.452
156.198
155.933
155.657
155.37
155.071
154.762
154.443
154.115
153.778
153.433
153.08
152.718
152.352
151.983
151.608
151.232
150.868
150.499
150.123
149.775
149.422
149.037
148.69
148.349
147.943
147.564
147.237
146.827
146.387
146.071
145.689
145.199
144.859
144.519
144.016
143.606
143.299
142.826
142.321
142.013
141.6
141.038
140.671
140.342
139.799
139.344
139.077
138.631
138.125
137.849
137.511
137.001
136.666
136.487
135.992
135.488
135.21
135.056
134.512
133.984
133.651
133.502
133.017
132.404
131.953
131.67
131.449
130.866
130.298
129.87
129.539
129.218
128.791
128.35
127.96
127.604
127.262
126.928
126.596
126.27
125.957
125.655
162.347
162.206
162.07
161.938
161.811
161.688
161.568
161.449
161.332
161.215
161.1
160.987
160.876
160.765
160.656
160.545
160.434
160.321
160.206
160.09
159.972
159.852
159.73
159.604
159.474
159.34
159.2
159.054
158.902
158.744
158.58
158.409
158.231
158.044
157.848
157.643
157.427
157.201
156.966
156.721
156.467
156.202
155.927
155.64
155.342
155.032
154.71
154.377
154.034
153.681
153.318
152.946
152.565
152.177
151.783
151.382
150.98
150.579
150.173
149.769
149.379
148.981
148.574
148.193
147.81
147.384
146.99
146.625
146.191
145.742
145.393
144.988
144.482
144.11
143.754
143.249
142.794
142.476
142.022
141.479
141.138
140.756
140.189
139.754
139.441
138.937
138.398
138.091
137.719
137.156
136.757
136.511
136.056
135.573
135.302
134.997
134.52
134.152
133.919
133.488
133.018
132.698
132.51
132.025
131.495
131.088
130.81
130.568
130.091
129.596
129.189
128.843
128.518
128.157
127.775
127.414
127.075
126.748
126.429
126.119
125.818
125.528
125.248
162.252
162.126
162.003
161.883
161.766
161.653
161.542
161.433
161.326
161.219
161.112
161.007
160.901
160.797
160.692
160.588
160.481
160.374
160.263
160.151
160.036
159.918
159.797
159.673
159.544
159.41
159.271
159.125
158.972
158.813
158.646
158.472
158.29
158.099
157.899
157.688
157.467
157.236
156.993
156.74
156.477
156.202
155.916
155.619
155.31
154.988
154.655
154.309
153.952
153.584
153.205
152.816
152.418
152.011
151.596
151.173
150.746
150.316
149.881
149.448
149.02
148.586
148.152
147.735
147.311
146.867
146.449
146.045
145.588
145.132
144.75
144.319
143.802
143.402
143.026
142.516
142.023
141.685
141.245
140.678
140.294
139.932
139.383
138.881
138.564
138.11
137.527
137.149
136.829
136.283
135.783
135.516
135.155
134.597
134.203
133.99
133.621
133.134
132.787
132.49
132.107
131.736
131.438
131.05
130.611
130.221
129.906
129.628
129.26
128.844
128.463
128.118
127.791
127.462
127.127
126.8
126.485
126.18
125.882
125.592
125.313
125.044
124.786
162.183
162.069
161.957
161.848
161.741
161.636
161.534
161.433
161.333
161.233
161.134
161.035
160.935
160.836
160.736
160.635
160.533
160.429
160.322
160.213
160.1
159.984
159.864
159.741
159.612
159.478
159.338
159.191
159.038
158.876
158.707
158.529
158.343
158.148
157.943
157.727
157.501
157.263
157.014
156.753
156.481
156.197
155.901
155.594
155.274
154.941
154.597
154.239
153.87
153.488
153.095
152.691
152.276
151.852
151.419
150.977
150.529
150.075
149.616
149.156
148.695
148.231
147.77
147.316
146.857
146.391
145.946
145.503
145.026
144.559
144.142
143.684
143.161
142.735
142.334
141.817
141.296
140.934
140.498
139.918
139.487
139.133
138.613
138.057
137.712
137.303
136.715
136.262
135.959
135.466
134.902
134.565
134.271
133.722
133.235
132.988
132.739
132.208
131.759
131.479
131.216
130.819
130.425
130.072
129.709
129.348
129.015
128.709
128.387
128.037
127.692
127.363
127.046
126.737
126.433
126.136
125.846
125.565
125.289
125.023
124.765
124.515
124.276
124.046
123.824
162.136
162.032
161.93
161.829
161.731
161.634
161.538
161.443
161.35
161.256
161.163
161.069
160.974
160.879
160.783
160.686
160.586
160.485
160.381
160.274
160.163
160.048
159.929
159.805
159.676
159.542
159.401
159.253
159.097
158.934
158.762
158.581
158.39
158.19
157.98
157.76
157.527
157.284
157.028
156.76
156.48
156.187
155.882
155.565
155.235
154.892
154.536
154.167
153.786
153.392
152.986
152.568
152.139
151.7
151.25
150.792
150.325
149.851
149.371
148.887
148.4
147.91
147.422
146.936
146.447
145.958
145.481
145.004
144.507
144.024
143.572
143.088
142.56
142.11
141.681
141.155
140.615
140.226
139.785
139.202
138.725
138.367
137.871
137.281
136.894
136.518
135.949
135.431
135.115
134.679
134.09
133.678
133.408
132.91
132.365
132.051
131.854
131.356
130.835
130.519
130.328
129.96
129.497
129.126
128.798
128.472
128.145
127.831
127.522
127.209
126.895
126.588
126.289
125.999
125.717
125.443
125.177
124.918
124.666
124.42
124.183
123.955
123.736
123.525
123.322
162.106
162.01
161.916
161.823
161.732
161.641
161.551
161.462
161.374
161.285
161.196
161.107
161.016
160.925
160.832
160.737
160.64
160.541
160.439
160.333
160.223
160.109
159.991
159.867
159.737
159.601
159.459
159.309
159.151
158.985
158.81
158.626
158.431
158.227
158.012
157.786
157.548
157.298
157.036
156.761
156.474
156.173
155.859
155.533
155.193
154.84
154.474
154.095
153.702
153.297
152.879
152.449
152.006
151.553
151.089
150.615
150.132
149.641
149.143
148.639
148.13
147.618
147.105
146.592
146.077
145.564
145.058
144.55
144.033
143.53
143.044
142.535
142.002
141.527
141.067
140.531
139.98
139.562
139.11
138.527
138.012
137.64
137.159
136.553
136.12
135.758
135.219
134.654
134.302
133.914
133.331
132.856
132.576
132.138
131.565
131.188
130.992
130.553
129.998
129.635
129.448
129.138
128.646
128.244
127.919
127.611
127.3
126.991
126.689
126.392
126.1
125.812
125.533
125.261
124.998
124.743
124.495
124.255
124.024
123.8
123.584
123.376
123.176
122.983
122.798
162.18
162.09
162.001
161.913
161.827
161.741
161.656
161.571
161.487
161.403
161.318
161.233
161.147
161.06
160.971
160.881
160.788
160.693
160.596
160.494
160.39
160.28
160.167
160.048
159.923
159.793
159.655
159.511
159.359
159.199
159.03
158.852
158.664
158.466
158.257
158.038
157.806
157.563
157.307
157.039
156.757
156.462
156.154
155.833
155.498
155.149
154.787
154.411
154.021
153.619
153.203
152.773
152.332
151.878
151.412
150.935
150.448
149.95
149.444
148.93
148.409
147.882
147.351
146.817
146.281
145.743
145.206
144.673
144.139
143.602
143.076
142.56
142.028
141.486
140.986
140.497
139.949
139.392
138.944
138.475
137.892
137.35
136.957
136.482
135.872
135.396
135.033
134.52
133.927
133.533
133.173
132.614
132.09
131.778
131.395
130.822
130.388
130.164
129.791
129.229
128.822
128.603
128.336
127.849
127.43
127.096
126.792
126.49
126.189
125.893
125.607
125.326
125.054
124.79
124.536
124.289
124.048
123.815
123.593
123.38
123.176
122.978
122.788
122.606
122.431
122.262
162.168
162.083
162
161.918
161.837
161.756
161.676
161.596
161.515
161.435
161.353
161.271
161.188
161.104
161.017
160.929
160.838
160.744
160.648
160.547
160.443
160.334
160.22
160.101
159.975
159.843
159.705
159.559
159.404
159.242
159.07
158.889
158.697
158.495
158.282
158.057
157.821
157.572
157.311
157.036
156.749
156.447
156.132
155.803
155.46
155.103
154.732
154.347
153.948
153.536
153.11
152.67
152.219
151.753
151.276
150.788
150.288
149.778
149.259
148.731
148.195
147.652
147.104
146.552
145.997
145.44
144.882
144.326
143.77
143.213
142.664
142.12
141.568
141.015
140.49
139.971
139.412
138.851
138.373
137.882
137.299
136.74
136.322
135.843
135.234
134.724
134.348
133.853
133.246
132.812
132.461
131.931
131.375
131.022
130.677
130.124
129.644
129.374
129.061
128.517
128.068
127.801
127.548
127.098
126.676
126.332
126.023
125.723
125.427
125.137
124.857
124.586
124.323
124.072
123.832
123.598
123.369
123.149
122.942
122.745
122.556
122.375
122.201
122.035
121.875
121.723
121.577
121.438
162.163
162.084
162.006
161.929
161.852
161.776
161.699
161.622
161.545
161.468
161.389
161.31
161.229
161.146
161.062
160.975
160.885
160.793
160.697
160.597
160.492
160.383
160.269
160.149
160.022
159.889
159.749
159.601
159.444
159.279
159.104
158.919
158.724
158.519
158.301
158.072
157.831
157.577
157.31
157.03
156.736
156.428
156.106
155.77
155.42
155.055
154.676
154.283
153.876
153.454
153.019
152.57
152.108
151.634
151.147
150.647
150.137
149.616
149.085
148.544
147.996
147.44
146.878
146.31
145.739
145.165
144.589
144.014
143.437
142.862
142.292
141.725
141.154
140.586
140.037
139.492
138.921
138.356
137.848
137.334
136.748
136.182
135.735
135.245
134.64
134.105
133.711
133.222
132.613
132.144
131.786
131.281
130.705
130.316
129.987
129.465
128.951
128.633
128.352
127.849
127.369
127.045
126.78
126.383
125.973
125.621
125.304
125.002
124.707
124.421
124.146
123.88
123.624
123.382
123.154
122.929
122.71
122.502
122.307
122.123
121.948
121.781
121.62
121.467
121.322
121.183
121.052
120.927
162.165
162.091
162.017
161.944
161.87
161.797
161.724
161.65
161.576
161.501
161.425
161.347
161.268
161.187
161.104
161.019
160.93
160.838
160.742
160.642
160.538
160.428
160.313
160.192
160.064
159.93
159.788
159.637
159.478
159.31
159.133
158.945
158.747
158.537
158.316
158.082
157.836
157.578
157.306
157.02
156.72
156.407
156.079
155.736
155.379
155.007
154.621
154.22
153.805
153.375
152.931
152.474
152.003
151.519
151.023
150.514
149.994
149.463
148.921
148.37
147.811
147.243
146.669
146.088
145.503
144.915
144.324
143.732
143.139
142.546
141.957
141.37
140.782
140.199
139.628
139.06
138.478
137.905
137.371
136.832
136.243
135.674
135.198
134.691
134.091
133.544
133.126
132.636
132.031
131.537
131.164
130.671
130.086
129.665
129.333
128.838
128.303
127.945
127.666
127.203
126.713
126.348
126.057
125.7
125.31
124.955
124.632
124.326
124.03
123.744
123.471
123.209
122.958
122.722
122.501
122.285
122.075
121.877
121.691
121.518
121.353
121.197
121.048
120.907
120.773
120.647
120.527
120.414
162.171
162.101
162.031
161.96
161.89
161.82
161.749
161.678
161.606
161.533
161.459
161.383
161.306
161.226
161.144
161.059
160.971
160.879
160.784
160.684
160.579
160.469
160.353
160.231
160.102
159.965
159.821
159.669
159.508
159.337
159.157
158.966
158.764
158.551
158.326
158.089
157.838
157.575
157.298
157.007
156.702
156.383
156.049
155.701
155.337
154.959
154.566
154.158
153.735
153.298
152.847
152.382
151.903
151.411
150.906
150.389
149.86
149.32
148.769
148.209
147.639
147.062
146.477
145.885
145.288
144.688
144.084
143.478
142.871
142.264
141.658
141.054
140.451
139.853
139.263
138.675
138.082
137.5
136.944
136.383
135.792
135.223
134.714
134.183
133.586
133.034
132.584
132.08
131.482
130.974
130.578
130.088
129.503
129.059
128.711
128.234
127.691
127.304
127.008
126.572
126.087
125.699
125.382
125.04
124.669
124.316
123.99
123.681
123.384
123.098
122.828
122.57
122.323
122.09
121.874
121.666
121.464
121.272
121.094
120.929
120.773
120.626
120.486
120.355
120.231
120.114
120.005
119.902
119.806
162.113
162.046
161.978
161.911
161.843
161.775
161.705
161.635
161.564
161.491
161.417
161.341
161.262
161.18
161.096
161.008
160.917
160.821
160.721
160.616
160.505
160.388
160.265
160.134
159.996
159.851
159.696
159.533
159.36
159.177
158.983
158.778
158.561
158.333
158.091
157.837
157.57
157.288
156.993
156.683
156.359
156.02
155.665
155.296
154.912
154.512
154.098
153.669
153.225
152.767
152.295
151.809
151.309
150.797
150.272
149.735
149.187
148.628
148.059
147.481
146.895
146.301
145.7
145.093
144.481
143.867
143.251
142.632
142.012
141.393
140.775
140.159
139.548
138.945
138.341
137.736
137.14
136.56
135.978
135.382
134.806
134.267
133.713
133.119
132.565
132.08
131.557
130.968
130.456
130.03
129.532
128.958
128.503
128.131
127.658
127.122
126.716
126.392
125.966
125.497
125.097
124.758
124.415
124.054
123.703
123.375
123.063
122.765
122.48
122.21
121.955
121.712
121.482
121.269
121.068
120.874
120.688
120.515
120.356
120.207
120.067
119.935
119.811
119.695
119.587
119.486
119.392
119.305
162.126
162.061
161.996
161.931
161.865
161.799
161.731
161.663
161.593
161.521
161.448
161.372
161.294
161.214
161.129
161.042
160.95
160.855
160.754
160.648
160.536
160.419
160.294
160.162
160.023
159.876
159.719
159.554
159.378
159.193
158.996
158.788
158.569
158.337
158.092
157.834
157.562
157.277
156.977
156.663
156.334
155.99
155.63
155.256
154.867
154.462
154.042
153.606
153.157
152.692
152.213
151.721
151.214
150.695
150.163
149.62
149.064
148.498
147.921
147.336
146.743
146.141
145.533
144.917
144.296
143.674
143.05
142.424
141.797
141.168
140.537
139.907
139.28
138.66
138.042
137.425
136.816
136.217
135.616
135.013
134.428
133.864
133.292
132.702
132.146
131.629
131.088
130.511
129.996
129.534
129.021
128.464
128.002
127.597
127.12
126.599
126.183
125.822
125.397
124.946
124.542
124.185
123.835
123.477
123.128
122.798
122.483
122.183
121.896
121.624
121.367
121.126
120.898
120.686
120.489
120.303
120.123
119.954
119.8
119.656
119.522
119.396
119.278
119.169
119.067
118.973
118.887
118.807
162.076
162.013
161.95
161.886
161.821
161.755
161.688
161.619
161.548
161.476
161.401
161.324
161.243
161.159
161.072
160.98
160.884
160.783
160.676
160.564
160.445
160.32
160.187
160.046
159.897
159.738
159.571
159.393
159.205
159.006
158.796
158.573
158.338
158.09
157.829
157.554
157.265
156.961
156.643
156.309
155.961
155.598
155.218
154.824
154.414
153.989
153.548
153.093
152.623
152.138
151.64
151.127
150.601
150.063
149.514
148.953
148.38
147.797
147.205
146.606
146.001
145.388
144.768
144.141
143.509
142.876
142.241
141.604
140.966
140.327
139.687
139.048
138.411
137.778
137.151
136.532
135.919
135.307
134.698
134.103
133.521
132.933
132.344
131.781
131.24
130.681
130.11
129.583
129.085
128.557
128.016
127.545
127.104
126.618
126.119
125.693
125.297
124.868
124.43
124.025
123.653
123.293
122.936
122.587
122.254
121.937
121.634
121.345
121.071
120.813
120.569
120.341
120.128
119.932
119.751
119.578
119.413
119.26
119.121
118.991
118.87
118.757
118.652
118.556
118.468
118.388
118.315
162.029
161.967
161.905
161.841
161.776
161.71
161.642
161.573
161.501
161.426
161.349
161.269
161.185
161.098
161.006
160.909
160.808
160.701
160.587
160.468
160.341
160.207
160.065
159.914
159.754
159.585
159.406
159.215
159.014
158.801
158.576
158.338
158.088
157.823
157.545
157.253
156.945
156.624
156.287
155.935
155.567
155.183
154.784
154.37
153.94
153.495
153.034
152.559
152.07
151.566
151.049
150.517
149.974
149.42
148.856
148.28
147.693
147.096
146.493
145.882
145.263
144.638
144.005
143.364
142.717
142.069
141.421
140.773
140.127
139.482
138.836
138.191
137.549
136.912
136.281
135.656
135.033
134.416
133.81
133.213
132.615
132.021
131.448
130.888
130.317
129.75
129.212
128.69
128.152
127.616
127.126
126.655
126.162
125.677
125.239
124.816
124.381
123.95
123.543
123.159
122.79
122.429
122.077
121.741
121.421
121.116
120.825
120.548
120.287
120.042
119.812
119.598
119.401
119.22
119.052
118.892
118.741
118.603
118.476
118.358
118.249
118.149
118.057
117.974
117.898
117.83
117.77
117.716
162.044
161.983
161.922
161.859
161.795
161.73
161.663
161.594
161.522
161.448
161.371
161.291
161.208
161.12
161.028
160.931
160.829
160.721
160.607
160.487
160.359
160.224
160.081
159.929
159.767
159.597
159.415
159.223
159.02
158.805
158.578
158.338
158.085
157.818
157.536
157.241
156.931
156.606
156.266
155.91
155.539
155.152
154.749
154.33
153.897