/*--------------------------------*- C++ -*----------------------------------*\
| =========                 |                                                 |
| \\      /  F ield         | OpenFOAM: The Open Source CFD Toolbox           |
|  \\    /   O peration     | Version:  v1706                                 |
|   \\  /    A nd           | Web:      www.OpenFOAM.com                      |
|    \\/     M anipulation  |                                                 |
\*---------------------------------------------------------------------------*/
FoamFile
{
    version     2.0;
    format      ascii;
    class       volScalarField;
    location    "3.7e-05";
    object      rho;
}
// * * * * * * * * * * * * * * * * * * * * * * * * * * * * * * * * * * * * * //

dimensions      [1 -3 0 0 0 0 0];


internalField   nonuniform List<scalar> 
29871
(
0.000513502
0.000513854
0.000514255
0.000514699
0.000515176
0.000515674
0.00051619
0.000516727
0.000517298
0.00051795
0.000518748
0.000519753
0.000521009
0.000522536
0.000524332
0.000526377
0.000528625
0.000531102
0.000533768
0.000536506
0.000539182
0.00054171
0.000544083
0.000546408
0.00054885
0.000551546
0.000554557
0.000557894
0.000561521
0.000565424
0.000569412
0.000574805
0.000582891
0.000593691
0.000606721
0.000621402
0.000637222
0.000653749
0.000670617
0.000687512
0.000704162
0.000720349
0.000735896
0.000750656
0.000764498
0.000777308
0.000788984
0.00079944
0.000808628
0.000816529
0.000823171
0.000828598
0.000832906
0.000836203
0.000838581
0.000840276
0.000841183
0.000841776
0.000841715
0.00084114
0.000840493
0.000839679
0.000838582
0.000837201
0.000835573
0.000833771
0.00083171
0.000829388
0.000826974
0.000824408
0.00082153
0.000818441
0.000815306
0.00081203
0.000808541
0.000804924
0.000801188
0.000797295
0.000793279
0.000789169
0.000784953
0.000780642
0.000776268
0.000771852
0.000767407
0.000762947
0.000758475
0.000753985
0.000749468
0.000744911
0.000740301
0.000735624
0.000730866
0.000726012
0.000721055
0.000715999
0.000710861
0.000705663
0.000700426
0.000695169
0.000689906
0.000684648
0.0006794
0.000674166
0.000668942
0.00052295
0.000524564
0.000526483
0.00052877
0.000531465
0.000534592
0.000538139
0.000542141
0.000546622
0.000551532
0.000556797
0.000562389
0.000568368
0.00057488
0.000582116
0.000590234
0.000599456
0.000609656
0.000622397
0.000639507
0.000661535
0.000688379
0.000719598
0.000754598
0.000792759
0.000833508
0.000876338
0.000920783
0.000966412
0.0010128
0.0010598
0.00110551
0.00114816
0.00118778
0.00122475
0.00125939
0.00129182
0.00132211
0.00135029
0.00137667
0.0014017
0.00142577
0.0014491
0.00147179
0.00149379
0.00151501
0.00153527
0.00155442
0.00157227
0.00158862
0.00160329
0.00161613
0.00162709
0.00163613
0.00164333
0.0016487
0.00165244
0.00165528
0.00165567
0.00165542
0.00165459
0.00165301
0.00165084
0.0016482
0.00164517
0.00164196
0.00163839
0.00163444
0.00163029
0.0016259
0.00162099
0.00161615
0.00161119
0.00160584
0.00160023
0.00159453
0.00158834
0.00158183
0.00157523
0.00156837
0.00156117
0.00155381
0.00154634
0.0015387
0.0015309
0.00152304
0.00151513
0.00150716
0.00149914
0.00149104
0.00148286
0.00147457
0.00146616
0.00145764
0.00144901
0.00144027
0.00143144
0.00142252
0.00141348
0.00140434
0.00139509
0.00138574
0.00137628
0.00136674
0.0013571
0.00054839
0.000553956
0.000560089
0.000566762
0.000574021
0.000582018
0.000590932
0.00060104
0.000612396
0.000625988
0.000644001
0.000667401
0.000696463
0.000731011
0.000770635
0.00081483
0.000863057
0.000914772
0.000969579
0.00102545
0.00108017
0.00113299
0.00118369
0.00123223
0.0012785
0.00132238
0.0013637
0.00140228
0.00143784
0.00147019
0.00149921
0.00152546
0.00154941
0.0015713
0.00159144
0.00161009
0.00162741
0.00164345
0.00165805
0.00167052
0.00168085
0.0016896
0.00169729
0.00170429
0.00171086
0.00171721
0.0017235
0.00172986
0.00173637
0.00174307
0.00174996
0.00175695
0.00176394
0.00177079
0.00177735
0.00178348
0.00178902
0.00179398
0.00179828
0.0018018
0.0018046
0.00180663
0.00180808
0.00180922
0.00180955
0.00180934
0.00180845
0.00180812
0.00180758
0.00180498
0.00180321
0.00180307
0.00180157
0.00179823
0.0017962
0.0017948
0.00179216
0.00178919
0.00178706
0.00178459
0.00178163
0.00177882
0.00177607
0.0017731
0.00176999
0.00176685
0.00176364
0.00176028
0.00175675
0.00175307
0.00174926
0.00174529
0.00174114
0.00173682
0.00173229
0.00172757
0.00172265
0.00171758
0.00171237
0.00170706
0.00170168
0.00169621
0.00169063
0.00168492
0.00167905
0.001673
0.000625216
0.000643015
0.000666245
0.000695487
0.000730819
0.000771976
0.000818495
0.000869832
0.000925463
0.000983927
0.00104256
0.00110006
0.00115569
0.00120899
0.00125959
0.00130718
0.0013516
0.0013927
0.00143055
0.00146492
0.00149547
0.00152202
0.00154463
0.00156391
0.00158078
0.00159609
0.00161048
0.00162422
0.00163727
0.00164923
0.00165908
0.00166689
0.00167323
0.00167857
0.00168322
0.00168747
0.00169168
0.00169632
0.00170184
0.00170842
0.00171546
0.00172228
0.00172848
0.00173403
0.00173905
0.00174372
0.00174818
0.00175257
0.001757
0.00176157
0.00176636
0.00177141
0.00177673
0.00178229
0.001788
0.00179375
0.00179939
0.00180477
0.00180975
0.00181422
0.00181799
0.00182111
0.00182348
0.00182519
0.00182633
0.00182642
0.00182568
0.00182543
0.00182493
0.00182207
0.00181989
0.00181947
0.00181765
0.00181377
0.00181112
0.00180913
0.0018059
0.00180222
0.00179934
0.0017961
0.00179236
0.00178878
0.00178527
0.00178149
0.00177757
0.00177367
0.00176967
0.00176549
0.00176115
0.00175671
0.00175217
0.00174752
0.00174278
0.00173798
0.00173312
0.00172819
0.00172321
0.00171817
0.00171308
0.00170796
0.00170285
0.00169778
0.00169275
0.00168775
0.00168278
0.00167785
0.000895944
0.000955201
0.00101575
0.00107598
0.00113483
0.00119156
0.0012456
0.00129654
0.00134405
0.00138804
0.00142835
0.00146459
0.00149655
0.00152424
0.00154779
0.0015675
0.00158404
0.00159822
0.00161068
0.00162187
0.00163205
0.00164121
0.00164914
0.00165531
0.00165961
0.00166252
0.00166449
0.00166597
0.00166745
0.00166955
0.00167282
0.00167747
0.00168278
0.00168783
0.00169209
0.00169544
0.00169799
0.00169994
0.00170158
0.00170326
0.00170603
0.00170998
0.00171448
0.00171895
0.00172305
0.00172667
0.00172986
0.00173277
0.0017355
0.0017382
0.001741
0.00174401
0.00174727
0.00175081
0.00175469
0.00175884
0.00176316
0.00176762
0.00177209
0.00177641
0.0017805
0.00178422
0.00178747
0.00179023
0.00179241
0.0017941
0.00179515
0.00179522
0.00179526
0.00179528
0.00179369
0.00179203
0.00179241
0.00179119
0.00178738
0.00178494
0.00178411
0.00178187
0.00177843
0.0017757
0.00177254
0.00176947
0.00176705
0.00176422
0.00176064
0.00175747
0.00175456
0.00175142
0.00174783
0.00174408
0.00174039
0.00173664
0.00173271
0.00172862
0.00172445
0.00172026
0.00171604
0.00171176
0.00170743
0.00170306
0.00169863
0.00169412
0.00168954
0.00168491
0.00168025
0.00167557
0.00167089
0.00135838
0.00140334
0.00144402
0.00148011
0.00151155
0.00153848
0.0015611
0.00157987
0.00159555
0.00160896
0.00162067
0.00163098
0.00164005
0.00164792
0.00165442
0.00165916
0.0016623
0.00166411
0.00166512
0.00166578
0.00166615
0.00166649
0.00166733
0.00166891
0.00167084
0.00167252
0.00167348
0.00167358
0.0016734
0.00167316
0.00167332
0.00167469
0.00167733
0.00168056
0.00168371
0.00168638
0.00168841
0.00168981
0.00169076
0.00169149
0.001692
0.00169286
0.00169441
0.00169662
0.0016992
0.00170178
0.00170419
0.00170641
0.00170847
0.00171033
0.00171213
0.00171405
0.00171608
0.00171823
0.00172067
0.00172345
0.00172642
0.00172961
0.00173306
0.00173657
0.00174006
0.00174348
0.00174667
0.00174956
0.00175208
0.00175416
0.00175576
0.00175678
0.00175724
0.00175748
0.0017569
0.00175552
0.0017556
0.0017555
0.00175228
0.00174954
0.001749
0.00174861
0.0017453
0.00174113
0.00173795
0.00173584
0.00173454
0.00173177
0.00172776
0.00172506
0.00172318
0.0017205
0.00171662
0.00171327
0.00171038
0.00170724
0.00170363
0.00169978
0.00169603
0.00169235
0.00168859
0.00168471
0.00168078
0.00167686
0.00167291
0.00166889
0.0016648
0.00166064
0.00165641
0.00165213
0.00164781
0.00154217
0.00156572
0.00158522
0.00160149
0.00161536
0.00162732
0.00163763
0.00164652
0.00165404
0.0016599
0.00166399
0.00166642
0.00166777
0.00166843
0.00166859
0.00166856
0.00166859
0.00166897
0.00166994
0.00167117
0.00167194
0.00167192
0.00167163
0.00167087
0.00166965
0.00166835
0.00166807
0.00166831
0.0016688
0.00166902
0.00166891
0.00166836
0.00166752
0.00166666
0.0016659
0.00166597
0.0016667
0.00166814
0.00166988
0.00167157
0.00167299
0.00167402
0.00167471
0.00167499
0.00167513
0.00167537
0.00167603
0.00167725
0.00167877
0.00168033
0.0016819
0.00168348
0.00168484
0.00168592
0.00168701
0.00168816
0.00168914
0.0016902
0.00169167
0.00169329
0.00169498
0.00169707
0.00169941
0.00170177
0.00170428
0.00170682
0.0017092
0.00171147
0.00171349
0.00171508
0.00171638
0.00171727
0.00171766
0.00171759
0.00171662
0.00171599
0.00171638
0.00171455
0.00171165
0.00171045
0.00171099
0.00170902
0.00170409
0.00170032
0.00169862
0.00169842
0.00169577
0.00169126
0.00168839
0.0016872
0.00168507
0.00168096
0.00167765
0.00167556
0.00167305
0.00166922
0.00166558
0.00166267
0.00165958
0.00165602
0.00165244
0.00164904
0.00164566
0.00164212
0.00163853
0.00163494
0.00163132
0.00162762
0.00162384
0.00162
0.00165766
0.00166363
0.00166776
0.00167006
0.00167151
0.00167206
0.00167211
0.00167205
0.00167207
0.00167251
0.00167344
0.00167429
0.00167446
0.00167422
0.00167346
0.00167227
0.00167088
0.00166932
0.00166869
0.0016686
0.00166846
0.00166816
0.00166749
0.00166643
0.00166506
0.00166349
0.00166202
0.00166069
0.00165985
0.00165927
0.00165883
0.00165814
0.00165722
0.00165628
0.00165522
0.00165428
0.00165383
0.00165394
0.00165443
0.0016553
0.00165634
0.00165731
0.00165798
0.00165833
0.00165844
0.00165827
0.0016581
0.00165831
0.00165887
0.00165944
0.00166007
0.00166094
0.00166187
0.00166236
0.00166271
0.00166332
0.00166362
0.00166359
0.00166397
0.0016647
0.00166508
0.00166574
0.00166697
0.00166811
0.00166937
0.00167095
0.00167241
0.0016739
0.00167548
0.00167666
0.00167761
0.00167855
0.00167903
0.00167908
0.00167841
0.00167752
0.00167777
0.00167693
0.00167412
0.00167234
0.00167274
0.00167226
0.00166751
0.00166312
0.0016613
0.00166161
0.00165924
0.00165429
0.00165107
0.00165009
0.00164872
0.00164455
0.00164087
0.00163905
0.00163705
0.00163309
0.00162965
0.00162742
0.00162456
0.00162069
0.00161768
0.00161515
0.0016121
0.00160863
0.00160548
0.00160247
0.00159938
0.00159612
0.00159275
0.00158934
0.00167538
0.00167582
0.00167675
0.00167748
0.00167768
0.00167732
0.00167644
0.00167514
0.00167358
0.00167219
0.00167147
0.00167112
0.00167071
0.00167
0.00166894
0.00166758
0.00166598
0.00166423
0.00166247
0.00166104
0.00165988
0.00165906
0.00165826
0.00165729
0.00165611
0.00165476
0.00165325
0.00165172
0.00165038
0.00164922
0.00164838
0.00164754
0.00164658
0.00164565
0.00164461
0.00164343
0.00164234
0.00164154
0.00164107
0.001641
0.00164117
0.00164159
0.00164187
0.00164197
0.00164221
0.00164203
0.00164127
0.00164097
0.00164105
0.00164086
0.00164049
0.00164044
0.00164081
0.00164088
0.00164035
0.0016403
0.00164051
0.0016397
0.0016391
0.00163931
0.00163883
0.0016382
0.00163845
0.00163861
0.00163854
0.00163905
0.00163958
0.00163989
0.00164072
0.00164137
0.00164155
0.00164198
0.00164249
0.00164249
0.0016417
0.00164079
0.00164097
0.0016405
0.00163775
0.00163568
0.00163582
0.00163608
0.00163173
0.00162722
0.00162524
0.00162564
0.00162362
0.00161837
0.00161478
0.0016138
0.00161304
0.00160889
0.00160478
0.00160289
0.00160134
0.00159747
0.00159404
0.00159212
0.00158919
0.0015854
0.00158268
0.00158083
0.00157802
0.00157438
0.00157152
0.00156936
0.00156685
0.00156385
0.00156077
0.00155776
0.00167668
0.00167521
0.00167435
0.0016738
0.00167317
0.00167227
0.00167105
0.00166953
0.00166778
0.00166588
0.00166405
0.00166254
0.00166138
0.00166036
0.00165931
0.00165815
0.00165683
0.00165535
0.00165373
0.00165212
0.00165068
0.00164948
0.00164846
0.00164749
0.00164645
0.00164528
0.00164396
0.00164252
0.00164104
0.00163962
0.00163835
0.00163717
0.00163601
0.00163491
0.00163376
0.00163249
0.00163116
0.00162987
0.00162878
0.00162789
0.00162723
0.00162694
0.00162658
0.00162612
0.00162617
0.00162604
0.00162481
0.00162406
0.00162409
0.00162345
0.0016221
0.00162115
0.00162107
0.00162077
0.00161925
0.00161848
0.00161875
0.00161743
0.00161577
0.00161575
0.00161495
0.00161294
0.00161246
0.00161222
0.00161072
0.00161019
0.00161005
0.00160916
0.00160902
0.00160916
0.00160841
0.00160799
0.00160836
0.00160823
0.0016069
0.00160588
0.00160618
0.00160574
0.00160289
0.00160075
0.00160084
0.00160122
0.00159703
0.00159285
0.001591
0.00159147
0.00158946
0.00158405
0.00158032
0.00157936
0.00157889
0.00157464
0.0015703
0.0015683
0.00156712
0.00156339
0.00155989
0.00155801
0.00155502
0.00155139
0.00154881
0.00154744
0.00154489
0.00154125
0.00153836
0.00153642
0.00153491
0.0015323
0.00152924
0.0015265
0.00166975
0.00166769
0.00166569
0.00166403
0.0016627
0.00166153
0.00166036
0.00165909
0.00165769
0.00165614
0.00165447
0.00165287
0.00165146
0.00165025
0.00164916
0.00164809
0.00164697
0.00164574
0.00164438
0.00164292
0.00164145
0.00164006
0.00163879
0.00163763
0.0016365
0.00163535
0.0016341
0.00163274
0.00163128
0.00162976
0.00162826
0.00162679
0.00162537
0.00162401
0.00162264
0.00162122
0.00161971
0.00161816
0.00161669
0.00161525
0.00161387
0.00161292
0.00161197
0.00161084
0.00161033
0.00160988
0.0016084
0.0016073
0.00160708
0.00160605
0.00160419
0.00160264
0.00160191
0.00160121
0.00159916
0.00159758
0.0015974
0.0015959
0.00159353
0.00159294
0.00159209
0.00158929
0.00158785
0.00158747
0.00158513
0.00158331
0.00158285
0.00158112
0.00157973
0.0015794
0.00157779
0.0015764
0.00157665
0.00157618
0.001574
0.00157278
0.00157329
0.00157259
0.00156951
0.0015675
0.00156777
0.00156774
0.00156357
0.00156
0.00155856
0.00155921
0.00155666
0.0015513
0.00154786
0.00154715
0.00154654
0.00154196
0.00153778
0.00153598
0.00153502
0.00153123
0.00152765
0.00152569
0.00152285
0.00151937
0.00151689
0.00151584
0.00151347
0.00150986
0.00150696
0.001505
0.00150402
0.00150244
0.00149942
0.00149661
0.00165993
0.00165842
0.00165676
0.001655
0.00165331
0.00165181
0.00165051
0.00164933
0.0016482
0.00164703
0.00164577
0.0016444
0.00164298
0.00164157
0.00164026
0.00163905
0.00163792
0.00163682
0.00163567
0.00163446
0.00163315
0.00163176
0.00163035
0.00162896
0.00162762
0.00162634
0.00162507
0.00162377
0.0016224
0.00162093
0.00161937
0.00161775
0.0016161
0.00161444
0.0016128
0.00161117
0.00160951
0.00160779
0.00160603
0.00160425
0.00160244
0.00160058
0.00159904
0.00159756
0.00159582
0.0015946
0.00159364
0.00159191
0.00159043
0.00158974
0.00158818
0.00158615
0.00158437
0.00158288
0.00158167
0.00157952
0.00157717
0.00157619
0.0015746
0.00157183
0.00157046
0.0015694
0.00156638
0.00156415
0.00156335
0.00156076
0.00155792
0.00155698
0.00155493
0.00155233
0.0015514
0.00154942
0.00154703
0.00154679
0.00154582
0.00154293
0.00154151
0.00154218
0.00154082
0.00153748
0.00153576
0.00153635
0.00153541
0.00153136
0.00152852
0.00152771
0.00152835
0.00152489
0.00151995
0.00151721
0.00151711
0.00151564
0.00151084
0.00150725
0.0015061
0.00150496
0.00150085
0.00149734
0.00149549
0.00149292
0.00148956
0.00148711
0.0014862
0.00148403
0.00148053
0.00147766
0.00147568
0.00147484
0.00147436
0.00147172
0.00146876
0.00164799
0.00164671
0.00164537
0.00164395
0.00164248
0.00164105
0.00163971
0.00163848
0.00163733
0.00163622
0.00163509
0.00163391
0.00163267
0.00163138
0.00163009
0.00162884
0.00162763
0.00162647
0.00162531
0.00162412
0.00162287
0.00162155
0.00162016
0.00161873
0.00161728
0.00161585
0.00161442
0.00161299
0.00161152
0.00160998
0.00160835
0.00160664
0.00160485
0.00160301
0.00160114
0.00159924
0.00159731
0.00159535
0.00159334
0.00159129
0.00158916
0.00158698
0.00158494
0.00158294
0.00158071
0.00157888
0.00157733
0.0015752
0.00157328
0.00157203
0.00156994
0.00156772
0.00156591
0.00156368
0.00156185
0.00155973
0.00155685
0.00155501
0.00155327
0.00155025
0.00154807
0.00154667
0.00154365
0.0015408
0.00153951
0.00153686
0.0015334
0.00153188
0.00152974
0.00152629
0.00152462
0.00152268
0.00151952
0.00151828
0.00151698
0.0015137
0.001512
0.00151247
0.00151029
0.00150678
0.00150544
0.00150623
0.00150419
0.00150035
0.00149825
0.00149827
0.00149823
0.00149384
0.0014899
0.00148819
0.00148856
0.00148578
0.00148125
0.00147856
0.00147827
0.00147627
0.00147194
0.00146883
0.00146744
0.00146511
0.00146174
0.00145929
0.00145834
0.00145656
0.0014533
0.00145047
0.00144851
0.00144773
0.00144789
0.00144582
0.00144288
0.00144063
0.00143898
0.0016363
0.0016351
0.0016339
0.00163269
0.00163143
0.00163015
0.00162888
0.00162766
0.00162649
0.00162537
0.00162428
0.00162316
0.00162202
0.00162082
0.00161959
0.00161834
0.0016171
0.00161587
0.00161465
0.00161342
0.00161215
0.00161082
0.00160943
0.00160798
0.00160647
0.00160492
0.00160335
0.00160176
0.00160014
0.00159846
0.00159672
0.00159489
0.00159296
0.00159096
0.00158888
0.00158675
0.00158457
0.00158234
0.00158006
0.00157772
0.0015753
0.00157283
0.00157039
0.00156791
0.00156531
0.00156296
0.00156077
0.00155818
0.00155587
0.001554
0.0015514
0.00154896
0.00154691
0.00154417
0.00154177
0.00153952
0.00153636
0.0015338
0.00153176
0.00152858
0.0015257
0.00152389
0.00152088
0.00151752
0.00151576
0.00151309
0.00150928
0.00150721
0.00150502
0.00150116
0.00149875
0.00149691
0.00149333
0.00149096
0.00148957
0.0014863
0.00148391
0.00148369
0.00148113
0.00147761
0.00147658
0.00147711
0.00147412
0.00147057
0.00146917
0.00146991
0.00146825
0.00146396
0.00146118
0.00146059
0.00146065
0.00145682
0.00145304
0.00145146
0.0014516
0.00144854
0.00144438
0.00144193
0.0014413
0.00143897
0.00143546
0.00143306
0.00143221
0.00143087
0.00142792
0.00142523
0.00142337
0.00142245
0.00142231
0.00142116
0.00141882
0.00141678
0.00141528
0.00162736
0.00162606
0.00162482
0.00162364
0.00162249
0.00162137
0.00162023
0.00161907
0.00161789
0.00161672
0.00161556
0.00161443
0.00161331
0.00161221
0.00161108
0.00160993
0.00160873
0.0016075
0.00160624
0.00160496
0.00160367
0.00160237
0.00160103
0.00159965
0.00159821
0.00159671
0.00159513
0.00159349
0.00159179
0.00159005
0.00158826
0.00158642
0.00158451
0.00158252
0.00158044
0.00157827
0.001576
0.00157366
0.00157123
0.00156874
0.00156618
0.00156356
0.00156086
0.0015581
0.0015553
0.00155243
0.0015495
0.00154669
0.0015439
0.00154089
0.00153819
0.00153566
0.00153262
0.00152992
0.00152745
0.0015243
0.00152149
0.00151896
0.00151559
0.00151251
0.00151013
0.00150679
0.00150336
0.00150115
0.00149807
0.00149431
0.0014921
0.0014894
0.00148538
0.00148285
0.0014806
0.00147662
0.00147359
0.00147171
0.00146816
0.00146481
0.00146325
0.00146033
0.00145704
0.00145594
0.00145368
0.00145012
0.0014489
0.00144885
0.00144546
0.00144219
0.00144139
0.00144211
0.00143919
0.00143545
0.0014337
0.00143408
0.00143282
0.00142889
0.00142616
0.00142566
0.00142547
0.00142164
0.00141806
0.00141651
0.00141656
0.00141393
0.00141032
0.00140816
0.00140765
0.00140669
0.00140399
0.00140153
0.00139985
0.0013988
0.00139822
0.00139743
0.00139597
0.00139443
0.00139316
0.00161577
0.00161456
0.00161338
0.00161223
0.00161111
0.00161002
0.00160893
0.00160783
0.00160672
0.00160559
0.00160445
0.00160332
0.00160219
0.00160106
0.00159991
0.00159875
0.00159755
0.00159631
0.00159502
0.0015937
0.00159235
0.00159096
0.00158954
0.00158807
0.00158655
0.00158496
0.00158329
0.00158154
0.00157973
0.00157784
0.00157588
0.00157386
0.00157177
0.0015696
0.00156733
0.00156497
0.00156251
0.00155996
0.0015573
0.00155456
0.00155174
0.00154884
0.00154586
0.00154281
0.00153969
0.00153649
0.00153325
0.00153003
0.00152675
0.00152341
0.00152027
0.00151712
0.00151373
0.00151069
0.00150771
0.00150423
0.00150112
0.00149823
0.00149461
0.00149122
0.00148849
0.00148495
0.00148116
0.00147858
0.00147538
0.00147131
0.00146871
0.00146594
0.0014618
0.00145885
0.00145654
0.00145263
0.00144909
0.00144709
0.00144379
0.00143981
0.00143785
0.00143541
0.00143153
0.00142941
0.0014278
0.00142439
0.00142214
0.00142158
0.00141871
0.00141547
0.00141484
0.00141505
0.00141165
0.00140841
0.00140746
0.00140815
0.0014057
0.00140222
0.00140048
0.00140084
0.00139962
0.0013958
0.00139306
0.00139232
0.00139263
0.00138976
0.00138636
0.00138449
0.00138411
0.0013835
0.00138128
0.00137911
0.00137763
0.0013766
0.00137582
0.00137508
0.00137413
0.00137311
0.00137218
0.00137138
0.00161256
0.00161126
0.00161
0.00160878
0.0016076
0.00160645
0.00160531
0.00160418
0.00160305
0.00160193
0.00160081
0.00159972
0.00159864
0.00159756
0.00159649
0.0015954
0.00159429
0.00159317
0.00159203
0.00159087
0.00158971
0.00158853
0.00158732
0.00158608
0.0015848
0.00158348
0.0015821
0.00158068
0.0015792
0.00157768
0.00157611
0.00157447
0.00157277
0.00157099
0.00156913
0.00156718
0.00156514
0.00156302
0.00156082
0.00155854
0.00155617
0.0015537
0.00155114
0.00154848
0.00154571
0.00154284
0.00153986
0.00153679
0.00153363
0.00153039
0.00152706
0.00152365
0.00152017
0.00151663
0.00151306
0.00150941
0.00150576
0.00150219
0.00149856
0.00149487
0.00149143
0.00148795
0.00148421
0.00148081
0.00147751
0.00147366
0.00147009
0.00146701
0.00146324
0.00145927
0.00145639
0.00145301
0.00144874
0.00144581
0.00144295
0.00143876
0.00143542
0.00143304
0.00142932
0.00142537
0.00142319
0.0014202
0.00141596
0.00141347
0.00141139
0.00140753
0.00140444
0.00140307
0.00140025
0.00139688
0.00139561
0.00139389
0.00139069
0.00138913
0.00138894
0.00138621
0.00138323
0.00138253
0.00138286
0.00138002
0.00137705
0.00137603
0.0013767
0.00137466
0.0013713
0.00136927
0.00136903
0.0013693
0.00136659
0.00136371
0.00136209
0.00136148
0.00136101
0.00135958
0.00135787
0.00135658
0.00135562
0.00135485
0.00135417
0.00135349
0.00135282
0.00135221
0.00135168
0.00160057
0.00159937
0.00159819
0.00159703
0.0015959
0.00159479
0.0015937
0.00159262
0.00159154
0.00159045
0.00158937
0.00158829
0.00158721
0.00158614
0.00158505
0.00158396
0.00158285
0.00158171
0.00158055
0.00157937
0.00157816
0.00157693
0.00157567
0.00157437
0.00157302
0.00157163
0.00157018
0.00156868
0.00156711
0.00156548
0.00156379
0.00156203
0.0015602
0.00155828
0.00155628
0.00155419
0.001552
0.00154972
0.00154734
0.00154487
0.0015423
0.00153963
0.00153687
0.001534
0.00153102
0.00152793
0.00152474
0.00152144
0.00151804
0.00151455
0.00151098
0.00150731
0.00150357
0.00149977
0.00149591
0.00149198
0.00148804
0.00148411
0.00148013
0.00147617
0.00147233
0.00146844
0.00146448
0.00146078
0.00145709
0.00145306
0.00144934
0.00144593
0.00144196
0.00143792
0.00143478
0.00143123
0.00142685
0.00142367
0.00142072
0.00141654
0.00141286
0.0014104
0.00140689
0.00140267
0.00140024
0.00139756
0.00139336
0.00139033
0.00138843
0.00138499
0.00138124
0.00137959
0.00137746
0.0013737
0.00137138
0.00137048
0.00136788
0.00136499
0.00136403
0.00136286
0.00136027
0.00135871
0.00135832
0.00135633
0.00135391
0.00135301
0.00135328
0.00135117
0.00134846
0.00134683
0.00134655
0.00134659
0.0013447
0.00134247
0.00134103
0.00134021
0.00133965
0.00133876
0.00133761
0.00133661
0.00133581
0.00133515
0.00133458
0.00133409
0.00133367
0.00133333
0.00133305
0.00158875
0.00158762
0.0015865
0.00158539
0.0015843
0.00158322
0.00158216
0.0015811
0.00158004
0.00157897
0.0015779
0.00157682
0.00157574
0.00157464
0.00157354
0.00157242
0.00157128
0.00157012
0.00156892
0.0015677
0.00156644
0.00156514
0.00156381
0.00156243
0.00156101
0.00155953
0.00155799
0.00155639
0.00155472
0.00155298
0.00155116
0.00154927
0.0015473
0.00154524
0.00154309
0.00154085
0.0015385
0.00153605
0.0015335
0.00153085
0.00152809
0.00152523
0.00152226
0.00151919
0.00151601
0.00151272
0.00150932
0.00150582
0.00150221
0.00149851
0.00149471
0.00149083
0.00148687
0.00148285
0.00147875
0.0014746
0.00147042
0.00146623
0.001462
0.00145779
0.00145363
0.00144945
0.00144529
0.0014413
0.00143729
0.00143313
0.00142926
0.00142555
0.00142143
0.00141738
0.00141402
0.00141031
0.00140592
0.00140257
0.00139952
0.00139539
0.00139146
0.00138892
0.00138561
0.00138127
0.00137855
0.00137612
0.00137217
0.00136866
0.00136679
0.00136387
0.00135987
0.00135767
0.00135605
0.00135258
0.00134944
0.00134844
0.00134671
0.00134329
0.00134125
0.00134091
0.00133935
0.00133677
0.00133538
0.00133448
0.00133293
0.00133157
0.00133089
0.00132948
0.00132757
0.00132611
0.00132542
0.00132511
0.00132406
0.00132254
0.00132132
0.00132046
0.00131981
0.00131916
0.00131844
0.00131776
0.00131718
0.0013167
0.00131631
0.001316
0.00131578
0.00131565
0.00131561
0.00157709
0.001576
0.00157492
0.00157385
0.00157279
0.00157173
0.00157067
0.00156961
0.00156855
0.00156749
0.00156641
0.00156532
0.00156422
0.0015631
0.00156196
0.0015608
0.00155962
0.0015584
0.00155716
0.00155587
0.00155455
0.00155318
0.00155177
0.00155031
0.00154879
0.00154721
0.00154557
0.00154386
0.00154208
0.00154022
0.00153828
0.00153625
0.00153414
0.00153193
0.00152963
0.00152723
0.00152473
0.00152212
0.0015194
0.00151657
0.00151364
0.0015106
0.00150745
0.00150419
0.00150083
0.00149735
0.00149378
0.00149009
0.00148631
0.00148243
0.00147846
0.0014744
0.00147027
0.00146606
0.0014618
0.00145748
0.00145312
0.00144874
0.00144433
0.00143993
0.00143555
0.00143117
0.00142684
0.00142262
0.00141838
0.00141413
0.0014101
0.00140616
0.00140197
0.00139793
0.00139437
0.00139054
0.00138621
0.00138277
0.00137963
0.00137556
0.00137152
0.00136889
0.00136574
0.00136142
0.00135841
0.00135615
0.00135257
0.00134871
0.00134672
0.00134429
0.00134037
0.00133763
0.00133624
0.00133335
0.00132978
0.00132826
0.00132716
0.00132395
0.00132114
0.00132059
0.00132007
0.00131725
0.00131495
0.00131424
0.00131375
0.00131223
0.00131071
0.00130954
0.00130831
0.00130711
0.0013062
0.00130559
0.00130488
0.00130393
0.00130301
0.00130225
0.00130164
0.00130112
0.00130065
0.00130024
0.00129989
0.00129961
0.00129941
0.0012993
0.00129928
0.00129932
0.00129947
0.00129971
0.00130001
0.00156558
0.00156452
0.00156347
0.00156241
0.00156136
0.0015603
0.00155924
0.00155817
0.0015571
0.00155602
0.00155492
0.0015538
0.00155266
0.00155151
0.00155032
0.00154911
0.00154788
0.0015466
0.00154529
0.00154394
0.00154254
0.00154109
0.00153959
0.00153803
0.00153642
0.00153474
0.00153299
0.00153116
0.00152926
0.00152728
0.00152521
0.00152305
0.00152079
0.00151844
0.001516
0.00151345
0.0015108
0.00150803
0.00150516
0.00150218
0.00149909
0.00149589
0.00149258
0.00148916
0.00148564
0.00148202
0.00147829
0.00147446
0.00147053
0.00146652
0.00146241
0.00145822
0.00145396
0.00144964
0.00144525
0.00144082
0.00143635
0.00143185
0.00142733
0.00142281
0.0014183
0.0014138
0.00140936
0.00140498
0.00140061
0.0013963
0.00139214
0.00138804
0.00138383
0.0013798
0.0013761
0.00137219
0.00136799
0.0013645
0.00136127
0.00135729
0.00135325
0.00135055
0.00134751
0.00134332
0.00134008
0.00133792
0.00133469
0.00133069
0.00132847
0.00132643
0.00132283
0.00131965
0.00131825
0.00131595
0.00131233
0.00131025
0.00130942
0.00130678
0.00130358
0.00130249
0.00130245
0.00130002
0.00129716
0.00129614
0.00129632
0.00129513
0.00129306
0.0012917
0.00129075
0.00128984
0.00128897
0.00128824
0.0012876
0.00128694
0.00128629
0.0012857
0.0012852
0.00128481
0.0012845
0.00128427
0.00128411
0.00128403
0.00128402
0.00128408
0.00128423
0.00128447
0.0012848
0.00128522
0.00128571
0.00155422
0.00155317
0.00155212
0.00155107
0.00155001
0.00154895
0.00154787
0.00154678
0.00154569
0.00154457
0.00154344
0.00154228
0.0015411
0.0015399
0.00153866
0.00153739
0.00153609
0.00153475
0.00153336
0.00153193
0.00153045
0.00152892
0.00152732
0.00152567
0.00152395
0.00152216
0.0015203
0.00151836
0.00151634
0.00151424
0.00151204
0.00150975
0.00150737
0.00150489
0.00150231
0.00149962
0.00149683
0.00149393
0.00149093
0.00148781
0.00148459
0.00148126
0.00147782
0.00147427
0.00147063
0.00146689
0.00146304
0.00145911
0.00145508
0.00145097
0.00144678
0.00144251
0.00143818
0.00143378
0.00142934
0.00142485
0.00142032
0.00141577
0.0014112
0.00140663
0.00140207
0.00139753
0.00139303
0.00138858
0.00138417
0.00137983
0.00137561
0.00137143
0.00136724
0.00136323
0.00135943
0.00135551
0.00135145
0.00134794
0.00134465
0.00134078
0.00133684
0.00133408
0.00133113
0.00132712
0.00132374
0.00132162
0.00131869
0.00131473
0.00131226
0.00131047
0.00130728
0.00130383
0.00130227
0.00130047
0.00129705
0.00129451
0.0012937
0.00129166
0.00128837
0.00128676
0.00128679
0.00128493
0.00128188
0.00128048
0.00128073
0.00128004
0.00127779
0.00127618
0.00127523
0.00127448
0.00127373
0.00127302
0.0012724
0.00127185
0.00127135
0.0012709
0.00127054
0.00127027
0.00127009
0.00127
0.00126998
0.00127004
0.00127019
0.00127042
0.00127073
0.00127114
0.00127163
0.00127222
0.00127288
0.00154406
0.00154301
0.00154196
0.0015409
0.00153984
0.00153876
0.00153767
0.00153657
0.00153546
0.00153432
0.00153317
0.00153199
0.00153079
0.00152956
0.0015283
0.001527
0.00152567
0.00152429
0.00152288
0.00152141
0.0015199
0.00151833
0.00151671
0.00151502
0.00151327
0.00151145
0.00150956
0.00150759
0.00150554
0.00150341
0.00150119
0.00149888
0.00149647
0.00149397
0.00149138
0.00148868
0.00148587
0.00148297
0.00147996
0.00147685
0.00147362
0.0014703
0.00146687
0.00146333
0.0014597
0.00145597
0.00145215
0.00144824
0.00144424
0.00144016
0.001436
0.00143177
0.00142747
0.00142312
0.00141871
0.00141426
0.00140976
0.00140524
0.0014007
0.00139615
0.00139159
0.00138705
0.00138253
0.00137804
0.0013736
0.00136921
0.00136489
0.00136066
0.00135648
0.00135235
0.00134837
0.00134455
0.00134066
0.00133675
0.00133326
0.00132993
0.00132618
0.00132242
0.00131961
0.00131673
0.00131292
0.00130951
0.0013074
0.0013047
0.00130088
0.00129822
0.00129657
0.00129374
0.00129021
0.00128841
0.00128696
0.00128389
0.00128104
0.00128006
0.00127855
0.0012754
0.00127334
0.0012732
0.00127193
0.00126893
0.00126716
0.00126718
0.00126683
0.00126468
0.00126293
0.0012619
0.00126115
0.00126047
0.00125981
0.00125922
0.00125871
0.00125828
0.00125793
0.00125767
0.0012575
0.00125743
0.00125743
0.00125749
0.00125767
0.00125795
0.00125832
0.00125878
0.00125932
0.00125996
0.00126068
0.00126149
0.001533
0.00153195
0.00153088
0.0015298
0.00152872
0.00152762
0.0015265
0.00152537
0.00152421
0.00152304
0.00152184
0.00152061
0.00151935
0.00151806
0.00151674
0.00151538
0.00151398
0.00151253
0.00151104
0.0015095
0.0015079
0.00150625
0.00150454
0.00150276
0.00150092
0.001499
0.00149701
0.00149494
0.0014928
0.00149056
0.00148824
0.00148583
0.00148333
0.00148073
0.00147804
0.00147524