/*--------------------------------*- C++ -*----------------------------------*\
| =========                 |                                                 |
| \\      /  F ield         | OpenFOAM: The Open Source CFD Toolbox           |
|  \\    /   O peration     | Version:  v1706                                 |
|   \\  /    A nd           | Web:      www.OpenFOAM.com                      |
|    \\/     M anipulation  |                                                 |
\*---------------------------------------------------------------------------*/
FoamFile
{
    version     2.0;
    format      ascii;
    class       volScalarField;
    location    "3.7e-05";
    object      Tv;
}
// * * * * * * * * * * * * * * * * * * * * * * * * * * * * * * * * * * * * * //

dimensions      [0 0 0 1 0 0 0];


internalField   nonuniform List<scalar> 
29871
(
144.4
144.4
144.4
144.4
144.4
144.4
144.4
144.4
144.4
144.4
144.4
144.4
144.4
144.4
144.4
144.4
144.4
144.4
144.4
144.4
144.4
144.4
144.4
144.4
144.4
144.4
144.4
144.4
144.4
144.4
144.4
144.4
144.4
144.4
144.4
144.4
144.4
144.4
144.4
144.4
144.4
144.4
144.4
144.4
144.4
144.4
144.4
144.4
144.4
144.4
144.4
144.4
144.4
144.4
144.4
144.4
144.4
144.4
144.4
144.4
144.4
144.4
144.4
144.4
144.4
144.4
144.4
144.4
144.4
144.4
144.4
144.4
144.4
144.4
144.4
144.4
144.4
144.4
144.4
144.4
144.4
144.4
144.4
144.4
144.4
144.4
144.4
144.4
144.4
144.4
144.4
144.4
144.4
144.4
144.4
144.4
144.4
144.4
144.4
144.4
144.4
144.4
144.4
144.4
144.4
144.4
144.4
144.4
144.4
144.4
144.4
144.4
144.4
144.4
144.4
144.4
144.4
144.4
144.4
144.4
144.4
144.4
144.4
144.4
144.4
144.4
144.4
144.4
144.4
144.4
144.4
144.4
144.4
144.4
144.4
144.4
144.4
144.4
144.4
144.4
144.4
144.4
144.4
144.4
144.4
144.4
144.4
144.4
144.4
144.4
144.4
144.4
144.4
144.4
144.4
144.401
144.401
144.401
144.401
144.401
144.401
144.401
144.401
144.401
144.401
144.401
144.401
144.401
144.401
144.401
144.401
144.401
144.401
144.401
144.401
144.401
144.401
144.401
144.401
144.401
144.401
144.401
144.401
144.401
144.401
144.401
144.4
144.4
144.4
144.4
144.4
144.4
144.4
144.4
144.4
144.4
144.4
144.4
144.4
144.4
144.4
144.4
144.4
144.4
144.4
144.4
144.4
144.4
144.4
144.4
144.4
144.4
144.4
144.4
144.4
144.4
144.4
144.4
144.4
144.4
144.4
144.4
144.4
144.4
144.4
144.4
144.4
144.4
144.4
144.4
144.4
144.4
144.4
144.4
144.4
144.4
144.4
144.4
144.4
144.4
144.401
144.401
144.401
144.401
144.401
144.401
144.401
144.401
144.401
144.401
144.401
144.401
144.401
144.401
144.401
144.402
144.402
144.402
144.402
144.402
144.402
144.402
144.402
144.402
144.402
144.402
144.402
144.402
144.403
144.403
144.403
144.403
144.403
144.403
144.403
144.403
144.403
144.403
144.403
144.403
144.403
144.403
144.403
144.403
144.403
144.402
144.402
144.402
144.402
144.402
144.402
144.402
144.402
144.402
144.402
144.402
144.402
144.402
144.402
144.401
144.401
144.401
144.401
144.401
144.401
144.401
144.401
144.401
144.401
144.401
144.401
144.401
144.401
144.401
144.401
144.4
144.4
144.4
144.4
144.4
144.4
144.4
144.4
144.4
144.4
144.4
144.4
144.4
144.4
144.4
144.4
144.4
144.4
144.4
144.401
144.401
144.401
144.401
144.401
144.401
144.401
144.401
144.401
144.401
144.401
144.402
144.402
144.402
144.402
144.402
144.402
144.403
144.403
144.403
144.403
144.403
144.404
144.404
144.404
144.405
144.405
144.405
144.405
144.406
144.406
144.406
144.407
144.407
144.407
144.408
144.408
144.408
144.408
144.409
144.409
144.409
144.409
144.409
144.409
144.41
144.41
144.41
144.41
144.41
144.41
144.41
144.409
144.409
144.409
144.409
144.409
144.409
144.409
144.408
144.408
144.408
144.408
144.407
144.407
144.407
144.407
144.406
144.406
144.406
144.405
144.405
144.405
144.405
144.404
144.404
144.404
144.404
144.403
144.403
144.403
144.403
144.403
144.402
144.402
144.402
144.402
144.402
144.4
144.4
144.4
144.4
144.4
144.4
144.4
144.401
144.401
144.401
144.401
144.401
144.401
144.401
144.401
144.401
144.401
144.401
144.402
144.402
144.402
144.402
144.402
144.403
144.403
144.403
144.403
144.404
144.404
144.404
144.405
144.405
144.406
144.406
144.407
144.407
144.408
144.409
144.409
144.41
144.411
144.412
144.412
144.413
144.414
144.415
144.416
144.417
144.418
144.419
144.42
144.421
144.422
144.423
144.424
144.425
144.426
144.427
144.427
144.428
144.429
144.429
144.43
144.43
144.431
144.431
144.431
144.431
144.431
144.431
144.431
144.431
144.43
144.43
144.43
144.429
144.429
144.428
144.427
144.426
144.426
144.425
144.424
144.423
144.422
144.421
144.42
144.42
144.419
144.418
144.417
144.416
144.415
144.414
144.413
144.413
144.412
144.411
144.41
144.41
144.409
144.408
144.408
144.407
144.407
144.406
144.406
144.401
144.401
144.401
144.401
144.401
144.401
144.401
144.402
144.402
144.402
144.402
144.402
144.403
144.403
144.403
144.404
144.404
144.404
144.405
144.405
144.406
144.406
144.407
144.408
144.408
144.409
144.41
144.411
144.412
144.413
144.414
144.415
144.417
144.418
144.42
144.421
144.423
144.425
144.427
144.429
144.431
144.433
144.436
144.438
144.441
144.444
144.446
144.449
144.452
144.455
144.458
144.461
144.464
144.467
144.47
144.473
144.476
144.479
144.481
144.484
144.486
144.488
144.489
144.491
144.492
144.493
144.494
144.494
144.494
144.494
144.494
144.493
144.492
144.491
144.489
144.488
144.486
144.484
144.482
144.48
144.478
144.475
144.473
144.47
144.467
144.465
144.462
144.459
144.456
144.454
144.451
144.448
144.446
144.443
144.441
144.438
144.436
144.434
144.432
144.429
144.427
144.426
144.424
144.422
144.42
144.419
144.417
144.402
144.402
144.402
144.402
144.403
144.403
144.403
144.403
144.404
144.404
144.405
144.405
144.406
144.406
144.407
144.408
144.408
144.409
144.41
144.411
144.412
144.413
144.414
144.416
144.417
144.419
144.421
144.423
144.425
144.427
144.43
144.432
144.435
144.438
144.442
144.445
144.449
144.454
144.458
144.463
144.468
144.473
144.479
144.485
144.491
144.497
144.504
144.511
144.519
144.526
144.534
144.542
144.55
144.559
144.567
144.575
144.584
144.592
144.6
144.608
144.615
144.623
144.629
144.636
144.641
144.646
144.651
144.654
144.657
144.66
144.661
144.662
144.662
144.661
144.659
144.657
144.654
144.65
144.646
144.641
144.636
144.631
144.624
144.618
144.611
144.604
144.597
144.59
144.582
144.575
144.567
144.559
144.552
144.544
144.537
144.53
144.523
144.516
144.509
144.502
144.496
144.49
144.484
144.479
144.473
144.468
144.463
144.459
144.454
144.45
144.405
144.405
144.406
144.406
144.407
144.408
144.409
144.41
144.41
144.412
144.413
144.414
144.415
144.417
144.418
144.42
144.422
144.424
144.427
144.429
144.432
144.435
144.438
144.442
144.446
144.45
144.455
144.46
144.465
144.471
144.477
144.484
144.492
144.5
144.508
144.517
144.527
144.538
144.549
144.561
144.574
144.587
144.602
144.617
144.632
144.649
144.666
144.684
144.703
144.722
144.741
144.761
144.782
144.802
144.823
144.844
144.865
144.886
144.906
144.926
144.945
144.963
144.98
144.996
145.011
145.024
145.036
145.046
145.054
145.061
145.065
145.068
145.068
145.067
145.063
145.059
145.052
145.044
145.034
145.022
145.01
144.996
144.981
144.965
144.949
144.931
144.913
144.895
144.876
144.857
144.837
144.818
144.799
144.78
144.761
144.742
144.724
144.706
144.689
144.672
144.656
144.64
144.625
144.61
144.596
144.582
144.57
144.558
144.546
144.535
144.413
144.414
144.415
144.417
144.419
144.42
144.422
144.425
144.427
144.43
144.433
144.436
144.439
144.443
144.447
144.451
144.456
144.462
144.467
144.474
144.48
144.488
144.496
144.505
144.514
144.525
144.536
144.548
144.561
144.576
144.591
144.608
144.626
144.645
144.665
144.687
144.711
144.736
144.763
144.791
144.821
144.853
144.886
144.921
144.957
144.995
145.035
145.076
145.118
145.162
145.207
145.252
145.298
145.345
145.391
145.438
145.484
145.53
145.574
145.618
145.66
145.701
145.739
145.775
145.808
145.838
145.864
145.887
145.906
145.922
145.933
145.941
145.943
145.941
145.935
145.926
145.914
145.896
145.876
145.853
145.826
145.797
145.765
145.731
145.694
145.656
145.616
145.576
145.534
145.491
145.448
145.404
145.361
145.318
145.274
145.232
145.19
145.148
145.108
145.068
145.03
144.992
144.956
144.921
144.888
144.856
144.825
144.795
144.767
144.741
144.432
144.435
144.439
144.442
144.446
144.451
144.456
144.461
144.467
144.473
144.48
144.487
144.496
144.505
144.514
144.525
144.536
144.549
144.563
144.577
144.594
144.611
144.63
144.651
144.673
144.697
144.723
144.75
144.781
144.813
144.848
144.885
144.925
144.968
145.013
145.062
145.113
145.168
145.226
145.287
145.352
145.419
145.49
145.563
145.639
145.718
145.8
145.883
145.969
146.057
146.146
146.237
146.328
146.419
146.509
146.599
146.688
146.776
146.861
146.943
147.022
147.098
147.17
147.236
147.298
147.354
147.404
147.447
147.484
147.514
147.536
147.553
147.56
147.558
147.55
147.536
147.514
147.485
147.45
147.409
147.362
147.308
147.25
147.188
147.121
147.05
146.975
146.899
146.82
146.738
146.654
146.569
146.485
146.399
146.314
146.228
146.143
146.059
145.976
145.895
145.815
145.737
145.661
145.587
145.515
145.446
145.379
145.315
145.254
145.195
144.477
144.484
144.492
144.501
144.51
144.521
144.532
144.544
144.557
144.572
144.588
144.605
144.623
144.644
144.666
144.69
144.716
144.744
144.774
144.807
144.842
144.881
144.922
144.967
145.015
145.066
145.121
145.181
145.244
145.312
145.384
145.461
145.543
145.629
145.721
145.818
145.92
146.027
146.139
146.257
146.379
146.506
146.638
146.773
146.912
147.055
147.201
147.349
147.499
147.651
147.804
147.957
148.11
148.261
148.411
148.558
148.703
148.843
148.979
149.109
149.234
149.352
149.463
149.566
149.661
149.748
149.825
149.892
149.949
149.996
150.032
150.058
150.072
150.07
150.061
150.041
150.011
149.969
149.918
149.857
149.787
149.707
149.618
149.523
149.42
149.309
149.192
149.072
148.947
148.815
148.679
148.54
148.401
148.259
148.115
147.97
147.825
147.68
147.536
147.392
147.25
147.11
146.972
146.836
146.703
146.573
146.447
146.324
146.205
146.09
144.562
144.577
144.593
144.611
144.63
144.651
144.673
144.698
144.725
144.754
144.785
144.819
144.856
144.896
144.94
144.986
145.037
145.091
145.15
145.212
145.28
145.352
145.43
145.513
145.602
145.697
145.798
145.905
146.018
146.139
146.266
146.4
146.542
146.69
146.846
147.008
147.178
147.354
147.537
147.726
147.922
148.122
148.328
148.539
148.754
148.971
149.192
149.414
149.637
149.861
150.084
150.307
150.527
150.745
150.958
151.168
151.372
151.571
151.762
151.946
152.121
152.287
152.444
152.59
152.725
152.85
152.962
153.062
153.149
153.223
153.284
153.331
153.366
153.384
153.384
153.373
153.349
153.311
153.259
153.194
153.117
153.026
152.922
152.807
152.683
152.547
152.399
152.243
152.081
151.911
151.732
151.544
151.353
151.158
150.958
150.752
150.544
150.335
150.123
149.909
149.695
149.481
149.267
149.054
148.842
148.632
148.425
148.22
148.019
147.821
147.628
144.756
144.787
144.821
144.859
144.899
144.942
144.989
145.04
145.095
145.154
145.218
145.287
145.361
145.44
145.525
145.616
145.714
145.818
145.929
146.047
146.173
146.306
146.448
146.597
146.755
146.922
147.097
147.28
147.472
147.673
147.882
148.1
148.326
148.56
148.801
149.051
149.307
149.57
149.838
150.113
150.392
150.676
150.963
151.253
151.545
151.838
152.131
152.424
152.715
153.003
153.289
153.57
153.846
154.117
154.381
154.637
154.886
155.125
155.355
155.574
155.781
155.977
156.161
156.332
156.489
156.633
156.762
156.877
156.976
157.061
157.13
157.183
157.222
157.242
157.241
157.228
157.201
157.156
157.096
157.02
156.93
156.824
156.703
156.568
156.422
156.261
156.085
155.9
155.706
155.501
155.283
155.056
154.823
154.583
154.334
154.077
153.816
153.551
153.281
153.006
152.728
152.448
152.166
151.882
151.596
151.311
151.025
150.74
150.455
150.173
149.894
149.619
149.348
145.142
145.205
145.273
145.345
145.424
145.508
145.598
145.695
145.798
145.909
146.027
146.153
146.286
146.429
146.579
146.739
146.908
147.086
147.274
147.471
147.677
147.894
148.12
148.356
148.602
148.856
149.121
149.394
149.676
149.967
150.265
150.571
150.885
151.205
151.532
151.864
152.201
152.543
152.888
153.237
153.588
153.94
154.294
154.647
155
155.351
155.699
156.044
156.385
156.72
157.049
157.371
157.685
157.992
158.288
158.575
158.852
159.117
159.37
159.611
159.838
160.051
160.25
160.434
160.603
160.757
160.894
161.015
161.12
161.208
161.279
161.334
161.373
161.39
161.387
161.371
161.339
161.289
161.221
161.137
161.037
160.919
160.785
160.637
160.475
160.295
160.101
159.896
159.679
159.448
159.203
158.948
158.685
158.412
158.127
157.833
157.534
157.228
156.913
156.591
156.264
155.934
155.599
155.257
154.912
154.565
154.215
153.861
153.505
153.149
152.794
152.44
152.088
145.651
145.751
145.858
145.973
146.095
146.225
146.364
146.511
146.668
146.833
147.009
147.194
147.389
147.594
147.809
148.035
148.271
148.517
148.774
149.042
149.319
149.607
149.904
150.211
150.528
150.853
151.187
151.529
151.879
152.237
152.601
152.972
153.348
153.73
154.116
154.507
154.901
155.298
155.698
156.099
156.501
156.903
157.305
157.706
158.105
158.501
158.894
159.283
159.667
160.045
160.417
160.781
161.137
161.483
161.82
162.147
162.462
162.766
163.058
163.336
163.6
163.851
164.087
164.308
164.513
164.702
164.874
165.03
165.169
165.29
165.394
165.481
165.55
165.601
165.636
165.646
165.64
165.619
165.581
165.524
165.45
165.358
165.249
165.122
164.978
164.819
164.644
164.452
164.245
164.025
163.792
163.542
163.278
163.004
162.72
162.423
162.113
161.794
161.467
161.131
160.784
160.428
160.067
159.7
159.325
158.943
158.554
158.161
157.762
157.357
156.947
156.534
156.119
155.704
155.286
146.719
146.888
147.066
147.254
147.452
147.66
147.879
148.109
148.35
148.601
148.864
149.137
149.421
149.716
150.021
150.336
150.662
150.997
151.342
151.696
152.059
152.431
152.81
153.198
153.592
153.993
154.4
154.813
155.231
155.654
156.082
156.513
156.947
157.383
157.822
158.262
158.703
159.145
159.586
160.026
160.465
160.902
161.336
161.767
162.194
162.616
163.033
163.444
163.848
164.244
164.633
165.012
165.382
165.74
166.088
166.424
166.748
167.058
167.355
167.637
167.905
168.158
168.395
168.615
168.82
169.008
169.177
169.33
169.465
169.582
169.681
169.762
169.825
169.87
169.896
169.897
169.886
169.858
169.812
169.748
169.666
169.566
169.448
169.312
169.16
168.992
168.806
168.604
168.387
168.155
167.909
167.646
167.369
167.081
166.782
166.467
166.139
165.801
165.455
165.097
164.727
164.346
163.959
163.565
163.162
162.749
162.328
161.902
161.468
161.026
160.577
160.122
159.663
159.201
158.735
158.265
146.909
147.087
147.275
147.473
147.682
147.901
148.131
148.372
148.624
148.887
149.161
149.446
149.742
150.049
150.367
150.695
151.034
151.383
151.742
152.11
152.488
152.874
153.269
153.672
154.083
154.501
154.926
155.357
155.794
156.237
156.685
157.138
157.594
158.054
158.518
158.984
159.453
159.923
160.395
160.867
161.34
161.813
162.285
162.755
163.224
163.691
164.155
164.616
165.073
165.526
165.973
166.415
166.851
167.28
167.701
168.115
168.519
168.914
169.299
169.673
170.035
170.385
170.723
171.046
171.356
171.651
171.931
172.196
172.445
172.677
172.892
173.091
173.272
173.435
173.58
173.707
173.816
173.906
173.979
174.033
174.069
174.081
174.077
174.057
174.02
173.965
173.891
173.8
173.691
173.564
173.42
173.259
173.081
172.886
172.675
172.449
172.208
171.951
171.677
171.39
171.091
170.779
170.451
170.11
169.758
169.395
169.021
168.633
168.235
167.828
167.413
166.988
166.551
166.106
165.654
165.194
164.725
164.246
163.761
163.269
162.772
162.269
161.76
148.598
148.858
149.129
149.412
149.705
150.01
150.325
150.651
150.988
151.336
151.694
152.061
152.439
152.826
153.222
153.627
154.04
154.461
154.89
155.327
155.77
156.22
156.676
157.137
157.604
158.076
158.552
159.032
159.516
160.003
160.493
160.986
161.48
161.976
162.473
162.971
163.469
163.967
164.465
164.961
165.457
165.95
166.441
166.929
167.414
167.895
168.372
168.844
169.311
169.772
170.227
170.675
171.116
171.548
171.972
172.387
172.792
173.186
173.569
173.941
174.3
174.646
174.978
175.296
175.6
175.888
176.16
176.416
176.657
176.88
177.085
177.274
177.445
177.597
177.731
177.848
177.945
178.024
178.086
178.129
178.151
178.151
178.138
178.108
178.06
177.994
177.91
177.809
177.69
177.553
177.4
177.23
177.043
176.84
176.62
176.385
176.134
175.868
175.586
175.29
174.981
174.658
174.319
173.967
173.603
173.228
172.84
172.438
172.025
171.603
171.171
170.727
170.272
169.808
169.335
168.854
168.363
167.862
167.352
166.835
166.31
165.779
165.241
150.882
151.224
151.576
151.939
152.311
152.694
153.086
153.487
153.897
154.316
154.743
155.178
155.621
156.071
156.528
156.992
157.461
157.937
158.418
158.904
159.395
159.89
160.389
160.892
161.398
161.907
162.418
162.932
163.448
163.964
164.482
165.001
165.52
166.039
166.557
167.075
167.591
168.106
168.619
169.13
169.638
170.143
170.644
171.14
171.633
172.12
172.602
173.079
173.548
174.011
174.466
174.914
175.353
175.782
176.203
176.613
177.012
177.4
177.776
178.139
178.49
178.827
179.149
179.457
179.749
180.026
180.287
180.531
180.758
180.968
181.161
181.336
181.493
181.632
181.752
181.855
181.939
182.005
182.053
182.082
182.087
182.078
182.054
182.012
181.951
181.874
181.778
181.666
181.536
181.39
181.226
181.047
180.85
180.638
180.41
180.166
179.906
179.631
179.341
179.037
178.719
178.386
178.037
177.675
177.301
176.915
176.515
176.101
175.676
175.24
174.793
174.334
173.864
173.383
172.893
172.393
171.884
171.364
170.835
170.297
169.75
169.196
168.634
153.684
154.096
154.516
154.945
155.382
155.827
156.28
156.739
157.206
157.679
158.158
158.644
159.135
159.631
160.132
160.638
161.148
161.661
162.179
162.7
163.224
163.751
164.28
164.811
165.343
165.877
166.412
166.948
167.484
168.02
168.556
169.092
169.626
170.159
170.69
171.22
171.747
172.271
172.792
173.309
173.823
174.332
174.837
175.336
175.83
176.318
176.799
177.273
177.74
178.199
178.649
179.091
179.523
179.945
180.356
180.757
181.146
181.523
181.887
182.238
182.576
182.899
183.208
183.501
183.778
184.04
184.285
184.513
184.725
184.919
185.095
185.254
185.395
185.517
185.622
185.709
185.777
185.827
185.86
185.87
185.864
185.843
185.805
185.749
185.676
185.585
185.478
185.354
185.213
185.055
184.882
184.692
184.486
184.264
184.027
183.774
183.505
183.222
182.923
182.611
182.284
181.942
181.584
181.213
180.83
180.433
180.022
179.598
179.161
178.712
178.252
177.78
177.296
176.801
176.296
175.78
175.254
174.718
174.172
173.616
173.052
172.479
171.897
171.307
170.71
156.872
157.338
157.811
158.29
158.776
159.267
159.764
160.267
160.774
161.287
161.803
162.325
162.85
163.379
163.911
164.446
164.985
165.525
166.069
166.614
167.16
167.708
168.258
168.808
169.358
169.909
170.459
171.01
171.559
172.107
172.654
173.199
173.743
174.283
174.821
175.356
175.888
176.415
176.939
177.458
177.972
178.48
178.983
179.48
179.97
180.453
180.929
181.397
181.856
182.306
182.747
183.178
183.599
184.009
184.408
184.795
185.17
185.532
185.88
186.215
186.536
186.842
187.133
187.408
187.668
187.911
188.137
188.347
188.539
188.714
188.872
189.012
189.135
189.239
189.325
189.395
189.446
189.478
189.491
189.487
189.468
189.432
189.38
189.31
189.222
189.119
188.999
188.862
188.71
188.541
188.357
188.157
187.94
187.709
187.462
187.2
186.922
186.63
186.323
186.002
185.666
185.315
184.949
184.569
184.176
183.769
183.348
182.914
182.466
182.006
181.533
181.049
180.552
180.044
179.525
178.995
178.454
177.903
177.342
176.772
176.192
175.603
175.005
174.399
173.785
160.317
160.822
161.333
161.849
162.37
162.895
163.424
163.957
164.494
165.035
165.579
166.125
166.675
167.227
167.781
168.338
168.896
169.455
170.016
170.578
171.14
171.703
172.265
172.828
173.39
173.951
174.512
175.07
175.627
176.182
176.735
177.285
177.832
178.376
178.915
179.451
179.983
180.509
181.031
181.546
182.056
182.56
183.057
183.547
184.029
184.503
184.969
185.426
185.874
186.312
186.74
187.157
187.563
187.957
188.339
188.709
189.066
189.409
189.739
190.054
190.355
190.64
190.911
191.165
191.403
191.625
191.83
192.019
192.19
192.344
192.481
192.6
192.702
192.786
192.853
192.904
192.936
192.948
192.944
192.926
192.891
192.839
192.771
192.686
192.585
192.468
192.335
192.186
192.022
191.842
191.646
191.436
191.209
190.968
190.711
190.44
190.153
189.851
189.535
189.205
188.86
188.5
188.125
187.736
187.333
186.917
186.486
186.041
185.583
185.111
184.627
184.131
183.622
183.102
182.57
182.027
181.474
180.91
180.336
179.752
179.159
178.556
177.945
177.326
176.699
163.384
163.915
164.45
164.989
165.531
166.077
166.627
167.179
167.735
168.293
168.854
169.417
169.982
170.549
171.117
171.687
172.258
172.83
173.403
173.976
174.549
175.121
175.693
176.265
176.835
177.404
177.971
178.537
179.1
179.66
180.217
180.772
181.322
181.869
182.411
182.949
183.481
184.008
184.53
185.045
185.554
186.056
186.551
187.039
187.518
187.988
188.45
188.903
189.345
189.778
190.2
190.611
191.01
191.398
191.773
192.136
192.485
192.821
193.143
193.45
193.743
194.021
194.283
194.53
194.761
194.976
195.174
195.356
195.521
195.669
195.8
195.914
196.012
196.092
196.155
196.201
196.231
196.241
196.236
196.217
196.182
196.13
196.061
195.977
195.878
195.762
195.631
195.486
195.324
195.148
194.956
194.75
194.528
194.291
194.04
193.773
193.492
193.196
192.885
192.559
192.219
191.865
191.495
191.111
190.713
190.3
189.874
189.433
188.978
188.509
188.027
187.532
187.024
186.504
185.973
185.429
184.875
184.31
183.734
183.149
182.554
181.949
181.336
180.715
180.086
179.448
167.044
167.597
168.153
168.712
169.274
169.839
170.406
170.976
171.548
172.121
172.697
173.274
173.852
174.431
175.012
175.592
176.174
176.755
177.336
177.917
178.497
179.076
179.653
180.229
180.804
181.376
181.945
182.512
183.075
183.635
184.191
184.743
185.291
185.833
186.371
186.903
187.429
187.948
188.461
188.967
189.466
189.956
190.439
190.913
191.378
191.834
192.28
192.715
193.141
193.555
193.958
194.349
194.728
195.094
195.447
195.787
196.113
196.425
196.723
197.006
197.274
197.526
197.763
197.985
198.19
198.379
198.552
198.709
198.849
198.972
199.079
199.17
199.244
199.302
199.342
199.367
199.374
199.366
199.344
199.306
199.253
199.184
199.099
198.999
198.885
198.755
198.611
198.452
198.278
198.09
197.886
197.669
197.436
197.189
196.927
196.651
196.359
196.053
195.732
195.397
195.047
194.683
194.303
193.909
193.501
193.079
192.643
192.192
191.727
191.248
190.755
190.249
189.731
189.2
188.658
188.104
187.539
186.964
186.379
185.784
185.18
184.567
183.946
183.317
182.681
182.037
181.388
180.731
170.744
171.314
171.886
172.46
173.037
173.616
174.196
174.778
175.362
175.947
176.533
177.12
177.707
178.295
178.883
179.471
180.059
180.646
181.232
181.818
182.401
182.983
183.563
184.14
184.715
185.287
185.855
186.42
186.981
187.537
188.089
188.635
189.176
189.712
190.241
190.764
191.28
191.789
192.29
192.783
193.268
193.744
194.211
194.669
195.117
195.554
195.981
196.397
196.802
197.195
197.576
197.944
198.3
198.642
198.97
199.285
199.586
199.872
200.143
200.399
200.64
200.865
201.075
201.269
201.448
201.61
201.756
201.886
202
202.098
202.18
202.246
202.296
202.33
202.349
202.349
202.339
202.312
202.27
202.214
202.143
202.057
201.956
201.841
201.712
201.568
201.41
201.238
201.052
200.852
200.637
200.408
200.165
199.907
199.634
199.347
199.046
198.73
198.399
198.053
197.693
197.319
196.929
196.525
196.107
195.675
195.228
194.767
194.292
193.803
193.3
192.785
192.256
191.716
191.164
190.601
190.028
189.444
188.851
188.249
187.638
187.02
186.394
185.761
185.121
184.475
183.824
183.168
174.453
175.035
175.619
176.205
176.792
177.381
177.971
178.562
179.154
179.747
180.341
180.934
181.528
182.121
182.714
183.306
183.898
184.488
185.076
185.662
186.247
186.828
187.407
187.983
188.556
189.124
189.688
190.248
190.803
191.353
191.897
192.435
192.967
193.492
194.01
194.521
195.024
195.519
196.005
196.483
196.951
197.41
197.858
198.297
198.725
199.142
199.547
199.941
200.322
200.691
201.047
201.39
201.72
202.036
202.338
202.625
202.898
203.156
203.399
203.627
203.839
204.036
204.217
204.383
204.533
204.667
204.786
204.888
204.976
205.048
205.104
205.145
205.171
205.181
205.176
205.159
205.127
205.081
205.02
204.945
204.857
204.754
204.637
204.507
204.364
204.207
204.035
203.851
203.653
203.44
203.214
202.974
202.72
202.451
202.168
201.87
201.559
201.232
200.891
200.535
200.165
199.78
199.38
198.966
198.537
198.095
197.638
197.167
196.682
196.184
195.672
195.147
194.61
194.061
193.501
192.931
192.351
191.761
191.162
190.556
189.942
189.32
188.693
188.059
187.42
186.776
186.128
185.476
178.146
178.738
179.33
179.925
180.52
181.116
181.713
182.31
182.908
183.506
184.104
184.702
185.299
185.895
186.49
187.084
187.676
188.266
188.854
189.439
190.021
190.6
191.175
191.747
192.314
192.877
193.434
193.986
194.532
195.073
195.607
196.133
196.653
197.165
197.669
198.165
198.652
199.131
199.599
200.059
200.508
200.946
201.374
201.79
202.196
202.589
202.97
203.339
203.695
204.038
204.367
204.683
204.985
205.272
205.546
205.804
206.047
206.276
206.489
206.687
206.87
207.037
207.189
207.325
207.446
207.551
207.642
207.717
207.778
207.823
207.854
207.871
207.871
207.86
207.835
207.796
207.744
207.678
207.599
207.506
207.401
207.283
207.151
207.006
206.849
206.678
206.494
206.297
206.087
205.863
205.625
205.374
205.109
204.829
204.535
204.227
203.905
203.568
203.216
202.85
202.469
202.074
201.664
201.24
200.801
200.349
199.882
199.402
198.908
198.401
197.881
197.348
196.804
196.248
195.682
195.106
194.521
193.928
193.327
192.719
192.105
191.485
190.859
190.229
189.595
188.957
188.316
187.673
187.028
182.407
183.006
183.606
184.206
184.807
185.409
186.01
186.611
187.212
187.812
188.411
189.009
189.605
190.2
190.793
191.383
191.971
192.555
193.137
193.714
194.288
194.857
195.422
195.981
196.535
197.083
197.625
198.16
198.688
199.209
199.722
200.227
200.724
201.211
201.69
202.158
202.617
203.066
203.504
203.931
204.347
204.752
205.144
205.524
205.892
206.247
206.589
206.917
207.232
207.533
207.819
208.092
208.349
208.592
208.82
209.033
209.231
209.413
209.58
209.732
209.869
209.991
210.097
210.189
210.266
210.329
210.377
210.41
210.43
210.434
210.427
210.407
210.374
210.327
210.268
210.196
210.112
210.015
209.906
209.785
209.651
209.505
209.346
209.176
208.992
208.795
208.586
208.365
208.129
207.88
207.617
207.341
207.051
206.746
206.428
206.095
205.747
205.384
205.008
204.617
204.212
203.792
203.358
202.91
202.448
201.973
201.484
200.982
200.467
199.94
199.402
198.852
198.292
197.722
197.143
196.557
195.963
195.363
194.757
194.146
193.531
192.911
192.289
191.664
191.037
190.409
189.78
189.151
186.03
186.634
187.237
187.841
188.444
189.048
189.65
190.252
190.854
191.453
192.052
192.648
193.243
193.835
194.425
195.011
195.594
196.173
196.748
197.319
197.885
198.446
199.001
199.55
200.093
200.629
201.158
201.68
202.193
202.699
203.195
203.683
204.161
204.63
205.089
205.537
205.974
206.4
206.815
207.218
207.609
207.988
208.355
208.708
209.048
209.375
209.688
209.987
210.272
210.542
210.798
211.039
211.266
211.477
211.674
211.855
212.021
212.172
212.308
212.429
212.536
212.627
212.704
212.767
212.816
212.85
212.872
212.878
212.873
212.856
212.826
212.783
212.728
212.661
212.583
212.493
212.391
212.277
212.152
212.016
211.868
211.708
211.536
211.353
211.157
210.948
210.728
210.494
210.247
209.987
209.714
209.427
209.126
208.81
208.481
208.138
207.78
207.407
207.02
206.62
206.205
205.776
205.332
204.876
204.406
203.923
203.427
202.919
202.398
201.866
201.324
200.771
200.209
199.638
199.06
198.475
197.884
197.289
196.688
196.085
195.478
194.87
194.259
193.648
193.037
192.426
191.816
191.207
190.204
190.809
191.414
192.018
192.621
193.224
193.825
194.424
195.022
195.617
196.211
196.801
197.388
197.972
198.552
199.129
199.7
200.267
200.829
201.384
201.934
202.478
203.015
203.544
204.066
204.58
205.086
205.582
206.07
206.548
207.016
207.474
207.922
208.358
208.783
209.197
209.599
209.988
210.365
210.73
211.081
211.419
211.744
212.055
212.352
212.634
212.903
213.156
213.395
213.62
213.829
214.023
214.203
214.367
214.516
214.65
214.77
214.875
214.965
215.041
215.103
215.151
215.184
215.206
215.213
215.208
215.192
215.163
215.122
215.07
215.007
214.932
214.846
214.75
214.642
214.524
214.395
214.256
214.105
213.944
213.771
213.587
213.391
213.183
212.963
212.731
212.487
212.229
211.958
211.674
211.376
211.064
210.739
210.399
210.046
209.678
209.295
208.899
208.49
208.066
207.628
207.177
206.713
206.237
205.748
205.247
204.734
204.211
203.676
203.133
202.58
202.019
201.45
200.876
200.296
199.712
199.124
198.534
197.942
197.348
196.755
196.161
195.568
194.976
194.386
193.799
193.215
194.315
194.919
195.522
196.123
196.723
197.321
197.917
198.511
199.101
199.689
200.273
200.854
201.43
202.002
202.569
203.131
203.687
204.237
204.781
205.318
205.848
206.37
206.884
207.389
207.886
208.373
208.851
209.319
209.776
210.223
210.659
211.083
211.495
211.895
212.283
212.659
213.021
213.371
213.707
214.029
214.337
214.632
214.912
215.178
215.429
215.665
215.887
216.094
216.285
216.462
216.624
216.771
216.903
217.02
217.122
217.21
217.284
217.344
217.39
217.422
217.443
217.448
217.443
217.426
217.397
217.357
217.305
217.243
217.171
217.088
216.995
216.891
216.778
216.655
216.522
216.379
216.226
216.062
215.888
215.703
215.508
215.3
215.081
214.851
214.608
214.352
214.084
213.803
213.508
213.2
212.879
212.543
212.194
211.831
211.454
211.063
210.659
210.241
209.81
209.365
208.908
208.439
207.957
207.465
206.961
206.446
205.922
205.388
204.846
204.296
203.74
203.177
202.61
202.039
201.465
200.89
200.313
199.737
199.16
198.585
198.012
197.44
196.872
196.307
195.746
195.19
194.638
194.09
197.749
198.35
198.95
199.548
200.143
200.736
201.327
201.914
202.498
203.078
203.654
204.226
204.793
205.354
205.91
206.461
207.004
207.541
208.071
208.593
209.107
209.612
210.108
210.596
211.073
211.54
211.997
212.443
212.878
213.301
213.712
214.111
214.498
214.872
215.232
215.58
215.914
216.234
216.54
216.832
217.109
217.373
217.621
217.855
218.073
218.277
218.466
218.64
218.799
218.942
219.071
219.186
219.285
219.37
219.441
219.499
219.542
219.572
219.59
219.593
219.586
219.568
219.537
219.496
219.444
219.382
219.31
219.228
219.137
219.036
218.926
218.807
218.679
218.542
218.395
218.239
218.074
217.898
217.713
217.516
217.31
217.092
216.862
216.621
216.368
216.102
215.824
215.533
215.229
214.911
214.58
214.236
213.878
213.507
213.122
212.723
212.312
211.888
211.451
211.002