/*--------------------------------*- C++ -*----------------------------------*\
| =========                 |                                                 |
| \\      /  F ield         | OpenFOAM: The Open Source CFD Toolbox           |
|  \\    /   O peration     | Version:  v1706                                 |
|   \\  /    A nd           | Web:      www.OpenFOAM.com                      |
|    \\/     M anipulation  |                                                 |
\*---------------------------------------------------------------------------*/
FoamFile
{
    version     2.0;
    format      ascii;
    class       volScalarField;
    location    "3.7e-05";
    object      wallHeatFlux;
}
// * * * * * * * * * * * * * * * * * * * * * * * * * * * * * * * * * * * * * //

dimensions      [1 0 -3 0 0 0 0];


internalField   uniform 0;

boundaryField
{
    cone
    {
        type            calculated;
        value           nonuniform List<scalar> 
181
(
767.441
748.815
731.079
714.589
699.854
687.238
677.076
669.965
666.29
666.077
669.731
677.755
690.114
706.967
728.656
755.251
786.672
822.74
863.191
907.683
955.795
1007.03
1060.85
1116.65
1173.83
1231.76
1289.87
1347.61
1404.54
1460.35
1514.84
1568.01
1620.06
1671.37
1722.47
1774.01
1826.8
1881.7
1939.59
2001.34
2067.78
2139.68
2217.64
2302.12
2393.35
2491.3
2595.56
2705.26
2818.98
2934.58
3049.04
3158.34
3257.38
3339.98
3399.09
3427.35
3417.74
3366.69
3265.15
3109.33
2902.36
2650.41
2363.25
2052.58
1730.61
1408.78
1096.49
800.627
525.816
274.557
47.5188
-155.807
-336.676
-496.78
-638.006
-762.292
-871.528
-967.496
-1051.85
-1126.11
-1191.63
-1249.63
-1301.17
-1347.19
-1388.4
-1425.65
-1459.51
-1490.33
-1518.6
-1544.69
-1568.85
-1591.27
-1612.09
-1631.4
-1649.25
-1665.7
-1680.73
-1694.36
-1706.57
-1717.36
-1726.71
-1734.62
-1741.12
-1746.23
-1749.9
-1752.17
-1753.09
-1752.72
-1751.08
-1748.25
-1744.28
-1739.24
-1733.19
-1726.23
-1718.43
-1709.88
-1700.66
-1690.89
-1680.64
-1670.03
-1659.14
-1648.08
-1636.93
-1625.8
-1614.75
-1603.87
-1593.24
-1582.89
-1572.9
-1563.28
-1554.05
-1545.23
-1536.79
-1528.71
-1520.95
-1513.45
-1506.14
-1498.93
-1491.73
-1484.43
-1476.94
-1469.15
-1460.95
-1452.25
-1442.96
-1432.99
-1422.28
-1410.75
-1398.41
-1385.25
-1371.25
-1356.43
-1340.82
-1324.49
-1307.49
-1289.89
-1271.76
-1253.17
-1234.18
-1214.82
-1195.11
-1175.05
-1154.59
-1133.66
-1112.14
-1089.9
-1066.75
-1042.51
-1016.95
-989.86
-961.049
-930.348
-897.641
-862.88
-826.11
-787.477
-747.256
-705.856
-663.839
-621.912
-580.928
)
;
    }
    inlet
    {
        type            calculated;
        value           uniform 0;
    }
    rWedge
    {
        type            wedge;
    }
    lWedge
    {
        type            wedge;
    }
    outlet
    {
        type            calculated;
        value           nonuniform 0();
    }
    procBoundary1to0
    {
        type            processor;
        value           uniform 0;
    }
    procBoundary1to2
    {
        type            processor;
        value           uniform 0;
    }
}


// ************************************************************************* //
