/*--------------------------------*- C++ -*----------------------------------*\
| =========                 |                                                 |
| \\      /  F ield         | OpenFOAM: The Open Source CFD Toolbox           |
|  \\    /   O peration     | Version:  v1706                                 |
|   \\  /    A nd           | Web:      www.OpenFOAM.com                      |
|    \\/     M anipulation  |                                                 |
\*---------------------------------------------------------------------------*/
FoamFile
{
    version     2.0;
    format      ascii;
    class       volScalarField;
    location    "1.7e-05";
    object      mu;
}
// * * * * * * * * * * * * * * * * * * * * * * * * * * * * * * * * * * * * * //

dimensions      [1 -1 -1 0 0 0 0];


internalField   nonuniform List<scalar> 
30104
(
1.03511e-05
1.03511e-05
1.03511e-05
1.03511e-05
1.03511e-05
1.03511e-05
1.03511e-05
1.03512e-05
1.03512e-05
1.03512e-05
1.03512e-05
1.03512e-05
1.03512e-05
1.03512e-05
1.03513e-05
1.03513e-05
1.03513e-05
1.03512e-05
1.03512e-05
1.03512e-05
1.03512e-05
1.03512e-05
1.03513e-05
1.03513e-05
1.03513e-05
1.03513e-05
1.03513e-05
1.03513e-05
1.03513e-05
1.03513e-05
1.03513e-05
1.03513e-05
1.03513e-05
1.03513e-05
1.03513e-05
1.03513e-05
1.03513e-05
1.03513e-05
1.03513e-05
1.03513e-05
1.03513e-05
1.03513e-05
1.03513e-05
1.03513e-05
1.03513e-05
1.03513e-05
1.03513e-05
1.03513e-05
1.03514e-05
1.03514e-05
1.03514e-05
1.03514e-05
1.03514e-05
1.03514e-05
1.03514e-05
1.03514e-05
1.03514e-05
1.03514e-05
1.03514e-05
1.03514e-05
1.03514e-05
1.03514e-05
1.03514e-05
1.03514e-05
1.03514e-05
1.03514e-05
1.03514e-05
1.03514e-05
1.03514e-05
1.03515e-05
1.03515e-05
1.03515e-05
1.03515e-05
1.03515e-05
1.03515e-05
1.03515e-05
1.03515e-05
1.03515e-05
1.03515e-05
1.03515e-05
1.03515e-05
1.03515e-05
1.03515e-05
1.03515e-05
1.03515e-05
1.03516e-05
1.03516e-05
1.03516e-05
1.03516e-05
1.03516e-05
1.03516e-05
1.03516e-05
1.03516e-05
1.03516e-05
1.03516e-05
1.03516e-05
1.03516e-05
1.03516e-05
1.03516e-05
1.03517e-05
1.03517e-05
1.03517e-05
1.03517e-05
1.03517e-05
1.03517e-05
1.03517e-05
1.03517e-05
1.03517e-05
1.03517e-05
1.03517e-05
1.03518e-05
1.03518e-05
1.03518e-05
1.03518e-05
1.03518e-05
1.03518e-05
1.03518e-05
1.03518e-05
1.03518e-05
1.03518e-05
1.03519e-05
1.03519e-05
1.03519e-05
1.03519e-05
1.03519e-05
1.03519e-05
1.03519e-05
1.03519e-05
1.0352e-05
1.0352e-05
1.0352e-05
1.0352e-05
1.0352e-05
1.0352e-05
1.0352e-05
1.0352e-05
1.03521e-05
1.03521e-05
1.03521e-05
1.03521e-05
1.03521e-05
1.03521e-05
1.03521e-05
1.03522e-05
1.03522e-05
1.03522e-05
1.03522e-05
1.03522e-05
1.03522e-05
1.03522e-05
1.03523e-05
1.03523e-05
1.03523e-05
1.03523e-05
1.03523e-05
1.03524e-05
1.03524e-05
1.03524e-05
1.03524e-05
1.03524e-05
1.03524e-05
1.03525e-05
1.03525e-05
1.03525e-05
1.03525e-05
1.03525e-05
1.03526e-05
1.03526e-05
1.03526e-05
1.03526e-05
1.03526e-05
1.03527e-05
1.03527e-05
1.03527e-05
1.03527e-05
1.03528e-05
1.03528e-05
1.03528e-05
1.03528e-05
1.03529e-05
1.03529e-05
1.03529e-05
1.03529e-05
1.0353e-05
1.0353e-05
1.0353e-05
1.03531e-05
1.03531e-05
1.03531e-05
1.03532e-05
1.03532e-05
1.03532e-05
1.03533e-05
1.03533e-05
1.03533e-05
1.03534e-05
1.03534e-05
1.03534e-05
1.03535e-05
1.03535e-05
1.03536e-05
1.03536e-05
1.03536e-05
1.03537e-05
1.03537e-05
1.03538e-05
1.03538e-05
1.03539e-05
1.03538e-05
1.03534e-05
1.03515e-05
1.03515e-05
1.03516e-05
1.03516e-05
1.03517e-05
1.03518e-05
1.03518e-05
1.03519e-05
1.0352e-05
1.0352e-05
1.03521e-05
1.03522e-05
1.03523e-05
1.03524e-05
1.03525e-05
1.03526e-05
1.03527e-05
1.03525e-05
1.03525e-05
1.03526e-05
1.03526e-05
1.03526e-05
1.03526e-05
1.03527e-05
1.03527e-05
1.03527e-05
1.03527e-05
1.03528e-05
1.03528e-05
1.03528e-05
1.03528e-05
1.03529e-05
1.03529e-05
1.03529e-05
1.0353e-05
1.0353e-05
1.0353e-05
1.03531e-05
1.03531e-05
1.03531e-05
1.03531e-05
1.03532e-05
1.03532e-05
1.03532e-05
1.03533e-05
1.03533e-05
1.03533e-05
1.03534e-05
1.03534e-05
1.03534e-05
1.03535e-05
1.03535e-05
1.03535e-05
1.03536e-05
1.03536e-05
1.03536e-05
1.03537e-05
1.03537e-05
1.03537e-05
1.03538e-05
1.03538e-05
1.03538e-05
1.03539e-05
1.03539e-05
1.0354e-05
1.0354e-05
1.0354e-05
1.03541e-05
1.03541e-05
1.03542e-05
1.03542e-05
1.03543e-05
1.03543e-05
1.03543e-05
1.03544e-05
1.03544e-05
1.03545e-05
1.03545e-05
1.03546e-05
1.03546e-05
1.03547e-05
1.03547e-05
1.03548e-05
1.03548e-05
1.03549e-05
1.03549e-05
1.0355e-05
1.03551e-05
1.03551e-05
1.03552e-05
1.03552e-05
1.03553e-05
1.03554e-05
1.03554e-05
1.03555e-05
1.03555e-05
1.03556e-05
1.03557e-05
1.03557e-05
1.03558e-05
1.03559e-05
1.03559e-05
1.0356e-05
1.03561e-05
1.03562e-05
1.03562e-05
1.03563e-05
1.03564e-05
1.03565e-05
1.03566e-05
1.03566e-05
1.03567e-05
1.03568e-05
1.03569e-05
1.0357e-05
1.03571e-05
1.03571e-05
1.03572e-05
1.03573e-05
1.03574e-05
1.03575e-05
1.03576e-05
1.03577e-05
1.03578e-05
1.03579e-05
1.0358e-05
1.03581e-05
1.03582e-05
1.03583e-05
1.03584e-05
1.03585e-05
1.03586e-05
1.03587e-05
1.03588e-05
1.0359e-05
1.03591e-05
1.03592e-05
1.03593e-05
1.03595e-05
1.03596e-05
1.03597e-05
1.03598e-05
1.036e-05
1.03601e-05
1.03603e-05
1.03604e-05
1.03606e-05
1.03607e-05
1.03609e-05
1.0361e-05
1.03612e-05
1.03614e-05
1.03615e-05
1.03617e-05
1.03619e-05
1.0362e-05
1.03622e-05
1.03624e-05
1.03626e-05
1.03628e-05
1.03629e-05
1.03631e-05
1.03633e-05
1.03635e-05
1.03637e-05
1.03639e-05
1.03641e-05
1.03643e-05
1.03645e-05
1.03647e-05
1.03649e-05
1.03651e-05
1.03653e-05
1.03655e-05
1.03658e-05
1.0366e-05
1.03662e-05
1.03664e-05
1.03667e-05
1.03669e-05
1.03671e-05
1.03674e-05
1.03676e-05
1.03679e-05
1.03682e-05
1.03684e-05
1.03687e-05
1.0369e-05
1.03693e-05
1.03696e-05
1.03699e-05
1.03702e-05
1.03705e-05
1.03708e-05
1.03712e-05
1.03715e-05
1.03718e-05
1.03722e-05
1.03726e-05
1.03729e-05
1.03733e-05
1.03737e-05
1.03741e-05
1.03745e-05
1.03749e-05
1.03753e-05
1.03757e-05
1.03762e-05
1.03762e-05
1.03741e-05
1.03525e-05
1.03526e-05
1.03528e-05
1.0353e-05
1.03531e-05
1.03533e-05
1.03535e-05
1.03537e-05
1.0354e-05
1.03542e-05
1.03545e-05
1.03547e-05
1.0355e-05
1.03553e-05
1.03556e-05
1.03559e-05
1.03561e-05
1.03562e-05
1.03563e-05
1.03564e-05
1.03565e-05
1.03566e-05
1.03567e-05
1.03567e-05
1.03569e-05
1.0357e-05
1.03571e-05
1.03572e-05
1.03573e-05
1.03574e-05
1.03575e-05
1.03576e-05
1.03577e-05
1.03578e-05
1.03579e-05
1.03581e-05
1.03582e-05
1.03583e-05
1.03584e-05
1.03585e-05
1.03586e-05
1.03588e-05
1.03589e-05
1.0359e-05
1.03591e-05
1.03592e-05
1.03594e-05
1.03595e-05
1.03596e-05
1.03598e-05
1.03599e-05
1.036e-05
1.03602e-05
1.03603e-05
1.03604e-05
1.03606e-05
1.03607e-05
1.03609e-05
1.0361e-05
1.03612e-05
1.03613e-05
1.03615e-05
1.03616e-05
1.03618e-05
1.0362e-05
1.03621e-05
1.03623e-05
1.03625e-05
1.03626e-05
1.03628e-05
1.0363e-05
1.03632e-05
1.03634e-05
1.03636e-05
1.03638e-05
1.0364e-05
1.03642e-05
1.03644e-05
1.03646e-05
1.03648e-05
1.0365e-05
1.03652e-05
1.03654e-05
1.03657e-05
1.03659e-05
1.03661e-05
1.03664e-05
1.03666e-05
1.03668e-05
1.03671e-05
1.03673e-05
1.03676e-05
1.03679e-05
1.03681e-05
1.03684e-05
1.03687e-05
1.0369e-05
1.03693e-05
1.03695e-05
1.03698e-05
1.03702e-05
1.03705e-05
1.03708e-05
1.03711e-05
1.03714e-05
1.03718e-05
1.03721e-05
1.03725e-05
1.03728e-05
1.03732e-05
1.03736e-05
1.03739e-05
1.03743e-05
1.03747e-05
1.03751e-05
1.03755e-05
1.03759e-05
1.03763e-05
1.03767e-05
1.03772e-05
1.03776e-05
1.0378e-05
1.03785e-05
1.03789e-05
1.03794e-05
1.03799e-05
1.03803e-05
1.03808e-05
1.03813e-05
1.03818e-05
1.03823e-05
1.03828e-05
1.03833e-05
1.03838e-05
1.03844e-05
1.03849e-05
1.03855e-05
1.03861e-05
1.03867e-05
1.03873e-05
1.03879e-05
1.03885e-05
1.03892e-05
1.03898e-05
1.03905e-05
1.03912e-05
1.03919e-05
1.03926e-05
1.03933e-05
1.03941e-05
1.03948e-05
1.03956e-05
1.03964e-05
1.03972e-05
1.0398e-05
1.03988e-05
1.03997e-05
1.04006e-05
1.04014e-05
1.04023e-05
1.04032e-05
1.04042e-05
1.04051e-05
1.0406e-05
1.0407e-05
1.0408e-05
1.04089e-05
1.04099e-05
1.04109e-05
1.04119e-05
1.0413e-05
1.0414e-05
1.0415e-05
1.04161e-05
1.04172e-05
1.04183e-05
1.04194e-05
1.04206e-05
1.04217e-05
1.04229e-05
1.04241e-05
1.04254e-05
1.04267e-05
1.0428e-05
1.04293e-05
1.04307e-05
1.04321e-05
1.04335e-05
1.0435e-05
1.04366e-05
1.04382e-05
1.04398e-05
1.04415e-05
1.04432e-05
1.0445e-05
1.04468e-05
1.04487e-05
1.04506e-05
1.04526e-05
1.04547e-05
1.04568e-05
1.04589e-05
1.04611e-05
1.04634e-05
1.04657e-05
1.0468e-05
1.04704e-05
1.04717e-05
1.04646e-05
1.0355e-05
1.03554e-05
1.03558e-05
1.03563e-05
1.03567e-05
1.03573e-05
1.03578e-05
1.03584e-05
1.0359e-05
1.03596e-05
1.03603e-05
1.0361e-05
1.03618e-05
1.03625e-05
1.03633e-05
1.03641e-05
1.03659e-05
1.03662e-05
1.03665e-05
1.03668e-05
1.03671e-05
1.03674e-05
1.03677e-05
1.0368e-05
1.03683e-05
1.03686e-05
1.0369e-05
1.03693e-05
1.03697e-05
1.037e-05
1.03704e-05
1.03707e-05
1.03711e-05
1.03715e-05
1.03718e-05
1.03722e-05
1.03726e-05
1.0373e-05
1.03734e-05
1.03738e-05
1.03742e-05
1.03746e-05
1.0375e-05
1.03754e-05
1.03758e-05
1.03762e-05
1.03766e-05
1.03771e-05
1.03775e-05
1.0378e-05
1.03784e-05
1.03789e-05
1.03793e-05
1.03798e-05
1.03803e-05
1.03808e-05
1.03813e-05
1.03818e-05
1.03823e-05
1.03828e-05
1.03833e-05
1.03839e-05
1.03845e-05
1.0385e-05
1.03856e-05
1.03862e-05
1.03868e-05
1.03874e-05
1.0388e-05
1.03887e-05
1.03893e-05
1.039e-05
1.03907e-05
1.03914e-05
1.03921e-05
1.03928e-05
1.03935e-05
1.03943e-05
1.0395e-05
1.03958e-05
1.03966e-05
1.03974e-05
1.03982e-05
1.0399e-05
1.03998e-05
1.04007e-05
1.04015e-05
1.04024e-05
1.04033e-05
1.04042e-05
1.04051e-05
1.0406e-05
1.0407e-05
1.0408e-05
1.0409e-05
1.041e-05
1.0411e-05
1.04121e-05
1.04132e-05
1.04143e-05
1.04154e-05
1.04165e-05
1.04177e-05
1.04189e-05
1.04201e-05
1.04214e-05
1.04227e-05
1.0424e-05
1.04253e-05
1.04267e-05
1.04281e-05
1.04295e-05
1.0431e-05
1.04325e-05
1.0434e-05
1.04355e-05
1.04371e-05
1.04387e-05
1.04403e-05
1.0442e-05
1.04437e-05
1.04454e-05
1.04471e-05
1.04489e-05
1.04507e-05
1.04525e-05
1.04543e-05
1.04562e-05
1.04581e-05
1.046e-05
1.0462e-05
1.0464e-05
1.0466e-05
1.04681e-05
1.04702e-05
1.04723e-05
1.04745e-05
1.04768e-05
1.04791e-05
1.04814e-05
1.04839e-05
1.04863e-05
1.04889e-05
1.04915e-05
1.04941e-05
1.04969e-05
1.04997e-05
1.05026e-05
1.05055e-05
1.05086e-05
1.05117e-05
1.05149e-05
1.05183e-05
1.05216e-05
1.05251e-05
1.05287e-05
1.05323e-05
1.05361e-05
1.05399e-05
1.05438e-05
1.05478e-05
1.05518e-05
1.05559e-05
1.05601e-05
1.05644e-05
1.05687e-05
1.0573e-05
1.05774e-05
1.05818e-05
1.05863e-05
1.05908e-05
1.05954e-05
1.06e-05
1.06046e-05
1.06093e-05
1.0614e-05
1.06188e-05
1.06236e-05
1.06285e-05
1.06334e-05
1.06385e-05
1.06436e-05
1.06488e-05
1.06541e-05
1.06595e-05
1.0665e-05
1.06706e-05
1.06764e-05
1.06823e-05
1.06883e-05
1.06945e-05
1.07009e-05
1.07075e-05
1.07142e-05
1.07211e-05
1.07283e-05
1.07357e-05
1.07433e-05
1.07512e-05
1.07593e-05
1.07677e-05
1.07763e-05
1.07853e-05
1.07944e-05
1.08039e-05
1.08137e-05
1.08237e-05
1.0833e-05
1.08121e-05
1.03612e-05
1.03622e-05
1.03633e-05
1.03644e-05
1.03657e-05
1.0367e-05
1.03684e-05
1.03698e-05
1.03714e-05
1.0373e-05
1.03747e-05
1.03764e-05
1.03783e-05
1.03802e-05
1.03822e-05
1.03918e-05
1.03926e-05
1.03934e-05
1.03942e-05
1.03951e-05
1.03959e-05
1.03969e-05
1.03978e-05
1.03987e-05
1.03997e-05
1.04007e-05
1.04017e-05
1.04028e-05
1.04039e-05
1.0405e-05
1.04061e-05
1.04072e-05
1.04083e-05
1.04095e-05
1.04107e-05
1.04119e-05
1.04131e-05
1.04143e-05
1.04155e-05
1.04168e-05
1.0418e-05
1.04193e-05
1.04206e-05
1.04219e-05
1.04232e-05
1.04246e-05
1.04259e-05
1.04273e-05
1.04287e-05
1.04302e-05
1.04316e-05
1.04331e-05
1.04346e-05
1.04361e-05
1.04376e-05
1.04392e-05
1.04408e-05
1.04425e-05
1.04441e-05
1.04458e-05
1.04476e-05
1.04494e-05
1.04512e-05
1.0453e-05
1.04549e-05
1.04569e-05
1.04589e-05
1.04609e-05
1.04629e-05
1.04651e-05
1.04672e-05
1.04694e-05
1.04717e-05
1.0474e-05
1.04763e-05
1.04787e-05
1.04812e-05
1.04837e-05
1.04862e-05
1.04888e-05
1.04914e-05
1.04941e-05
1.04969e-05
1.04997e-05
1.05025e-05
1.05054e-05
1.05083e-05
1.05113e-05
1.05144e-05
1.05175e-05
1.05206e-05
1.05239e-05
1.05272e-05
1.05305e-05
1.05339e-05
1.05374e-05
1.0541e-05
1.05446e-05
1.05483e-05
1.05521e-05
1.0556e-05
1.056e-05
1.05641e-05
1.05683e-05
1.05725e-05
1.05769e-05
1.05814e-05
1.0586e-05
1.05908e-05
1.05956e-05
1.06006e-05
1.06057e-05
1.06109e-05
1.06162e-05
1.06217e-05
1.06273e-05
1.0633e-05
1.06389e-05
1.06449e-05
1.06509e-05
1.06571e-05
1.06634e-05
1.06698e-05
1.06763e-05
1.06829e-05
1.06896e-05
1.06964e-05
1.07032e-05
1.07101e-05
1.07171e-05
1.07242e-05
1.07314e-05
1.07387e-05
1.07461e-05
1.07536e-05
1.07613e-05
1.07691e-05
1.0777e-05
1.07851e-05
1.07933e-05
1.08018e-05
1.08104e-05
1.08192e-05
1.08282e-05
1.08374e-05
1.08469e-05
1.08566e-05
1.08666e-05
1.08769e-05
1.08874e-05
1.08982e-05
1.09093e-05
1.09208e-05
1.09325e-05
1.09446e-05
1.0957e-05
1.09698e-05
1.09829e-05
1.09963e-05
1.10101e-05
1.10242e-05
1.10387e-05
1.10534e-05
1.10685e-05
1.10839e-05
1.10996e-05
1.11155e-05
1.11316e-05
1.1148e-05
1.11645e-05
1.11812e-05
1.11979e-05
1.12147e-05
1.12317e-05
1.12487e-05
1.12658e-05
1.12831e-05
1.13004e-05
1.13179e-05
1.13355e-05
1.13533e-05
1.13712e-05
1.13894e-05
1.14077e-05
1.14262e-05
1.1445e-05
1.14641e-05
1.14835e-05
1.15033e-05
1.15235e-05
1.15441e-05
1.15651e-05
1.15867e-05
1.16089e-05
1.16317e-05
1.16551e-05
1.16793e-05
1.17043e-05
1.17301e-05
1.17568e-05
1.17843e-05
1.18129e-05
1.18426e-05
1.18729e-05
1.19052e-05
1.19368e-05
1.19754e-05
1.19464e-05
1.03739e-05
1.03762e-05
1.03787e-05
1.03813e-05
1.03842e-05
1.03872e-05
1.03904e-05
1.03937e-05
1.03973e-05
1.0401e-05
1.0405e-05
1.04091e-05
1.04133e-05
1.04178e-05
1.04223e-05
1.04271e-05
1.04577e-05
1.04599e-05
1.04621e-05
1.04644e-05
1.04668e-05
1.04693e-05
1.04718e-05
1.04744e-05
1.04771e-05
1.04798e-05
1.04826e-05
1.04855e-05
1.04885e-05
1.04915e-05
1.04945e-05
1.04977e-05
1.05009e-05
1.05041e-05
1.05074e-05
1.05108e-05
1.05142e-05
1.05177e-05
1.05212e-05
1.05248e-05
1.05284e-05
1.05321e-05
1.05358e-05
1.05396e-05
1.05434e-05
1.05473e-05
1.05512e-05
1.05552e-05
1.05593e-05
1.05635e-05
1.05677e-05
1.0572e-05
1.05763e-05
1.05808e-05
1.05853e-05
1.05899e-05
1.05946e-05
1.05994e-05
1.06042e-05
1.06092e-05
1.06143e-05
1.06195e-05
1.06248e-05
1.06302e-05
1.06358e-05
1.06414e-05
1.06472e-05
1.06531e-05
1.06592e-05
1.06654e-05
1.06717e-05
1.06782e-05
1.06849e-05
1.06917e-05
1.06986e-05
1.07057e-05
1.0713e-05
1.07204e-05
1.07281e-05
1.07358e-05
1.07438e-05
1.07519e-05
1.07602e-05
1.07686e-05
1.07772e-05
1.0786e-05
1.07949e-05
1.08039e-05
1.08131e-05
1.08225e-05
1.08319e-05
1.08415e-05
1.08513e-05
1.08612e-05
1.08712e-05
1.08814e-05
1.08918e-05
1.09024e-05
1.09132e-05
1.09242e-05
1.09354e-05
1.09468e-05
1.09585e-05
1.09704e-05
1.09826e-05
1.09951e-05
1.10079e-05
1.1021e-05
1.10344e-05
1.10482e-05
1.10623e-05
1.10768e-05
1.10916e-05
1.11069e-05
1.11225e-05
1.11384e-05
1.11548e-05
1.11716e-05
1.11888e-05
1.12064e-05
1.12243e-05
1.12427e-05
1.12614e-05
1.12804e-05
1.12998e-05
1.13196e-05
1.13396e-05
1.13598e-05
1.13803e-05
1.14009e-05
1.14217e-05
1.14427e-05
1.14638e-05
1.1485e-05
1.15065e-05
1.15281e-05
1.15499e-05
1.15719e-05
1.15942e-05
1.16167e-05
1.16395e-05
1.16625e-05
1.16859e-05
1.17096e-05
1.17336e-05
1.17581e-05
1.17831e-05
1.18085e-05
1.18344e-05
1.1861e-05
1.18881e-05
1.1916e-05
1.19445e-05
1.19739e-05
1.20041e-05
1.20351e-05
1.20671e-05
1.21e-05
1.2134e-05
1.21689e-05
1.22049e-05
1.2242e-05
1.22801e-05
1.23193e-05
1.23595e-05
1.24007e-05
1.24428e-05
1.24859e-05
1.25298e-05
1.25745e-05
1.262e-05
1.2666e-05
1.2712e-05
1.27577e-05
1.2803e-05
1.2848e-05
1.28925e-05
1.29366e-05
1.29802e-05
1.30232e-05
1.30657e-05
1.31076e-05
1.31489e-05
1.31895e-05
1.32294e-05
1.32686e-05
1.33072e-05
1.3345e-05
1.33821e-05
1.34183e-05
1.34539e-05
1.34885e-05
1.35224e-05
1.35554e-05
1.35876e-05
1.36189e-05
1.36493e-05
1.36788e-05
1.37073e-05
1.37352e-05
1.37616e-05
1.37879e-05
1.38122e-05
1.3837e-05
1.38592e-05
1.38822e-05
1.39031e-05
1.39279e-05
1.38992e-05
1.04066e-05
1.04121e-05
1.0418e-05
1.04242e-05
1.04309e-05
1.04381e-05
1.04456e-05
1.04535e-05
1.04618e-05
1.04705e-05
1.04796e-05
1.04891e-05
1.0499e-05
1.06178e-05
1.06234e-05
1.06292e-05
1.06352e-05
1.06414e-05
1.06478e-05
1.06544e-05
1.06612e-05
1.06682e-05
1.06753e-05
1.06827e-05
1.06903e-05
1.0698e-05
1.07059e-05
1.0714e-05
1.07223e-05
1.07308e-05
1.07394e-05
1.07482e-05
1.07572e-05
1.07663e-05
1.07755e-05
1.07849e-05
1.07945e-05
1.08042e-05
1.0814e-05
1.0824e-05
1.08341e-05
1.08444e-05
1.08549e-05
1.08655e-05
1.08763e-05
1.08873e-05
1.08985e-05
1.09098e-05
1.09213e-05
1.09331e-05
1.0945e-05
1.0957e-05
1.09693e-05
1.09818e-05
1.09944e-05
1.10073e-05
1.10203e-05
1.10336e-05
1.10471e-05
1.10609e-05
1.10749e-05
1.10892e-05
1.11037e-05
1.11185e-05
1.11337e-05
1.11491e-05
1.11649e-05
1.1181e-05
1.11974e-05
1.12143e-05
1.12315e-05
1.1249e-05
1.1267e-05
1.12854e-05
1.13042e-05
1.13234e-05
1.1343e-05
1.1363e-05
1.13835e-05
1.14043e-05
1.14256e-05
1.14473e-05
1.14694e-05
1.14919e-05
1.15148e-05
1.1538e-05
1.15615e-05
1.15854e-05
1.16096e-05
1.16339e-05
1.16585e-05
1.16834e-05
1.17085e-05
1.17339e-05
1.17596e-05
1.17855e-05
1.18117e-05
1.18383e-05
1.18651e-05
1.18923e-05
1.19199e-05
1.19478e-05
1.19761e-05
1.20048e-05
1.20339e-05
1.20636e-05
1.20937e-05
1.21244e-05
1.21557e-05
1.21875e-05
1.22201e-05
1.22533e-05
1.22873e-05
1.2322e-05
1.23575e-05
1.23938e-05
1.24309e-05
1.24689e-05
1.25076e-05
1.25472e-05
1.25875e-05
1.26286e-05
1.26704e-05
1.27129e-05
1.2756e-05
1.27998e-05
1.28436e-05
1.28873e-05
1.29305e-05
1.29734e-05
1.3016e-05
1.30581e-05
1.30997e-05
1.31409e-05
1.31817e-05
1.32219e-05
1.32616e-05
1.33007e-05
1.33393e-05
1.33774e-05
1.34149e-05
1.34518e-05
1.34881e-05
1.35238e-05
1.35588e-05
1.35932e-05
1.36268e-05
1.36597e-05
1.36918e-05
1.37231e-05
1.37534e-05
1.37829e-05
1.38114e-05
1.3839e-05
1.38655e-05
1.3891e-05
1.39155e-05
1.3939e-05
1.39613e-05
1.39827e-05
1.40031e-05
1.40224e-05
1.40408e-05
1.40582e-05
1.40747e-05
1.40904e-05
1.41051e-05
1.41191e-05
1.41322e-05
1.41448e-05
1.41568e-05
1.41683e-05
1.41794e-05
1.41901e-05
1.42004e-05
1.42103e-05
1.42199e-05
1.42292e-05
1.42382e-05
1.42469e-05
1.42554e-05
1.42635e-05
1.42714e-05
1.4279e-05
1.42863e-05
1.42933e-05
1.43002e-05
1.43066e-05
1.43129e-05
1.43187e-05
1.43246e-05
1.43299e-05
1.43353e-05
1.43402e-05
1.43453e-05
1.43499e-05
1.43545e-05
1.4359e-05
1.43633e-05
1.43679e-05
1.43719e-05
1.43769e-05
1.43802e-05
1.43853e-05
1.43903e-05
1.43823e-05
1.04824e-05
1.0495e-05
1.05086e-05
1.05229e-05
1.05382e-05
1.05544e-05
1.05715e-05
1.05894e-05
1.06081e-05
1.06277e-05
1.06479e-05
1.06689e-05
1.06905e-05
1.09803e-05
1.09936e-05
1.10073e-05
1.10215e-05
1.1036e-05
1.1051e-05
1.10665e-05
1.10823e-05
1.10986e-05
1.11153e-05
1.11323e-05
1.11497e-05
1.11676e-05
1.11857e-05
1.12043e-05
1.12231e-05
1.12424e-05
1.12619e-05
1.12818e-05
1.1302e-05
1.13224e-05
1.13432e-05
1.13643e-05
1.13857e-05
1.14073e-05
1.14293e-05
1.14515e-05
1.1474e-05
1.14969e-05
1.152e-05
1.15434e-05
1.15672e-05
1.15913e-05
1.16158e-05
1.16405e-05
1.16657e-05
1.16912e-05
1.1717e-05
1.17432e-05
1.17697e-05
1.17966e-05
1.18237e-05
1.18511e-05
1.18788e-05
1.19068e-05
1.19351e-05
1.19638e-05
1.19927e-05
1.2022e-05
1.20517e-05
1.20817e-05
1.2112e-05
1.21427e-05
1.21738e-05
1.22053e-05
1.22372e-05
1.22695e-05
1.23022e-05
1.23354e-05
1.2369e-05
1.24031e-05
1.24377e-05
1.24727e-05
1.25084e-05
1.25445e-05
1.25812e-05
1.26185e-05
1.26563e-05
1.26946e-05
1.27335e-05
1.27729e-05
1.28127e-05
1.2853e-05
1.28937e-05
1.29348e-05
1.29761e-05
1.3017e-05
1.30575e-05
1.30977e-05
1.31373e-05
1.31764e-05
1.32151e-05
1.32531e-05
1.32906e-05
1.33275e-05
1.33638e-05
1.33996e-05
1.34348e-05
1.34694e-05
1.35034e-05
1.35369e-05
1.35699e-05
1.36022e-05
1.36341e-05
1.36654e-05
1.36961e-05
1.37261e-05
1.37556e-05
1.37844e-05
1.38124e-05
1.38397e-05
1.38662e-05
1.38918e-05
1.39165e-05
1.39403e-05
1.39632e-05
1.3985e-05
1.40059e-05
1.40258e-05
1.40447e-05
1.40627e-05
1.40797e-05
1.40958e-05
1.41111e-05
1.41258e-05
1.41398e-05
1.41533e-05
1.41663e-05
1.41787e-05
1.41907e-05
1.42023e-05
1.42134e-05
1.42242e-05
1.42345e-05
1.42444e-05
1.4254e-05
1.4263e-05
1.42717e-05
1.42799e-05
1.42877e-05
1.4295e-05
1.43019e-05
1.43083e-05
1.43143e-05
1.43199e-05
1.4325e-05
1.43298e-05
1.43343e-05
1.43385e-05
1.43424e-05
1.43462e-05
1.43498e-05
1.43532e-05
1.43566e-05
1.43599e-05
1.43632e-05
1.43665e-05
1.43698e-05
1.43731e-05
1.43765e-05
1.43798e-05
1.43832e-05
1.43866e-05
1.43901e-05
1.43935e-05
1.43969e-05
1.44002e-05
1.44036e-05
1.44069e-05
1.44102e-05
1.44133e-05
1.44164e-05
1.44194e-05
1.44223e-05
1.4425e-05
1.44276e-05
1.443e-05
1.44322e-05
1.44343e-05
1.44362e-05
1.44379e-05
1.44395e-05
1.4441e-05
1.44423e-05
1.44435e-05
1.44445e-05
1.44456e-05
1.44464e-05
1.44474e-05
1.44482e-05
1.44491e-05
1.44498e-05
1.44508e-05
1.44515e-05
1.44525e-05
1.44532e-05
1.44544e-05
1.44551e-05
1.44564e-05
1.44571e-05
1.44583e-05
1.44598e-05
1.4458e-05
1.0626e-05
1.06523e-05
1.06803e-05
1.07099e-05
1.07413e-05
1.07742e-05
1.08088e-05
1.08449e-05
1.08824e-05
1.09212e-05
1.09613e-05
1.10024e-05
1.10446e-05
1.10876e-05
1.169e-05
1.17156e-05
1.17418e-05
1.17687e-05
1.17964e-05
1.18247e-05
1.18537e-05
1.18834e-05
1.19138e-05
1.19448e-05
1.19764e-05
1.20086e-05
1.20413e-05
1.20744e-05
1.2108e-05
1.2142e-05
1.21764e-05
1.22112e-05
1.22463e-05
1.22818e-05
1.23175e-05
1.23534e-05
1.23895e-05
1.24259e-05
1.24623e-05
1.24989e-05
1.25357e-05
1.25725e-05
1.26095e-05
1.26466e-05
1.26838e-05
1.27212e-05
1.27588e-05
1.27965e-05
1.28345e-05
1.28726e-05
1.2911e-05
1.29495e-05
1.29882e-05
1.3027e-05
1.3066e-05
1.31049e-05
1.31433e-05
1.31813e-05
1.32189e-05
1.32559e-05
1.32925e-05
1.33284e-05
1.33637e-05
1.33984e-05
1.34325e-05
1.3466e-05
1.34988e-05
1.35309e-05
1.35624e-05
1.35933e-05
1.36236e-05
1.36532e-05
1.36823e-05
1.37107e-05
1.37385e-05
1.37657e-05
1.37922e-05
1.3818e-05
1.38432e-05
1.38676e-05
1.38912e-05
1.39141e-05
1.39361e-05
1.39573e-05
1.39776e-05
1.3997e-05
1.40155e-05
1.40331e-05
1.40498e-05
1.40658e-05
1.40811e-05
1.40958e-05
1.411e-05
1.41236e-05
1.41369e-05
1.41497e-05
1.41622e-05
1.41743e-05
1.41861e-05
1.41976e-05
1.42088e-05
1.42197e-05
1.42303e-05
1.42405e-05
1.42503e-05
1.42596e-05
1.42686e-05
1.42771e-05
1.42851e-05
1.42926e-05
1.42996e-05
1.43061e-05
1.43121e-05
1.43177e-05
1.43229e-05
1.43277e-05
1.43322e-05
1.43365e-05
1.43405e-05
1.43444e-05
1.43482e-05
1.43519e-05
1.43555e-05
1.43591e-05
1.43626e-05
1.43662e-05
1.43697e-05
1.43732e-05
1.43767e-05
1.43802e-05
1.43837e-05
1.43871e-05
1.43905e-05
1.43938e-05
1.4397e-05
1.44e-05
1.44029e-05
1.44057e-05
1.44083e-05
1.44107e-05
1.4413e-05
1.4415e-05
1.44169e-05
1.44186e-05
1.44202e-05
1.44216e-05
1.4423e-05
1.44242e-05
1.44253e-05
1.44264e-05
1.44275e-05
1.44285e-05
1.44296e-05
1.44307e-05
1.44318e-05
1.44329e-05
1.44341e-05
1.44353e-05
1.44365e-05
1.44378e-05
1.44392e-05
1.44405e-05
1.44419e-05
1.44432e-05
1.44446e-05
1.44459e-05
1.44472e-05
1.44484e-05
1.44496e-05
1.44508e-05
1.44519e-05
1.44529e-05
1.44539e-05
1.44549e-05
1.44558e-05
1.44566e-05
1.44575e-05
1.44582e-05
1.4459e-05
1.44597e-05
1.44604e-05
1.4461e-05
1.44617e-05
1.44623e-05
1.4463e-05
1.44635e-05
1.44642e-05
1.44648e-05
1.44655e-05
1.44661e-05
1.44668e-05
1.44675e-05
1.44682e-05
1.44689e-05
1.44698e-05
1.44705e-05
1.44715e-05
1.44723e-05
1.44733e-05
1.44742e-05
1.44753e-05
1.44762e-05
1.44774e-05
1.44784e-05
1.44796e-05
1.4481e-05
1.44808e-05
1.09564e-05
1.10101e-05
1.10665e-05
1.11255e-05
1.11871e-05
1.12511e-05
1.13176e-05
1.13863e-05
1.14567e-05
1.15285e-05
1.16012e-05
1.16745e-05
1.17479e-05
1.18212e-05
1.27733e-05
1.28087e-05
1.28446e-05
1.2881e-05
1.29179e-05
1.29554e-05
1.29932e-05
1.30315e-05
1.30702e-05
1.31092e-05
1.31485e-05
1.31877e-05
1.32267e-05
1.32653e-05
1.33035e-05
1.33412e-05
1.33783e-05
1.34148e-05
1.34505e-05
1.34855e-05
1.35196e-05
1.3553e-05
1.35854e-05
1.3617e-05
1.36478e-05
1.36776e-05
1.37066e-05
1.37347e-05
1.37619e-05
1.37883e-05
1.38138e-05
1.38384e-05
1.38622e-05
1.38851e-05
1.39071e-05
1.39283e-05
1.39486e-05
1.3968e-05
1.39866e-05
1.40043e-05
1.40211e-05
1.40373e-05
1.40527e-05
1.40676e-05
1.40818e-05
1.40956e-05
1.41088e-05
1.41216e-05
1.4134e-05
1.41459e-05
1.41576e-05
1.41689e-05
1.41799e-05
1.41906e-05
1.4201e-05
1.4211e-05
1.42207e-05
1.42301e-05
1.42391e-05
1.42476e-05
1.42558e-05
1.42635e-05
1.42707e-05
1.42775e-05
1.42839e-05
1.42899e-05
1.42955e-05
1.43008e-05
1.43057e-05
1.43105e-05
1.43151e-05
1.43194e-05
1.43238e-05
1.4328e-05
1.43322e-05
1.43363e-05
1.43405e-05
1.43446e-05
1.43488e-05
1.43529e-05
1.4357e-05
1.43611e-05
1.43651e-05
1.4369e-05
1.43728e-05
1.43764e-05
1.43799e-05
1.43831e-05
1.43861e-05
1.43889e-05
1.43915e-05
1.43939e-05
1.43961e-05
1.43981e-05
1.44e-05
1.44017e-05
1.44034e-05
1.4405e-05
1.44065e-05
1.44081e-05
1.44096e-05
1.44112e-05
1.44127e-05
1.44143e-05
1.4416e-05
1.44178e-05
1.44195e-05
1.44214e-05
1.44232e-05
1.44251e-05
1.44269e-05
1.44288e-05
1.44306e-05
1.44323e-05
1.4434e-05
1.44356e-05
1.44371e-05
1.44385e-05
1.44398e-05
1.4441e-05
1.4442e-05
1.4443e-05
1.44438e-05
1.44446e-05
1.44453e-05
1.44459e-05
1.44465e-05
1.4447e-05
1.44474e-05
1.44478e-05
1.44483e-05
1.44487e-05
1.44491e-05
1.44495e-05
1.445e-05
1.44505e-05
1.4451e-05
1.44516e-05
1.44523e-05
1.44529e-05
1.44537e-05
1.44545e-05
1.44553e-05
1.44562e-05
1.44571e-05
1.44581e-05
1.44591e-05
1.44602e-05
1.44612e-05
1.44623e-05
1.44634e-05
1.44645e-05
1.44656e-05
1.44667e-05
1.44678e-05
1.44689e-05
1.447e-05
1.4471e-05
1.4472e-05
1.4473e-05
1.44739e-05
1.44748e-05
1.44757e-05
1.44765e-05
1.44774e-05
1.44781e-05
1.44789e-05
1.44797e-05
1.44805e-05
1.44812e-05
1.4482e-05
1.44828e-05
1.44837e-05
1.44845e-05
1.44854e-05
1.44863e-05
1.44874e-05
1.44883e-05
1.44895e-05
1.44905e-05
1.44917e-05
1.44929e-05
1.44942e-05
1.44955e-05
1.44969e-05
1.44982e-05
1.44997e-05
1.45011e-05
1.45027e-05
1.45042e-05
1.45058e-05
1.45077e-05
1.45077e-05
1.15915e-05
1.16885e-05
1.1788e-05
1.18897e-05
1.1993e-05
1.20977e-05
1.22032e-05
1.23091e-05
1.24146e-05
1.25191e-05
1.26219e-05
1.27225e-05
1.28204e-05
1.29151e-05
1.37906e-05
1.38121e-05
1.38332e-05
1.38539e-05
1.3874e-05
1.38936e-05
1.39128e-05
1.39314e-05
1.39495e-05
1.3967e-05
1.3984e-05
1.40004e-05
1.40164e-05
1.40319e-05
1.40471e-05
1.40618e-05
1.4076e-05
1.40899e-05
1.41034e-05
1.41165e-05
1.41293e-05
1.41417e-05
1.41537e-05
1.41654e-05
1.41767e-05
1.41877e-05
1.41981e-05
1.42082e-05
1.42178e-05
1.42269e-05
1.42355e-05
1.42436e-05
1.42512e-05
1.42584e-05
1.42651e-05
1.42713e-05
1.42772e-05
1.42828e-05
1.4288e-05
1.42929e-05
1.42977e-05
1.43022e-05
1.43067e-05
1.4311e-05
1.43153e-05
1.43195e-05
1.43236e-05
1.43278e-05
1.43319e-05
1.43358e-05
1.43398e-05
1.43436e-05
1.43473e-05
1.43508e-05
1.43541e-05
1.43573e-05
1.43603e-05
1.43631e-05
1.43657e-05
1.43682e-05
1.43705e-05
1.43728e-05
1.43749e-05
1.43769e-05
1.4379e-05
1.4381e-05
1.4383e-05
1.4385e-05
1.43871e-05
1.43893e-05
1.43914e-05
1.43937e-05
1.43961e-05
1.43984e-05
1.44008e-05
1.44033e-05
1.44056e-05
1.44079e-05
1.44102e-05
1.44124e-05
1.44144e-05
1.44164e-05
1.44182e-05
1.44198e-05
1.44213e-05
1.44228e-05
1.44239e-05
1.4425e-05
1.44261e-05
1.4427e-05
1.44279e-05
1.44287e-05
1.44294e-05
1.44302e-05
1.44309e-05
1.44317e-05
1.44325e-05
1.44333e-05
1.44341e-05
1.4435e-05
1.4436e-05
1.4437e-05
1.4438e-05
1.44391e-05
1.44403e-05
1.44414e-05
1.44426e-05
1.44438e-05
1.4445e-05
1.44461e-05
1.44473e-05
1.44484e-05
1.44495e-05
1.44505e-05
1.44516e-05
1.44526e-05
1.44535e-05
1.44544e-05
1.44552e-05
1.4456e-05
1.44567e-05
1.44574e-05
1.44581e-05
1.44587e-05
1.44593e-05
1.44598e-05
1.44604e-05
1.44609e-05
1.44615e-05
1.4462e-05
1.44626e-05
1.44632e-05
1.44638e-05
1.44645e-05
1.44653e-05
1.4466e-05
1.44669e-05
1.44678e-05
1.44687e-05
1.44697e-05
1.44707e-05
1.44718e-05
1.44729e-05
1.44741e-05
1.44753e-05
1.44765e-05
1.44778e-05
1.44791e-05
1.44804e-05
1.44817e-05
1.4483e-05
1.44843e-05
1.44856e-05
1.44869e-05
1.44883e-05
1.44895e-05
1.44908e-05
1.4492e-05
1.44932e-05
1.44944e-05
1.44956e-05
1.44968e-05
1.44979e-05
1.44991e-05
1.45002e-05
1.45014e-05
1.45026e-05
1.45038e-05
1.4505e-05
1.45063e-05
1.45076e-05
1.4509e-05
1.45104e-05
1.45118e-05
1.45134e-05
1.4515e-05
1.45166e-05
1.45184e-05
1.45202e-05
1.4522e-05
1.45239e-05
1.45259e-05
1.45279e-05
1.453e-05
1.45322e-05
1.45344e-05
1.45367e-05
1.4539e-05
1.45413e-05
1.45437e-05
1.4546e-05
1.45493e-05
1.45488e-05
1.26222e-05
1.2759e-05
1.28945e-05
1.30278e-05
1.31584e-05
1.3286e-05
1.34109e-05
1.35326e-05
1.36492e-05
1.37591e-05
1.38612e-05
1.3955e-05
1.40401e-05
1.42064e-05
1.42126e-05
1.42186e-05
1.42243e-05
1.42298e-05
1.42351e-05
1.42401e-05
1.4245e-05
1.42497e-05
1.42542e-05
1.42586e-05
1.42629e-05
1.42671e-05
1.42712e-05
1.42753e-05
1.42794e-05
1.42836e-05
1.42878e-05
1.4292e-05
1.42963e-05
1.43006e-05
1.43049e-05
1.43092e-05
1.43134e-05
1.43177e-05
1.43218e-05
1.43258e-05
1.43298e-05
1.43335e-05
1.43371e-05
1.43405e-05
1.43438e-05
1.43469e-05
1.43499e-05
1.43528e-05
1.43555e-05
1.43582e-05
1.43607e-05
1.43633e-05
1.43658e-05
1.43683e-05
1.43707e-05
1.43732e-05
1.43757e-05
1.43781e-05
1.43805e-05
1.43829e-05
1.43851e-05
1.43872e-05
1.43893e-05
1.43913e-05
1.43931e-05
1.43948e-05
1.43965e-05
1.4398e-05
1.43994e-05
1.44007e-05
1.4402e-05
1.44032e-05
1.44044e-05
1.44056e-05
1.44068e-05
1.4408e-05
1.44092e-05
1.44105e-05
1.44118e-05
1.44132e-05
1.44146e-05
1.44161e-05
1.44176e-05
1.44191e-05
1.44207e-05
1.44221e-05
1.44237e-05
1.44252e-05
1.44266e-05
1.4428e-05
1.44295e-05
1.44307e-05
1.44318e-05
1.44331e-05
1.44342e-05
1.44351e-05
1.4436e-05
1.4437e-05
1.44378e-05
1.44385e-05
1.44393e-05
1.444e-05
1.44407e-05
1.44414e-05
1.44422e-05
1.44429e-05
1.44437e-05
1.44446e-05
1.44454e-05
1.44463e-05
1.44474e-05
1.44484e-05
1.44494e-05
1.44506e-05
1.44517e-05
1.44529e-05
1.44541e-05
1.44554e-05
1.44566e-05
1.44578e-05
1.44591e-05
1.44603e-05
1.44615e-05
1.44626e-05
1.44638e-05
1.44648e-05
1.44659e-05
1.44669e-05
1.44679e-05
1.44688e-05
1.44697e-05
1.44706e-05
1.44714e-05
1.44722e-05
1.4473e-05
1.44738e-05
1.44746e-05
1.44753e-05
1.44761e-05
1.44769e-05
1.44777e-05
1.44786e-05
1.44795e-05
1.44805e-05
1.44815e-05
1.44825e-05
1.44837e-05
1.44849e-05
1.44861e-05
1.44874e-05
1.44888e-05
1.44902e-05
1.44916e-05
1.44931e-05
1.44947e-05
1.44963e-05
1.44979e-05
1.44995e-05
1.45012e-05
1.45029e-05
1.45046e-05
1.45063e-05
1.4508e-05