/*--------------------------------*- C++ -*----------------------------------*\
| =========                 |                                                 |
| \\      /  F ield         | OpenFOAM: The Open Source CFD Toolbox           |
|  \\    /   O peration     | Version:  v1706                                 |
|   \\  /    A nd           | Web:      www.OpenFOAM.com                      |
|    \\/     M anipulation  |                                                 |
\*---------------------------------------------------------------------------*/
FoamFile
{
    version     2.0;
    format      ascii;
    class       volScalarField;
    location    "1.7e-05";
    object      p;
}
// * * * * * * * * * * * * * * * * * * * * * * * * * * * * * * * * * * * * * //

dimensions      [1 -1 -2 0 0 0 0];


internalField   nonuniform List<scalar> 
30104
(
21.9143
21.9143
21.9144
21.9144
21.9144
21.9145
21.9146
21.9146
21.9147
21.9147
21.9148
21.9149
21.9149
21.915
21.9151
21.9152
21.9152
21.915
21.915
21.915
21.9151
21.9151
21.9151
21.9151
21.9151
21.9151
21.9152
21.9152
21.9152
21.9152
21.9152
21.9153
21.9153
21.9153
21.9153
21.9153
21.9154
21.9154
21.9154
21.9154
21.9154
21.9155
21.9155
21.9155
21.9155
21.9155
21.9156
21.9156
21.9156
21.9156
21.9156
21.9157
21.9157
21.9157
21.9157
21.9157
21.9158
21.9158
21.9158
21.9158
21.9159
21.9159
21.9159
21.9159
21.9159
21.916
21.916
21.916
21.916
21.9161
21.9161
21.9161
21.9162
21.9162
21.9162
21.9162
21.9163
21.9163
21.9163
21.9164
21.9164
21.9164
21.9164
21.9165
21.9165
21.9165
21.9166
21.9166
21.9167
21.9167
21.9167
21.9168
21.9168
21.9168
21.9169
21.9169
21.917
21.917
21.917
21.9171
21.9171
21.9172
21.9172
21.9173
21.9173
21.9174
21.9174
21.9175
21.9175
21.9176
21.9176
21.9177
21.9177
21.9178
21.9178
21.9179
21.9179
21.918
21.918
21.9181
21.9181
21.9182
21.9183
21.9183
21.9184
21.9184
21.9185
21.9186
21.9186
21.9187
21.9187
21.9188
21.9189
21.9189
21.919
21.9191
21.9191
21.9192
21.9193
21.9193
21.9194
21.9195
21.9195
21.9196
21.9197
21.9197
21.9198
21.9199
21.9199
21.92
21.9201
21.9202
21.9202
21.9203
21.9204
21.9205
21.9205
21.9206
21.9207
21.9208
21.9209
21.921
21.9211
21.9212
21.9213
21.9214
21.9215
21.9216
21.9217
21.9218
21.9219
21.922
21.9221
21.9222
21.9224
21.9225
21.9226
21.9227
21.9229
21.923
21.9232
21.9233
21.9235
21.9236
21.9238
21.924
21.9241
21.9243
21.9245
21.9247
21.9249
21.9251
21.9253
21.9255
21.9257
21.9259
21.9262
21.9264
21.9266
21.9268
21.9271
21.9273
21.9275
21.9277
21.928
21.9282
21.9284
21.9286
21.9286
21.9272
21.9161
21.9163
21.9165
21.9168
21.917
21.9173
21.9176
21.9179
21.9183
21.9187
21.919
21.9194
21.9199
21.9203
21.9207
21.9212
21.9217
21.9213
21.9214
21.9215
21.9216
21.9217
21.9219
21.922
21.9221
21.9223
21.9224
21.9225
21.9227
21.9228
21.923
21.9231
21.9232
21.9234
21.9235
21.9237
21.9238
21.924
21.9241
21.9243
21.9244
21.9245
21.9247
21.9248
21.925
21.9252
21.9253
21.9255
21.9256
21.9258
21.9259
21.9261
21.9263
21.9265
21.9266
21.9268
21.927
21.9272
21.9273
21.9275
21.9277
21.9279
21.9281
21.9283
21.9285
21.9287
21.9289
21.9292
21.9294
21.9296
21.9298
21.93
21.9303
21.9305
21.9307
21.931
21.9312
21.9315
21.9317
21.932
21.9322
21.9325
21.9327
21.933
21.9333
21.9336
21.9338
21.9341
21.9344
21.9347
21.935
21.9353
21.9356
21.9359
21.9362
21.9365
21.9369
21.9372
21.9375
21.9379
21.9382
21.9386
21.939
21.9393
21.9397
21.9401
21.9405
21.9408
21.9412
21.9416
21.942
21.9424
21.9429
21.9433
21.9437
21.9441
21.9446
21.945
21.9455
21.9459
21.9464
21.9468
21.9473
21.9478
21.9483
21.9488
21.9493
21.9498
21.9504
21.9509
21.9515
21.952
21.9526
21.9532
21.9538
21.9544
21.955
21.9557
21.9563
21.957
21.9577
21.9583
21.9591
21.9598
21.9605
21.9613
21.9621
21.9629
21.9637
21.9645
21.9654
21.9662
21.9671
21.968
21.9689
21.9699
21.9708
21.9718
21.9727
21.9737
21.9747
21.9757
21.9767
21.9777
21.9788
21.9798
21.9809
21.9819
21.983
21.9841
21.9852
21.9863
21.9874
21.9886
21.9897
21.9909
21.9921
21.9933
21.9945
21.9958
21.997
21.9983
21.9996
22.001
22.0023
22.0037
22.0051
22.0065
22.008
22.0095
22.011
22.0125
22.0141
22.0157
22.0173
22.019
22.0207
22.0224
22.0242
22.026
22.0278
22.0297
22.0316
22.0336
22.0355
22.0376
22.0396
22.0418
22.0426
22.0357
21.9206
21.9213
21.922
21.9228
21.9236
21.9245
21.9255
21.9265
21.9276
21.9287
21.9299
21.9311
21.9324
21.9337
21.9351
21.9366
21.9392
21.9397
21.9401
21.9406
21.941
21.9415
21.942
21.9425
21.943
21.9435
21.9441
21.9446
21.9451
21.9457
21.9463
21.9468
21.9474
21.948
21.9486
21.9491
21.9497
21.9503
21.9509
21.9515
21.9521
21.9527
21.9533
21.954
21.9546
21.9552
21.9558
21.9565
21.9571
21.9578
21.9584
21.9591
21.9598
21.9605
21.9612
21.9619
21.9626
21.9633
21.9641
21.9648
21.9656
21.9664
21.9672
21.968
21.9688
21.9697
21.9706
21.9714
21.9723
21.9732
21.9741
21.9751
21.976
21.977
21.978
21.979
21.98
21.981
21.9821
21.9831
21.9842
21.9853
21.9865
21.9876
21.9888
21.99
21.9912
21.9924
21.9937
21.995
21.9963
21.9977
21.999
22.0004
22.0018
22.0033
22.0047
22.0062
22.0078
22.0093
22.0109
22.0125
22.0142
22.0159
22.0176
22.0193
22.0211
22.0229
22.0248
22.0267
22.0286
22.0306
22.0325
22.0346
22.0366
22.0387
22.0409
22.0431
22.0453
22.0475
22.0497
22.052
22.0544
22.0567
22.0591
22.0616
22.064
22.0666
22.0691
22.0717
22.0743
22.077
22.0798
22.0825
22.0854
22.0883
22.0912
22.0942
22.0973
22.1004
22.1036
22.1069
22.1102
22.1135
22.117
22.1205
22.124
22.1276
22.1313
22.1351
22.1389
22.1428
22.1467
22.1508
22.1549
22.159
22.1633
22.1676
22.172
22.1765
22.181
22.1857
22.1904
22.1952
22.2
22.205
22.21
22.2151
22.2203
22.2256
22.231
22.2365
22.2421
22.2478
22.2537
22.2596
22.2657
22.2719
22.2783
22.2848
22.2915
22.2983
22.3054
22.3126
22.3201
22.3278
22.3357
22.3439
22.3523
22.361
22.3699
22.3791
22.3887
22.3985
22.4086
22.4189
22.4296
22.4406
22.4518
22.4633
22.4751
22.4872
22.4995
22.512
22.5248
22.5376
22.5509
22.5627
22.5392
21.932
21.9339
21.9358
21.9379
21.9402
21.9426
21.9452
21.9479
21.9509
21.9539
21.9571
21.9605
21.964
21.9677
21.9715
21.9753
21.9891
21.9905
21.9919
21.9933
21.9948
21.9963
21.9979
21.9995
22.0011
22.0028
22.0045
22.0062
22.008
22.0097
22.0115
22.0134
22.0152
22.0171
22.019
22.0209
22.0229
22.0248
22.0268
22.0288
22.0308
22.0328
22.0349
22.0369
22.039
22.0412
22.0433
22.0455
22.0477
22.05
22.0523
22.0546
22.057
22.0595
22.0619
22.0645
22.0671
22.0697
22.0724
22.0751
22.0779
22.0808
22.0837
22.0867
22.0897
22.0928
22.0959
22.0991
22.1024
22.1057
22.1091
22.1126
22.1161
22.1197
22.1234
22.1271
22.1309
22.1348
22.1387
22.1427
22.1468
22.1509
22.1551
22.1594
22.1638
22.1682
22.1727
22.1772
22.1818
22.1866
22.1913
22.1962
22.2012
22.2063
22.2114
22.2167
22.2221
22.2276
22.2332
22.239
22.2449
22.2509
22.257
22.2633
22.2697
22.2763
22.2829
22.2898
22.2967
22.3038
22.311
22.3184
22.3259
22.3335
22.3413
22.3492
22.3573
22.3655
22.3739
22.3824
22.3911
22.3999
22.4089
22.4181
22.4274
22.4369
22.4466
22.4565
22.4666
22.4768
22.4873
22.498
22.5089
22.52
22.5314
22.5431
22.555
22.5673
22.5798
22.5926
22.6058
22.6194
22.6333
22.6476
22.6623
22.6775
22.693
22.7091
22.7256
22.7426
22.7601
22.7781
22.7967
22.8157
22.8352
22.8553
22.8758
22.8968
22.9183
22.9403
22.9627
22.9855
23.0087
23.0322
23.0561
23.0803
23.1047
23.1295
23.1545
23.1797
23.2052
23.2309
23.2569
23.2831
23.3096
23.3365
23.3637
23.3912
23.4192
23.4476
23.4764
23.5057
23.5356
23.566
23.597
23.6286
23.6609
23.6939
23.7277
23.7623
23.7978
23.8341
23.8714
23.9097
23.9491
23.9897
24.0313
24.0743
24.1186
24.1642
24.2112
24.2597
24.3097
24.3612
24.4144
24.4694
24.5241
24.5905
24.5227
21.9603
21.9651
21.9701
21.9756
21.9814
21.9875
21.994
22.0009
22.0081
22.0158
22.0239
22.0323
22.0411
22.0504
22.06
22.1205
22.1245
22.1286
22.1329
22.1373
22.1419
22.1466
22.1514
22.1563
22.1614
22.1666
22.172
22.1774
22.183
22.1887
22.1945
22.2004
22.2063
22.2124
22.2185
22.2247
22.231
22.2374
22.2438
22.2503
22.2569
22.2636
22.2703
22.2772
22.2841
22.2911
22.2983
22.3055
22.3128
22.3203
22.3278
22.3355
22.3433
22.3513
22.3594
22.3676
22.376
22.3845
22.3933
22.4022
22.4112
22.4205
22.43
22.4397
22.4496
22.4597
22.4701
22.4807
22.4915
22.5026
22.5139
22.5255
22.5373
22.5493
22.5616
22.5742
22.587
22.6001
22.6135
22.6271
22.641
22.6552
22.6697
22.6845
22.6996
22.715
22.7308
22.7469
22.7633
22.7801
22.7973
22.8149
22.8328
22.8511
22.8699
22.8891
22.9087
22.9288
22.9494
22.9705
22.992
23.0141
23.0368
23.06
23.0838
23.1082
23.1333
23.159
23.1854
23.2125
23.2403
23.2689
23.2982
23.3283
23.3591
23.3907
23.4231
23.4562
23.49
23.5246
23.5598
23.5957
23.6322
23.6693
23.7071
23.7453
23.7842
23.8236
23.8635
23.9041
23.9454
23.9873
24.03
24.0734
24.1177
24.1629
24.209
24.2561
24.3042
24.3535
24.4039
24.4556
24.5085
24.5627
24.6183
24.6753
24.7339
24.7939
24.8555
24.9187
24.9836
25.0502
25.1186
25.1888
25.2608
25.3348
25.4108
25.4887
25.5687
25.6507
25.7348
25.8211
25.9094
25.9999
26.0925
26.1872
26.284
26.3828
26.4836
26.5863
26.6909
26.7973
26.9055
27.0157
27.1279
27.2423
27.359
27.4781
27.5997
27.7241
27.8515
27.982
28.116
28.2537
28.3954
28.5416
28.6925
28.8487
29.0105
29.1787
29.3535
29.5359
29.726
29.9252
30.1333
30.3521
30.5809
30.8223
31.0748
31.3418
31.6211
31.9158
32.2261
32.548
32.8975
33.2395
33.6417
33.8251
22.0186
22.0293
22.0407
22.0531
22.0663
22.0805
22.0957
22.1118
22.129
22.1471
22.1661
22.186
22.2068
22.2285
22.2509
22.274
22.4629
22.4744
22.4864
22.4987
22.5114
22.5244
22.5378
22.5516
22.5657
22.5802
22.5951
22.6103
22.6258
22.6416
22.6578
22.6743
22.6911
22.7082
22.7257
22.7434
22.7614
22.7797
22.7984
22.8173
22.8365
22.856
22.8758
22.8959
22.9163
22.937
22.9581
22.9796
23.0015
23.0237
23.0464
23.0696
23.0933
23.1174
23.1422
23.1674
23.1933
23.2198
23.2469
23.2746
23.3031
23.3322
23.362
23.3925
23.4238
23.4559
23.4887
23.5223
23.5567
23.592
23.6281
23.6652
23.7031
23.742
23.7818
23.8227
23.8646
23.9075
23.9514
23.9964
24.0425
24.0896
24.1378
24.187
24.2373
24.2885
24.3407
24.3939
24.448
24.503
24.5589
24.6158
24.6737
24.7326
24.7927
24.854
24.9165
24.9805
25.0459
25.1128
25.1813
25.2516
25.3238
25.3978
25.4739
25.5521
25.6325
25.7151
25.8001
25.8874
25.9772
26.0696
26.1644
26.2619
26.3621
26.4649
26.5704
26.6787
26.7898
26.9037
27.0204
27.1401
27.2625
27.3879
27.5162
27.6474
27.7815
27.9185
28.0582
28.2007
28.3459
28.4941
28.6453
28.7996
28.9572
29.1184
29.2833
29.4521
29.6251
29.8026
29.9848
30.1723
30.3653
30.5643
30.7698
30.9825
31.2029
31.4317
31.6696
31.9175
32.1761
32.4464
32.7292
33.0255
33.3362
33.6623
34.0048
34.3644
34.742
35.1385
35.5544
35.9905
36.4471
36.9246
37.423
37.9425
38.4826
39.0434
39.6239
40.2239
40.8423
41.4776
42.1224
42.7741
43.4319
44.0956
44.7642
45.4373
46.1144
46.7949
47.4786
48.1646
48.8533
49.5434
50.2358
50.9287
51.6234
52.3176
53.0131
53.7069
54.401
55.092
55.7818
56.4671
57.1488
57.8251
58.4938
59.1579
59.8076
60.4564
61.0802
61.7115
62.3026
62.9129
63.4694
64.0468
64.5943
65.1091
65.4885
22.1685
22.1946
22.2226
22.2527
22.2848
22.3189
22.3549
22.393
22.4331
22.4753
22.5197
22.5663
22.6151
23.317
23.348
23.38
23.4132
23.4475
23.483
23.5197
23.5576
23.5967
23.637
23.6786
23.7214
23.7654
23.8107
23.8572
23.9048
23.9536
24.0035
24.0545
24.1066
24.1597
24.2137
24.2688
24.3248
24.3818
24.4398
24.4989
24.559
24.6202
24.6826
24.7462
24.811
24.8771
24.9445
25.0132
25.0833
25.1547
25.2274
25.3014
25.3769
25.4537
25.5319
25.6117
25.6931
25.7761
25.8608
25.9474
26.036
26.1266
26.2194
26.3146
26.4121
26.5123
26.6151
26.7208
26.8293
26.941
27.0557
27.1736
27.2948
27.4194
27.5474
27.6789
27.8139
27.9525
28.0947
28.2407
28.3904
28.5439
28.7013
28.8628
29.0284
29.1982
29.3723
29.5507
29.7334
29.9206
30.1124
30.309
30.5105
30.7173
30.9295
31.1473
31.3709
31.6005
31.8365
32.0791
32.3286
32.5854
32.85
33.1226
33.4041
33.6951
33.996
34.3078
34.6313
34.9673
35.3167
35.6805
36.0598
36.4552
36.8678
37.2983
37.7477
38.2164
38.7049
39.2138
39.7432
40.2931
40.8636
41.4543
42.0649
42.6949
43.339
43.9918
44.6527
45.3214
45.9977
46.6812
47.3716
48.0688
48.7725
49.4827
50.1992
50.9219
51.6505
52.3848
53.1245
53.8689
54.6173
55.3689
56.1225
56.8767
57.6299
58.3803
59.1259
59.8644
60.5937
61.3114
62.0153
62.7031
63.3728
64.0227
64.651
65.2566
65.8382
66.3957
66.9281
67.4362
67.9195
68.3798
68.8165
69.2325
69.6272
70.0039
70.3631
70.7137
71.0565
71.3947
71.7272
72.0567
72.3824
72.7063
73.0275
73.3472
73.665
73.9806
74.2948
74.6055
74.9147
75.2184
75.5207
75.8149
76.1079
76.3901
76.6718
76.94
77.2086
77.4619
77.7163
77.9548
78.1944
78.4201
78.6444
78.8615
79.0691
79.2843
79.4719
79.6945
79.8558
80.092
80.2355
80.443
22.5215
22.5818
22.6466
22.7162
22.7908
22.8707
22.9558
23.0462
23.1417
23.2419
23.3466
23.4556
23.5688
25.4297
25.5133
25.5999
25.6894
25.782
25.8777
25.9765
26.0784
26.1832
26.2911
26.4019
26.5156
26.6322
26.7516
26.8739
26.999
27.127
27.2578
27.3915
27.5281
27.6677
27.8102
27.9558
28.1045
28.2564
28.4116
28.5702
28.7321
28.8975
29.0665
29.2392
29.4156
29.5959
29.7802
29.9688
30.1619
30.3595
30.5621
30.7699
30.9829
31.2015
31.4257
31.6558
31.8921
32.1349
32.3844
32.6411
32.9052
33.177
33.4567
33.7446
34.041
34.3462
34.6605
34.9841
35.3176
35.6612
36.0154
36.3809
36.7582
37.1479
37.5508
37.9677
38.3993
38.8463
39.3095
39.7896
40.2871
40.8026
41.3363
41.8882
42.4586
43.0472
43.6534
44.277
44.9149
45.5606
46.2126
46.8708
47.5347
48.2035
48.8772
49.5556
50.2385
50.9259
51.6177
52.3146
53.017
53.7241
54.4363
55.1548
55.8783
56.6055
57.3376
58.0732
58.8093
59.5457
60.2812
61.0117
61.7346
62.4491
63.1518
63.839
64.5088
65.16
65.7898
66.3964
66.9792
67.5377
68.0716
68.5809
69.0664
69.5291
69.9744
70.4076
70.8299
71.2421
71.6451
72.0396
72.4262
72.805
73.1762
73.5395
73.8945
74.2406
74.5771
74.9031
75.2177
75.5201
75.8096
76.0855
76.3476
76.5956
76.8298
77.0506
77.2586
77.455
77.6407
77.8174
77.9862
78.1488
78.3067
78.4612
78.6138
78.7654
78.9175
79.0704
79.2254
79.3822
79.5421
79.7039
79.8693
80.0359
80.2057
80.3757
80.5481
80.7192
80.8913
81.0601
81.2281
81.3909
81.5511
81.7041
81.8529
81.9929
82.1272
82.2519
82.3698
82.4775
82.5781
82.6689
82.7524
82.8276
82.8955
82.957
83.0114
83.0621
83.1053
83.1481
83.1826
83.2201
83.2482
83.2829
83.3063
83.3401
83.3601
83.3946
83.412
83.448
83.4636
83.4992
83.5207
83.5323
23.2037
23.3357
23.4776
23.6293
23.7909
23.9623
24.1432
24.3333
24.5327
24.7419
24.961
25.1903
25.4297
25.6787
30.3435
30.5464
30.7567
30.9747
31.2008
31.4351
31.678
31.9298
32.1905
32.4606
32.7401
33.0291
33.3278
33.6364
33.955
34.2837
34.6227
34.9719
35.3314
35.7012
36.0812
36.4712
36.871
37.2806
37.7
38.1292
38.5684
39.018
39.4784
39.9502
40.4342
40.9309
41.4411
41.9656
42.5048
43.0592
43.6293
44.2149
44.8162
45.433
46.0647
46.7066
47.3551
48.0094
48.6688
49.3328
50.0005
50.6714
51.3448
52.0205
52.6983
53.3777
54.059
54.7423
55.4273
56.1143
56.8032
57.4939
58.1859
58.8782
59.5703
60.2609
60.948
61.63
62.3055
62.9714
63.6254
64.2664
64.8915
65.4983
66.0866
66.655
67.2018
67.7283
68.2345
68.7225
69.1993
69.6669
70.1249
70.5749
71.019
71.4564
71.8872
72.3133
72.7339
73.1467
73.5523
73.9496
74.3357
74.7099
75.0704
75.4147
75.7429
76.0529
76.3424
76.6137
76.8663
77.0977
77.312
77.5122
77.6962
77.8665
78.0286
78.1835
78.3307
78.4741
78.6168
78.7589
78.9009
79.0447
79.1909
79.3394
79.4902
79.6432
79.7979
79.9534
80.1089
80.2635
80.4161
80.5658
80.7116
80.8526
80.988
81.1173
81.2401
81.356
81.465
81.5673
81.6632
81.7531
81.8375
81.9172
81.9927
82.0649
82.1343
82.2018
82.2678
82.333
82.3976
82.4623
82.5269
82.5919
82.6568
82.7221
82.7868
82.8515
82.9147
82.9771
83.037
83.0953
83.15
83.2023
83.2503
83.2952
83.3356
83.3726
83.4052
83.4344
83.4602
83.4826
83.5029
83.52
83.5362
83.5494
83.5627
83.5735
83.585
83.5942
83.6049
83.6136
83.6243
83.633
83.6442
83.6533
83.6655
83.6753
83.6888
83.6996
83.7147
83.7265
83.7434
83.7564
83.7754
83.7895
83.8107
83.8258
83.8492
83.8652
83.8906
83.9076
83.9335
83.9565
83.9683
24.8698
25.157
25.4642
25.7925
26.1432
26.5179
26.9178
27.3431
27.7919
28.262
28.7504
29.2551
29.7745
30.3077
41.4464
41.9448
42.4619
42.9984
43.5547
44.1313
44.7282
45.3453
45.9825
46.6394
47.315
48.0044
48.7033
49.41
50.1235
50.8425
51.5653
52.29
53.015
53.7391
54.4614
55.1812
55.898
56.6113
57.3208
58.0262
58.7267
59.4215
60.1102
60.7914
61.4639
62.1266
62.7779
63.4161
64.0401
64.6486
65.2398
65.8134
66.3692
66.9058
67.4232
67.9264
68.4179
68.8981
69.3683
69.8294
70.2816
70.726
71.1639
71.595
72.0192
72.4372
72.8481
73.2503
73.6435
74.0263
74.3961
74.7518
75.0921
75.4158
75.7221
76.0099
76.2797
76.5327
76.7678
76.9876
77.1953
77.3903
77.5751
77.7547
77.9285
78.0975
78.2665
78.4353
78.6026
78.7719
78.9433
79.1131
79.2831
79.4539
79.6208
79.7831
79.9433
80.0971
80.241
80.3794
80.5107
80.6299
80.7411
80.8464
80.9419
81.0297
81.1133
81.1912
81.2647
81.3364
81.4065
81.4759
81.5459
81.6166
81.6891
81.7642
81.8409
81.9194
82.001
82.0848
82.1687
82.2532
82.3388
82.4233
82.5053
82.5848
82.6612
82.7333
82.8004
82.8622
82.9187
82.9696
83.0149
83.055
83.0902
83.1209
83.1475
83.1704
83.1903
83.2075
83.2226
83.236
83.2482
83.2595
83.2702
83.2808
83.2914
83.3023
83.3136
83.3255
83.3381
83.3515
83.3657
83.3807
83.3965
83.413
83.4303
83.4482
83.4667
83.4858
83.5053
83.5251
83.5454
83.5656
83.5861
83.6061
83.6263
83.6455
83.6648
83.6828
83.7008
83.7174
83.7336
83.7477
83.7617
83.7733
83.7852
83.7943
83.8044
83.8118
83.8205
83.8269
83.835
83.8412
83.8496
83.8562
83.8654
83.873
83.8836
83.8926
83.9049
83.9157
83.9298
83.9426
83.9585
83.9733
83.991
84.0077
84.0271
84.0456
84.0665
84.0863
84.1085
84.1293
84.1517
84.178
84.1788
28.4814
29.1195
29.7967
30.5119
31.2648
32.0533
32.8736
33.7237
34.6045
35.5189
36.4681
37.4515
38.4661
39.5082
60.6876
61.2936
61.8978
62.4993
63.0969
63.689
64.2745
64.8527
65.4213
65.9784
66.5232
67.0587
67.5873
68.1094
68.624
69.1298
69.6266
70.1153
70.5964
71.0695
71.5341
71.9892
72.4333
72.8653
73.2839
73.6875
74.0748
74.445
74.7971
75.1304
75.445
75.741
76.0186
76.2799
76.5258
76.7571
76.9771
77.1874
77.3878
77.5813
77.7712
77.9564
78.1378
78.3185
78.4973
78.6724
78.8456
79.017
79.1831
79.343
79.4985
79.6474
79.7866
79.9183
80.0424
80.1569
80.2642
80.3651
80.459
80.5483
80.6337
80.7158
80.797
80.8773
80.9578
81.0405
81.1244
81.21
81.2999
81.3908
81.4819
81.5776
81.6735
81.7649
81.8582
81.951
82.0347
82.1152
82.1947
82.2643
82.3254
82.3855
82.439
82.4814
82.5223
82.5617
82.5917
82.6198
82.6494
82.6737
82.6967
82.722
82.7456
82.7691
82.7952
82.8213
82.8476
82.8767
82.9064
82.9355
82.9666
82.9985
83.0287
83.0591
83.0902
83.1191
83.1464
83.1738
83.1995
83.2228
83.2453
83.2671
83.287
83.3055
83.3231
83.3398
83.3551
83.3691
83.3822
83.3941
83.4048
83.4144
83.4231
83.431
83.4383
83.4451
83.4514
83.4576
83.4639
83.4703
83.4771
83.4845
83.4926
83.5014
83.5112
83.5218
83.5334
83.5459
83.5594
83.5736
83.5888
83.6045
83.621
83.6378
83.6553
83.6728
83.6909
83.7088
83.7272
83.745
83.7636
83.781
83.7992
83.8158
83.8335
83.8488
83.865
83.8785
83.8923
83.9039
83.9156
83.9256
83.9355
83.9442
83.9528
83.9608
83.9688
83.9766
83.9848
83.9932
84.0023
84.0119
84.0224
84.0336
84.0459
84.0589
84.0733
84.088
84.1044
84.1209
84.139
84.157
84.1766
84.1958
84.2163
84.2364
84.2571
84.2774
84.2977
84.3176
84.3361
84.3609
84.3363
35.9238
37.1492
38.4443
39.8122
41.2554
42.7846
44.4298
46.198
48.0551
49.9628
51.8879
53.8051
55.6961
74.3493
74.6425
74.9253
75.1974
75.4589
75.7104
75.9514
76.1816
76.403
76.6174
76.8246
77.0262
77.223
77.4134
77.5975
77.7786
77.9585
78.1353
78.3076
78.4754
78.6391
78.7984
78.953
79.1033
79.2487
79.3888
79.5238
79.6539
79.7785
79.8985
80.0144
80.1262
80.2352
80.3418
80.4457
80.5485
80.6506
80.7501
80.8491
80.9492
81.0461
81.1402
81.2355
81.3272
81.4121
81.4954
81.5761
81.648
81.7136
81.7775
81.836
81.8855
81.9324
81.9785
82.0189
82.0566
82.0947
82.1308
82.1668
82.2032
82.2391
82.2769
82.3157
82.3539
82.3948
82.4364
82.4758
82.5174
82.5592
82.5962
82.6347
82.6733
82.7041
82.7362
82.7704
82.7941
82.8175
82.847
82.867
82.8827
82.905
82.9256
82.9373
82.9518
82.9711
82.9836
82.9942
83.0103
83.0247
83.0362
83.0516
83.0679
83.0822
83.0991
83.1178
83.1348
83.1539
83.1752
83.1946
83.2149
83.2381
83.2592
83.2788
83.3015
83.3235
83.3417
83.3608
83.3818
83.3994
83.4149
83.4313
83.4468
83.46
83.4722
83.4839
83.4948
83.5046
83.5135
83.522
83.5298
83.537
83.544
83.5506
83.5569
83.5631
83.5692
83.5756
83.5824
83.5897
83.5977
83.6066
83.6163
83.627
83.6387
83.6514
83.665
83.6796
83.695
83.7114
83.7283
83.746
83.7639
83.7826
83.801
83.8202
83.8386
83.8576
83.8755
83.8938
83.911
83.9282
83.944
83.9595
83.9736
83.9871
83.9992
84.0106
84.0212
84.0312
84.0407
84.0497
84.0585
84.0669
84.0755
84.084
84.093
84.1022
84.1121
84.1225
84.1338
84.1458
84.1588
84.1728
84.1876
84.2034
84.2198
84.2371
84.2548
84.2733
84.2919
84.3111
84.3302
84.3495
84.3685
84.3874
84.4057
84.4236
84.4408
84.4573
84.4732
84.4863
84.5119
84.4371
50.5556
53.0876
55.6754
58.275
60.8455
63.3453
65.7173
67.9274
69.977
71.8731
73.6225
75.2231
76.6584
79.7173
79.7856
79.8523
79.9175
79.9827
80.0489
80.115
80.1815
80.2504
80.3208
80.3906
80.4628
80.5391
80.6175
80.6941
80.7703
80.8477
80.9252
81.0013
81.0759
81.149
81.2204
81.2892
81.356
81.4213
81.4846
81.5463
81.6072
81.6667
81.7251
81.7832
81.8393
81.8937
81.9479
81.999
82.0468
82.095
82.1395
82.1781
82.218
82.2554
82.2844
82.3145
82.3464
82.3696
82.3906
82.4161
82.4391
82.4558
82.4745
82.497
82.5152
82.5323
82.5535
82.5741
82.594
82.6167
82.6394
82.6626
82.6884
82.7132
82.7388
82.7674
82.7933
82.8193
82.8496
82.8748
82.8983
82.9285
82.9514
82.9692
82.9962
83.0175
83.029
83.049
83.0704
83.0783
83.0898
83.1101
83.1196
83.1254
83.1406
83.1545
83.1603
83.1707
83.187
83.1968
83.2071
83.2238
83.2377
83.2504
83.2684
83.2854
83.3003
83.3199
83.3395
83.3558
83.3754
83.3977
83.4145
83.4315
83.4541
83.4731
83.4872
83.5048
83.5246
83.5381
83.5508
83.5657
83.5787
83.5896
83.6002
83.6104
83.6199
83.6284
83.6363
83.644
83.6512
83.658
83.6646
83.6711
83.6778
83.6848
83.6924
83.7007
83.7099
83.7201
83.7311
83.7431
83.7561
83.7701
83.785
83.8007
83.8172
83.8344
83.852
83.8702
83.8886
83.9073
83.9259
83.9445
83.9627
83.9806
83.9979
84.0147
84.0307
84.0459
84.0603
84.0737
84.0862
84.0979
84.1088
84.119
84.1289
84.1384
84.1477
84.1567
84.1658
84.1749
84.1843
84.1939
84.2041
84.2148
84.2262
84.2383
84.2512
84.2648
84.2793
84.2946
84.3106
84.3274
84.3446
84.3623
84.3803
84.3985
84.4168
84.4351
84.4531
84.4709
84.4882
84.505
84.5211
84.5368
84.5514
84.5659
84.5789
84.592
84.6028
84.6099
84.6355
84.4758
75.9647
78.2079
80.2425
82.0665
83.6625
85.0237
86.1581
87.075
87.8123
88.3774
88.7806
89.0601
81.5411
81.5583
81.5742
81.5902
81.6057
81.617
81.6276
81.642
81.6553
81.6629
81.6741
81.6929
81.7063
81.7121
81.7244
81.7443
81.7631
81.7791
81.7974
81.8192
81.843
81.8684
81.8958
81.9261
81.9588
81.9935
82.0306
82.0696
82.1095
82.1509
82.1929
82.2336
82.275
82.3165
82.3532
82.3901
82.4285
82.4588
82.4871
82.5207
82.5449
82.5641
82.5905
82.6133
82.6273
82.6457
82.6681
82.683
82.6964
82.7158
82.7348
82.7487
82.7663
82.7876
82.8051
82.8242
82.8467
82.8667
82.8884
82.9118
82.9323
82.9563
82.9808
82.9997
83.0234
83.0484
83.0641
83.0838
83.1098
83.1226
83.1363
83.1603
83.1725
83.1806
83.1993
83.213
83.2176
83.2302
83.2462
83.2517
83.2582
83.2758
83.2867
83.2918
83.3057
83.3231
83.3321
83.3449
83.3649
83.3783
83.3928
83.4142
83.4309
83.4467
83.4691
83.4886
83.5041
83.5255
83.5475
83.562
83.579
83.601
83.6164
83.629
83.645
83.6602
83.6717
83.6826
83.6942
83.7048
83.7142
83.7229
83.7312
83.7391
83.7465
83.7536
83.7606
83.7676
83.7748
83.7823
83.7904
83.7992
83.8089
83.8195
83.8311
83.8435
83.8569
83.8712
83.8863
83.9021
83.9187
83.9359
83.9535
83.9715
83.9896
84.0079
84.0261
84.0442
84.0619
84.0792
84.0959
84.112
84.1274
84.1421
84.1559
84.169
84.1813
84.1928
84.2037
84.2141
84.2241
84.2338
84.2434
84.2529
84.2625
84.2723
84.2823
84.2927
84.3035
84.3149
84.3269
84.3396
84.353
84.3671
84.3819
84.3973
84.4133
84.4298
84.4467
84.464
84.4814
84.4989
84.5164
84.5336
84.5506
84.5671
84.5831
84.5985
84.6133
84.6273
84.6407
84.6531
84.6653
84.6761
84.6877
84.6965
84.7066
84.71
84.7076
84.7233
84.4275
92.319
93.1584
93.7932
94.242
94.5528
94.7748
94.9015
94.9404
94.9013
94.7927
82.1731
82.156
82.1394
82.1237
82.109
82.0954
82.0839
82.0746
82.0668
82.061
82.0575
82.052
82.0465
82.0507
82.0634
82.0721
82.0731
82.0794
82.0949
82.1131
82.1315
82.1522
82.1758
82.2027
82.232
82.2635
82.2979
82.3337
82.3704
82.4093
82.4476
82.4846
82.5241
82.5604
82.5922
82.6285
82.6602
82.6827
82.7111
82.7383
82.7525
82.7715
82.7962
82.8084
82.8206
82.8417
82.8572
82.8671
82.8829
82.903
82.9158
82.9288
82.9499
82.9681
82.9824
83.003
83.0236
83.0408
83.063
83.0833
83.101
83.1255
83.1447
83.1598
83.1838
83.2036
83.2152
83.2347
83.2558
83.2649
83.278
83.2975
83.3071
83.3148
83.3319
83.3435
83.3479
83.3624
83.3767
83.3825
83.3924
83.4102
83.4219
83.429
83.4471
83.464
83.4745
83.4918
83.5121
83.5261
83.5438
83.5658
83.5822
83.5994
83.6209
83.6389
83.655
83.6739
83.692
83.7067
83.7218
83.7374
83.7513
83.7633
83.7751
83.7868
83.7975
83.807
83.8161
83.8248
83.833
83.8407
83.8482
83.8556
83.8631
83.8708
83.8788
83.8874
83.8966
83.9066
83.9175
83.9293
83.9419
83.9555
83.9698
83.9849
84.0008
84.0172
84.0341
84.0515
84.0691
84.0869
84.1047
84.1224
84.1399
84.1571
84.1739
84.1901
84.2057
84.2207
84.235
84.2486
84.2615
84.2737
84.2854
84.2965
84.3071
84.3174
84.3275
84.3374
84.3473
84.3574
84.3676
84.3781
84.3889
84.4002
84.4121
84.4245
84.4375
84.4512
84.4654
84.4802
84.4955
84.5113
84.5274
84.5439
84.5605
84.5772
84.5939
84.6104
84.6266
84.6425
84.6579
84.6727
84.6869
84.7004
84.7132
84.7251
84.7363
84.7467
84.7568
84.7659
84.7755
84.7836
84.7931
84.7977
84.8032
84.7933
84.7718
84.7524
84.2542
99.6163
99.5062
99.361
99.2372
98.9375
98.5103
98.0562
97.5926
97.1128
82.5047
82.4894
82.4747
82.4609
82.4476
82.4346
82.4229
82.4119
82.401
82.3916
82.3836
82.3759
82.3701
82.3639
82.3617
82.366
82.3724
82.3766
82.3826
82.3949
82.4106
82.4289
82.4507
82.4744
82.5009
82.5308
82.5615
82.5941
82.6294
82.6624
82.6961
82.7325
82.7621
82.7916
82.826
82.8478
82.8677
82.8968
82.9136
82.9253
82.9479
82.9657
82.974
82.9895
83.0097
83.0196
83.0298
83.0506
83.067
83.0771
83.0929
83.117
83.1314
83.1461
83.1698
83.1882
83.2044
83.2278
83.2454
83.262
83.2859
83.3021
83.316
83.3378
83.354
83.3647
83.3816
83.397
83.4058
83.4181
83.4321
83.4417
83.4508
83.4638
83.4751
83.4832
83.496
83.5096
83.519
83.5318
83.5476
83.5615
83.574
83.591
83.6087
83.6237
83.6415
83.6603
83.6773
83.6954
83.714
83.7316
83.7487
83.7659
83.7826
83.7982
83.8133
83.828
83.8418
83.8546
83.8667
83.8784
83.8893
83.8992
83.9087
83.9179
83.9265
83.9346
83.9425
83.9505
83.9584
83.9665
83.9749
83.9838
83.9934
84.0036
84.0145
84.0263
84.0389
84.0523
84.0665
84.0813
84.0968
84.1129
84.1295
84.1464
84.1636
84.1809
84.1982
84.2153
84.2323
84.249
84.2652
84.281
84.2963
84.3109
84.325
84.3384
84.3512
84.3635
84.3752
84.3865
84.3974
84.408
84.4184
84.4287
84.439
84.4493
84.4599
84.4707
84.4819
84.4935
84.5055
84.5181
84.5312
84.5449
84.559
84.5737
84.5887
84.6041
84.6198
84.6356
84.6515
84.6674
84.6831
84.6986
84.7138
84.7286
84.7429
84.7566
84.7696
84.782
84.7936
84.8045
84.8146
84.8241
84.8329
84.8412
84.8492
84.8573
84.8651
84.874
84.8811
84.8888
84.8874
84.8817
84.8464
84.7872
84.6898
83.9206
102.005
101.52
82.8407
82.8215
82.8029
82.785
82.7674
82.7501
82.7336
82.7178
82.7028
82.6889
82.6756
82.6621
82.65
82.6417
82.6359
82.6313
82.6279
82.6286
82.6351
82.6431
82.652
82.6662
82.6846
82.7031
82.7255
82.7513
82.7764
82.8051
82.8355
82.8625
82.8937
82.9247
82.9486
82.9786
83.0079
83.0237
83.0453
83.0719
83.0845
83.0982
83.1212
83.1353
83.1437
83.1624
83.1798
83.1893
83.2026
83.2241
83.2395
83.2501
83.269
83.2906
83.3052
83.3211
83.3434
83.36
83.3764
83.3961
83.4124
83.4283
83.4456
83.4606
83.474
83.4883
83.502
83.5133
83.5247
83.5369
83.5475
83.5574
83.5685
83.5794
83.5895
83.6005
83.6123
83.6238
83.636
83.6494
83.6629
83.677
83.6922
83.7079
83.7237
83.74
83.757
83.7741
83.7911
83.8083
83.8253
83.842
83.8583
83.8744
83.8898
83.9045
83.9188
83.9325
83.9454
83.9577
83.9695
83.9806
83.9909
84.0009
84.0104
84.0193
84.0278
84.0363
84.0446
84.0529
84.0614
84.0702
84.0793
84.089
84.0993
84.1102
84.1218
84.1342
84.1472
84.161
84.1754
84.1904
84.206
84.222
84.2383
84.2549
84.2716
84.2883
84.3049
84.3214
84.3375
84.3533
84.3687
84.3836
84.3979
84.4118
84.4251
84.4378
84.4501
84.4618
84.4732
84.4843
84.4951
84.5057
84.5163
84.5268
84.5375
84.5483
84.5593
84.5707
84.5824
84.5945
84.607
84.62
84.6334
84.6473
84.6616
84.6761
84.6909
84.7059
84.721
84.7361
84.7511
84.7659
84.7804
84.7946
84.8084
84.8216
84.8344
84.8465
84.858
84.8688
84.879
84.8885
84.8974
84.9057
84.9135
84.9209
84.9281
84.9354
84.9428
84.9511
84.9595
84.9685
84.9742
84.9756
84.9603
84.927
84.8473
84.722
84.4917
83.4017
83.1837
83.162
83.1404
83.1191
83.0976
83.076
83.0549
83.0342
83.0141
82.9944
82.9754
82.9577
82.9414
82.9268
82.9145
82.9042
82.8965
82.8934
82.8928
82.8923
82.8991
82.9119
82.9227
82.9351
82.9547
82.9757
82.996
83.0227
83.0479
83.0713
83.1028
83.128
83.1488
83.1791
83.2017
83.2163
83.2395
83.261
83.2741
83.2908
83.309
83.3227
83.3343
83.3509
83.3666
83.3781
83.3931
83.4103
83.426
83.4388
83.4558
83.4734
83.4891
83.5047
83.5212
83.5371
83.5523
83.5671
83.5815
83.5948
83.6073
83.6197
83.6312
83.6417
83.6526
83.6631
83.6728
83.6828
83.6932
83.703
83.7132
83.7241
83.7351
83.7465
83.7587
83.7715
83.7846
83.7984
83.813
83.8279
83.8431
83.8587
83.8746
83.8905
83.9064
83.9224
83.9381
83.9535
83.9687
83.9834
83.9977
84.0115
84.0248
84.0375
84.0497
84.0613
84.0723
84.0829
84.093
84.1026
84.1118
84.1208
84.1295
84.1381
84.1467
84.1555
84.1644
84.1737
84.1834
84.1936
84.2044
84.2158
84.2278
84.2405
84.2537
84.2676
84.282
84.2968
84.3121
84.3277
84.3435
84.3595
84.3755
84.3915
84.4073
84.4229
84.4382
84.4531
84.4676
84.4816
84.4952
84.5083
84.5209
84.5331
84.5448
84.5562
84.5673
84.5782
84.589
84.5996
84.6103
84.621
84.6319
84.643
84.6544
84.666
84.678
84.6904
84.7031
84.7161
84.7295
84.7432
84.7571
84.7712
84.7855
84.7998
84.814
84.8282
84.8422
84.8559
84.8693
84.8823
84.8948
84.9068
84.9182
84.929
84.9393
84.9489
84.9579
84.9662
84.974
84.9811
84.9878
84.994
84.9998
85.0056
85.0116
85.0181
85.0255
85.0339
85.0423
85.0486
85.0474
85.0322
84.9892
84.9084
84.7645
84.5509
84.1445
82.7247
83.5546
83.5277
83.5008
83.4738
83.447
83.4199
83.3931
83.3669
83.3412
83.316