/*--------------------------------*- C++ -*----------------------------------*\
| =========                 |                                                 |
| \\      /  F ield         | OpenFOAM: The Open Source CFD Toolbox           |
|  \\    /   O peration     | Version:  v1706                                 |
|   \\  /    A nd           | Web:      www.OpenFOAM.com                      |
|    \\/     M anipulation  |                                                 |
\*---------------------------------------------------------------------------*/
FoamFile
{
    version     2.0;
    format      ascii;
    class       volScalarField;
    location    "1.7e-05";
    object      Tov;
}
// * * * * * * * * * * * * * * * * * * * * * * * * * * * * * * * * * * * * * //

dimensions      [0 0 0 1 0 0 0];


internalField   nonuniform List<scalar> 
30104
(
144.402
144.402
144.402
144.402
144.402
144.402
144.403
144.403
144.403
144.403
144.404
144.404
144.404
144.405
144.405
144.405
144.405
144.404
144.404
144.404
144.405
144.405
144.405
144.405
144.405
144.405
144.405
144.405
144.405
144.405
144.405
144.405
144.405
144.405
144.406
144.406
144.406
144.406
144.406
144.406
144.406
144.406
144.406
144.406
144.406
144.406
144.406
144.407
144.407
144.407
144.407
144.407
144.407
144.407
144.407
144.407
144.407
144.407
144.407
144.408
144.408
144.408
144.408
144.408
144.408
144.408
144.408
144.408
144.408
144.408
144.409
144.409
144.409
144.409
144.409
144.409
144.409
144.409
144.409
144.41
144.41
144.41
144.41
144.41
144.41
144.41
144.41
144.411
144.411
144.411
144.411
144.411
144.411
144.411
144.412
144.412
144.412
144.412
144.412
144.412
144.412
144.413
144.413
144.413
144.413
144.413
144.413
144.414
144.414
144.414
144.414
144.414
144.415
144.415
144.415
144.415
144.415
144.416
144.416
144.416
144.416
144.416
144.417
144.417
144.417
144.417
144.417
144.418
144.418
144.418
144.418
144.419
144.419
144.419
144.419
144.42
144.42
144.42
144.42
144.421
144.421
144.421
144.421
144.422
144.422
144.422
144.423
144.423
144.423
144.424
144.424
144.424
144.424
144.425
144.425
144.425
144.426
144.426
144.426
144.427
144.427
144.428
144.428
144.428
144.429
144.429
144.429
144.43
144.43
144.431
144.431
144.431
144.432
144.432
144.433
144.433
144.434
144.434
144.435
144.435
144.435
144.436
144.437
144.437
144.438
144.438
144.439
144.439
144.44
144.441
144.441
144.442
144.443
144.443
144.444
144.445
144.445
144.446
144.447
144.448
144.448
144.449
144.45
144.451
144.451
144.452
144.453
144.454
144.453
144.446
144.409
144.41
144.411
144.412
144.413
144.414
144.415
144.417
144.418
144.419
144.421
144.423
144.424
144.426
144.428
144.43
144.432
144.428
144.429
144.429
144.43
144.43
144.431
144.431
144.432
144.432
144.433
144.433
144.434
144.434
144.435
144.435
144.436
144.436
144.437
144.437
144.438
144.439
144.439
144.44
144.44
144.441
144.441
144.442
144.443
144.443
144.444
144.444
144.445
144.445
144.446
144.447
144.447
144.448
144.449
144.449
144.45
144.451
144.451
144.452
144.453
144.453
144.454
144.455
144.456
144.456
144.457
144.458
144.459
144.46
144.46
144.461
144.462
144.463
144.464
144.465
144.466
144.467
144.468
144.468
144.469
144.47
144.471
144.472
144.473
144.474
144.475
144.476
144.478
144.479
144.48
144.481
144.482
144.483
144.484
144.485
144.487
144.488
144.489
144.491
144.492
144.493
144.494
144.496
144.497
144.499
144.5
144.502
144.503
144.505
144.506
144.508
144.509
144.511
144.512
144.514
144.516
144.517
144.519
144.521
144.522
144.524
144.526
144.528
144.53
144.532
144.533
144.535
144.537
144.539
144.541
144.543
144.546
144.548
144.55
144.552
144.554
144.557
144.559
144.562
144.564
144.567
144.569
144.572
144.575
144.577
144.58
144.583
144.586
144.589
144.592
144.595
144.598
144.601
144.605
144.608
144.611
144.615
144.618
144.621
144.625
144.628
144.632
144.636
144.639
144.643
144.647
144.65
144.654
144.658
144.662
144.666
144.67
144.674
144.678
144.682
144.686
144.691
144.695
144.7
144.704
144.709
144.714
144.718
144.723
144.728
144.734
144.739
144.744
144.75
144.756
144.761
144.767
144.774
144.78
144.786
144.793
144.799
144.806
144.813
144.82
144.828
144.835
144.842
144.85
144.858
144.866
144.874
144.874
144.836
144.428
144.431
144.433
144.437
144.44
144.444
144.448
144.452
144.456
144.46
144.465
144.47
144.475
144.481
144.486
144.492
144.496
144.498
144.499
144.501
144.503
144.505
144.506
144.508
144.51
144.512
144.514
144.516
144.518
144.52
144.522
144.524
144.526
144.529
144.531
144.533
144.535
144.537
144.539
144.542
144.544
144.546
144.548
144.551
144.553
144.555
144.558
144.56
144.562
144.565
144.567
144.57
144.572
144.575
144.578
144.58
144.583
144.586
144.588
144.591
144.594
144.597
144.6
144.603
144.606
144.609
144.613
144.616
144.619
144.623
144.626
144.63
144.633
144.637
144.64
144.644
144.648
144.652
144.656
144.66
144.664
144.668
144.672
144.676
144.68
144.685
144.689
144.694
144.698
144.703
144.708
144.713
144.718
144.723
144.728
144.733
144.738
144.744
144.749
144.755
144.761
144.767
144.773
144.779
144.785
144.791
144.798
144.804
144.811
144.818
144.825
144.832
144.839
144.847
144.854
144.862
144.869
144.877
144.885
144.893
144.901
144.909
144.918
144.926
144.935
144.944
144.952
144.961
144.971
144.98
144.989
144.999
145.009
145.019
145.029
145.04
145.05
145.061
145.072
145.083
145.095
145.107
145.119
145.131
145.144
145.157
145.17
145.184
145.197
145.211
145.226
145.24
145.255
145.271
145.286
145.302
145.318
145.334
145.351
145.368
145.385
145.402
145.42
145.437
145.455
145.474
145.492
145.511
145.53
145.549
145.568
145.588
145.608
145.628
145.648
145.669
145.69
145.712
145.734
145.756
145.779
145.803
145.827
145.851
145.877
145.903
145.929
145.957
145.985
146.014
146.044
146.075
146.107
146.139
146.173
146.208
146.243
146.28
146.318
146.356
146.396
146.436
146.478
146.52
146.564
146.608
146.654
146.678
146.543
144.475
144.482
144.49
144.499
144.508
144.518
144.528
144.539
144.551
144.563
144.575
144.589
144.602
144.617
144.632
144.647
144.682
144.687
144.692
144.697
144.703
144.708
144.714
144.72
144.726
144.732
144.738
144.745
144.751
144.758
144.765
144.772
144.778
144.786
144.793
144.8
144.807
144.814
144.822
144.829
144.837
144.844
144.852
144.859
144.867
144.875
144.883
144.891
144.899
144.908
144.916
144.925
144.934
144.942
144.951
144.961
144.97
144.98
144.989
144.999
145.009
145.02
145.03
145.041
145.052
145.063
145.075
145.086
145.098
145.11
145.122
145.135
145.148
145.161
145.174
145.187
145.201
145.215
145.229
145.244
145.259
145.274
145.289
145.304
145.32
145.336
145.352
145.369
145.385
145.402
145.42
145.438
145.456
145.474
145.493
145.512
145.531
145.551
145.572
145.592
145.614
145.635
145.658
145.68
145.704
145.727
145.752
145.776
145.802
145.828
145.854
145.881
145.909
145.937
145.965
145.994
146.024
146.054
146.085
146.116
146.148
146.18
146.213
146.246
146.28
146.314
146.349
146.384
146.42
146.457
146.494
146.532
146.57
146.609
146.649
146.69
146.732
146.774
146.818
146.862
146.908
146.954
147.002
147.051
147.102
147.154
147.207
147.262
147.318
147.376
147.435
147.496
147.559
147.623
147.689
147.757
147.826
147.897
147.969
148.043
148.118
148.195
148.273
148.352
148.433
148.514
148.597
148.68
148.765
148.85
148.935
149.022
149.109
149.197
149.286
149.375
149.466
149.558
149.651
149.745
149.841
149.938
150.037
150.138
150.241
150.346
150.453
150.563
150.675
150.79
150.908
151.03
151.154
151.283
151.415
151.552
151.693
151.838
151.988
152.143
152.303
152.468
152.639
152.814
152.996
153.183
153.374
153.551
153.152
144.592
144.611
144.631
144.653
144.676
144.7
144.726
144.754
144.783
144.813
144.845
144.879
144.913
144.949
144.986
145.169
145.183
145.199
145.214
145.23
145.247
145.264
145.282
145.3
145.318
145.337
145.356
145.376
145.396
145.417
145.438
145.459
145.481
145.502
145.525
145.547
145.57
145.593
145.616
145.64
145.664
145.688
145.712
145.737
145.762
145.787
145.813
145.839
145.866
145.892
145.92
145.948
145.976
146.005
146.034
146.064
146.094
146.125
146.157
146.189
146.222
146.255
146.29
146.325
146.361
146.397
146.435
146.473
146.512
146.552
146.593
146.634
146.677
146.721
146.765
146.81
146.857
146.904
146.952
147.001
147.051
147.102
147.154
147.207
147.26
147.315
147.371
147.428
147.485
147.544
147.604
147.665
147.727
147.791
147.855
147.921
147.989
148.058
148.128
148.201
148.274
148.35
148.427
148.507
148.588
148.671
148.756
148.844
148.934
149.026
149.12
149.217
149.316
149.418
149.522
149.628
149.737
149.848
149.961
150.077
150.195
150.315
150.437
150.561
150.686
150.813
150.942
151.073
151.204
151.338
151.473
151.61
151.75
151.891
152.035
152.181
152.329
152.481
152.635
152.793
152.954
153.119
153.287
153.46
153.637
153.818
154.004
154.195
154.392
154.593
154.801
155.014
155.234
155.459
155.691
155.93
156.175
156.427
156.685
156.95
157.222
157.501
157.785
158.076
158.373
158.675
158.983
159.295
159.611
159.931
160.253
160.578
160.904
161.232
161.562
161.895
162.23
162.567
162.907
163.25
163.596
163.945
164.298
164.655
165.017
165.384
165.756
166.136
166.522
166.916
167.319
167.732
168.154
168.589
169.036
169.497
169.971
170.463
170.969
171.495
172.038
172.602
173.187
173.786
174.425
175.05
175.814
175.239
144.832
144.875
144.921
144.971
145.024
145.081
145.141
145.204
145.271
145.342
145.416
145.493
145.574
145.657
145.744
145.833
146.413
146.454
146.496
146.54
146.585
146.632
146.679
146.729
146.779
146.831
146.884
146.939
146.994
147.051
147.109
147.169
147.229
147.291
147.353
147.417
147.482
147.547
147.614
147.682
147.75
147.82
147.89
147.962
148.035
148.108
148.183
148.259
148.337
148.415
148.495
148.576
148.659
148.743
148.829
148.917
149.006
149.096
149.189
149.284
149.38
149.479
149.58
149.683
149.788
149.896
150.006
150.119
150.234
150.352
150.473
150.596
150.723
150.852
150.984
151.12
151.259
151.401
151.546
151.694
151.846
152.001
152.159
152.32
152.484
152.651
152.822
152.995
153.171
153.349
153.53
153.714
153.901
154.09
154.283
154.479
154.678
154.881
155.088
155.299
155.514
155.733
155.958
156.187
156.422
156.662
156.908
157.161
157.419
157.684
157.956
158.235
158.522
158.815
159.117
159.426
159.742
160.067
160.399
160.74
161.088
161.443
161.806
162.176
162.553
162.936
163.325
163.72
164.118
164.521
164.926
165.335
165.747
166.162
166.581
167.005
167.432
167.863
168.3
168.741
169.188
169.641
170.1
170.566
171.04
171.522
172.014
172.515
173.027
173.551
174.088
174.639
175.204
175.786
176.384
177.001
177.636
178.291
178.966
179.663
180.381
181.121
181.883
182.667
183.472
184.299
185.146
186.012
186.896
187.798
188.715
189.646
190.577
191.504
192.425
193.339
194.246
195.145
196.034
196.914
197.783
198.641
199.487
200.32
201.141
201.948
202.743
203.522
204.287
205.036
205.771
206.488
207.191
207.875
208.543
209.193
209.825
210.44
211.033
211.614
212.165
212.713
213.22
213.738
214.202
214.685
215.121
215.641
215.041
145.446
145.549
145.66
145.779
145.906
146.04
146.182
146.331
146.488
146.653
146.825
147.005
147.191
149.446
149.553
149.664
149.778
149.896
150.017
150.142
150.271
150.404
150.541
150.681
150.825
150.972
151.123
151.278
151.436
151.597
151.762
151.929
152.1
152.274
152.451
152.63
152.813
152.998
153.187
153.378
153.572
153.769
153.97
154.173
154.38
154.591
154.805
155.022
155.243
155.468
155.697
155.929
156.165
156.404
156.648
156.895
157.147
157.402
157.663
157.928
158.198
158.473
158.754
159.04
159.333
159.631
159.936
160.248
160.567
160.892
161.226
161.566
161.915
162.272
162.637
163.01
163.391
163.781
164.179
164.586
165
165.424
165.855
166.294
166.741
167.196
167.657
168.125
168.598
169.077
169.56
170.049
170.543
171.043
171.548
172.06
172.577
173.101
173.632
174.17
174.715
175.268
175.829
176.398
176.977
177.566
178.166
178.776
179.399
180.035
180.685
181.349
182.028
182.723
183.434
184.163
184.908
185.671
186.451
187.248
188.061
188.891
189.736
190.596
191.47
192.357
193.249
194.137
195.019
195.895
196.764
197.625
198.478
199.323
200.158
200.984
201.8
202.607
203.403
204.188
204.962
205.725
206.477
207.216
207.942
208.655
209.354
210.038
210.706
211.357
211.991
212.606
213.201
213.777
214.332
214.866
215.379
215.87
216.339
216.788
217.215
217.621
218.007
218.374
218.721
219.051
219.361
219.655
219.932
220.196
220.449
220.693
220.926
221.152
221.369
221.579
221.781
221.978
222.168
222.352
222.53
222.701
222.868
223.028
223.184
223.332
223.476
223.612
223.746
223.87
223.993
224.106
224.221
224.324
224.431
224.528
224.627
224.722
224.813
224.911
224.993
225.1
225.17
225.279
225.384
225.215
146.876
147.115
147.371
147.643
147.932
148.239
148.562
148.902
149.258
149.629
150.014
150.413
150.824
156.375
156.631
156.895
157.167
157.448
157.737
158.034
158.34
158.654
158.976
159.305
159.642
159.987
160.338
160.697
161.063
161.436
161.815
162.2
162.592
162.99
163.394
163.804
164.22
164.642
165.07
165.504
165.944
166.39
166.843
167.302
167.767
168.239
168.719
169.205
169.699
170.2
170.708
171.224
171.746
172.276
172.811
173.353
173.901
174.455
175.015
175.583
176.157
176.739
177.328
177.924
178.529
179.141
179.761
180.389
181.026
181.672
182.327
182.991
183.665
184.349
185.043
185.749
186.466
187.194
187.935
188.687
189.451
190.227
191.014
191.813
192.622
193.441
194.269
195.106
195.947
196.784
197.614
198.435
199.248
200.051
200.844
201.627
202.399
203.159
203.908
204.647
205.374
206.089
206.794
207.488
208.172
208.844
209.505
210.156
210.794
211.421
212.035
212.635
213.221
213.791
214.345
214.881
215.398
215.897
216.376
216.835
217.273
217.691
218.089
218.467
218.826
219.164
219.486
219.795
220.091
220.375
220.648
220.911
221.164
221.408
221.643
221.87
222.088
222.298
222.499
222.691
222.874
223.048
223.213
223.368
223.513
223.649
223.776
223.893
224.003
224.104
224.199
224.288
224.372
224.451
224.527
224.6
224.671
224.742
224.811
224.881
224.951
225.021
225.092
225.163
225.235
225.306
225.379
225.451
225.524
225.595
225.666
225.736
225.805
225.872
225.938
226.001
226.062
226.119
226.174
226.225
226.273
226.317
226.357
226.394
226.428
226.459
226.486
226.512
226.534
226.556
226.575
226.595
226.612
226.631
226.647
226.667
226.682
226.704
226.719
226.743
226.759
226.786
226.802
226.827
226.858
226.821
149.595
150.095
150.627
151.192
151.789
152.418
153.078
153.768
154.486
155.231
156
156.791
157.603
158.432
170.177
170.679
171.195
171.726
172.27
172.829
173.403
173.99
174.591
175.205
175.832
176.47
177.119
177.777
178.446
179.123
179.81
180.504
181.206
181.915
182.63
183.35
184.075
184.805
185.538
186.275
187.015
187.758
188.504
189.254
190.008
190.765
191.527
192.293
193.064
193.84
194.62
195.405
196.195
196.988
197.786
198.581
199.37
200.151
200.922
201.684
202.436
203.176
203.905
204.622
205.327
206.019
206.698
207.364
208.018
208.659
209.287
209.904
210.508
211.099
211.679
212.245
212.799
213.338
213.864
214.375
214.869
215.348
215.81
216.253
216.679
217.087
217.475
217.846
218.198
218.533
218.854
219.164
219.462
219.75
220.029
220.3
220.562
220.818
221.067
221.309
221.546
221.775
221.998
222.213
222.42
222.619
222.808
222.988
223.156
223.315
223.464
223.601
223.728
223.847
223.957
224.059
224.155
224.246
224.331
224.413
224.493
224.571
224.647
224.723
224.798
224.873
224.948
225.023
225.097
225.171
225.244
225.317
225.388
225.458
225.526
225.59
225.652
225.711
225.766
225.818
225.865
225.909
225.949
225.985
226.019
226.049
226.077
226.103
226.127
226.151
226.173
226.195
226.218
226.24
226.264
226.288
226.312
226.338
226.365
226.392
226.42
226.449
226.478
226.507
226.535
226.563
226.59
226.617
226.642
226.667
226.69
226.713
226.734
226.754
226.773
226.791
226.809
226.825
226.841
226.856
226.871
226.884
226.898
226.911
226.925
226.938
226.952
226.964
226.979
226.992
227.007
227.021
227.037
227.052
227.07
227.086
227.106
227.123
227.145
227.163
227.187
227.206
227.231
227.252
227.277
227.308
227.303
155.903
156.934
158.02
159.158
160.348
161.589
162.88
164.215
165.588
166.991
168.416
169.854
171.298
172.744
191.823
192.54
193.269
194.01
194.762
195.525
196.298
197.081
197.872
198.67
199.475
200.28
201.081
201.876
202.662
203.439
204.205
204.958
205.697
206.421
207.129
207.82
208.494
209.15
209.789
210.41
211.014
211.599
212.168
212.718
213.25
213.765
214.263
214.742
215.203
215.646
216.072
216.479
216.869
217.241
217.595
217.933
218.259
218.571
218.871
219.16
219.439
219.708
219.968
220.22
220.465
220.704
220.936
221.161
221.38
221.593
221.798
221.995
222.185
222.366
222.538
222.7
222.853
222.998
223.133
223.259
223.378
223.489
223.595
223.696
223.792
223.885
223.976
224.066
224.153
224.241
224.329
224.417
224.504
224.593
224.68
224.766
224.851
224.934
225.013
225.09
225.163
225.231
225.295
225.356
225.41
225.46
225.508
225.551
225.59
225.627
225.663
225.696
225.729
225.761
225.794
225.827
225.86
225.895
225.93
225.967
226.004
226.043
226.082
226.122
226.161
226.2
226.239
226.276
226.311
226.345
226.377
226.407
226.434
226.459
226.482
226.502
226.52
226.537
226.551
226.564
226.576
226.586
226.596
226.605
226.614
226.623
226.631
226.641
226.651
226.661
226.672
226.685
226.698
226.713
226.729
226.745
226.763
226.782
226.802
226.823
226.844
226.866
226.889
226.912
226.935
226.958
226.982
227.005
227.028
227.051
227.074
227.096
227.117
227.138
227.158
227.177
227.196
227.213
227.231
227.247
227.264
227.28
227.296
227.312
227.33
227.346
227.364
227.382
227.402
227.421
227.442
227.463
227.487
227.51
227.535
227.56
227.588
227.615
227.644
227.673
227.704
227.735
227.767
227.799
227.832
227.875
227.873
168.217
170.12
172.079
174.087
176.134
178.214
180.318
182.435
184.551
186.653
188.729
190.766
192.754
194.682
212.767
213.217
213.658
214.089
214.51
214.921
215.322
215.713
216.092
216.459
216.815
217.16
217.495
217.822
218.14
218.449
218.749
219.041
219.324
219.601
219.87
220.131
220.385
220.631
220.87
221.1
221.321
221.533
221.735
221.928
222.11
222.281
222.442
222.594
222.735
222.868
222.992
223.109
223.22
223.324
223.425
223.521
223.615
223.706
223.797
223.886
223.974
224.061
224.147
224.232
224.315
224.396
224.473
224.548
224.619
224.686
224.749
224.809
224.865
224.917
224.967
225.014
225.059
225.102
225.145
225.187
225.23
225.273
225.318
225.363
225.409
225.458
225.507
225.556
225.607
225.659
225.708
225.758
225.807
225.853
225.895
225.938
225.976
226.01
226.042
226.073
226.098
226.122
226.144
226.164
226.181
226.199
226.215
226.231
226.247
226.263
226.279
226.296
226.314
226.333
226.354
226.375
226.397
226.42
226.444
226.469
226.493
226.518
226.543
226.568
226.592
226.616
226.639
226.662
226.684
226.705
226.724
226.743
226.761
226.778
226.793
226.808
226.822
226.835
226.847
226.859
226.871
226.882
226.894
226.906
226.918
226.931
226.944
226.959
226.974
226.991
227.008
227.027
227.047
227.068
227.09
227.113
227.136
227.161
227.187
227.213
227.239
227.266
227.294
227.321
227.349
227.377
227.406
227.433
227.461
227.488
227.515
227.541
227.567
227.592
227.617
227.642
227.666
227.691
227.715
227.74
227.765
227.791
227.817
227.844
227.871
227.9
227.93
227.962
227.994
228.028
228.063
228.1
228.138
228.177
228.218
228.259
228.303
228.347
228.393
228.44
228.488
228.537
228.586
228.637
228.687
228.756
228.746
188.722
191.494
194.247
196.968
199.642
202.263
204.839
207.357
209.777
212.067
214.201
216.166
217.954
221.496
221.627
221.753
221.874
221.99
222.102
222.209
222.312
222.411
222.506
222.599
222.69
222.779
222.866
222.953
223.04
223.127
223.216
223.305
223.395
223.486
223.577
223.668
223.758
223.847
223.935
224.021
224.103
224.183
224.259
224.332
224.401
224.467
224.53
224.59
224.648
224.705
224.759
224.813
224.866
224.919
224.97
225.023
225.075
225.126
225.177
225.227
225.274
225.32
225.365
225.407
225.445
225.481
225.516
225.548
225.577
225.606
225.633
225.659
225.684
225.709
225.734
225.76
225.786
225.813
225.841
225.87
225.9
225.932
225.963
225.995
226.029
226.06
226.092
226.125
226.154
226.183
226.215
226.241
226.265
226.291
226.315
226.334
226.354
226.375
226.392
226.407
226.424
226.44
226.453
226.469
226.485
226.5
226.517
226.535
226.553
226.573
226.594
226.616
226.638
226.663
226.687
226.711
226.738
226.765
226.79
226.816
226.843
226.868
226.893
226.918
226.942
226.965
226.987
227.008
227.029
227.049
227.068
227.086
227.104
227.121
227.138
227.155
227.171
227.188
227.204
227.221
227.238
227.256
227.276
227.296
227.318
227.34
227.364
227.389
227.416
227.443
227.472
227.502
227.533
227.565
227.597
227.631
227.665
227.7
227.735
227.772
227.808
227.844
227.881
227.918
227.955
227.992
228.029
228.066
228.103
228.14
228.178
228.216
228.254
228.293
228.333
228.373
228.414
228.456
228.499
228.544
228.59
228.637
228.686
228.737
228.79
228.845
228.902
228.961
229.022
229.085
229.15
229.217
229.286
229.357
229.43
229.505
229.582
229.661
229.742
229.825
229.909
229.996
230.084
230.172
230.292
230.273
215.192
218.116
220.826
223.297
225.513
227.464
229.142
230.556
231.735
232.713
233.513
234.153
234.643
224.08
224.095
224.109
224.123
224.138
224.154
224.172
224.19
224.212
224.237
224.263
224.294
224.328
224.367
224.408
224.452
224.499
224.549
224.6
224.652
224.705
224.757
224.81
224.861
224.912
224.961
225.01
225.057
225.102
225.147
225.191
225.234
225.276
225.318
225.358
225.398
225.437
225.476
225.512
225.549
225.585
225.618
225.651
225.685
225.714
225.742
225.772
225.799
225.822
225.846
225.87
225.891
225.912
225.934
225.955
225.976
225.998
226.02
226.043
226.067
226.092
226.118
226.146
226.174
226.202
226.233
226.263
226.292
226.325
226.354
226.381
226.412
226.44
226.463
226.49
226.516
226.536
226.556
226.581
226.599
226.614
226.635
226.654
226.669
226.687
226.707
226.724
226.742
226.764
226.785
226.806
226.83
226.854
226.878
226.905
226.933
226.96
226.989
227.02
227.048
227.077
227.109
227.139
227.167
227.197
227.227
227.254
227.28
227.308
227.334
227.36
227.385
227.41
227.435
227.459
227.483
227.508
227.532
227.556
227.581
227.606
227.631
227.658
227.686
227.715
227.745
227.776
227.809
227.843
227.879
227.916
227.955
227.995
228.036
228.079
228.124
228.169
228.216
228.263
228.312
228.362
228.412
228.464
228.516
228.569
228.623
228.677
228.732
228.787
228.844
228.901
228.959
229.018
229.078
229.139
229.202
229.265
229.331
229.398
229.467
229.538
229.611
229.686
229.764
229.844
229.927
230.013
230.102
230.193
230.288
230.386
230.487
230.591
230.698
230.808
230.921
231.037
231.157
231.28
231.405
231.534
231.667
231.802
231.941
232.084
232.23
232.379
232.531
232.682
232.881
232.843
238.443
239.464
240.27
240.887
241.332
241.624
241.779
241.798
241.752
241.627
241.426
241.162
224.945
224.937
224.929
224.923
224.918
224.914
224.912
224.913
224.916
224.92
224.929
224.942
224.957
224.973
224.995
225.02
225.045
225.072
225.101
225.133
225.165
225.198
225.233
225.268
225.305
225.342
225.38
225.418
225.458
225.498
225.538
225.578
225.619
225.659
225.698
225.737
225.776
225.811
225.845
225.881
225.912
225.94
225.971
225.999
226.022
226.048
226.074
226.096
226.116
226.14
226.163
226.183
226.205
226.23
226.252
226.276
226.302
226.328
226.355
226.383
226.411
226.442
226.473
226.502
226.533
226.566
226.594
226.625
226.658
226.685
226.712
226.744
226.77
226.792
226.82
226.845
226.864
226.888
226.914
226.934
226.953
226.979
227.002
227.022
227.047
227.074
227.097
227.123
227.154
227.181
227.21
227.243
227.274
227.306
227.342
227.376
227.409
227.446
227.483
227.517
227.553
227.591
227.627
227.661
227.697
227.733
227.768
227.802
227.838
227.873
227.908
227.944
227.979
228.015
228.051
228.088
228.126
228.165
228.204
228.245
228.287
228.33
228.375
228.422
228.471
228.522
228.574
228.628
228.685
228.743
228.803
228.865
228.929
228.994
229.062
229.131
229.202
229.274
229.348
229.424
229.501
229.579
229.659
229.741
229.824
229.908
229.995
230.082
230.172
230.264
230.357
230.453
230.551
230.651
230.754
230.86
230.969
231.081
231.196
231.314
231.436
231.562
231.692
231.826
231.963
232.105
232.252
232.402
232.557
232.717
232.881
233.049
233.223
233.4
233.582
233.769
233.961
234.157
234.358
234.563
234.774
234.99
235.211
235.437
235.669
235.905
236.148
236.39
236.629
236.923
236.845
247.252
247.206
247.077
246.865
246.59
246.268
245.9
245.498
245.078
244.64
225.39
225.371
225.354
225.339
225.326
225.315
225.308
225.304
225.303
225.305
225.309
225.316
225.325
225.338
225.358
225.378
225.396
225.416
225.442
225.47
225.497
225.527
225.559
225.592
225.626
225.662
225.7
225.739
225.779
225.821
225.862
225.904
225.946
225.987
226.026
226.066
226.104
226.137
226.172
226.206
226.233
226.262
226.292
226.316
226.34
226.367
226.392
226.413
226.439
226.465
226.489
226.513
226.542
226.57
226.596
226.627
226.658
226.688
226.721
226.754
226.786
226.821
226.855
226.887
226.923
226.957
226.987
227.021
227.054
227.082
227.111
227.144
227.171
227.197
227.228
227.258
227.282
227.312
227.343
227.37
227.399
227.433
227.465
227.494
227.531
227.568
227.602
227.641
227.682
227.72
227.762
227.806
227.849
227.893
227.939
227.985
228.03
228.078
228.126
228.173
228.221
228.27
228.319
228.367
228.417
228.467
228.518
228.569
228.62
228.673
228.727
228.781
228.837
228.894
228.952
229.012
229.073
229.136
229.202
229.269
229.339
229.411
229.485
229.562
229.642
229.724
229.809
229.896
229.986
230.079
230.174
230.272
230.372
230.475
230.58
230.688
230.799
230.912
231.027
231.145
231.265
231.388
231.514
231.642
231.773
231.907
232.045
232.185
232.329
232.476
232.627
232.782
232.941
233.104
233.271
233.444
233.621
233.803
233.99
234.182
234.38
234.583
234.792
235.007
235.227
235.453
235.686
235.924
236.168
236.418
236.675
236.937
237.206
237.481
237.762
238.049
238.343
238.643
238.95
239.263
239.584
239.911
240.247
240.589
240.939
241.292
241.652
242.004
242.346
242.723
242.561
250.134
249.7
249.242
248.79
248.261
247.703
247.156
246.611
246.058
225.743
225.729
225.716
225.707
225.699
225.694
225.693
225.693
225.694
225.698
225.705
225.714
225.724
225.736
225.751
225.769
225.789
225.81
225.832
225.858
225.887
225.917
225.949
225.983
226.019
226.058
226.097
226.138
226.181
226.223
226.265
226.309
226.35
226.39
226.432
226.468
226.502
226.539
226.571
226.6
226.633
226.664
226.69
226.719
226.751
226.778
226.805
226.838
226.869
226.897
226.93
226.966
226.999
227.032
227.07
227.106
227.141
227.18
227.217
227.254
227.294
227.332
227.368
227.408
227.446
227.481
227.52
227.558
227.592
227.629
227.668
227.704
227.74
227.779
227.818
227.856
227.897
227.94
227.981
228.025
228.072
228.119
228.166
228.217
228.269
228.321
228.376
228.433
228.49
228.549
228.609
228.67
228.732
228.796
228.86
228.925
228.991
229.059
229.127
229.196
229.266
229.338
229.41
229.484
229.559
229.636
229.714
229.794
229.875
229.959
230.044
230.132
230.222
230.315
230.411
230.509
230.611
230.715
230.823
230.934
231.049
231.166
231.288
231.413
231.541
231.673
231.808
231.948
232.09
232.237
232.387
232.54
232.698
232.858
233.023
233.191
233.363
233.539
233.719
233.903
234.09
234.283
234.479
234.68
234.886
235.097
235.312
235.533
235.76
235.992
236.23
236.474
236.724
236.981
237.244
237.514
237.791
238.075
238.366
238.663
238.969
239.281
239.6
239.927
240.262
240.604
240.953
241.309
241.674
242.045
242.424
242.811
243.206
243.608
244.018
244.436
244.861
245.295
245.738
246.189
246.649
247.118
247.595
248.079
248.562
249.045
249.504
249.943
250.34
250.034
251.535
250.996
226.156
226.141
226.13
226.121
226.114
226.11
226.109
226.109
226.111
226.115
226.121
226.129
226.14
226.152
226.167
226.184
226.202
226.223
226.248
226.275
226.303
226.335
226.369
226.404
226.442
226.483
226.524
226.567
226.611
226.654
226.699
226.744
226.786
226.83
226.874
226.912
226.952
226.993
227.028
227.062
227.101
227.136
227.167
227.204
227.241
227.274
227.309
227.35
227.389
227.425
227.466
227.509
227.551
227.593
227.639
227.683
227.727
227.774
227.82
227.866
227.914
227.961
228.007
228.055
228.103
228.151
228.199
228.249
228.298
228.348
228.4
228.452
228.505
228.56
228.616
228.674
228.733
228.795
228.858
228.923
228.99
229.059
229.13
229.203
229.278
229.355
229.434
229.515
229.597
229.681
229.767
229.855
229.945
230.036
230.129
230.223
230.32
230.418
230.518
230.62
230.724
230.831
230.939
231.05
231.163
231.279
231.398
231.52
231.645
231.773
231.904
232.04
232.179
232.322
232.469
232.62
232.776
232.935
233.1
233.269
233.442
233.62
233.802
233.99
234.181
234.378
234.58
234.786
234.997
235.213
235.434
235.659
235.89
236.126
236.367
236.613
236.865
237.122
237.385
237.653
237.927
238.208
238.494
238.787
239.087
239.393
239.707
240.027
240.355
240.69
241.033
241.384
241.743
242.109
242.484
242.867
243.258
243.657
244.065
244.481
244.905
245.338
245.779
246.228
246.685
247.151
247.626
248.108
248.599
249.098
249.605
250.121
250.645
251.177
251.718
252.267
252.825
253.392
253.967
254.553
255.147
255.75
256.357
256.965
257.561
258.141
258.673
259.173
259.472
258.955
226.633
226.621
226.611
226.604
226.6
226.597
226.597
226.599
226.602
226.608
226.616
226.626
226.638
226.652
226.669
226.687
226.708
226.731
226.758
226.786
226.817
226.853
226.889
226.926
226.969
227.012
227.055
227.103
227.15
227.196
227.247
227.295
227.34
227.39
227.437
227.48
227.527
227.574
227.616
227.66
227.706
227.75
227.792
227.838
227.885
227.931
227.978
228.029
228.079
228.129
228.182
228.236
228.291
228.347
228.404
228.462
228.521
228.58
228.64
228.701
228.763
228.826
228.889
228.953
229.018
229.085
229.152
229.221
229.292
229.363
229.437
229.513
229.591
229.671
229.753
229.838
229.925
230.015
230.107
230.202
230.3
230.4
230.503
230.608
230.716
230.826
230.94
231.055
231.174
231.294
231.418
231.544
231.673
231.804
231.938
232.075
232.215
232.357
232.503
232.652
232.805
232.961
233.12
233.283
233.45
233.621
233.796
233.976
234.161
234.35
234.544
234.744
234.948
235.158
235.374
235.595
235.821
236.053
236.291
236.535
236.784
237.039
237.301
237.567
237.84
238.119
238.404
238.695
238.992
239.296
239.605
239.921
240.244
240.573
240.909
241.251
241.6
241.957
242.32
242.691
243.07
243.456
243.85
244.251
244.661
245.079
245.505
245.94
246.383
246.835
247.296
247.765
248.243
248.729
249.225
249.729
250.242
250.763
251.293
251.832
252.379
252.934
253.498
254.07
254.65
255.238
255.834
256.438
257.05
257.669
258.296
258.931
259.573
260.222
260.879
261.544
262.216
262.897
263.585
264.282
264.984
265.689
266.389
267.077
267.734
268.349
268.885
269.39
269.436
268.656
227.211
227.202
227.195
227.191
227.189
227.19
227.192
227.197