/*--------------------------------*- C++ -*----------------------------------*\
| =========                 |                                                 |
| \\      /  F ield         | OpenFOAM: The Open Source CFD Toolbox           |
|  \\    /   O peration     | Version:  v1706                                 |
|   \\  /    A nd           | Web:      www.OpenFOAM.com                      |
|    \\/     M anipulation  |                                                 |
\*---------------------------------------------------------------------------*/
FoamFile
{
    version     2.0;
    format      ascii;
    class       volScalarField;
    location    "1.7e-05";
    object      wallHeatFlux;
}
// * * * * * * * * * * * * * * * * * * * * * * * * * * * * * * * * * * * * * //

dimensions      [1 0 -3 0 0 0 0];


internalField   uniform 0;

boundaryField
{
    cone
    {
        type            calculated;
        value           nonuniform List<scalar> 
119
(
25410.5
25854
26253.3
26592.8
26854.6
27019.2
27065.9
26974.5
26726.4
26308
25717
24948.2
23999.6
22882.6
21617.2
20229.8
18753.4
17222.4
15669.9
14127.2
12622.2
11177.7
9811.47
8535.72
7357.92
6281.28
5305.56
4427.82
3643.19
2946
2329.32
1786.06
1309.18
891.768
527.15
209.216
-67.5958
-308.302
-517.385
-698.822
-856.128
-992.39
-1110.32
-1212.27
-1300.32
-1376.27
-1441.69
-1497.96
-1546.28
-1587.7
-1623.12
-1653.36
-1679.12
-1701
-1719.55
-1735.23
-1748.44
-1759.55
-1768.86
-1776.63
-1783.1
-1788.47
-1792.91
-1796.57
-1799.56
-1802.01
-1803.99
-1805.59
-1806.87
-1807.89
-1808.69
-1809.31
-1809.78
-1810.13
-1810.38
-1810.55
-1810.66
-1810.71
-1810.72
-1810.7
-1810.65
-1810.57
-1810.49
-1810.39
-1810.29
-1810.18
-1810.08
-1810
-1809.92
-1809.88
-1809.86
-1809.88
-1809.95
-1810.05
-1810.2
-1810.39
-1810.6
-1810.83
-1811.06
-1811.26
-1811.44
-1811.58
-1811.68
-1811.75
-1811.85
-1812.01
-1812.34
-1812.96
-1814.08
-1815.95
-1818.97
-1823.67
-1830.83
-1841.55
-1857.5
-1881.62
-1919.12
-1978.8
-2066.57
)
;
    }
    inlet
    {
        type            calculated;
        value           uniform 0;
    }
    rWedge
    {
        type            wedge;
    }
    lWedge
    {
        type            wedge;
    }
    outlet
    {
        type            calculated;
        value           uniform 0;
    }
    procBoundary0to1
    {
        type            processor;
        value           uniform 0;
    }
    procBoundary0to2
    {
        type            processor;
        value           uniform 0;
    }
}


// ************************************************************************* //
