/*--------------------------------*- C++ -*----------------------------------*\
| =========                 |                                                 |
| \\      /  F ield         | OpenFOAM: The Open Source CFD Toolbox           |
|  \\    /   O peration     | Version:  v1706                                 |
|   \\  /    A nd           | Web:      www.OpenFOAM.com                      |
|    \\/     M anipulation  |                                                 |
\*---------------------------------------------------------------------------*/
FoamFile
{
    version     2.0;
    format      ascii;
    class       volVectorField;
    location    "3.2e-05";
    object      U;
}
// * * * * * * * * * * * * * * * * * * * * * * * * * * * * * * * * * * * * * //

dimensions      [0 1 -1 0 0 0 0];


internalField   nonuniform List<vector> 
29987
(
(978.58 -2.17577e-08 3.79693e-11)
(978.58 -8.57135e-09 1.42636e-11)
(978.58 -3.87795e-09 6.46047e-12)
(978.58 -2.16635e-09 3.65492e-12)
(978.58 -1.41582e-09 2.39474e-12)
(978.58 -1.01822e-09 1.72181e-12)
(978.58 -7.75772e-10 1.30408e-12)
(978.58 -6.14831e-10 1.02033e-12)
(978.58 -5.01288e-10 8.26322e-13)
(978.58 -4.17436e-10 6.9172e-13)
(978.58 -3.5443e-10 5.20395e-13)
(978.58 -3.06801e-10 4.59491e-13)
(978.58 -2.6876e-10 4.11816e-13)
(978.58 -2.38468e-10 3.48834e-13)
(978.58 -2.13531e-10 3.02134e-13)
(978.58 -1.92709e-10 2.64165e-13)
(978.58 -1.76109e-10 2.22322e-13)
(978.58 -1.62295e-10 1.97123e-13)
(978.58 -1.49671e-10 1.85594e-13)
(978.58 -1.38942e-10 1.71717e-13)
(978.58 -1.30142e-10 1.61796e-13)
(978.58 -1.22663e-10 1.38492e-13)
(978.58 -1.16282e-10 1.31305e-13)
(978.58 -1.0959e-10 1.1396e-13)
(978.58 -1.04806e-10 1.17508e-13)
(978.58 -9.93969e-11 1.11335e-13)
(978.58 -9.52287e-11 9.17079e-14)
(978.58 -9.2174e-11 8.28499e-14)
(978.58 -8.88717e-11 8.90855e-14)
(978.58 -8.53438e-11 8.14397e-14)
(978.58 -8.29498e-11 8.17472e-14)
(978.58 -8.01454e-11 7.41666e-14)
(978.58 -7.78972e-11 6.41819e-14)
(978.58 -7.59747e-11 5.94205e-14)
(978.58 -7.44107e-11 5.99631e-14)
(978.58 -7.25899e-11 5.71514e-14)
(978.58 -7.07051e-11 5.40183e-14)
(978.58 -6.87827e-11 4.49582e-14)
(978.58 -6.74456e-11 4.25977e-14)
(978.58 -6.66198e-11 4.23891e-14)
(978.58 -6.51205e-11 3.52304e-14)
(978.58 -6.48694e-11 4.01048e-14)
(978.58 -6.34788e-11 4.49944e-14)
(978.58 -6.27877e-11 3.74588e-14)
(978.58 -6.20846e-11 3.36322e-14)
(978.58 -6.17276e-11 3.26141e-14)
(978.58 -6.12636e-11 4.11771e-14)
(978.58 -6.01244e-11 2.96038e-14)
(978.58 -5.93851e-11 2.92468e-14)
(978.58 -5.90754e-11 3.26901e-14)
(978.58 -5.8457e-11 3.14602e-14)
(978.58 -5.84478e-11 2.92884e-14)
(978.58 -5.79043e-11 2.73335e-14)
(978.58 -5.73233e-11 2.34817e-14)
(978.58 -5.72912e-11 2.43201e-14)
(978.58 -5.65559e-11 2.04893e-14)
(978.58 -5.63502e-11 1.8103e-14)
(978.58 -5.66906e-11 1.99302e-14)
(978.58 -5.60598e-11 2.27459e-14)
(978.58 -5.57133e-11 2.59756e-14)
(978.58 -5.58581e-11 2.29701e-14)
(978.58 -5.57928e-11 1.36394e-14)
(978.58 -5.47959e-11 1.97988e-14)
(978.58 -5.52206e-11 2.08132e-14)
(978.58 -5.43422e-11 1.66554e-14)
(978.58 -5.47563e-11 1.55022e-14)
(978.58 -5.49617e-11 1.59823e-14)
(978.58 -5.50057e-11 1.8703e-14)
(978.58 -5.55088e-11 1.88162e-14)
(978.58 -5.51757e-11 1.61758e-14)
(978.58 -5.491e-11 1.47363e-14)
(978.58 -5.52396e-11 1.52379e-14)
(978.58 -5.60602e-11 1.38729e-14)
(978.58 -5.56298e-11 1.44927e-14)
(978.58 -5.55696e-11 1.78068e-14)
(978.58 -5.62328e-11 1.67995e-14)
(978.58 -5.57446e-11 1.56304e-14)
(978.58 -5.60096e-11 1.58989e-14)
(978.58 -5.5986e-11 1.00132e-14)
(978.58 -5.63728e-11 7.37656e-15)
(978.58 -5.67658e-11 1.03866e-14)
(978.58 -5.68179e-11 1.06908e-14)
(978.58 -5.71306e-11 8.17473e-15)
(978.58 -5.6942e-11 1.10157e-14)
(978.58 -5.72696e-11 1.29745e-14)
(978.58 -5.73621e-11 1.1657e-14)
(978.58 -5.80202e-11 1.01848e-14)
(978.58 -5.76024e-11 1.07391e-14)
(978.58 -5.77245e-11 1.10216e-14)
(978.58 -5.78542e-11 7.92112e-15)
(978.58 -5.84381e-11 7.4977e-15)
(978.58 -5.87422e-11 8.02594e-15)
(978.58 -5.958e-11 1.12201e-14)
(978.58 -5.90262e-11 1.25062e-14)
(978.58 -5.93466e-11 1.29368e-14)
(978.58 -5.91408e-11 1.13284e-14)
(978.58 -5.98347e-11 8.23718e-15)
(978.58 -6.00038e-11 1.05242e-14)
(978.58 -6.03304e-11 9.82273e-15)
(978.58 -6.09299e-11 7.11148e-15)
(978.58 -6.11121e-11 7.07986e-15)
(978.58 -6.17723e-11 1.27129e-14)
(978.58 -6.21462e-11 1.18225e-14)
(978.58 -6.23794e-11 8.47547e-15)
(978.58 -6.27887e-11 8.53921e-15)
(978.58 -6.33021e-11 6.88116e-15)
(978.58 -6.40331e-11 5.75558e-15)
(978.58 -6.44511e-11 6.31633e-15)
(978.58 -6.51256e-11 8.71929e-15)
(978.58 -6.56299e-11 6.40573e-15)
(978.58 -6.62865e-11 7.09308e-15)
(978.58 -6.69604e-11 7.77914e-15)
(978.58 -6.7423e-11 9.43865e-15)
(978.58 -6.82904e-11 8.13936e-15)
(978.58 -6.89406e-11 9.84387e-15)
(978.58 -6.96374e-11 8.00665e-15)
(978.58 -7.01296e-11 9.46658e-15)
(978.58 -7.06812e-11 1.1381e-14)
(978.58 -7.1147e-11 1.10242e-14)
(978.58 -7.14966e-11 4.75166e-15)
(978.58 -7.26487e-11 7.3077e-15)
(978.58 -7.33295e-11 7.82037e-15)
(978.58 -7.36181e-11 6.47732e-15)
(978.58 -7.45028e-11 8.8563e-15)
(978.58 -7.47802e-11 9.62024e-15)
(978.58 -7.54561e-11 7.90367e-15)
(978.58 -7.60921e-11 8.9467e-15)
(978.58 -7.68225e-11 8.103e-15)
(978.58 -7.81006e-11 8.86361e-15)
(978.58 -7.85211e-11 7.84432e-15)
(978.58 -7.98697e-11 1.08565e-14)
(978.58 -8.14897e-11 1.08064e-14)
(978.58 -8.25309e-11 5.62654e-15)
(978.58 -8.35473e-11 4.26945e-15)
(978.58 -8.44126e-11 6.33282e-15)
(978.58 -8.53684e-11 3.89763e-15)
(978.58 -8.6199e-11 9.21245e-15)
(978.58 -8.72314e-11 7.82789e-15)
(978.58 -8.77594e-11 6.5633e-15)
(978.58 -8.93322e-11 6.2473e-15)
(978.58 -9.0066e-11 3.12427e-15)
(978.58 -9.08378e-11 5.23079e-15)
(978.58 -9.2108e-11 7.3709e-15)
(978.58 -9.3624e-11 6.49908e-15)
(978.58 -9.52618e-11 7.56293e-15)
(978.58 -9.72572e-11 8.34222e-15)
(978.58 -9.84824e-11 8.10861e-15)
(978.58 -9.91878e-11 8.05826e-15)
(978.58 -1.00467e-10 6.79077e-15)
(978.58 -1.01855e-10 4.7301e-15)
(978.58 -1.03926e-10 4.26385e-15)
(978.58 -1.05519e-10 4.39344e-15)
(978.58 -1.06296e-10 5.31014e-15)
(978.58 -1.07895e-10 7.51425e-15)
(978.58 -1.09802e-10 5.99374e-15)
(978.58 -1.12358e-10 7.74984e-15)
(978.58 -5.20918e-08 8.68288e-11)
(978.58 -2.79338e-08 4.30581e-11)
(978.58 -1.50589e-08 2.16721e-11)
(978.58 -8.80034e-09 1.23434e-11)
(978.58 -5.64914e-09 7.86687e-12)
(978.58 -3.93289e-09 5.49061e-12)
(978.58 -2.91713e-09 4.08122e-12)
(978.58 -2.26994e-09 3.12965e-12)
(978.58 -1.82819e-09 2.50942e-12)
(978.58 -1.5096e-09 2.02888e-12)
(978.58 -1.27291e-09 1.65699e-12)
(978.58 -1.0927e-09 1.42802e-12)
(978.58 -9.51683e-10 1.20239e-12)
(978.58 -8.39928e-10 1.04617e-12)
(978.58 -7.49953e-10 9.06069e-13)
(978.58 -6.75877e-10 8.18796e-13)
(978.58 -6.13137e-10 7.0755e-13)
(978.58 -5.60549e-10 6.43971e-13)
(978.58 -5.16977e-10 5.85419e-13)
(978.58 -4.77773e-10 5.33293e-13)
(978.58 -4.44272e-10 4.7967e-13)
(978.58 -4.17085e-10 4.17015e-13)
(978.58 -3.93096e-10 3.93283e-13)
(978.58 -3.71326e-10 3.60118e-13)
(978.58 -3.5194e-10 3.49032e-13)
(978.58 -3.33932e-10 3.31096e-13)
(978.58 -3.18705e-10 3.06643e-13)
(978.58 -3.06281e-10 2.82448e-13)
(978.58 -2.94612e-10 2.66706e-13)
(978.58 -2.83287e-10 2.44462e-13)
(978.58 -2.73448e-10 2.16942e-13)
(978.58 -2.63762e-10 2.11111e-13)
(978.58 -2.5566e-10 1.81685e-13)
(978.58 -2.49513e-10 1.70884e-13)
(978.58 -2.4345e-10 1.72611e-13)
(978.58 -2.36507e-10 1.66246e-13)
(978.58 -2.31395e-10 1.53086e-13)
(978.58 -2.24466e-10 1.53495e-13)
(978.58 -2.20351e-10 1.45633e-13)
(978.58 -2.15298e-10 1.2961e-13)
(978.58 -2.10109e-10 1.20042e-13)
(978.58 -2.0627e-10 1.22679e-13)
(978.58 -2.03003e-10 1.24699e-13)
(978.58 -1.99832e-10 1.09845e-13)
(978.58 -1.97635e-10 9.36013e-14)
(978.58 -1.96551e-10 1.04365e-13)
(978.58 -1.94074e-10 9.99683e-14)
(978.58 -1.90589e-10 9.07672e-14)
(978.58 -1.88317e-10 9.20323e-14)
(978.58 -1.86231e-10 9.87856e-14)
(978.58 -1.83248e-10 9.53349e-14)
(978.58 -1.83762e-10 8.25899e-14)
(978.58 -1.81961e-10 7.76001e-14)
(978.58 -1.80492e-10 6.62192e-14)
(978.58 -1.80348e-10 6.79537e-14)
(978.58 -1.77777e-10 6.53046e-14)
(978.58 -1.76427e-10 6.48264e-14)
(978.58 -1.76083e-10 6.38999e-14)
(978.58 -1.74498e-10 7.26045e-14)
(978.58 -1.73449e-10 6.87528e-14)
(978.58 -1.73627e-10 5.97865e-14)
(978.58 -1.74237e-10 5.53644e-14)
(978.58 -1.72705e-10 6.35778e-14)
(978.58 -1.71018e-10 5.52374e-14)
(978.58 -1.70678e-10 5.36666e-14)
(978.58 -1.68808e-10 5.37968e-14)
(978.58 -1.68629e-10 4.85013e-14)
(978.58 -1.68326e-10 5.22601e-14)
(978.58 -1.69788e-10 4.96785e-14)
(978.58 -1.69299e-10 4.61553e-14)
(978.58 -1.67932e-10 4.97334e-14)
(978.58 -1.68339e-10 4.99373e-14)
(978.58 -1.69486e-10 4.47918e-14)
(978.58 -1.69996e-10 4.52791e-14)
(978.58 -1.68397e-10 4.86282e-14)
(978.58 -1.69979e-10 5.0064e-14)
(978.58 -1.71204e-10 4.47917e-14)
(978.58 -1.70066e-10 4.13301e-14)
(978.58 -1.69235e-10 3.43354e-14)
(978.58 -1.69629e-10 3.43894e-14)
(978.58 -1.70673e-10 3.71446e-14)
(978.58 -1.71997e-10 3.472e-14)
(978.58 -1.73091e-10 3.23081e-14)
(978.58 -1.72959e-10 3.62803e-14)
(978.58 -1.73902e-10 3.91925e-14)
(978.58 -1.73807e-10 3.68595e-14)
(978.58 -1.74723e-10 3.3763e-14)
(978.58 -1.75092e-10 3.61316e-14)
(978.58 -1.76022e-10 3.39414e-14)
(978.58 -1.76132e-10 3.14008e-14)
(978.58 -1.76032e-10 3.31186e-14)
(978.58 -1.77172e-10 2.98739e-14)
(978.58 -1.78751e-10 3.63071e-14)
(978.58 -1.79043e-10 3.68732e-14)
(978.58 -1.80276e-10 3.8737e-14)
(978.58 -1.80597e-10 2.91994e-14)
(978.58 -1.81449e-10 2.42716e-14)
(978.58 -1.82207e-10 2.53534e-14)
(978.58 -1.82914e-10 2.54011e-14)
(978.58 -1.84129e-10 2.53083e-14)
(978.58 -1.84757e-10 2.54899e-14)
(978.58 -1.86592e-10 2.70057e-14)
(978.58 -1.87443e-10 2.8212e-14)
(978.58 -1.88184e-10 2.16286e-14)
(978.58 -1.89533e-10 2.33708e-14)
(978.58 -1.91101e-10 2.20729e-14)
(978.58 -1.92427e-10 2.15906e-14)
(978.58 -1.93402e-10 2.04036e-14)
(978.58 -1.95205e-10 1.8594e-14)
(978.58 -1.9639e-10 2.12628e-14)
(978.58 -1.97992e-10 2.3264e-14)
(978.58 -2.00054e-10 2.27542e-14)
(978.58 -2.01138e-10 2.30254e-14)
(978.58 -2.02641e-10 2.3455e-14)
(978.58 -2.04414e-10 2.55148e-14)
(978.58 -2.06649e-10 2.50101e-14)
(978.58 -2.08069e-10 2.61403e-14)
(978.58 -2.10088e-10 2.57198e-14)
(978.58 -2.12086e-10 2.18451e-14)
(978.58 -2.13665e-10 1.80111e-14)
(978.58 -2.15855e-10 2.02637e-14)
(978.58 -2.17792e-10 2.11461e-14)
(978.58 -2.19718e-10 2.15463e-14)
(978.58 -2.21668e-10 2.19975e-14)
(978.58 -2.23649e-10 2.20892e-14)
(978.58 -2.25138e-10 2.05e-14)
(978.58 -2.27198e-10 2.00188e-14)
(978.58 -2.28735e-10 1.93026e-14)
(978.58 -2.31865e-10 1.96908e-14)
(978.58 -2.34537e-10 2.41064e-14)
(978.58 -2.35989e-10 2.41239e-14)
(978.58 -2.38873e-10 1.82525e-14)
(978.58 -2.4146e-10 1.84931e-14)
(978.58 -2.44666e-10 2.00779e-14)
(978.58 -2.47333e-10 1.96111e-14)
(978.58 -2.5081e-10 1.97788e-14)
(978.58 -2.53533e-10 2.13882e-14)
(978.58 -2.56363e-10 1.74582e-14)
(978.58 -2.60229e-10 2.23376e-14)
(978.58 -2.62657e-10 2.1431e-14)
(978.58 -2.65937e-10 1.80145e-14)
(978.58 -2.69174e-10 1.95918e-14)
(978.58 -2.72723e-10 1.8374e-14)
(978.58 -2.74488e-10 1.84893e-14)
(978.58 -2.77895e-10 1.70267e-14)
(978.58 -2.81987e-10 2.0672e-14)
(978.58 -2.85827e-10 1.9457e-14)
(978.58 -2.90676e-10 2.056e-14)
(978.58 -2.94663e-10 2.09783e-14)
(978.58 -2.97939e-10 1.74697e-14)
(978.58 -3.01575e-10 1.58788e-14)
(978.58 -3.06473e-10 1.31234e-14)
(978.58 -3.10546e-10 1.74802e-14)
(978.58 -3.13392e-10 1.67053e-14)
(978.58 -3.17596e-10 1.67247e-14)
(978.58 -3.21743e-10 1.90669e-14)
(978.58 -7.11555e-08 1.17485e-10)
(978.58 -4.5241e-08 6.77741e-11)
(978.58 -2.73603e-08 3.74289e-11)
(978.58 -1.6943e-08 2.17771e-11)
(978.58 -1.10813e-08 1.37216e-11)
(978.58 -7.69556e-09 9.37842e-12)
(978.58 -5.64584e-09 6.9284e-12)
(978.58 -4.34058e-09 5.30311e-12)
(978.58 -3.46201e-09 4.22215e-12)
(978.58 -2.83838e-09 3.41682e-12)
(978.58 -2.38015e-09 2.84091e-12)
(978.58 -2.03385e-09 2.42446e-12)
(978.58 -1.76461e-09 2.06479e-12)
(978.58 -1.55176e-09 1.77773e-12)
(978.58 -1.38139e-09 1.56768e-12)
(978.58 -1.2409e-09 1.36712e-12)
(978.58 -1.12347e-09 1.19342e-12)
(978.58 -1.02436e-09 1.0746e-12)
(978.58 -9.40532e-10 9.54049e-13)
(978.58 -8.68628e-10 8.86091e-13)
(978.58 -8.07132e-10 7.93659e-13)
(978.58 -7.54381e-10 7.13327e-13)
(978.58 -7.08593e-10 6.75589e-13)
(978.58 -6.68091e-10 6.17586e-13)
(978.58 -6.31131e-10 5.88129e-13)
(978.58 -5.99115e-10 5.44468e-13)
(978.58 -5.70408e-10 5.125e-13)
(978.58 -5.45751e-10 4.7069e-13)
(978.58 -5.23868e-10 4.34346e-13)
(978.58 -5.02666e-10 4.03817e-13)
(978.58 -4.84025e-10 3.74991e-13)
(978.58 -4.6743e-10 3.5755e-13)
(978.58 -4.53261e-10 3.3153e-13)
(978.58 -4.40375e-10 3.23544e-13)
(978.58 -4.2823e-10 3.06994e-13)
(978.58 -4.16064e-10 2.74761e-13)
(978.58 -4.04493e-10 2.59757e-13)
(978.58 -3.93273e-10 2.54022e-13)
(978.58 -3.84742e-10 2.49842e-13)
(978.58 -3.76145e-10 2.28826e-13)
(978.58 -3.66889e-10 2.20981e-13)
(978.58 -3.59477e-10 2.12745e-13)
(978.58 -3.52978e-10 2.06508e-13)
(978.58 -3.47633e-10 1.90179e-13)
(978.58 -3.42657e-10 1.80001e-13)
(978.58 -3.39856e-10 1.77014e-13)
(978.58 -3.3543e-10 1.71726e-13)
(978.58 -3.29238e-10 1.70346e-13)
(978.58 -3.24437e-10 1.6827e-13)
(978.58 -3.21467e-10 1.6724e-13)
(978.58 -3.15866e-10 1.52019e-13)
(978.58 -3.13989e-10 1.44277e-13)
(978.58 -3.11907e-10 1.34536e-13)
(978.58 -3.08645e-10 1.30095e-13)
(978.58 -3.08226e-10 1.21749e-13)
(978.58 -3.05379e-10 1.20919e-13)
(978.58 -3.02471e-10 1.14398e-13)
(978.58 -3.0054e-10 1.13467e-13)
(978.58 -2.97762e-10 1.199e-13)
(978.58 -2.96367e-10 1.15898e-13)
(978.58 -2.95524e-10 1.09938e-13)
(978.58 -2.95489e-10 1.09441e-13)
(978.58 -2.94133e-10 9.91848e-14)
(978.58 -2.91644e-10 8.78686e-14)
(978.58 -2.90429e-10 9.6209e-14)
(978.58 -2.88121e-10 9.18593e-14)
(978.58 -2.87025e-10 8.72837e-14)
(978.58 -2.85746e-10 9.04445e-14)
(978.58 -2.8617e-10 7.95943e-14)
(978.58 -2.86651e-10 7.63722e-14)
(978.58 -2.85167e-10 7.60005e-14)
(978.58 -2.85433e-10 7.67806e-14)
(978.58 -2.86004e-10 7.45066e-14)
(978.58 -2.85494e-10 7.65244e-14)
(978.58 -2.83951e-10 7.85523e-14)
(978.58 -2.86551e-10 7.48533e-14)
(978.58 -2.87612e-10 6.91138e-14)
(978.58 -2.86086e-10 6.92073e-14)
(978.58 -2.84612e-10 7.04429e-14)
(978.58 -2.83862e-10 6.77515e-14)
(978.58 -2.84818e-10 6.34537e-14)
(978.58 -2.86017e-10 6.15535e-14)
(978.58 -2.87586e-10 5.95337e-14)
(978.58 -2.89502e-10 5.88064e-14)
(978.58 -2.90271e-10 5.67754e-14)
(978.58 -2.91132e-10 5.61702e-14)
(978.58 -2.92208e-10 6.16216e-14)
(978.58 -2.92386e-10 6.15667e-14)
(978.58 -2.92654e-10 5.7621e-14)
(978.58 -2.94082e-10 5.57189e-14)
(978.58 -2.94094e-10 5.28049e-14)
(978.58 -2.96424e-10 5.4119e-14)
(978.58 -2.98979e-10 6.22989e-14)
(978.58 -3.00475e-10 6.53056e-14)
(978.58 -3.01372e-10 5.90192e-14)
(978.58 -3.02355e-10 4.71046e-14)
(978.58 -3.04109e-10 4.55362e-14)
(978.58 -3.04309e-10 4.82093e-14)
(978.58 -3.04609e-10 4.84716e-14)
(978.58 -3.0617e-10 4.72906e-14)
(978.58 -3.09007e-10 4.34107e-14)
(978.58 -3.11227e-10 4.70904e-14)
(978.58 -3.12725e-10 4.30463e-14)
(978.58 -3.13916e-10 4.24705e-14)
(978.58 -3.14701e-10 4.62375e-14)
(978.58 -3.17211e-10 4.34112e-14)
(978.58 -3.19863e-10 3.99569e-14)
(978.58 -3.21358e-10 3.83712e-14)
(978.58 -3.23525e-10 3.96835e-14)
(978.58 -3.25753e-10 3.98615e-14)
(978.58 -3.28292e-10 3.55673e-14)
(978.58 -3.30908e-10 3.57836e-14)
(978.58 -3.32846e-10 3.77958e-14)
(978.58 -3.34996e-10 3.9842e-14)
(978.58 -3.38166e-10 4.16547e-14)
(978.58 -3.4125e-10 4.53684e-14)
(978.58 -3.43805e-10 4.65118e-14)
(978.58 -3.4649e-10 4.3663e-14)
(978.58 -3.49656e-10 3.79106e-14)
(978.58 -3.5229e-10 3.71461e-14)
(978.58 -3.56067e-10 3.79123e-14)
(978.58 -3.59573e-10 3.75524e-14)
(978.58 -3.62635e-10 3.57536e-14)
(978.58 -3.6599e-10 3.46203e-14)
(978.58 -3.69272e-10 3.6885e-14)
(978.58 -3.72204e-10 3.75344e-14)
(978.58 -3.75315e-10 3.5142e-14)
(978.58 -3.78523e-10 3.70221e-14)
(978.58 -3.80685e-10 4.01598e-14)
(978.58 -3.85094e-10 3.71683e-14)
(978.58 -3.8764e-10 3.41263e-14)
(978.58 -3.92027e-10 3.77285e-14)
(978.58 -3.95012e-10 3.80658e-14)
(978.58 -3.99479e-10 3.34149e-14)
(978.58 -4.04926e-10 3.53143e-14)
(978.58 -4.10403e-10 2.81762e-14)
(978.58 -4.15266e-10 3.01097e-14)
(978.58 -4.19088e-10 3.57182e-14)
(978.58 -4.24296e-10 3.90738e-14)
(978.58 -4.2885e-10 3.23842e-14)
(978.58 -4.34742e-10 2.86113e-14)
(978.58 -4.39924e-10 2.95338e-14)
(978.58 -4.4561e-10 3.19153e-14)
(978.58 -4.49523e-10 3.0508e-14)
(978.58 -4.54297e-10 3.18575e-14)
(978.58 -4.5938e-10 2.88557e-14)
(978.58 -4.6565e-10 3.1217e-14)
(978.58 -4.72974e-10 3.36402e-14)
(978.58 -4.78812e-10 3.46208e-14)
(978.58 -4.85008e-10 3.15013e-14)
(978.58 -4.91709e-10 3.0495e-14)
(978.58 -4.99028e-10 2.95588e-14)
(978.58 -5.06678e-10 2.9756e-14)
(978.58 -5.11956e-10 2.82758e-14)
(978.58 -5.17587e-10 3.30686e-14)
(978.58 -5.2329e-10 3.23071e-14)
(978.58 -8.35653e-08 1.37722e-10)
(978.58 -5.95609e-08 8.79062e-11)
(978.58 -3.94995e-08 5.23889e-11)
(978.58 -2.59391e-08 3.15291e-11)
(978.58 -1.74901e-08 2.00658e-11)
(978.58 -1.22782e-08 1.36652e-11)
(978.58 -8.99824e-09 9.93077e-12)
(978.58 -6.87136e-09 7.5876e-12)
(978.58 -5.43703e-09 6.01001e-12)
(978.58 -4.42899e-09 4.90075e-12)
(978.58 -3.69338e-09 4.03741e-12)
(978.58 -3.14064e-09 3.42318e-12)
(978.58 -2.71466e-09 2.91574e-12)
(978.58 -2.3791e-09 2.53407e-12)
(978.58 -2.10993e-09 2.24683e-12)
(978.58 -1.8899e-09 1.94751e-12)
(978.58 -1.70838e-09 1.71399e-12)
(978.58 -1.55484e-09 1.52745e-12)
(978.58 -1.42392e-09 1.36643e-12)
(978.58 -1.31129e-09 1.25434e-12)
(978.58 -1.21576e-09 1.13047e-12)
(978.58 -1.13476e-09 1.05373e-12)
(978.58 -1.06225e-09 9.61056e-13)
(978.58 -9.99792e-10 8.89601e-13)
(978.58 -9.44543e-10 8.08897e-13)
(978.58 -8.95337e-10 7.55967e-13)
(978.58 -8.50848e-10 7.01337e-13)
(978.58 -8.11178e-10 6.58537e-13)
(978.58 -7.76112e-10 6.28601e-13)
(978.58 -7.44177e-10 5.79893e-13)
(978.58 -7.15858e-10 5.4699e-13)
(978.58 -6.90488e-10 5.10311e-13)
(978.58 -6.68835e-10 4.87874e-13)
(978.58 -6.48314e-10 4.56835e-13)
(978.58 -6.28867e-10 4.26916e-13)
(978.58 -6.11592e-10 4.00827e-13)
(978.58 -5.94385e-10 3.79391e-13)
(978.58 -5.77174e-10 3.54558e-13)
(978.58 -5.62135e-10 3.42363e-13)
(978.58 -5.48537e-10 3.18615e-13)
(978.58 -5.35626e-10 3.1208e-13)
(978.58 -5.22614e-10 2.9527e-13)
(978.58 -5.12553e-10 2.85119e-13)
(978.58 -5.04269e-10 2.69616e-13)
(978.58 -4.97689e-10 2.71262e-13)
(978.58 -4.90735e-10 2.51659e-13)
(978.58 -4.8512e-10 2.44488e-13)
(978.58 -4.76175e-10 2.37335e-13)
(978.58 -4.69548e-10 2.31671e-13)
(978.58 -4.64965e-10 2.17122e-13)
(978.58 -4.57139e-10 2.07154e-13)
(978.58 -4.51454e-10 2.04634e-13)
(978.58 -4.47252e-10 1.92043e-13)
(978.58 -4.43099e-10 1.83833e-13)
(978.58 -4.40817e-10 1.75612e-13)
(978.58 -4.38027e-10 1.76415e-13)
(978.58 -4.34464e-10 1.67892e-13)
(978.58 -4.30871e-10 1.65234e-13)
(978.58 -4.27012e-10 1.67922e-13)
(978.58 -4.23623e-10 1.61365e-13)
(978.58 -4.21745e-10 1.50899e-13)
(978.58 -4.20349e-10 1.40429e-13)
(978.58 -4.18494e-10 1.35655e-13)
(978.58 -4.15599e-10 1.42456e-13)
(978.58 -4.13443e-10 1.45892e-13)
(978.58 -4.10767e-10 1.36318e-13)
(978.58 -4.09215e-10 1.31146e-13)
(978.58 -4.07064e-10 1.2536e-13)
(978.58 -4.07273e-10 1.15051e-13)
(978.58 -4.06252e-10 1.14451e-13)
(978.58 -4.04588e-10 1.15308e-13)
(978.58 -4.04016e-10 1.1548e-13)
(978.58 -4.06199e-10 1.11877e-13)
(978.58 -4.05112e-10 1.1101e-13)
(978.58 -4.03728e-10 1.07468e-13)
(978.58 -4.04693e-10 1.03891e-13)
(978.58 -4.06291e-10 1.06901e-13)
(978.58 -4.06287e-10 1.06904e-13)
(978.58 -4.04728e-10 9.77379e-14)
(978.58 -4.03093e-10 9.06902e-14)
(978.58 -4.01928e-10 9.01697e-14)
(978.58 -4.02229e-10 9.55278e-14)
(978.58 -4.04806e-10 9.19356e-14)
(978.58 -4.06548e-10 9.15189e-14)
(978.58 -4.0721e-10 8.8771e-14)
(978.58 -4.08599e-10 8.79412e-14)
(978.58 -4.09797e-10 8.33657e-14)
(978.58 -4.098e-10 7.88586e-14)
(978.58 -4.11403e-10 7.93527e-14)
(978.58 -4.117e-10 8.26348e-14)
(978.58 -4.1321e-10 8.10083e-14)
(978.58 -4.14095e-10 8.20036e-14)
(978.58 -4.17141e-10 8.41564e-14)
(978.58 -4.18978e-10 8.36662e-14)
(978.58 -4.21063e-10 7.27776e-14)
(978.58 -4.23679e-10 7.35841e-14)
(978.58 -4.26123e-10 7.3822e-14)
(978.58 -4.27402e-10 6.85996e-14)
(978.58 -4.28717e-10 6.76443e-14)
(978.58 -4.28907e-10 6.38356e-14)
(978.58 -4.30798e-10 6.08711e-14)
(978.58 -4.33771e-10 6.12439e-14)
(978.58 -4.36562e-10 6.22322e-14)
(978.58 -4.39334e-10 6.4289e-14)
(978.58 -4.40717e-10 6.30761e-14)
(978.58 -4.43055e-10 6.18301e-14)
(978.58 -4.45517e-10 5.96424e-14)
(978.58 -4.48373e-10 5.91556e-14)
(978.58 -4.5039e-10 5.5754e-14)
(978.58 -4.52863e-10 5.21551e-14)
(978.58 -4.56475e-10 5.41164e-14)
(978.58 -4.59728e-10 5.46836e-14)
(978.58 -4.62367e-10 5.89581e-14)
(978.58 -4.65075e-10 5.8862e-14)
(978.58 -4.69234e-10 6.00769e-14)
(978.58 -4.7367e-10 5.83921e-14)
(978.58 -4.77517e-10 5.70295e-14)
(978.58 -4.81475e-10 5.2127e-14)
(978.58 -4.85681e-10 5.09627e-14)
(978.58 -4.88768e-10 5.36883e-14)
(978.58 -4.92937e-10 5.34753e-14)
(978.58 -4.9777e-10 5.02512e-14)
(978.58 -5.02832e-10 4.86621e-14)
(978.58 -5.07176e-10 5.16835e-14)
(978.58 -5.1098e-10 5.2568e-14)
(978.58 -5.14707e-10 5.22458e-14)
(978.58 -5.18848e-10 5.53208e-14)
(978.58 -5.24706e-10 5.51487e-14)
(978.58 -5.27876e-10 5.04709e-14)
(978.58 -5.32846e-10 4.86189e-14)
(978.58 -5.37605e-10 4.85537e-14)
(978.58 -5.4386e-10 5.05529e-14)
(978.58 -5.47206e-10 4.86544e-14)
(978.58 -5.51754e-10 4.78189e-14)
(978.58 -5.58496e-10 4.95487e-14)
(978.58 -5.65233e-10 4.84167e-14)
(978.58 -5.72218e-10 5.31454e-14)
(978.58 -5.7824e-10 5.11351e-14)
(978.58 -5.84383e-10 4.95329e-14)
(978.58 -5.90333e-10 4.59503e-14)
(978.58 -5.97581e-10 4.61197e-14)
(978.58 -6.04991e-10 4.54663e-14)
(978.58 -6.1216e-10 4.53253e-14)
(978.58 -6.18529e-10 4.67567e-14)
(978.58 -6.24985e-10 4.76805e-14)
(978.58 -6.31263e-10 4.8132e-14)
(978.58 -6.37867e-10 4.74354e-14)
(978.58 -6.46569e-10 4.58931e-14)
(978.58 -6.55228e-10 4.34928e-14)
(978.58 -6.63873e-10 4.34894e-14)
(978.58 -6.72599e-10 4.3311e-14)
(978.58 -6.82559e-10 4.59961e-14)
(978.58 -6.92446e-10 4.40147e-14)
(978.58 -7.02171e-10 4.07833e-14)
(978.58 -7.09502e-10 4.40106e-14)
(978.58 -7.16352e-10 4.4266e-14)
(978.58 -9.21845e-08 1.51934e-10)
(978.58 -7.1097e-08 1.04325e-10)
(978.58 -5.07586e-08 6.59999e-11)
(978.58 -3.52047e-08 4.13009e-11)
(978.58 -2.45712e-08 2.67888e-11)
(978.58 -1.75655e-08 1.83084e-11)
(978.58 -1.2955e-08 1.32143e-11)
(978.58 -9.88034e-09 1.00167e-11)
(978.58 -7.78013e-09 7.90355e-12)
(978.58 -6.3019e-09 6.4249e-12)
(978.58 -5.22835e-09 5.31772e-12)
(978.58 -4.42393e-09 4.45732e-12)
(978.58 -3.80889e-09 3.78646e-12)
(978.58 -3.32776e-09 3.28465e-12)
(978.58 -2.9416e-09 2.86721e-12)
(978.58 -2.62786e-09 2.52097e-12)
(978.58 -2.36942e-09 2.23195e-12)
(978.58 -2.15251e-09 2.006e-12)
(978.58 -1.96719e-09 1.81977e-12)
(978.58 -1.80798e-09 1.62964e-12)
(978.58 -1.67298e-09 1.48884e-12)
(978.58 -1.55774e-09 1.36966e-12)
(978.58 -1.45599e-09 1.24144e-12)
(978.58 -1.36793e-09 1.14358e-12)
(978.58 -1.29012e-09 1.05436e-12)
(978.58 -1.22072e-09 1.00191e-12)
(978.58 -1.15863e-09 9.24728e-13)
(978.58 -1.10331e-09 8.78778e-13)
(978.58 -1.05313e-09 8.20687e-13)
(978.58 -1.00801e-09 7.59352e-13)
(978.58 -9.67862e-10 7.07287e-13)
(978.58 -9.32438e-10 6.64981e-13)
(978.58 -9.01706e-10 6.14736e-13)
(978.58 -8.72826e-10 5.78633e-13)
(978.58 -8.45214e-10 5.49554e-13)
(978.58 -8.21236e-10 5.16859e-13)
(978.58 -7.98488e-10 4.93747e-13)
(978.58 -7.75592e-10 4.70041e-13)
(978.58 -7.53934e-10 4.36837e-13)
(978.58 -7.35179e-10 4.23708e-13)
(978.58 -7.16325e-10 4.13052e-13)
(978.58 -6.9775e-10 3.9515e-13)
(978.58 -6.83554e-10 3.76361e-13)
(978.58 -6.70854e-10 3.65722e-13)
(978.58 -6.60838e-10 3.49656e-13)
(978.58 -6.50293e-10 3.40649e-13)
(978.58 -6.42184e-10 3.20025e-13)
(978.58 -6.31758e-10 3.07982e-13)
(978.58 -6.21569e-10 2.92759e-13)
(978.58 -6.14822e-10 2.72639e-13)
(978.58 -6.04852e-10 2.73429e-13)
(978.58 -5.96245e-10 2.60993e-13)
(978.58 -5.8922e-10 2.5242e-13)
(978.58 -5.83649e-10 2.44268e-13)
(978.58 -5.79814e-10 2.40291e-13)
(978.58 -5.75268e-10 2.28578e-13)
(978.58 -5.70906e-10 2.14466e-13)
(978.58 -5.66015e-10 2.12526e-13)
(978.58 -5.61941e-10 2.07984e-13)
(978.58 -5.56806e-10 1.94544e-13)
(978.58 -5.53544e-10 1.90157e-13)
(978.58 -5.49546e-10 1.84802e-13)
(978.58 -5.46853e-10 1.84004e-13)
(978.58 -5.43628e-10 1.86454e-13)
(978.58 -5.40598e-10 1.75641e-13)
(978.58 -5.37503e-10 1.7703e-13)
(978.58 -5.34787e-10 1.70297e-13)
(978.58 -5.31517e-10 1.57647e-13)
(978.58 -5.31049e-10 1.64175e-13)
(978.58 -5.29046e-10 1.60019e-13)
(978.58 -5.26966e-10 1.53346e-13)
(978.58 -5.25396e-10 1.50521e-13)
(978.58 -5.26287e-10 1.44908e-13)
(978.58 -5.27048e-10 1.39099e-13)
(978.58 -5.26104e-10 1.39907e-13)
(978.58 -5.24539e-10 1.37187e-13)
(978.58 -5.25327e-10 1.35521e-13)
(978.58 -5.25545e-10 1.27119e-13)
(978.58 -5.25686e-10 1.22989e-13)
(978.58 -5.23965e-10 1.24955e-13)
(978.58 -5.23307e-10 1.29304e-13)
(978.58 -5.22659e-10 1.19401e-13)
(978.58 -5.24112e-10 1.16932e-13)
(978.58 -5.2462e-10 1.15875e-13)
(978.58 -5.26782e-10 1.13744e-13)
(978.58 -5.28068e-10 1.08446e-13)
(978.58 -5.2966e-10 1.06895e-13)
(978.58 -5.2956e-10 1.10328e-13)
(978.58 -5.30512e-10 1.12003e-13)
(978.58 -5.32142e-10 1.07407e-13)
(978.58 -5.32758e-10 1.02207e-13)
(978.58 -5.33182e-10 1.01892e-13)
(978.58 -5.35253e-10 1.00418e-13)
(978.58 -5.37512e-10 9.6721e-14)
(978.58 -5.41442e-10 9.48304e-14)
(978.58 -5.43237e-10 9.52548e-14)
(978.58 -5.45769e-10 8.92025e-14)
(978.58 -5.4919e-10 9.06262e-14)
(978.58 -5.51991e-10 9.06202e-14)
(978.58 -5.52577e-10 8.62751e-14)
(978.58 -5.53691e-10 8.41111e-14)
(978.58 -5.56082e-10 8.65499e-14)
(978.58 -5.58757e-10 8.51658e-14)
(978.58 -5.62853e-10 7.69371e-14)
(978.58 -5.67036e-10 7.79983e-14)
(978.58 -5.68867e-10 7.98505e-14)
(978.58 -5.71299e-10 7.89556e-14)
(978.58 -5.74233e-10 7.77842e-14)
(978.58 -5.77768e-10 7.64234e-14)
(978.58 -5.7993e-10 7.8772e-14)
(978.58 -5.8264e-10 7.81006e-14)
(978.58 -5.85955e-10 7.71238e-14)
(978.58 -5.89892e-10 7.50581e-14)
(978.58 -5.93634e-10 6.7592e-14)
(978.58 -5.97551e-10 6.93917e-14)
(978.58 -6.03192e-10 7.31072e-14)
(978.58 -6.07837e-10 7.42033e-14)
(978.58 -6.13325e-10 7.26386e-14)
(978.58 -6.18314e-10 7.49196e-14)
(978.58 -6.23671e-10 7.26936e-14)
(978.58 -6.28398e-10 6.58076e-14)
(978.58 -6.33501e-10 6.51004e-14)
(978.58 -6.3921e-10 7.08778e-14)
(978.58 -6.4516e-10 6.93501e-14)
(978.58 -6.50518e-10 6.66329e-14)
(978.58 -6.54721e-10 7.01858e-14)
(978.58 -6.59172e-10 6.9752e-14)
(978.58 -6.66352e-10 6.31165e-14)
(978.58 -6.71077e-10 6.23417e-14)
(978.58 -6.76326e-10 6.11335e-14)
(978.58 -6.8331e-10 6.32555e-14)
(978.58 -6.89371e-10 6.72643e-14)
(978.58 -6.94575e-10 6.38212e-14)
(978.58 -7.00662e-10 6.60166e-14)
(978.58 -7.08231e-10 6.53441e-14)
(978.58 -7.15744e-10 6.406e-14)
(978.58 -7.24239e-10 6.34814e-14)
(978.58 -7.32394e-10 6.02037e-14)
(978.58 -7.39488e-10 5.98311e-14)
(978.58 -7.46741e-10 5.80185e-14)
(978.58 -7.55286e-10 6.1148e-14)
(978.58 -7.63936e-10 5.99828e-14)
(978.58 -7.73143e-10 6.16687e-14)
(978.58 -7.81956e-10 6.237e-14)
(978.58 -7.90228e-10 6.07577e-14)
(978.58 -7.98657e-10 5.9926e-14)
(978.58 -8.06591e-10 5.70888e-14)
(978.58 -8.15979e-10 5.40737e-14)
(978.58 -8.25452e-10 5.66458e-14)
(978.58 -8.34978e-10 5.66201e-14)
(978.58 -8.45405e-10 5.70217e-14)
(978.58 -8.55899e-10 5.95916e-14)
(978.58 -8.67067e-10 5.22727e-14)
(978.58 -8.79552e-10 5.45307e-14)
(978.58 -8.91203e-10 5.85751e-14)
(978.58 -8.99666e-10 5.69509e-14)
(978.58 -9.85215e-08 1.62714e-10)
(978.58 -8.03683e-08 1.17674e-10)
(978.58 -6.08426e-08 7.81557e-11)
(978.58 -4.4296e-08 5.09004e-11)
(978.58 -3.20098e-08 3.36754e-11)
(978.58 -2.33937e-08 2.31512e-11)
(978.58 -1.74529e-08 1.67367e-11)
(978.58 -1.3357e-08 1.25879e-11)
(978.58 -1.05019e-08 9.8289e-12)
(978.58 -8.47586e-09 7.91893e-12)
(978.58 -7.00135e-09 6.55877e-12)
(978.58 -5.89837e-09 5.50852e-12)
(978.58 -5.05738e-09 4.71093e-12)
(978.58 -4.40248e-09 4.07906e-12)
(978.58 -3.88028e-09 3.51504e-12)
(978.58 -3.45671e-09 3.09778e-12)
(978.58 -3.10857e-09 2.76847e-12)
(978.58 -2.81825e-09 2.46307e-12)
(978.58 -2.57214e-09 2.23204e-12)
(978.58 -2.36079e-09 2.00623e-12)
(978.58 -2.18003e-09 1.82716e-12)
(978.58 -2.02526e-09 1.66445e-12)
(978.58 -1.89036e-09 1.52689e-12)
(978.58 -1.77232e-09 1.38962e-12)
(978.58 -1.66847e-09 1.30459e-12)
(978.58 -1.57625e-09 1.22032e-12)
(978.58 -1.4942e-09 1.13996e-12)
(978.58 -1.42026e-09 1.06711e-12)
(978.58 -1.35435e-09 9.77137e-13)
(978.58 -1.29533e-09 9.04629e-13)
(978.58 -1.24207e-09 8.60591e-13)
(978.58 -1.19383e-09 8.04524e-13)
(978.58 -1.15178e-09 7.56197e-13)
(978.58 -1.11408e-09 7.19697e-13)
(978.58 -1.07808e-09 6.74338e-13)
(978.58 -1.04606e-09 6.25234e-13)
(978.58 -1.01445e-09 6.15232e-13)
(978.58 -9.84829e-10 5.79785e-13)
(978.58 -9.58753e-10 5.52653e-13)
(978.58 -9.34616e-10 5.32609e-13)
(978.58 -9.09352e-10 4.94635e-13)
(978.58 -8.85195e-10 4.74254e-13)
(978.58 -8.65664e-10 4.60031e-13)
(978.58 -8.4801e-10 4.42809e-13)
(978.58 -8.33221e-10 4.2387e-13)
(978.58 -8.19776e-10 4.10079e-13)
(978.58 -8.08128e-10 3.86802e-13)
(978.58 -7.94783e-10 3.76089e-13)
(978.58 -7.81168e-10 3.61527e-13)
(978.58 -7.72012e-10 3.40997e-13)
(978.58 -7.59742e-10 3.30847e-13)
(978.58 -7.48874e-10 3.18787e-13)
(978.58 -7.39045e-10 3.04869e-13)
(978.58 -7.30318e-10 2.96165e-13)
(978.58 -7.24214e-10 2.84123e-13)
(978.58 -7.17489e-10 2.72454e-13)
(978.58 -7.1188e-10 2.6785e-13)
(978.58 -7.05288e-10 2.64195e-13)
(978.58 -6.99739e-10 2.50124e-13)
(978.58 -6.9411e-10 2.42747e-13)
(978.58 -6.8939e-10 2.39296e-13)
(978.58 -6.84318e-10 2.32349e-13)
(978.58 -6.79895e-10 2.29616e-13)
(978.58 -6.76048e-10 2.20593e-13)
(978.58 -6.71794e-10 2.19838e-13)
(978.58 -6.67825e-10 2.16873e-13)
(978.58 -6.63746e-10 2.04266e-13)
(978.58 -6.59995e-10 1.9822e-13)
(978.58 -6.58234e-10 2.00807e-13)
(978.58 -6.56191e-10 1.91582e-13)
(978.58 -6.53276e-10 1.8609e-13)
(978.58 -6.50655e-10 1.82021e-13)
(978.58 -6.49825e-10 1.77678e-13)
(978.58 -6.49578e-10 1.70129e-13)
(978.58 -6.50098e-10 1.70946e-13)
(978.58 -6.49248e-10 1.62644e-13)
(978.58 -6.49293e-10 1.58998e-13)
(978.58 -6.47564e-10 1.58306e-13)
(978.58 -6.46755e-10 1.67292e-13)
(978.58 -6.46085e-10 1.58327e-13)
(978.58 -6.44961e-10 1.53267e-13)
(978.58 -6.45187e-10 1.47829e-13)