/*--------------------------------*- C++ -*----------------------------------*\
| =========                 |                                                 |
| \\      /  F ield         | OpenFOAM: The Open Source CFD Toolbox           |
|  \\    /   O peration     | Version:  v1706                                 |
|   \\  /    A nd           | Web:      www.OpenFOAM.com                      |
|    \\/     M anipulation  |                                                 |
\*---------------------------------------------------------------------------*/
FoamFile
{
    version     2.0;
    format      ascii;
    class       volScalarField;
    location    "3.2e-05";
    object      wallHeatFlux;
}
// * * * * * * * * * * * * * * * * * * * * * * * * * * * * * * * * * * * * * //

dimensions      [1 0 -3 0 0 0 0];


internalField   uniform 0;

boundaryField
{
    cone
    {
        type            calculated;
        value           nonuniform List<scalar> 
147
(
23916.4
23912.7
23905.4
23898.6
23889.8
23879.4
23866.9
23852.4
23835.5
23816.6
23796.4
23775.2
23753
23729.3
23704
23677.2
23648.8
23618.9
23587.3
23554.1
23519.3
23482.9
23444.9
23405.3
23364.1
23321.3
23277
23231
23183.5
23134.5
23083.8
23031.7
22978
22922.7
22865.9
22807.7
22747.9
22686.6
22623.8
22559.6
22493.9
22426.8
22358.2
22288.2
22216.8
22144
22069.8
21994.3
21917.4
21839.1
21759.6
21678.7
21596.5
21513
21428.3
21342.3
21255
21166.6
21076.9
20986
20893.9
20800.7
20706.3
20610.8
20514.2
20416.4
20317.6
20217.7
20116.7
20014.7
19911.7
19807.7
19702.7
19596.7
19489.8
19381.9
19273.1
19163.4
19052.8
18941.4
18829.1
18716
18602.1
18487.4
18371.9
18255.6
18138.7
18021
17902.6
17783.5
17663.7
17543.3
17422.3
17300.7
17178.5
17055.7
16932.4
16808.5
16684.1
16559.2
16433.8
16308
16181.7
16055
15927.8
15800.3
15672.4
15544.2
15415.6
15286.8
15157.6
15028.1
14898.4
14768.4
14638.2
14507.8
14377.2
14246.5
14115.6
13984.5
13853.4
13722.1
13590.8
13459.4
13327.9
13196.4
13064.9
12933.4
12801.9
12670.5
12539.1
12407.7
12276.5
12145.4
12014.3
11883.5
11752.8
11622.2
11491.9
11361.8
11232.1
11102.7
10973.9
10845.4
10717.1
10588.6
23942.8
)
;
    }
    inlet
    {
        type            calculated;
        value           uniform 0;
    }
    rWedge
    {
        type            wedge;
    }
    lWedge
    {
        type            wedge;
    }
    outlet
    {
        type            calculated;
        value           nonuniform 0();
    }
    procBoundary3to2
    {
        type            processor;
        value           uniform 0;
    }
}


// ************************************************************************* //
