/*--------------------------------*- C++ -*----------------------------------*\
| =========                 |                                                 |
| \\      /  F ield         | OpenFOAM: The Open Source CFD Toolbox           |
|  \\    /   O peration     | Version:  v1706                                 |
|   \\  /    A nd           | Web:      www.OpenFOAM.com                      |
|    \\/     M anipulation  |                                                 |
\*---------------------------------------------------------------------------*/
FoamFile
{
    version     2.0;
    format      ascii;
    class       volVectorField;
    location    "3.5e-05";
    object      U;
}
// * * * * * * * * * * * * * * * * * * * * * * * * * * * * * * * * * * * * * //

dimensions      [0 1 -1 0 0 0 0];


internalField   nonuniform List<vector> 
29987
(
(1760 -2.25031e-08 4.13913e-11)
(1760 -7.40938e-09 1.30709e-11)
(1760 -3.30905e-09 5.93829e-12)
(1760 -1.97101e-09 3.50259e-12)
(1760 -1.34144e-09 2.33413e-12)
(1760 -9.76636e-10 1.69278e-12)
(1760 -7.41337e-10 1.28566e-12)
(1760 -5.82845e-10 1.01221e-12)
(1760 -4.73498e-10 8.18253e-13)
(1760 -3.90892e-10 6.97274e-13)
(1760 -3.27066e-10 5.17974e-13)
(1760 -2.80738e-10 4.58413e-13)
(1760 -2.47119e-10 4.15662e-13)
(1760 -2.154e-10 3.51826e-13)
(1760 -1.90194e-10 3.09554e-13)
(1760 -1.72016e-10 2.64779e-13)
(1760 -1.55254e-10 2.23186e-13)
(1760 -1.41124e-10 1.94973e-13)
(1760 -1.29956e-10 1.849e-13)
(1760 -1.19093e-10 1.7215e-13)
(1760 -1.12113e-10 1.65631e-13)
(1760 -1.01543e-10 1.41023e-13)
(1760 -9.45384e-11 1.32232e-13)
(1760 -9.04611e-11 1.13913e-13)
(1760 -8.54152e-11 1.14765e-13)
(1760 -8.01784e-11 1.13099e-13)
(1760 -7.43806e-11 9.02565e-14)
(1760 -7.2015e-11 8.15191e-14)
(1760 -7.01143e-11 8.77539e-14)
(1760 -6.67328e-11 8.09344e-14)
(1760 -6.25209e-11 8.47341e-14)
(1760 -6.14793e-11 7.46832e-14)
(1760 -5.95665e-11 6.61817e-14)
(1760 -5.58459e-11 6.0296e-14)
(1760 -5.54053e-11 6.05168e-14)
(1760 -5.27494e-11 5.42847e-14)
(1760 -5.23522e-11 5.28384e-14)
(1760 -4.91406e-11 4.47056e-14)
(1760 -4.86745e-11 4.28254e-14)
(1760 -4.82543e-11 4.63003e-14)
(1760 -4.61587e-11 3.62255e-14)
(1760 -4.48841e-11 3.73452e-14)
(1760 -4.41698e-11 4.40404e-14)
(1760 -4.46752e-11 3.88525e-14)
(1760 -4.23374e-11 3.54026e-14)
(1760 -4.11421e-11 3.23294e-14)
(1760 -4.0965e-11 4.28461e-14)
(1760 -4.08574e-11 2.95188e-14)
(1760 -4.02023e-11 2.87641e-14)
(1760 -3.86502e-11 3.37221e-14)
(1760 -3.88005e-11 3.29523e-14)
(1760 -3.86462e-11 2.99986e-14)
(1760 -3.77962e-11 2.88832e-14)
(1760 -3.7237e-11 2.59804e-14)
(1760 -3.63879e-11 2.75654e-14)
(1760 -3.69236e-11 2.14578e-14)
(1760 -3.6279e-11 1.83379e-14)
(1760 -3.67862e-11 1.93568e-14)
(1760 -3.60565e-11 2.18439e-14)
(1760 -3.52687e-11 2.56681e-14)
(1760 -3.51518e-11 2.49669e-14)
(1760 -3.47105e-11 1.45395e-14)
(1760 -3.43158e-11 1.92391e-14)
(1760 -3.45195e-11 2.13608e-14)
(1760 -3.32981e-11 1.62629e-14)
(1760 -3.38107e-11 1.41602e-14)
(1760 -3.3081e-11 1.48426e-14)
(1760 -3.38396e-11 1.82065e-14)
(1760 -3.44338e-11 1.86474e-14)
(1760 -3.36571e-11 1.62331e-14)
(1760 -3.34036e-11 1.41175e-14)
(1760 -3.37507e-11 1.62916e-14)
(1760 -3.41376e-11 1.49839e-14)
(1760 -3.33088e-11 1.47846e-14)
(1760 -3.39054e-11 1.78922e-14)
(1760 -3.41692e-11 1.59804e-14)
(1760 -3.31316e-11 1.48194e-14)
(1760 -3.3663e-11 1.71071e-14)
(1760 -3.28626e-11 1.06311e-14)
(1760 -3.28683e-11 6.36228e-15)
(1760 -3.23453e-11 1.06324e-14)
(1760 -3.33151e-11 1.11553e-14)
(1760 -3.43601e-11 7.86687e-15)
(1760 -3.42089e-11 1.02308e-14)
(1760 -3.49415e-11 1.17141e-14)
(1760 -3.37132e-11 1.06333e-14)
(1760 -3.32305e-11 9.27998e-15)
(1760 -3.35602e-11 9.77368e-15)
(1760 -3.31123e-11 1.24166e-14)
(1760 -3.41629e-11 8.82548e-15)
(1760 -3.38093e-11 6.98323e-15)
(1760 -3.32637e-11 7.42258e-15)
(1760 -3.25337e-11 1.10125e-14)
(1760 -3.32724e-11 1.20124e-14)
(1760 -3.32078e-11 1.22248e-14)
(1760 -3.35864e-11 1.14847e-14)
(1760 -3.40409e-11 7.59131e-15)
(1760 -3.41584e-11 1.07708e-14)
(1760 -3.40791e-11 1.09689e-14)
(1760 -3.46616e-11 7.76191e-15)
(1760 -3.53281e-11 6.82517e-15)
(1760 -3.56509e-11 1.29158e-14)
(1760 -3.58458e-11 1.2593e-14)
(1760 -3.621e-11 9.27838e-15)
(1760 -3.69732e-11 1.00222e-14)
(1760 -3.76525e-11 7.93935e-15)
(1760 -3.77088e-11 6.07777e-15)
(1760 -3.69091e-11 6.71825e-15)
(1760 -3.55548e-11 9.56098e-15)
(1760 -3.57319e-11 7.02202e-15)
(1760 -3.59197e-11 7.48428e-15)
(1760 -3.69294e-11 7.23453e-15)
(1760 -3.76877e-11 9.1661e-15)
(1760 -3.882e-11 7.57454e-15)
(1760 -3.95729e-11 9.87158e-15)
(1760 -3.93447e-11 7.11059e-15)
(1760 -3.95671e-11 7.89148e-15)
(1760 -3.87624e-11 1.2024e-14)
(1760 -3.85563e-11 1.15966e-14)
(1760 -3.86194e-11 6.35092e-15)
(1760 -3.88078e-11 7.42458e-15)
(1760 -3.91814e-11 8.69878e-15)
(1760 -3.94745e-11 7.15732e-15)
(1760 -3.97158e-11 8.47723e-15)
(1760 -4.04158e-11 8.93002e-15)
(1760 -4.09196e-11 8.30983e-15)
(1760 -4.14298e-11 9.14617e-15)
(1760 -4.20932e-11 7.85205e-15)
(1760 -4.26426e-11 8.89722e-15)
(1760 -4.31339e-11 8.17139e-15)
(1760 -4.41401e-11 1.07464e-14)
(1760 -4.40914e-11 1.22777e-14)
(1760 -4.64321e-11 4.669e-15)
(1760 -4.64666e-11 3.77567e-15)
(1760 -4.60584e-11 5.44907e-15)
(1760 -4.5602e-11 3.73376e-15)
(1760 -4.62584e-11 9.05833e-15)
(1760 -4.67004e-11 7.71822e-15)
(1760 -4.68475e-11 4.78627e-15)
(1760 -4.76505e-11 1.10895e-14)
(1760 -4.63918e-11 2.10349e-15)
(1760 -4.6489e-11 3.13062e-15)
(1760 -4.76389e-11 7.48312e-15)
(1760 -4.82271e-11 4.8835e-15)
(1760 -5.0287e-11 8.02685e-15)
(1760 -5.13366e-11 7.72663e-15)
(1760 -5.28696e-11 8.98335e-15)
(1760 -5.23869e-11 8.40737e-15)
(1760 -5.18558e-11 7.75819e-15)
(1760 -5.19432e-11 4.68646e-15)
(1760 -5.36908e-11 3.51631e-15)
(1760 -5.45879e-11 4.39402e-15)
(1760 -5.54114e-11 3.98286e-15)
(1760 -5.64546e-11 8.74721e-15)
(1760 -5.77472e-11 5.23333e-15)
(1760 -5.74305e-11 8.57842e-15)
(1760 -6.29903e-08 1.07796e-10)
(1760 -2.70644e-08 4.37639e-11)
(1760 -1.27638e-08 1.99894e-11)
(1760 -7.20661e-09 1.14312e-11)
(1760 -4.68243e-09 7.50253e-12)
(1760 -3.33119e-09 5.35682e-12)
(1760 -2.50606e-09 4.00729e-12)
(1760 -1.96172e-09 3.09658e-12)
(1760 -1.58494e-09 2.5026e-12)
(1760 -1.30639e-09 2.02993e-12)
(1760 -1.09312e-09 1.62661e-12)
(1760 -9.33347e-10 1.41697e-12)
(1760 -8.14659e-10 1.19321e-12)
(1760 -7.13517e-10 1.04335e-12)
(1760 -6.30265e-10 8.9526e-13)
(1760 -5.62681e-10 8.21415e-13)
(1760 -5.07795e-10 7.08488e-13)
(1760 -4.61317e-10 6.41866e-13)
(1760 -4.23205e-10 5.89132e-13)
(1760 -3.92941e-10 5.29304e-13)
(1760 -3.66028e-10 4.8491e-13)
(1760 -3.34979e-10 4.17253e-13)
(1760 -3.10046e-10 3.90081e-13)
(1760 -2.94112e-10 3.52868e-13)
(1760 -2.7449e-10 3.43727e-13)
(1760 -2.59246e-10 3.28803e-13)
(1760 -2.41471e-10 2.98182e-13)
(1760 -2.31249e-10 2.74937e-13)
(1760 -2.24863e-10 2.66506e-13)
(1760 -2.13679e-10 2.49416e-13)
(1760 -2.02348e-10 2.15211e-13)
(1760 -1.94246e-10 2.12611e-13)
(1760 -1.87917e-10 1.75936e-13)
(1760 -1.79473e-10 1.67195e-13)
(1760 -1.76164e-10 1.72244e-13)
(1760 -1.68054e-10 1.7156e-13)
(1760 -1.64263e-10 1.5548e-13)
(1760 -1.5859e-10 1.54717e-13)
(1760 -1.54494e-10 1.42898e-13)
(1760 -1.511e-10 1.27604e-13)
(1760 -1.45984e-10 1.13779e-13)
(1760 -1.41111e-10 1.19813e-13)
(1760 -1.39554e-10 1.27032e-13)
(1760 -1.3968e-10 1.15016e-13)
(1760 -1.37442e-10 9.15243e-14)
(1760 -1.31105e-10 1.05542e-13)
(1760 -1.2725e-10 1.01868e-13)
(1760 -1.26907e-10 8.69214e-14)
(1760 -1.25962e-10 8.76793e-14)
(1760 -1.21115e-10 9.54227e-14)
(1760 -1.20903e-10 9.4561e-14)
(1760 -1.21543e-10 8.14686e-14)
(1760 -1.19456e-10 7.96009e-14)
(1760 -1.16446e-10 6.59262e-14)
(1760 -1.13364e-10 6.94158e-14)
(1760 -1.11513e-10 6.33786e-14)
(1760 -1.12068e-10 6.2301e-14)
(1760 -1.12144e-10 6.30514e-14)
(1760 -1.10022e-10 7.29451e-14)
(1760 -1.0786e-10 7.15755e-14)
(1760 -1.07775e-10 6.04801e-14)
(1760 -1.0658e-10 5.06992e-14)
(1760 -1.07964e-10 6.32479e-14)
(1760 -1.08163e-10 5.64477e-14)
(1760 -1.05957e-10 5.22805e-14)
(1760 -1.04107e-10 5.28498e-14)
(1760 -1.01248e-10 4.55807e-14)
(1760 -1.01715e-10 5.11095e-14)
(1760 -1.02588e-10 5.06944e-14)
(1760 -1.02545e-10 4.66421e-14)
(1760 -1.01474e-10 4.89761e-14)
(1760 -1.02467e-10 5.05666e-14)
(1760 -1.02519e-10 4.41025e-14)
(1760 -9.97277e-11 4.37552e-14)
(1760 -1.00162e-10 4.77179e-14)
(1760 -1.03133e-10 4.99128e-14)
(1760 -1.0149e-10 4.50198e-14)
(1760 -1.02199e-10 4.35628e-14)
(1760 -1.02945e-10 3.1818e-14)
(1760 -1.01704e-10 3.05182e-14)
(1760 -9.94572e-11 3.58531e-14)
(1760 -9.94543e-11 3.38323e-14)
(1760 -9.9443e-11 3.11975e-14)
(1760 -1.01893e-10 3.76023e-14)
(1760 -1.03038e-10 4.2295e-14)
(1760 -1.03524e-10 3.94994e-14)
(1760 -1.03028e-10 3.41435e-14)
(1760 -1.03712e-10 3.97379e-14)
(1760 -1.01747e-10 3.64497e-14)
(1760 -9.94587e-11 2.94813e-14)
(1760 -1.00207e-10 3.20378e-14)
(1760 -1.04042e-10 2.68117e-14)
(1760 -1.01714e-10 3.28385e-14)
(1760 -1.0048e-10 3.49205e-14)
(1760 -1.01522e-10 3.93469e-14)
(1760 -1.02747e-10 3.23296e-14)
(1760 -1.03842e-10 2.44784e-14)
(1760 -1.03379e-10 2.64896e-14)
(1760 -1.03733e-10 2.49428e-14)
(1760 -1.03903e-10 2.49092e-14)
(1760 -1.03474e-10 2.56548e-14)
(1760 -1.04648e-10 2.7557e-14)
(1760 -1.04885e-10 2.98741e-14)
(1760 -1.0448e-10 2.19064e-14)
(1760 -1.0552e-10 2.29402e-14)
(1760 -1.06807e-10 2.1268e-14)
(1760 -1.09124e-10 2.22493e-14)
(1760 -1.11869e-10 2.12385e-14)
(1760 -1.10515e-10 1.87004e-14)
(1760 -1.103e-10 2.04204e-14)
(1760 -1.09178e-10 2.40482e-14)
(1760 -1.08188e-10 2.31312e-14)
(1760 -1.07963e-10 2.30106e-14)
(1760 -1.09152e-10 2.50084e-14)
(1760 -1.11952e-10 2.76363e-14)
(1760 -1.143e-10 2.58497e-14)
(1760 -1.16845e-10 2.65037e-14)
(1760 -1.173e-10 2.6399e-14)
(1760 -1.18025e-10 2.27551e-14)
(1760 -1.18218e-10 1.80446e-14)
(1760 -1.19157e-10 1.99291e-14)
(1760 -1.19909e-10 2.0815e-14)
(1760 -1.20338e-10 2.14857e-14)
(1760 -1.20686e-10 2.24913e-14)
(1760 -1.21693e-10 2.30993e-14)
(1760 -1.22716e-10 2.14675e-14)
(1760 -1.23197e-10 2.15332e-14)
(1760 -1.23331e-10 2.07552e-14)
(1760 -1.24448e-10 1.91787e-14)
(1760 -1.26514e-10 2.39916e-14)
(1760 -1.27362e-10 2.31226e-14)
(1760 -1.27469e-10 1.84054e-14)
(1760 -1.29488e-10 1.82101e-14)
(1760 -1.31196e-10 2.00501e-14)
(1760 -1.34617e-10 1.8913e-14)
(1760 -1.34592e-10 1.86406e-14)
(1760 -1.37725e-10 2.53909e-14)
(1760 -1.36701e-10 1.73568e-14)
(1760 -1.39434e-10 2.03675e-14)
(1760 -1.41615e-10 2.2264e-14)
(1760 -1.45066e-10 1.58819e-14)
(1760 -1.43153e-10 2.09027e-14)
(1760 -1.44786e-10 1.96971e-14)
(1760 -1.43766e-10 2.07846e-14)
(1760 -1.45599e-10 1.61368e-14)
(1760 -1.47668e-10 2.16957e-14)
(1760 -1.50507e-10 2.05618e-14)
(1760 -1.54055e-10 2.17155e-14)
(1760 -1.5698e-10 2.4296e-14)
(1760 -1.58884e-10 1.7779e-14)
(1760 -1.58363e-10 1.65146e-14)
(1760 -1.61769e-10 1.18746e-14)
(1760 -1.63344e-10 1.54663e-14)
(1760 -1.63985e-10 1.85845e-14)
(1760 -1.6859e-10 1.67244e-14)
(1760 -1.68358e-10 1.94379e-14)
(1760 -9.30501e-08 1.56644e-10)
(1760 -4.73917e-08 7.42097e-11)
(1760 -2.41427e-08 3.58087e-11)
(1760 -1.36842e-08 2.0084e-11)
(1760 -8.73046e-09 1.27956e-11)
(1760 -6.10204e-09 8.9703e-12)
(1760 -4.54271e-09 6.74133e-12)
(1760 -3.53642e-09 5.18777e-12)
(1760 -2.84263e-09 4.16878e-12)
(1760 -2.34128e-09 3.36696e-12)
(1760 -1.9609e-09 2.80556e-12)
(1760 -1.66877e-09 2.4016e-12)
(1760 -1.44759e-09 2.04503e-12)
(1760 -1.26755e-09 1.75986e-12)
(1760 -1.12052e-09 1.55535e-12)
(1760 -9.97295e-10 1.36366e-12)
(1760 -8.9878e-10 1.18187e-12)
(1760 -8.17673e-10 1.06998e-12)
(1760 -7.49196e-10 9.57326e-13)
(1760 -6.9181e-10 8.93983e-13)
(1760 -6.42273e-10 7.9462e-13)
(1760 -5.90621e-10 7.0164e-13)
(1760 -5.48132e-10 6.71783e-13)
(1760 -5.185e-10 6.10477e-13)
(1760 -4.83173e-10 5.89495e-13)
(1760 -4.5471e-10 5.45507e-13)
(1760 -4.26572e-10 5.20345e-13)
(1760 -4.05322e-10 4.70774e-13)
(1760 -3.90621e-10 4.27414e-13)
(1760 -3.73932e-10 4.05243e-13)
(1760 -3.55132e-10 3.68821e-13)
(1760 -3.38928e-10 3.64417e-13)
(1760 -3.26329e-10 3.24896e-13)
(1760 -3.13382e-10 3.20413e-13)
(1760 -3.05873e-10 3.09284e-13)
(1760 -2.94306e-10 2.74501e-13)
(1760 -2.8421e-10 2.57368e-13)
(1760 -2.7562e-10 2.56764e-13)
(1760 -2.65862e-10 2.52659e-13)
(1760 -2.56967e-10 2.25079e-13)
(1760 -2.51486e-10 2.15474e-13)
(1760 -2.44832e-10 2.09074e-13)
(1760 -2.41282e-10 2.07735e-13)
(1760 -2.39124e-10 1.91337e-13)
(1760 -2.3411e-10 1.73615e-13)
(1760 -2.24833e-10 1.74809e-13)
(1760 -2.19707e-10 1.68784e-13)
(1760 -2.17373e-10 1.67448e-13)
(1760 -2.14864e-10 1.63196e-13)
(1760 -2.09665e-10 1.69966e-13)
(1760 -2.07794e-10 1.54144e-13)
(1760 -2.04996e-10 1.43335e-13)
(1760 -2.03558e-10 1.34819e-13)
(1760 -2.00147e-10 1.30481e-13)
(1760 -1.95229e-10 1.22361e-13)
(1760 -1.92913e-10 1.19805e-13)
(1760 -1.92898e-10 1.12681e-13)
(1760 -1.91324e-10 1.09799e-13)
(1760 -1.88433e-10 1.20092e-13)
(1760 -1.84959e-10 1.1532e-13)
(1760 -1.82712e-10 1.0862e-13)
(1760 -1.79893e-10 1.10658e-13)
(1760 -1.80878e-10 1.0227e-13)
(1760 -1.83284e-10 8.49127e-14)
(1760 -1.82689e-10 9.52085e-14)
(1760 -1.77962e-10 8.95576e-14)
(1760 -1.73625e-10 8.17076e-14)
(1760 -1.72473e-10 9.02039e-14)
(1760 -1.71363e-10 8.05836e-14)
(1760 -1.69949e-10 7.66923e-14)
(1760 -1.70488e-10 7.66559e-14)
(1760 -1.72296e-10 7.90162e-14)
(1760 -1.73159e-10 7.40148e-14)
(1760 -1.71175e-10 7.61319e-14)
(1760 -1.69799e-10 7.9358e-14)
(1760 -1.71112e-10 7.67528e-14)
(1760 -1.71176e-10 6.86985e-14)
(1760 -1.70577e-10 6.93678e-14)
(1760 -1.70985e-10 6.98399e-14)
(1760 -1.71391e-10 6.69512e-14)
(1760 -1.67798e-10 6.21818e-14)
(1760 -1.66845e-10 5.83761e-14)
(1760 -1.66389e-10 5.50952e-14)
(1760 -1.67381e-10 5.52127e-14)
(1760 -1.68744e-10 5.51321e-14)
(1760 -1.71176e-10 5.46349e-14)
(1760 -1.71874e-10 6.14047e-14)
(1760 -1.73852e-10 6.58023e-14)
(1760 -1.73171e-10 5.78198e-14)
(1760 -1.69999e-10 5.51844e-14)
(1760 -1.68853e-10 5.08208e-14)
(1760 -1.73704e-10 5.13335e-14)
(1760 -1.72578e-10 5.80816e-14)
(1760 -1.69729e-10 6.40115e-14)
(1760 -1.68608e-10 6.16862e-14)
(1760 -1.71096e-10 4.63906e-14)
(1760 -1.72361e-10 4.22998e-14)
(1760 -1.72823e-10 4.6678e-14)
(1760 -1.71769e-10 4.74984e-14)
(1760 -1.72091e-10 4.64336e-14)
(1760 -1.73769e-10 4.08674e-14)
(1760 -1.74321e-10 4.64706e-14)
(1760 -1.75071e-10 4.44226e-14)
(1760 -1.75053e-10 4.13674e-14)
(1760 -1.75887e-10 4.73146e-14)
(1760 -1.77394e-10 4.34326e-14)
(1760 -1.79125e-10 3.9757e-14)
(1760 -1.82686e-10 3.69675e-14)
(1760 -1.83697e-10 3.85352e-14)
(1760 -1.83884e-10 4.12413e-14)
(1760 -1.85281e-10 3.51407e-14)
(1760 -1.84142e-10 3.49007e-14)
(1760 -1.8248e-10 3.64176e-14)
(1760 -1.81683e-10 3.918e-14)
(1760 -1.83372e-10 3.99509e-14)
(1760 -1.8519e-10 4.60457e-14)
(1760 -1.88202e-10 4.76694e-14)
(1760 -1.9128e-10 4.72834e-14)
(1760 -1.94859e-10 3.93988e-14)
(1760 -1.95218e-10 3.80548e-14)
(1760 -1.95943e-10 3.87203e-14)
(1760 -1.97644e-10 3.79024e-14)
(1760 -1.98746e-10 3.61653e-14)
(1760 -1.99589e-10 3.37889e-14)
(1760 -2.01242e-10 3.52897e-14)
(1760 -2.02507e-10 3.62826e-14)
(1760 -2.03582e-10 3.61169e-14)
(1760 -2.04113e-10 3.63724e-14)
(1760 -2.05106e-10 3.97986e-14)
(1760 -2.0756e-10 3.81119e-14)
(1760 -2.09842e-10 3.45586e-14)
(1760 -2.12339e-10 3.75749e-14)
(1760 -2.13776e-10 3.83588e-14)
(1760 -2.15364e-10 3.43298e-14)
(1760 -2.20088e-10 3.50201e-14)
(1760 -2.21211e-10 3.00501e-14)
(1760 -2.25812e-10 2.83092e-14)
(1760 -2.26962e-10 3.44431e-14)
(1760 -2.28371e-10 3.76714e-14)
(1760 -2.29509e-10 3.46857e-14)
(1760 -2.35131e-10 2.9051e-14)
(1760 -2.39206e-10 2.80234e-14)
(1760 -2.41044e-10 3.18553e-14)
(1760 -2.41936e-10 2.92391e-14)
(1760 -2.41505e-10 3.3709e-14)
(1760 -2.43657e-10 2.89551e-14)
(1760 -2.45934e-10 3.04039e-14)
(1760 -2.50902e-10 3.3435e-14)
(1760 -2.56142e-10 3.73639e-14)
(1760 -2.58677e-10 3.20824e-14)
(1760 -2.60427e-10 3.17084e-14)
(1760 -2.62632e-10 3.11578e-14)
(1760 -2.67418e-10 3.11783e-14)
(1760 -2.70266e-10 2.63592e-14)
(1760 -2.74622e-10 3.27293e-14)
(1760 -2.78496e-10 3.26521e-14)
(1760 -1.14836e-07 1.92259e-10)
(1760 -6.65021e-08 1.02203e-10)
(1760 -3.66233e-08 5.24575e-11)
(1760 -2.12834e-08 2.93749e-11)
(1760 -1.35267e-08 1.84929e-11)
(1760 -9.34412e-09 1.28162e-11)
(1760 -6.88874e-09 9.52446e-12)
(1760 -5.3241e-09 7.36654e-12)
(1760 -4.25561e-09 5.87847e-12)
(1760 -3.49494e-09 4.80904e-12)
(1760 -2.92754e-09 3.94482e-12)
(1760 -2.49102e-09 3.37377e-12)
(1760 -2.15278e-09 2.89303e-12)
(1760 -1.87912e-09 2.50969e-12)
(1760 -1.65951e-09 2.25581e-12)
(1760 -1.47774e-09 1.93785e-12)
(1760 -1.32997e-09 1.69747e-12)
(1760 -1.20955e-09 1.51015e-12)
(1760 -1.10552e-09 1.34506e-12)
(1760 -1.01725e-09 1.25898e-12)
(1760 -9.43947e-10 1.11998e-12)
(1760 -8.70547e-10 1.03928e-12)
(1760 -8.08943e-10 9.54728e-13)
(1760 -7.59225e-10 8.81783e-13)
(1760 -7.08721e-10 8.06767e-13)
(1760 -6.67691e-10 7.48382e-13)
(1760 -6.26725e-10 7.00104e-13)
(1760 -5.93638e-10 6.46287e-13)
(1760 -5.68013e-10 6.20045e-13)
(1760 -5.43989e-10 5.71418e-13)
(1760 -5.20053e-10 5.40341e-13)
(1760 -4.95272e-10 5.10008e-13)
(1760 -4.74245e-10 4.93732e-13)
(1760 -4.57107e-10 4.56601e-13)
(1760 -4.42261e-10 4.28397e-13)
(1760 -4.29351e-10 3.98792e-13)
(1760 -4.14059e-10 3.80692e-13)
(1760 -4.01593e-10 3.48053e-13)
(1760 -3.85983e-10 3.49964e-13)
(1760 -3.71174e-10 3.18131e-13)
(1760 -3.62056e-10 3.09694e-13)
(1760 -3.54079e-10 2.91483e-13)
(1760 -3.47999e-10 2.85673e-13)
(1760 -3.43466e-10 2.68035e-13)
(1760 -3.38001e-10 2.71633e-13)
(1760 -3.25836e-10 2.45603e-13)
(1760 -3.18082e-10 2.42254e-13)
(1760 -3.12093e-10 2.35362e-13)
(1760 -3.05685e-10 2.3662e-13)
(1760 -3.01054e-10 2.24643e-13)
(1760 -2.97673e-10 2.07174e-13)
(1760 -2.93717e-10 2.03752e-13)
(1760 -2.89459e-10 1.94656e-13)
(1760 -2.85923e-10 1.8714e-13)
(1760 -2.79967e-10 1.72403e-13)
(1760 -2.76185e-10 1.74978e-13)
(1760 -2.7434e-10 1.66094e-13)
(1760 -2.7369e-10 1.6201e-13)
(1760 -2.70732e-10 1.6953e-13)
(1760 -2.65388e-10 1.63058e-13)
(1760 -2.60445e-10 1.50291e-13)
(1760 -2.58036e-10 1.384e-13)
(1760 -2.56091e-10 1.33049e-13)
(1760 -2.57077e-10 1.3653e-13)
(1760 -2.58815e-10 1.45624e-13)
(1760 -2.55184e-10 1.33785e-13)
(1760 -2.49415e-10 1.2697e-13)
(1760 -2.45957e-10 1.28348e-13)
(1760 -2.44989e-10 1.12675e-13)
(1760 -2.43174e-10 1.09804e-13)
(1760 -2.41527e-10 1.10719e-13)
(1760 -2.41946e-10 1.15751e-13)
(1760 -2.42104e-10 1.12847e-13)
(1760 -2.415e-10 1.11785e-13)
(1760 -2.4075e-10 1.07379e-13)
(1760 -2.41877e-10 1.03908e-13)
(1760 -2.41546e-10 1.07078e-13)
(1760 -2.40648e-10 1.07284e-13)
(1760 -2.39317e-10 9.95105e-14)
(1760 -2.40397e-10 9.2066e-14)
(1760 -2.38215e-10 8.67067e-14)
(1760 -2.36217e-10 9.45225e-14)
(1760 -2.35372e-10 8.77603e-14)
(1760 -2.35314e-10 8.85327e-14)
(1760 -2.36123e-10 8.62354e-14)
(1760 -2.39543e-10 8.78672e-14)
(1760 -2.40043e-10 8.59732e-14)
(1760 -2.41787e-10 8.11251e-14)
(1760 -2.42287e-10 7.72599e-14)
(1760 -2.40018e-10 8.18563e-14)
(1760 -2.391e-10 8.02594e-14)
(1760 -2.41279e-10 7.9869e-14)
(1760 -2.41254e-10 8.21971e-14)
(1760 -2.40708e-10 8.62453e-14)
(1760 -2.39268e-10 7.42718e-14)
(1760 -2.39362e-10 7.34209e-14)
(1760 -2.41067e-10 7.51321e-14)
(1760 -2.42005e-10 6.88253e-14)
(1760 -2.41714e-10 6.68584e-14)
(1760 -2.42181e-10 6.40459e-14)
(1760 -2.41625e-10 5.93743e-14)
(1760 -2.43645e-10 6.00997e-14)
(1760 -2.46345e-10 6.14455e-14)
(1760 -2.46223e-10 6.52069e-14)
(1760 -2.46438e-10 6.40553e-14)
(1760 -2.48983e-10 6.27323e-14)
(1760 -2.50693e-10 6.04656e-14)
(1760 -2.55061e-10 5.9335e-14)
(1760 -2.57089e-10 5.5792e-14)
(1760 -2.56722e-10 5.03888e-14)
(1760 -2.57457e-10 5.16209e-14)
(1760 -2.59087e-10 5.24078e-14)
(1760 -2.57809e-10 5.73196e-14)
(1760 -2.56861e-10 5.76775e-14)
(1760 -2.57344e-10 6.06632e-14)
(1760 -2.59686e-10 5.93642e-14)
(1760 -2.62e-10 5.9292e-14)
(1760 -2.63882e-10 5.40705e-14)
(1760 -2.68016e-10 5.04614e-14)
(1760 -2.71051e-10 5.31461e-14)
(1760 -2.72996e-10 5.39628e-14)
(1760 -2.74615e-10 5.05986e-14)
(1760 -2.76476e-10 4.82079e-14)
(1760 -2.78307e-10 5.10464e-14)
(1760 -2.80175e-10 5.23891e-14)
(1760 -2.82389e-10 5.1421e-14)
(1760 -2.83946e-10 5.55052e-14)
(1760 -2.85965e-10 5.6015e-14)
(1760 -2.87596e-10 5.11087e-14)
(1760 -2.88916e-10 4.95082e-14)
(1760 -2.90341e-10 5.0137e-14)
(1760 -2.92036e-10 5.10802e-14)
(1760 -2.95209e-10 4.84243e-14)
(1760 -2.98281e-10 4.78976e-14)
(1760 -3.01711e-10 4.913e-14)
(1760 -3.04892e-10 4.86505e-14)
(1760 -3.07272e-10 5.25879e-14)
(1760 -3.11328e-10 5.09673e-14)
(1760 -3.13636e-10 5.14852e-14)
(1760 -3.14156e-10 4.58532e-14)
(1760 -3.19199e-10 4.59689e-14)
(1760 -3.24073e-10 4.49928e-14)
(1760 -3.29434e-10 4.3739e-14)
(1760 -3.33028e-10 4.46822e-14)
(1760 -3.34889e-10 4.63561e-14)
(1760 -3.36183e-10 4.96309e-14)
(1760 -3.3881e-10 4.88999e-14)
(1760 -3.41753e-10 4.75407e-14)
(1760 -3.48229e-10 4.45096e-14)
(1760 -3.52723e-10 4.40759e-14)
(1760 -3.56873e-10 4.4348e-14)
(1760 -3.58121e-10 4.81225e-14)
(1760 -3.63121e-10 4.82069e-14)
(1760 -3.67234e-10 4.06382e-14)
(1760 -3.73494e-10 4.26602e-14)
(1760 -3.77856e-10 4.3006e-14)
(1760 -1.31028e-07 2.18796e-10)
(1760 -8.36477e-08 1.27323e-10)
(1760 -4.94896e-08 6.91032e-11)
(1760 -2.97607e-08 3.92804e-11)
(1760 -1.90533e-08 2.47032e-11)
(1760 -1.30919e-08 1.69768e-11)
(1760 -9.5679e-09 1.24498e-11)
(1760 -7.34102e-09 9.61633e-12)
(1760 -5.84088e-09 7.67775e-12)
(1760 -4.77814e-09 6.28423e-12)
(1760 -3.99527e-09 5.19637e-12)
(1760 -3.39803e-09 4.38418e-12)
(1760 -2.92811e-09 3.73325e-12)
(1760 -2.55122e-09 3.25021e-12)
(1760 -2.24998e-09 2.86858e-12)
(1760 -2.00378e-09 2.51481e-12)
(1760 -1.80148e-09 2.21006e-12)
(1760 -1.63515e-09 1.99328e-12)
(1760 -1.49488e-09 1.80389e-12)
(1760 -1.37332e-09 1.62211e-12)
(1760 -1.26943e-09 1.48403e-12)
(1760 -1.17182e-09 1.35976e-12)
(1760 -1.08842e-09 1.22646e-12)
(1760 -1.01884e-09 1.14472e-12)
(1760 -9.51588e-10 1.04573e-12)
(1760 -8.98216e-10 1.00412e-12)
(1760 -8.45153e-10 9.18798e-13)
(1760 -7.96431e-10 8.72432e-13)
(1760 -7.59295e-10 8.25724e-13)
(1760 -7.26865e-10 7.59945e-13)
(1760 -6.94684e-10 7.02887e-13)
(1760 -6.6247e-10 6.67365e-13)
(1760 -6.32678e-10 6.11205e-13)
(1760 -6.10622e-10 5.70335e-13)
(1760 -5.9035e-10 5.50705e-13)
(1760 -5.69613e-10 5.26402e-13)
(1760 -5.50381e-10 4.95807e-13)
(1760 -5.31971e-10 4.67809e-13)
(1760 -5.13088e-10 4.34239e-13)
(1760 -4.95317e-10 4.16e-13)
(1760 -4.80391e-10 4.11867e-13)
(1760 -4.67485e-10 3.96232e-13)
(1760 -4.60597e-10 3.76257e-13)
(1760 -4.52351e-10 3.66411e-13)
(1760 -4.44143e-10 3.50725e-13)
(1760 -4.31362e-10 3.36714e-13)
(1760 -4.23169e-10 3.13354e-13)
(1760 -4.1407e-10 3.0275e-13)
(1760 -4.02447e-10 2.90067e-13)
(1760 -3.9677e-10 2.69333e-13)
(1760 -3.9089e-10 2.74055e-13)
(1760 -3.83376e-10 2.63013e-13)
(1760 -3.81448e-10 2.55391e-13)
(1760 -3.74671e-10 2.4644e-13)
(1760 -3.67234e-10 2.42509e-13)
(1760 -3.62651e-10 2.3334e-13)
(1760 -3.60075e-10 2.14166e-13)
(1760 -3.57412e-10 2.09615e-13)
(1760 -3.549e-10 2.13475e-13)
(1760 -3.50233e-10 1.93947e-13)
(1760 -3.43785e-10 1.8557e-13)
(1760 -3.39757e-10 1.80405e-13)
(1760 -3.35917e-10 1.83158e-13)
(1760 -3.33526e-10 1.8859e-13)
(1760 -3.33298e-10 1.7297e-13)
(1760 -3.30242e-10 1.75517e-13)
(1760 -3.27173e-10 1.70997e-13)
(1760 -3.23019e-10 1.56977e-13)
(1760 -3.19998e-10 1.63398e-13)
(1760 -3.17733e-10 1.59891e-13)
(1760 -3.15657e-10 1.50772e-13)
(1760 -3.13928e-10 1.49682e-13)
(1760 -3.1298e-10 1.43775e-13)
(1760 -3.13235e-10 1.40227e-13)
(1760 -3.12585e-10 1.42116e-13)
(1760 -3.11996e-10 1.38726e-13)
(1760 -3.10979e-10 1.37669e-13)
(1760 -3.1271e-10 1.30234e-13)
(1760 -3.11992e-10 1.21693e-13)
(1760 -3.10492e-10 1.22593e-13)
(1760 -3.09098e-10 1.29652e-13)
(1760 -3.06557e-10 1.19044e-13)
(1760 -3.06626e-10 1.13854e-13)
(1760 -3.05493e-10 1.13763e-13)
(1760 -3.04494e-10 1.12871e-13)
(1760 -3.07586e-10 1.06955e-13)
(1760 -3.10502e-10 1.03708e-13)
(1760 -3.11649e-10 1.09403e-13)
(1760 -3.11465e-10 1.14155e-13)
(1760 -3.1009e-10 1.1127e-13)
(1760 -3.0919e-10 1.03012e-13)
(1760 -3.10774e-10 1.02002e-13)
(1760 -3.10294e-10 1.00563e-13)
(1760 -3.11503e-10 9.65732e-14)
(1760 -3.11778e-10 9.61739e-14)
(1760 -3.11665e-10 9.71976e-14)
(1760 -3.12713e-10 8.98309e-14)
(1760 -3.12357e-10 8.98836e-14)
(1760 -3.11839e-10 9.15056e-14)
(1760 -3.12149e-10 8.52823e-14)
(1760 -3.11209e-10 8.06619e-14)
(1760 -3.10645e-10 8.34352e-14)
(1760 -3.14291e-10 8.63188e-14)
(1760 -3.16421e-10 7.91456e-14)
(1760 -3.18715e-10 7.94085e-14)
(1760 -3.19566e-10 8.15331e-14)
(1760 -3.2119e-10 8.00836e-14)
(1760 -3.247e-10 7.84049e-14)
(1760 -3.29836e-10 7.5144e-14)
(1760 -3.31071e-10 7.69177e-14)
(1760 -3.31722e-10 7.72153e-14)
(1760 -3.31894e-10 7.579e-14)
(1760 -3.31602e-10 7.63543e-14)
(1760 -3.3225e-10 6.56532e-14)
(1760 -3.31479e-10 6.65178e-14)
(1760 -3.32038e-10 7.09166e-14)
(1760 -3.34282e-10 7.42969e-14)
(1760 -3.37226e-10 7.13741e-14)
(1760 -3.4127e-10 7.39564e-14)
(1760 -3.44456e-10 7.40481e-14)
(1760 -3.48186e-10 6.62361e-14)
(1760 -3.52338e-10 6.39217e-14)
(1760 -3.53692e-10 6.9687e-14)
(1760 -3.55462e-10 6.84198e-14)
(1760 -3.58221e-10 6.39335e-14)
(1760 -3.60367e-10 7.00938e-14)
(1760 -3.6274e-10 6.98008e-14)
(1760 -3.64402e-10 6.30108e-14)
(1760 -3.66963e-10 6.17931e-14)
(1760 -3.69582e-10 6.14333e-14)
(1760 -3.7216e-10 6.27713e-14)
(1760 -3.73443e-10 6.58363e-14)
(1760 -3.75461e-10 6.44318e-14)
(1760 -3.7903e-10 6.62509e-14)
(1760 -3.838e-10 6.6139e-14)
(1760 -3.88579e-10 6.54705e-14)
(1760 -3.91171e-10 6.55202e-14)
(1760 -3.96317e-10 5.92362e-14)
(1760 -3.99216e-10 6.1873e-14)
(1760 -4.00863e-10 5.79313e-14)
(1760 -4.03257e-10 6.08925e-14)
(1760 -4.08794e-10 5.7513e-14)
(1760 -4.14449e-10 5.86021e-14)
(1760 -4.1981e-10 6.11779e-14)
(1760 -4.23925e-10 6.03189e-14)
(1760 -4.26203e-10 6.03305e-14)
(1760 -4.28523e-10 5.79168e-14)
(1760 -4.32913e-10 5.37216e-14)
(1760 -4.37919e-10 5.47769e-14)
(1760 -4.45074e-10 5.66425e-14)
(1760 -4.50804e-10 5.50526e-14)
(1760 -4.54847e-10 6.24703e-14)
(1760 -4.59737e-10 5.42711e-14)
(1760 -4.64989e-10 5.3923e-14)
(1760 -4.72002e-10 6.01412e-14)
(1760 -4.76519e-10 5.90387e-14)
(1760 -1.43498e-07 2.39771e-10)
(1760 -9.87021e-08 1.49261e-10)
(1760 -6.22141e-08 8.51646e-11)
(1760 -3.88439e-08 4.96913e-11)
(1760 -2.52317e-08 3.12874e-11)
(1760 -1.73427e-08 2.13321e-11)
(1760 -1.26022e-08 1.5641e-11)
(1760 -9.60691e-09 1.19376e-11)
(1760 -7.60453e-09 9.44669e-12)
(1760 -6.19837e-09 7.69727e-12)
(1760 -5.17005e-09 6.40508e-12)
(1760 -4.3912e-09 5.39796e-12)
(1760 -3.77781e-09 4.62803e-12)
(1760 -3.28573e-09 4.03894e-12)
(1760 -2.89411e-09 3.48777e-12)
(1760 -2.57637e-09 3.06971e-12)
(1760 -2.31183e-09 2.74567e-12)
(1760 -2.09463e-09 2.43794e-12)
(1760 -1.91462e-09 2.21174e-12)
(1760 -1.75635e-09 1.98371e-12)
(1760 -1.61984e-09 1.82223e-12)
(1760 -1.49771e-09 1.6617e-12)
(1760 -1.39097e-09 1.51509e-12)
(1760 -1.29878e-09 1.37429e-12)
(1760 -1.21131e-09 1.29736e-12)
(1760 -1.1383e-09 1.22229e-12)
(1760 -1.07769e-09 1.13197e-12)
(1760 -1.01613e-09 1.06662e-12)
(1760 -9.65649e-10 9.77442e-13)
(1760 -9.2158e-10 8.95895e-13)
(1760 -8.80572e-10 8.5961e-13)
(1760 -8.41302e-10 8.03878e-13)
(1760 -8.02663e-10 7.51877e-13)
(1760 -7.71502e-10 7.20238e-13)
(1760 -7.47249e-10 6.75956e-13)
(1760 -7.1949e-10 6.18595e-13)
(1760 -6.94595e-10 6.17859e-13)
(1760 -6.69346e-10 5.77919e-13)
(1760 -6.47121e-10 5.53059e-13)
(1760 -6.2579e-10 5.3088e-13)
(1760 -6.05276e-10 4.91381e-13)
(1760 -5.89118e-10 4.72954e-13)
(1760 -5.79254e-10 4.56236e-13)
(1760 -5.66509e-10 4.41893e-13)
(1760 -5.55738e-10 4.23442e-13)
(1760 -5.4134e-10 4.16072e-13)
(1760 -5.28877e-10 3.83101e-13)
(1760 -5.20716e-10 3.72372e-13)
(1760 -5.06052e-10 3.61472e-13)
(1760 -4.96813e-10 3.39216e-13)
(1760 -4.87511e-10 3.29557e-13)
(1760 -4.78262e-10 3.19618e-13)
(1760 -4.73664e-10 3.06126e-13)
(1760 -4.67059e-10 3.01787e-13)
(1760 -4.57729e-10 2.85938e-13)
(1760 -4.51394e-10 2.74038e-13)
(1760 -4.46796e-10 2.66839e-13)
(1760 -4.43393e-10 2.65835e-13)
(1760 -4.4087e-10 2.51777e-13)
(1760 -4.35756e-10 2.40283e-13)
(1760 -4.29196e-10 2.39275e-13)
(1760 -4.23071e-10 2.2943e-13)
(1760 -4.18086e-10 2.24222e-13)
(1760 -4.16392e-10 2.15613e-13)
(1760 -4.12828e-10 2.137e-13)
(1760 -4.08507e-10 2.15477e-13)
(1760 -4.0614e-10 2.02084e-13)
(1760 -4.02336e-10 1.92432e-13)
(1760 -3.99574e-10 1.99474e-13)
(1760 -3.94874e-10 1.89253e-13)
(1760 -3.91846e-10 1.8187e-13)
(1760 -3.87897e-10 1.78842e-13)
(1760 -3.85411e-10 1.78607e-13)
(1760 -3.84813e-10 1.66857e-13)
(1760 -3.85173e-10 1.71972e-13)
(1760 -3.84258e-10 1.65042e-13)
(1760 -3.83791e-10 1.60676e-13)
(1760 -3.83647e-10 1.56285e-13)
(1760 -3.84968e-10 1.66587e-13)
(1760 -3.83616e-10 1.58806e-13)
(1760 -3.81614e-10 1.53433e-13)
(1760 -3.76967e-10 1.44143e-13)
(1760 -3.76871e-10 1.43422e-13)
(1760 -3.77621e-10 1.33586e-13)
(1760 -3.75481e-10 1.37502e-13)
(1760 -3.77433e-10 1.29244e-13)
(1760 -3.78316e-10 1.34938e-13)
(1760 -3.82035e-10 1.29925e-13)
(1760 -3.82461e-10 1.30515e-13)
(1760 -3.81205e-10 1.21036e-13)
(1760 -3.79525e-10 1.20578e-13)
(1760 -3.80293e-10 1.23688e-13)
(1760 -3.81141e-10 1.19162e-13)
(1760 -3.81655e-10 1.15187e-13)
(1760 -3.81557e-10 1.16902e-13)
(1760 -3.81262e-10 1.15816e-13)
(1760 -3.82534e-10 1.08768e-13)
(1760 -3.83946e-10 1.10246e-13)
(1760 -3.83369e-10 1.10476e-13)
(1760 -3.82717e-10 1.0932e-13)
(1760 -3.83437e-10 1.06408e-13)
(1760 -3.82335e-10 1.07031e-13)
(1760 -3.83327e-10 9.86787e-14)
(1760 -3.84604e-10 9.74545e-14)
(1760 -3.87237e-10 1.00747e-13)
(1760 -3.87815e-10 9.95665e-14)
(1760 -3.91366e-10 9.8627e-14)
(1760 -3.93711e-10 9.60434e-14)
(1760 -3.99533e-10 9.85768e-14)
(1760 -4.02576e-10 9.98657e-14)
(1760 -4.05189e-10 9.32028e-14)
(1760 -4.06824e-10 9.10769e-14)
(1760 -4.05208e-10 8.7615e-14)
(1760 -4.04757e-10 8.78413e-14)
(1760 -4.05186e-10 9.09744e-14)
(1760 -4.05178e-10 9.21386e-14)
(1760 -4.05465e-10 9.45002e-14)
(1760 -4.08412e-10 9.44426e-14)
(1760 -4.1127e-10 9.25654e-14)
(1760 -4.14492e-10 8.85063e-14)
(1760 -4.17647e-10 7.92971e-14)
(1760 -4.23369e-10 8.57297e-14)
(1760 -4.29208e-10 9.0353e-14)
(1760 -4.31245e-10 8.35648e-14)
(1760 -4.34265e-10 7.97836e-14)
(1760 -4.37263e-10 8.05017e-14)
(1760 -4.39508e-10 8.05969e-14)
(1760 -4.4155e-10 8.13293e-14)
(1760 -4.45011e-10 8.27504e-14)
(1760 -4.48035e-10 8.0715e-14)
(1760 -4.51628e-10 8.20176e-14)
(1760 -4.54218e-10 8.20442e-14)
(1760 -4.56189e-10 8.06919e-14)
(1760 -4.58516e-10 8.12442e-14)
(1760 -4.62228e-10 7.98931e-14)
(1760 -4.66509e-10 8.01574e-14)