/*--------------------------------*- C++ -*----------------------------------*\
| =========                 |                                                 |
| \\      /  F ield         | OpenFOAM: The Open Source CFD Toolbox           |
|  \\    /   O peration     | Version:  v1706                                 |
|   \\  /    A nd           | Web:      www.OpenFOAM.com                      |
|    \\/     M anipulation  |                                                 |
\*---------------------------------------------------------------------------*/
FoamFile
{
    version     2.0;
    format      ascii;
    class       volScalarField;
    location    "3.5e-05";
    object      alpha;
}
// * * * * * * * * * * * * * * * * * * * * * * * * * * * * * * * * * * * * * //

dimensions      [1 -1 -1 0 0 0 0];


internalField   nonuniform List<scalar> 
30104
(
1.40692e-05
1.40724e-05
1.40761e-05
1.40803e-05
1.40851e-05
1.40906e-05
1.40969e-05
1.41039e-05
1.4112e-05
1.41211e-05
1.41314e-05
1.41432e-05
1.41567e-05
1.4172e-05
1.41892e-05
1.42083e-05
1.42295e-05
1.61388e-05
1.60198e-05
1.58957e-05
1.57697e-05
1.56591e-05
1.55734e-05
1.54977e-05
1.54235e-05
1.53476e-05
1.52695e-05
1.51891e-05
1.51069e-05
1.50234e-05
1.49393e-05
1.48554e-05
1.47724e-05
1.46908e-05
1.46136e-05
1.45448e-05
1.44863e-05
1.44363e-05
1.43915e-05
1.43496e-05
1.43095e-05
1.42715e-05
1.42363e-05
1.42046e-05
1.41775e-05
1.41556e-05
1.41379e-05
1.41232e-05
1.41105e-05
1.40995e-05
1.40901e-05
1.40824e-05
1.40761e-05
1.4071e-05
1.40668e-05
1.40633e-05
1.40603e-05
1.40578e-05
1.40557e-05
1.4054e-05
1.40527e-05
1.40517e-05
1.40509e-05
1.40502e-05
1.40497e-05
1.40493e-05
1.4049e-05
1.40487e-05
1.40485e-05
1.40484e-05
1.40482e-05
1.40481e-05
1.4048e-05
1.4048e-05
1.40479e-05
1.40479e-05
1.40479e-05
1.40478e-05
1.40478e-05
1.40478e-05
1.40478e-05
1.40478e-05
1.40478e-05
1.40478e-05
1.40478e-05
1.40478e-05
1.40478e-05
1.40478e-05
1.40478e-05
1.40478e-05
1.40478e-05
1.40478e-05
1.40478e-05
1.40478e-05
1.40478e-05
1.40478e-05
1.40478e-05
1.40478e-05
1.40478e-05
1.40478e-05
1.40478e-05
1.40478e-05
1.40478e-05
1.40478e-05
1.40478e-05
1.40478e-05
1.40478e-05
1.40478e-05
1.40478e-05
1.40478e-05
1.40478e-05
1.40478e-05
1.40478e-05
1.40478e-05
1.40478e-05
1.40478e-05
1.40478e-05
1.40478e-05
1.40478e-05
1.40478e-05
1.40478e-05
1.40478e-05
1.40478e-05
1.40478e-05
1.40478e-05
1.40478e-05
1.40478e-05
1.40478e-05
1.40478e-05
1.40478e-05
1.40478e-05
1.40478e-05
1.40478e-05
1.40478e-05
1.40478e-05
1.40478e-05
1.40478e-05
1.40478e-05
1.40478e-05
1.40478e-05
1.40478e-05
1.40478e-05
1.40478e-05
1.40478e-05
1.40478e-05
1.40478e-05
1.40478e-05
1.40478e-05
1.40478e-05
1.40478e-05
1.40478e-05
1.40478e-05
1.40478e-05
1.40478e-05
1.40478e-05
1.40478e-05
1.40478e-05
1.40478e-05
1.40478e-05
1.40478e-05
1.40478e-05
1.40478e-05
1.40478e-05
1.40478e-05
1.40478e-05
1.40478e-05
1.40478e-05
1.40478e-05
1.40478e-05
1.40478e-05
1.40478e-05
1.40478e-05
1.40478e-05
1.40478e-05
1.40478e-05
1.40478e-05
1.40478e-05
1.40478e-05
1.40478e-05
1.40478e-05
1.40478e-05
1.40478e-05
1.40478e-05
1.40478e-05
1.40478e-05
1.40478e-05
1.40478e-05
1.40478e-05
1.40478e-05
1.40478e-05
1.40478e-05
1.40478e-05
1.40478e-05
1.40478e-05
1.40478e-05
1.40478e-05
1.40478e-05
1.40478e-05
1.40478e-05
1.40478e-05
1.40478e-05
1.40478e-05
1.40478e-05
1.40478e-05
1.40478e-05
1.40478e-05
1.40478e-05
1.40478e-05
1.40478e-05
1.40478e-05
1.41796e-05
1.41993e-05
1.42219e-05
1.42477e-05
1.42773e-05
1.43109e-05
1.4349e-05
1.4392e-05
1.44401e-05
1.44941e-05
1.45548e-05
1.46235e-05
1.47013e-05
1.47889e-05
1.48869e-05
1.49955e-05
1.51146e-05
2.08453e-05
2.08088e-05
2.07674e-05
2.07153e-05
2.06417e-05
2.05395e-05
2.04091e-05
2.02533e-05
2.00741e-05
1.98722e-05
1.96468e-05
1.93967e-05
1.91217e-05
1.88232e-05
1.85033e-05
1.81637e-05
1.78069e-05
1.7438e-05
1.70713e-05
1.67431e-05
1.64713e-05
1.62307e-05
1.60034e-05
1.57819e-05
1.55653e-05
1.53573e-05
1.5165e-05
1.49961e-05
1.48542e-05
1.47352e-05
1.46322e-05
1.45405e-05
1.44584e-05
1.43859e-05
1.4324e-05
1.42733e-05
1.42324e-05
1.41991e-05
1.41713e-05
1.41479e-05
1.41283e-05
1.41124e-05
1.40997e-05
1.40895e-05
1.40812e-05
1.40745e-05
1.40689e-05
1.40643e-05
1.40607e-05
1.40579e-05
1.40557e-05
1.4054e-05
1.40526e-05
1.40515e-05
1.40506e-05
1.405e-05
1.40495e-05
1.40491e-05
1.40487e-05
1.40485e-05
1.40483e-05
1.40482e-05
1.40481e-05
1.4048e-05
1.40479e-05
1.40479e-05
1.40479e-05
1.40478e-05
1.40478e-05
1.40478e-05
1.40478e-05
1.40478e-05
1.40478e-05
1.40478e-05
1.40478e-05
1.40478e-05
1.40478e-05
1.40478e-05
1.40478e-05
1.40478e-05
1.40478e-05
1.40478e-05
1.40478e-05
1.40478e-05
1.40478e-05
1.40478e-05
1.40478e-05
1.40478e-05
1.40478e-05
1.40478e-05
1.40478e-05
1.40478e-05
1.40478e-05
1.40478e-05
1.40478e-05
1.40478e-05
1.40478e-05
1.40478e-05
1.40478e-05
1.40478e-05
1.40478e-05
1.40478e-05
1.40478e-05
1.40478e-05
1.40478e-05
1.40478e-05
1.40478e-05
1.40478e-05
1.40478e-05
1.40478e-05
1.40478e-05
1.40478e-05
1.40478e-05
1.40478e-05
1.40478e-05
1.40478e-05
1.40478e-05
1.40478e-05
1.40478e-05
1.40478e-05
1.40478e-05
1.40478e-05
1.40478e-05
1.40478e-05
1.40478e-05
1.40478e-05
1.40478e-05
1.40478e-05
1.40478e-05
1.40478e-05
1.40478e-05
1.40478e-05
1.40478e-05
1.40478e-05
1.40478e-05
1.40478e-05
1.40478e-05
1.40478e-05
1.40478e-05
1.40478e-05
1.40478e-05
1.40478e-05
1.40478e-05
1.40478e-05
1.40478e-05
1.40478e-05
1.40478e-05
1.40478e-05
1.40478e-05
1.40478e-05
1.40478e-05
1.40478e-05
1.40478e-05
1.40478e-05
1.40478e-05
1.40478e-05
1.40478e-05
1.40478e-05
1.40478e-05
1.40478e-05
1.40478e-05
1.40478e-05
1.40478e-05
1.40478e-05
1.40478e-05
1.40478e-05
1.40478e-05
1.40478e-05
1.40478e-05
1.40478e-05
1.40478e-05
1.40478e-05
1.40478e-05
1.40478e-05
1.40478e-05
1.40478e-05
1.40478e-05
1.40478e-05
1.40478e-05
1.40478e-05
1.40478e-05
1.40478e-05
1.40478e-05
1.40478e-05
1.40478e-05
1.40478e-05
1.40478e-05
1.40478e-05
1.40478e-05
1.40478e-05
1.40478e-05
1.40478e-05
1.40478e-05
1.45208e-05
1.45893e-05
1.4667e-05
1.47553e-05
1.48554e-05
1.49685e-05
1.50951e-05
1.52357e-05
1.53909e-05
1.55619e-05
1.57516e-05
1.59626e-05
1.61958e-05
1.64504e-05
1.67245e-05
1.70155e-05
2.191e-05
2.19173e-05
2.19263e-05
2.19339e-05
2.19354e-05
2.19326e-05
2.19228e-05
2.19031e-05
2.18734e-05
2.18347e-05
2.17884e-05
2.17351e-05
2.16751e-05
2.16074e-05
2.15284e-05
2.14331e-05
2.13155e-05
2.11684e-05
2.09823e-05
2.07452e-05
2.0453e-05
2.01112e-05
1.9726e-05
1.93017e-05
1.88426e-05
1.83552e-05
1.78518e-05
1.73582e-05
1.69276e-05
1.65703e-05
1.6255e-05
1.5962e-05
1.56855e-05
1.54292e-05
1.52014e-05
1.50088e-05
1.48508e-05
1.47185e-05
1.46045e-05
1.45048e-05
1.44185e-05
1.43462e-05
1.42879e-05
1.42416e-05
1.42043e-05
1.41735e-05
1.4148e-05
1.41271e-05
1.41105e-05
1.40974e-05
1.40871e-05
1.40787e-05
1.40719e-05
1.40664e-05
1.40621e-05
1.40588e-05
1.40563e-05
1.40543e-05
1.40527e-05
1.40515e-05
1.40506e-05
1.40499e-05
1.40494e-05
1.4049e-05
1.40487e-05
1.40484e-05
1.40482e-05
1.40481e-05
1.4048e-05
1.4048e-05
1.40479e-05
1.40479e-05
1.40479e-05
1.40478e-05
1.40478e-05
1.40478e-05
1.40478e-05
1.40478e-05
1.40478e-05
1.40478e-05
1.40478e-05
1.40478e-05
1.40478e-05
1.40478e-05
1.40478e-05
1.40478e-05
1.40478e-05
1.40478e-05
1.40478e-05
1.40478e-05
1.40478e-05
1.40478e-05
1.40478e-05
1.40478e-05
1.40478e-05
1.40478e-05
1.40478e-05
1.40478e-05
1.40478e-05
1.40478e-05
1.40478e-05
1.40478e-05
1.40478e-05
1.40478e-05
1.40478e-05
1.40478e-05
1.40478e-05
1.40478e-05
1.40478e-05
1.40478e-05
1.40478e-05
1.40478e-05
1.40478e-05
1.40478e-05
1.40478e-05
1.40478e-05
1.40478e-05
1.40478e-05
1.40478e-05
1.40478e-05
1.40478e-05
1.40478e-05
1.40478e-05
1.40478e-05
1.40478e-05
1.40478e-05
1.40478e-05
1.40478e-05
1.40478e-05
1.40478e-05
1.40478e-05
1.40478e-05
1.40478e-05
1.40478e-05
1.40478e-05
1.40478e-05
1.40478e-05
1.40478e-05
1.40478e-05
1.40478e-05
1.40478e-05
1.40478e-05
1.40478e-05
1.40478e-05
1.40478e-05
1.40478e-05
1.40478e-05
1.40478e-05
1.40478e-05
1.40478e-05
1.40478e-05
1.40478e-05
1.40478e-05
1.40478e-05
1.40478e-05
1.40478e-05
1.40478e-05
1.40478e-05
1.40478e-05
1.40478e-05
1.40478e-05
1.40478e-05
1.40478e-05
1.40478e-05
1.40478e-05
1.40478e-05
1.40478e-05
1.40478e-05
1.40478e-05
1.40478e-05
1.40478e-05
1.40478e-05
1.40478e-05
1.40478e-05
1.40478e-05
1.40478e-05
1.40478e-05
1.40478e-05
1.40478e-05
1.40478e-05
1.40478e-05
1.40478e-05
1.40478e-05
1.40478e-05
1.40478e-05
1.40478e-05
1.40478e-05
1.40478e-05
1.40478e-05
1.40478e-05
1.40478e-05
1.40478e-05
1.40478e-05
1.55196e-05
1.57149e-05
1.59325e-05
1.61748e-05
1.64421e-05
1.67335e-05
1.70465e-05
1.73783e-05
1.77265e-05
1.80909e-05
1.84808e-05
1.89081e-05
1.9368e-05
1.98503e-05
2.03422e-05
2.08307e-05
2.22227e-05
2.22295e-05
2.22376e-05
2.22461e-05
2.22538e-05
2.22603e-05
2.22639e-05
2.22642e-05
2.22625e-05
2.22581e-05
2.2251e-05
2.22409e-05
2.22289e-05
2.22151e-05
2.21988e-05
2.21784e-05
2.21525e-05
2.21205e-05
2.20825e-05
2.20395e-05
2.19922e-05
2.19388e-05
2.18742e-05
2.17914e-05
2.16823e-05
2.15368e-05
2.13445e-05
2.1094e-05
2.0773e-05
2.03822e-05
1.99325e-05
1.94336e-05
1.88939e-05
1.83246e-05
1.77486e-05
1.72124e-05
1.67726e-05
1.6401e-05
1.60662e-05
1.57555e-05
1.54712e-05
1.52216e-05
1.50134e-05
1.48447e-05
1.47049e-05
1.45853e-05
1.44819e-05
1.43942e-05
1.43225e-05
1.4266e-05
1.42216e-05
1.41858e-05
1.41565e-05
1.41328e-05
1.4114e-05
1.40994e-05
1.40879e-05
1.40789e-05
1.40717e-05
1.40659e-05
1.40615e-05
1.40581e-05
1.40556e-05
1.40536e-05
1.40521e-05
1.4051e-05
1.40502e-05
1.40496e-05
1.40491e-05
1.40487e-05
1.40485e-05
1.40483e-05
1.40482e-05
1.40481e-05
1.4048e-05
1.40479e-05
1.40479e-05
1.40479e-05
1.40478e-05
1.40478e-05
1.40478e-05
1.40478e-05
1.40478e-05
1.40478e-05
1.40478e-05
1.40478e-05
1.40478e-05
1.40478e-05
1.40478e-05
1.40478e-05
1.40478e-05
1.40478e-05
1.40478e-05
1.40478e-05
1.40478e-05
1.40478e-05
1.40478e-05
1.40478e-05
1.40478e-05
1.40478e-05
1.40478e-05
1.40478e-05
1.40478e-05
1.40478e-05
1.40478e-05
1.40478e-05
1.40478e-05
1.40478e-05
1.40478e-05
1.40478e-05
1.40478e-05
1.40478e-05
1.40478e-05
1.40478e-05
1.40478e-05
1.40478e-05
1.40478e-05
1.40478e-05
1.40478e-05
1.40478e-05
1.40478e-05
1.40478e-05
1.40478e-05
1.40478e-05
1.40478e-05
1.40478e-05
1.40478e-05
1.40478e-05
1.40478e-05
1.40478e-05
1.40478e-05
1.40478e-05
1.40478e-05
1.40478e-05
1.40478e-05
1.40478e-05
1.40478e-05
1.40478e-05
1.40478e-05
1.40478e-05
1.40478e-05
1.40478e-05
1.40478e-05
1.40478e-05
1.40478e-05
1.40478e-05
1.40478e-05
1.40478e-05
1.40478e-05
1.40478e-05
1.40478e-05
1.40478e-05
1.40478e-05
1.40478e-05
1.40478e-05
1.40478e-05
1.40478e-05
1.40478e-05
1.40478e-05
1.40478e-05
1.40478e-05
1.40478e-05
1.40478e-05
1.40478e-05
1.40478e-05
1.40478e-05
1.40478e-05
1.40478e-05
1.40478e-05
1.40478e-05
1.40478e-05
1.40478e-05
1.40478e-05
1.40478e-05
1.40478e-05
1.40478e-05
1.40478e-05
1.40478e-05
1.40478e-05
1.40478e-05
1.40478e-05
1.40479e-05
1.40479e-05
1.40479e-05
1.40479e-05
1.40479e-05
1.40479e-05
1.40479e-05
1.40479e-05
1.40479e-05
1.40479e-05
1.40479e-05
1.40479e-05
1.79059e-05
1.83009e-05
1.87267e-05
1.91895e-05
1.96826e-05
2.01949e-05
2.07127e-05
2.12223e-05
2.17121e-05
2.2172e-05
2.25926e-05
2.29674e-05
2.32962e-05
2.35809e-05
2.38249e-05
2.24416e-05
2.24436e-05
2.24457e-05
2.24476e-05
2.24491e-05
2.24496e-05
2.24489e-05
2.24469e-05
2.24441e-05
2.24407e-05
2.24366e-05
2.24329e-05
2.24283e-05
2.24217e-05
2.24133e-05
2.24037e-05
2.23931e-05
2.23829e-05
2.23737e-05
2.23649e-05
2.23573e-05
2.23503e-05
2.23425e-05
2.23318e-05
2.23167e-05
2.22957e-05
2.22694e-05
2.22377e-05
2.21986e-05
2.21479e-05
2.20775e-05
2.19759e-05
2.18316e-05
2.16351e-05
2.13783e-05
2.1051e-05
2.06461e-05
2.01723e-05
1.96393e-05
1.90557e-05
1.84358e-05
1.78091e-05
1.72302e-05
1.67605e-05
1.63664e-05
1.60119e-05
1.56857e-05
1.53927e-05
1.5142e-05
1.4938e-05
1.47737e-05
1.46367e-05
1.45197e-05
1.44205e-05
1.43392e-05
1.42756e-05
1.42264e-05
1.41876e-05
1.41564e-05
1.41314e-05
1.41119e-05
1.40969e-05
1.40854e-05
1.40764e-05
1.40693e-05
1.40638e-05
1.40597e-05
1.40566e-05
1.40544e-05
1.40526e-05
1.40514e-05
1.40504e-05
1.40497e-05
1.40492e-05
1.40488e-05
1.40486e-05
1.40484e-05
1.40482e-05
1.40481e-05
1.4048e-05
1.4048e-05
1.40479e-05
1.40479e-05
1.40479e-05
1.40479e-05
1.40478e-05
1.40478e-05
1.40478e-05
1.40478e-05
1.40478e-05
1.40478e-05
1.40478e-05
1.40478e-05
1.40478e-05
1.40478e-05
1.40478e-05
1.40478e-05
1.40478e-05
1.40478e-05
1.40478e-05
1.40478e-05
1.40478e-05
1.40478e-05
1.40478e-05
1.40478e-05
1.40478e-05
1.40478e-05
1.40478e-05
1.40478e-05
1.40478e-05
1.40478e-05
1.40478e-05
1.40478e-05
1.40478e-05
1.40478e-05
1.40478e-05
1.40478e-05
1.40478e-05
1.40478e-05
1.40478e-05
1.40478e-05
1.40478e-05
1.40478e-05
1.40478e-05
1.40478e-05
1.40478e-05
1.40478e-05
1.40478e-05
1.40478e-05
1.40478e-05
1.40478e-05
1.40478e-05
1.40478e-05
1.40478e-05
1.40478e-05
1.40478e-05
1.40478e-05
1.40478e-05
1.40478e-05
1.40478e-05
1.40478e-05
1.40478e-05
1.40478e-05
1.40478e-05
1.40478e-05
1.40478e-05
1.40478e-05
1.40478e-05
1.40479e-05
1.40479e-05
1.40479e-05
1.40479e-05
1.40479e-05
1.40479e-05
1.40479e-05
1.40479e-05
1.40479e-05
1.40479e-05
1.40479e-05
1.40479e-05
1.40479e-05
1.40479e-05
1.40479e-05
1.40479e-05
1.40479e-05
1.40479e-05
1.40479e-05
1.40479e-05
1.40479e-05
1.40479e-05
1.40479e-05
1.40479e-05
1.4048e-05
1.4048e-05
1.4048e-05
1.4048e-05
1.4048e-05
1.4048e-05
1.4048e-05
1.4048e-05
1.4048e-05
1.4048e-05
1.4048e-05
1.4048e-05
1.40481e-05
1.40481e-05
1.40481e-05
1.40481e-05
1.40481e-05
1.40481e-05
1.40481e-05
1.40481e-05
1.40481e-05
2.13337e-05
2.18452e-05
2.23255e-05
2.27633e-05
2.3153e-05
2.34939e-05
2.3788e-05
2.40389e-05
2.42509e-05
2.44287e-05
2.45768e-05
2.46988e-05
2.47983e-05
2.48784e-05
2.49417e-05
2.49905e-05
2.26314e-05
2.26279e-05
2.26246e-05
2.26213e-05
2.26175e-05
2.26131e-05
2.26079e-05
2.26024e-05
2.25971e-05
2.25916e-05
2.25857e-05
2.25806e-05
2.25755e-05
2.25696e-05
2.25619e-05
2.25526e-05
2.25432e-05
2.25346e-05
2.25273e-05
2.25222e-05
2.25182e-05
2.25149e-05
2.25127e-05
2.25109e-05
2.25107e-05
2.25129e-05
2.25164e-05
2.25153e-05
2.25142e-05
2.25134e-05
2.25103e-05
2.25019e-05
2.24869e-05
2.2467e-05
2.24413e-05
2.24077e-05
2.23606e-05
2.22893e-05
2.21802e-05
2.20215e-05
2.18049e-05
2.15233e-05
2.11668e-05
2.07266e-05
2.02092e-05
1.96235e-05
1.89815e-05
1.83064e-05
1.76415e-05
1.70587e-05
1.65933e-05
1.61936e-05
1.58309e-05
1.55033e-05
1.52199e-05
1.49879e-05
1.48039e-05
1.46539e-05
1.45275e-05
1.44214e-05
1.43356e-05
1.42694e-05
1.42189e-05
1.41796e-05
1.41485e-05
1.41241e-05
1.41054e-05
1.40914e-05
1.40807e-05
1.40723e-05
1.40659e-05
1.40612e-05
1.40577e-05
1.40551e-05
1.40533e-05
1.40519e-05
1.40508e-05
1.40501e-05
1.40495e-05
1.40491e-05
1.40488e-05
1.40485e-05
1.40484e-05
1.40482e-05
1.40481e-05
1.40481e-05
1.4048e-05
1.4048e-05
1.40479e-05
1.40479e-05
1.40479e-05
1.40479e-05
1.40479e-05
1.40479e-05
1.40479e-05
1.40479e-05
1.40478e-05
1.40478e-05
1.40478e-05
1.40478e-05
1.40478e-05
1.40478e-05
1.40478e-05
1.40478e-05
1.40478e-05
1.40478e-05
1.40478e-05
1.40478e-05
1.40478e-05
1.40479e-05
1.40479e-05
1.40479e-05
1.40479e-05
1.40479e-05
1.40479e-05
1.40479e-05
1.40479e-05
1.40479e-05
1.40479e-05
1.40479e-05
1.40479e-05
1.40479e-05
1.40479e-05
1.40479e-05
1.40479e-05
1.40479e-05
1.40479e-05
1.40479e-05
1.40479e-05
1.40479e-05
1.40479e-05
1.40479e-05
1.40479e-05
1.40479e-05
1.40479e-05
1.40479e-05
1.40479e-05
1.40479e-05
1.40479e-05
1.40479e-05
1.40479e-05
1.4048e-05
1.4048e-05
1.4048e-05
1.4048e-05
1.4048e-05
1.4048e-05
1.4048e-05
1.4048e-05
1.4048e-05
1.4048e-05
1.4048e-05
1.4048e-05
1.40481e-05
1.40481e-05
1.40481e-05
1.40481e-05
1.40481e-05
1.40481e-05
1.40481e-05
1.40481e-05
1.40482e-05
1.40482e-05
1.40482e-05
1.40482e-05
1.40482e-05
1.40483e-05
1.40483e-05
1.40483e-05
1.40483e-05
1.40483e-05
1.40484e-05
1.40484e-05
1.40484e-05
1.40484e-05
1.40485e-05
1.40485e-05
1.40485e-05
1.40486e-05
1.40486e-05
1.40486e-05
1.40487e-05
1.40487e-05
1.40488e-05
1.40488e-05
1.40488e-05
1.40489e-05
1.40489e-05
1.4049e-05
1.4049e-05
1.40491e-05
1.40492e-05
1.40491e-05
2.43617e-05
2.45556e-05
2.47164e-05
2.48483e-05
2.49555e-05
2.50416e-05
2.51095e-05
2.51621e-05
2.52017e-05
2.52322e-05
2.52568e-05
2.52772e-05
2.52943e-05
2.28348e-05
2.28237e-05
2.28128e-05
2.28019e-05
2.27912e-05
2.27804e-05
2.27696e-05
2.27593e-05
2.27501e-05
2.27411e-05
2.27323e-05
2.2724e-05
2.27157e-05
2.27071e-05
2.26976e-05
2.26873e-05
2.26768e-05
2.26669e-05
2.26584e-05
2.26517e-05
2.26467e-05
2.26429e-05
2.26405e-05
2.26382e-05
2.26376e-05
2.26391e-05
2.26402e-05
2.26406e-05
2.26418e-05
2.2645e-05
2.26502e-05
2.26567e-05
2.26651e-05
2.26748e-05
2.26802e-05
2.26858e-05
2.26908e-05
2.26919e-05
2.26904e-05
2.2685e-05
2.26735e-05
2.26537e-05
2.26207e-05
2.25658e-05
2.24766e-05
2.23407e-05
2.21488e-05
2.18936e-05
2.15655e-05
2.11495e-05
2.06378e-05
2.00396e-05
1.93689e-05
1.8649e-05
1.79209e-05
1.72535e-05
1.6721e-05
1.62802e-05
1.58874e-05
1.55351e-05
1.52319e-05
1.49855e-05
1.47921e-05
1.4636e-05
1.45059e-05
1.43986e-05
1.4314e-05
1.42503e-05
1.42023e-05
1.41652e-05
1.41363e-05
1.41141e-05
1.40976e-05
1.40853e-05
1.40759e-05
1.40688e-05
1.40634e-05
1.40595e-05
1.40567e-05
1.40546e-05
1.4053e-05
1.40518e-05
1.40509e-05
1.40502e-05
1.40497e-05
1.40493e-05
1.4049e-05
1.40487e-05
1.40486e-05
1.40484e-05
1.40483e-05
1.40482e-05
1.40482e-05
1.40481e-05
1.40481e-05
1.40481e-05
1.4048e-05
1.4048e-05
1.4048e-05
1.4048e-05
1.4048e-05
1.4048e-05
1.4048e-05
1.4048e-05
1.4048e-05
1.4048e-05
1.4048e-05
1.4048e-05
1.4048e-05
1.4048e-05
1.4048e-05
1.4048e-05
1.4048e-05
1.4048e-05
1.4048e-05
1.4048e-05
1.4048e-05
1.4048e-05
1.4048e-05
1.40481e-05
1.40481e-05
1.40481e-05
1.40481e-05
1.40481e-05
1.40481e-05
1.40481e-05
1.40481e-05
1.40481e-05
1.40481e-05
1.40481e-05
1.40482e-05
1.40482e-05
1.40482e-05
1.40482e-05
1.40482e-05
1.40482e-05
1.40483e-05
1.40483e-05
1.40483e-05
1.40483e-05
1.40483e-05
1.40484e-05
1.40484e-05
1.40484e-05
1.40484e-05
1.40485e-05
1.40485e-05
1.40485e-05
1.40485e-05
1.40486e-05
1.40486e-05
1.40486e-05
1.40487e-05
1.40487e-05
1.40488e-05
1.40488e-05
1.40488e-05
1.40489e-05
1.40489e-05
1.4049e-05
1.4049e-05
1.40491e-05
1.40492e-05
1.40492e-05
1.40493e-05
1.40493e-05
1.40494e-05
1.40495e-05
1.40496e-05
1.40497e-05
1.40497e-05
1.40498e-05
1.40499e-05
1.405e-05
1.40501e-05
1.40502e-05
1.40503e-05
1.40505e-05
1.40506e-05
1.40507e-05
1.40509e-05
1.4051e-05
1.40512e-05
1.40513e-05
1.40515e-05
1.40516e-05
1.40518e-05
1.4052e-05
1.40522e-05
1.40524e-05
1.40527e-05
1.40529e-05
1.40527e-05
2.5355e-05
2.53908e-05
2.5419e-05
2.5442e-05
2.54608e-05
2.54761e-05
2.54878e-05
2.54955e-05
2.54979e-05
2.54967e-05
2.54936e-05
2.54894e-05
2.54848e-05
2.30446e-05
2.30266e-05
2.3009e-05
2.29917e-05
2.29748e-05
2.29583e-05
2.29426e-05
2.29279e-05
2.29142e-05
2.2901e-05
2.28884e-05
2.28762e-05
2.2864e-05
2.28515e-05
2.28386e-05
2.28255e-05
2.28124e-05
2.28e-05
2.27886e-05
2.2779e-05
2.27709e-05
2.27641e-05
2.27584e-05
2.27533e-05
2.2749e-05
2.27459e-05
2.27435e-05
2.27429e-05
2.27435e-05
2.27457e-05
2.27495e-05
2.2755e-05
2.27624e-05
2.27703e-05
2.27786e-05
2.27886e-05
2.28009e-05
2.28151e-05
2.28315e-05
2.285e-05
2.28656e-05
2.28794e-05
2.2892e-05
2.29028e-05
2.29107e-05
2.29127e-05
2.29103e-05
2.29004e-05
2.28758e-05
2.28282e-05
2.27477e-05
2.26222e-05
2.2441e-05
2.21953e-05
2.18731e-05
2.14566e-05
2.09302e-05
2.03014e-05
1.95877e-05
1.88164e-05
1.80335e-05
1.73144e-05
1.67424e-05
1.62746e-05
1.58611e-05
1.54946e-05
1.51848e-05
1.49379e-05
1.47464e-05
1.45921e-05
1.44647e-05
1.43624e-05
1.42846e-05
1.42273e-05
1.41845e-05
1.41515e-05
1.41262e-05
1.41073e-05
1.40932e-05
1.40827e-05
1.40746e-05
1.40683e-05
1.40636e-05
1.40601e-05
1.40574e-05
1.40554e-05
1.40539e-05
1.40527e-05
1.40518e-05
1.4051e-05
1.40505e-05
1.405e-05
1.40497e-05
1.40494e-05
1.40491e-05
1.40489e-05
1.40488e-05
1.40487e-05
1.40486e-05
1.40485e-05
1.40485e-05
1.40485e-05
1.40484e-05
1.40484e-05
1.40484e-05
1.40484e-05
1.40484e-05
1.40484e-05
1.40484e-05
1.40484e-05
1.40485e-05
1.40485e-05
1.40485e-05
1.40485e-05
1.40485e-05
1.40485e-05
1.40486e-05
1.40486e-05
1.40486e-05
1.40486e-05
1.40487e-05
1.40487e-05
1.40487e-05
1.40488e-05
1.40488e-05
1.40488e-05
1.40489e-05
1.40489e-05
1.40489e-05
1.4049e-05
1.4049e-05
1.40491e-05
1.40491e-05
1.40492e-05
1.40492e-05
1.40493e-05
1.40493e-05
1.40494e-05
1.40494e-05
1.40495e-05
1.40496e-05
1.40497e-05
1.40497e-05
1.40498e-05
1.40499e-05
1.405e-05
1.40501e-05
1.40502e-05
1.40503e-05
1.40504e-05
1.40506e-05
1.40507e-05
1.40508e-05
1.40509e-05
1.40511e-05
1.40512e-05
1.40514e-05
1.40516e-05
1.40517e-05
1.40519e-05
1.40521e-05
1.40523e-05
1.40525e-05
1.40527e-05
1.40529e-05
1.40532e-05
1.40534e-05
1.40537e-05
1.4054e-05
1.40543e-05
1.40546e-05
1.40549e-05
1.40553e-05
1.40556e-05
1.4056e-05
1.40564e-05
1.40568e-05
1.40572e-05
1.40577e-05
1.40582e-05
1.40587e-05
1.40592e-05
1.40597e-05
1.40603e-05
1.40609e-05
1.40616e-05
1.40623e-05
1.4063e-05
1.40638e-05
1.40646e-05
1.40655e-05
1.40664e-05
1.40658e-05
2.56623e-05
2.56675e-05
2.56674e-05
2.56653e-05
2.56617e-05
2.56572e-05
2.5653e-05
2.56491e-05
2.56463e-05
2.56445e-05
2.56417e-05
2.56366e-05
2.56296e-05
2.56203e-05
2.32546e-05
2.32309e-05
2.32079e-05
2.31857e-05
2.31641e-05
2.31431e-05
2.31232e-05
2.31044e-05
2.30865e-05
2.30694e-05
2.30529e-05
2.30368e-05
2.30205e-05
2.30044e-05
2.29883e-05
2.29721e-05
2.2956e-05
2.29404e-05
2.29258e-05
2.29125e-05
2.29004e-05
2.28893e-05
2.28791e-05
2.28698e-05
2.28613e-05
2.28538e-05
2.28476e-05
2.2843e-05
2.284e-05
2.28391e-05
2.28396e-05
2.28416e-05
2.28457e-05
2.28515e-05
2.28592e-05
2.28688e-05
2.28802e-05
2.28936e-05
2.2909e-05
2.29255e-05
2.29429e-05
2.29616e-05
2.29823e-05
2.30051e-05
2.30295e-05
2.30546e-05
2.3078e-05
2.30992e-05
2.31187e-05
2.31373e-05
2.31546e-05
2.31666e-05
2.31689e-05
2.31644e-05
2.31452e-05
2.31008e-05
2.30221e-05
2.28976e-05
2.27153e-05
2.24636e-05
2.21284e-05
2.16885e-05
2.11255e-05
2.04465e-05
1.96728e-05
1.88387e-05
1.80029e-05
1.72557e-05
1.6675e-05
1.61969e-05
1.57744e-05
1.54066e-05
1.51041e-05
1.48698e-05
1.46894e-05
1.4544e-05
1.44262e-05
1.43349e-05
1.42673e-05
1.42177e-05
1.418e-05
1.41505e-05
1.41276e-05
1.41102e-05
1.4097e-05
1.40868e-05
1.40789e-05
1.40725e-05
1.40676e-05
1.40638e-05
1.40609e-05
1.40586e-05
1.40568e-05
1.40553e-05
1.40541e-05
1.40532e-05
1.40524e-05
1.40518e-05
1.40513e-05
1.40509e-05
1.40506e-05
1.40503e-05
1.40501e-05
1.405e-05
1.40499e-05
1.40499e-05
1.40498e-05
1.40498e-05
1.40498e-05
1.40499e-05
1.40499e-05
1.405e-05
1.405e-05
1.40501e-05
1.40501e-05
1.40502e-05
1.40503e-05
1.40503e-05
1.40504e-05
1.40505e-05
1.40506e-05
1.40507e-05
1.40508e-05
1.40509e-05
1.4051e-05
1.40511e-05
1.40512e-05
1.40513e-05
1.40515e-05
1.40516e-05
1.40517e-05
1.40519e-05
1.40521e-05
1.40522e-05
1.40524e-05
1.40526e-05
1.40528e-05
1.4053e-05
1.40532e-05
1.40534e-05
1.40537e-05
1.40539e-05
1.40542e-05
1.40545e-05
1.40548e-05
1.40551e-05
1.40554e-05
1.40558e-05
1.40561e-05
1.40565e-05
1.40569e-05
1.40574e-05
1.40578e-05
1.40583e-05
1.40588e-05
1.40593e-05
1.40598e-05
1.40604e-05
1.40609e-05
1.40615e-05
1.40622e-05
1.40629e-05
1.40636e-05
1.40643e-05
1.40651e-05
1.4066e-05
1.40669e-05
1.40678e-05
1.40688e-05
1.40699e-05
1.4071e-05
1.40722e-05
1.40734e-05
1.40747e-05
1.40761e-05
1.40775e-05
1.4079e-05
1.40806e-05
1.40823e-05
1.4084e-05
1.40858e-05
1.40877e-05
1.40897e-05
1.40918e-05
1.40941e-05
1.40964e-05
1.40989e-05
1.41015e-05
1.41043e-05
1.41073e-05
1.41105e-05
1.41143e-05
1.41123e-05
2.58209e-05
2.58184e-05
2.58158e-05
2.58111e-05
2.58047e-05
2.57955e-05
2.57853e-05
2.5775e-05
2.57658e-05
2.57585e-05
2.5752e-05
2.57453e-05
2.57374e-05
2.57282e-05
2.34609e-05
2.34333e-05
2.34065e-05
2.33805e-05
2.33553e-05
2.3331e-05
2.33076e-05
2.32852e-05
2.32638e-05
2.32429e-05
2.32227e-05
2.32031e-05
2.31835e-05
2.31639e-05
2.31445e-05
2.31251e-05
2.3106e-05
2.30874e-05
2.30695e-05
2.30524e-05
2.30363e-05
2.30211e-05
2.30066e-05
2.2993e-05
2.29804e-05
2.29687e-05
2.29583e-05
2.29494e-05
2.29419e-05
2.29362e-05
2.29322e-05
2.29307e-05
2.29312e-05
2.29335e-05
2.2938e-05
2.29443e-05
2.29525e-05
2.29625e-05
2.29746e-05
2.29889e-05
2.30052e-05
2.30237e-05
2.30444e-05
2.30672e-05
2.30914e-05
2.31171e-05
2.3144e-05
2.31718e-05
2.32016e-05
2.32339e-05
2.32679e-05
2.33018e-05
2.33323e-05
2.33606e-05
2.33884e-05
2.34168e-05
2.34452e-05
2.34695e-05
2.34837e-05
2.34853e-05
2.34756e-05
2.34396e-05
2.33644e-05
2.32373e-05
2.30432e-05
2.27667e-05
2.23908e-05
2.18942e-05
2.12623e-05
2.0507e-05
1.96544e-05
1.87506e-05
1.78739e-05
1.713e-05
1.6566e-05
1.60942e-05
1.5681e-05
1.53313e-05
1.50529e-05
1.48413e-05
1.46775e-05
1.4544e-05
1.44351e-05
1.43497e-05
1.42852e-05
1.42369e-05
1.41997e-05
1.417e-05
1.41462e-05
1.41274e-05
1.41127e-05
1.41012e-05
1.4092e-05
1.40845e-05
1.40783e-05
1.40731e-05
1.40689e-05
1.40656e-05
1.4063e-05
1.40609e-05
1.40592e-05
1.40579e-05
1.40568e-05
1.40561e-05
1.40555e-05
1.40551e-05
1.40548e-05
1.40546e-05
1.40545e-05
1.40545e-05
1.40545e-05
1.40546e-05
1.40548e-05
1.40549e-05
1.40551e-05
1.40553e-05
1.40556e-05
1.40558e-05
1.40561e-05
1.40563e-05
1.40566e-05
1.40569e-05
1.40572e-05
1.40575e-05
1.40579e-05
1.40582e-05
1.40586e-05
1.4059e-05
1.40594e-05
1.40599e-05
1.40603e-05
1.40608e-05
1.40614e-05
1.40619e-05
1.40625e-05
1.40631e-05
1.40637e-05
1.40644e-05
1.40651e-05
1.40659e-05
1.40667e-05
1.40675e-05
1.40684e-05
1.40693e-05
1.40703e-05
1.40713e-05
1.40724e-05
1.40735e-05
1.40748e-05
1.4076e-05
1.40774e-05
1.40789e-05
1.40804e-05
1.4082e-05
1.40837e-05
1.40854e-05
1.40873e-05
1.40892e-05
1.40912e-05
1.40933e-05
1.40955e-05
1.40978e-05
1.41002e-05
1.41027e-05
1.41054e-05
1.41082e-05
1.41112e-05
1.41144e-05
1.41178e-05
1.41214e-05
1.41251e-05
1.41292e-05
1.41334e-05
1.4138e-05
1.41428e-05
1.41478e-05
1.41531e-05
1.41586e-05
1.41644e-05
1.41704e-05
1.41767e-05
1.41833e-05
1.41902e-05
1.41974e-05
1.42051e-05
1.42134e-05
1.42221e-05
1.42315e-05
1.42414e-05
1.4252e-05
1.42632e-05
1.42771e-05
1.42722e-05
2.59452e-05
2.59361e-05
2.59284e-05
2.59209e-05
2.59125e-05
2.5903e-05
2.58922e-05
2.58809e-05
2.58696e-05
2.58592e-05
2.58506e-05
2.58433e-05
2.58365e-05
2.58296e-05
2.36624e-05
2.36322e-05
2.36027e-05
2.3574e-05
2.35461e-05
2.35191e-05
2.34928e-05
2.34675e-05
2.34431e-05
2.34192e-05
2.33958e-05
2.33729e-05
2.33502e-05
2.33275e-05
2.33051e-05
2.32828e-05
2.32608e-05
2.32392e-05
2.32181e-05
2.31977e-05
2.31779e-05
2.31588e-05
2.31404e-05
2.31229e-05
2.31063e-05
2.30907e-05
2.30763e-05
2.30632e-05
2.30515e-05
2.30414e-05
2.30331e-05
2.30271e-05
2.30231e-05
2.30216e-05
2.3022e-05
2.30239e-05
2.30278e-05
2.30338e-05
2.30421e-05
2.30528e-05
2.3066e-05
2.30816e-05
2.30996e-05
2.31197e-05
2.31419e-05
2.31664e-05
2.31931e-05
2.32221e-05
2.32537e-05
2.32874e-05
2.33222e-05
2.33584e-05
2.33953e-05
2.3433e-05
2.34731e-05
2.35163e-05
2.35618e-05
2.36076e-05
2.36491e-05
2.36881e-05
2.37289e-05
2.37719e-05
2.38146e-05
2.38523e-05
2.38791e-05
2.38877e-05
2.38811e-05
2.38482e-05
2.37704e-05
2.36293e-05
2.34053e-05
2.30801e-05
2.26362e-05
2.20549e-05
2.13325e-05
2.04936e-05
1.95769e-05
1.86449e-05
1.77859e-05
1.70898e-05
1.65674e-05
1.61253e-05
1.57357e-05
1.54037e-05
1.51346e-05
1.49254e-05
1.4763e-05
1.46305e-05
1.45195e-05
1.44284e-05
1.43561e-05
1.42999e-05
1.42562e-05
1.42212e-05
1.41923e-05
1.41679e-05
1.41477e-05
1.41311e-05
1.41177e-05
1.4107e-05
1.40982e-05
1.40911e-05
1.40853e-05
1.40806e-05
1.4077e-05
1.40743e-05
1.40724e-05
1.4071e-05
1.40701e-05
1.40696e-05
1.40694e-05
1.40694e-05
1.40696e-05
1.40699e-05
1.40704e-05
1.4071e-05
1.40717e-05
1.40724e-05
1.40732e-05
1.40741e-05
1.4075e-05
1.40759e-05
1.40769e-05
1.40779e-05
1.4079e-05
1.40801e-05
1.40813e-05
1.40826e-05
1.40839e-05
1.40853e-05
1.40868e-05
1.40884e-05
1.40901e-05
1.40919e-05
1.40939e-05
1.40959e-05
1.4098e-05
1.41002e-05
1.41026e-05
1.4105e-05
1.41076e-05
1.41103e-05
1.41131e-05
1.41161e-05
1.41192e-05
1.41225e-05
1.41259e-05
1.41296e-05
1.41335e-05
1.41376e-05
1.4142e-05
1.41467e-05
1.41516e-05
1.41568e-05
1.41622e-05
1.4168e-05
1.41741e-05
1.41804e-05
1.41871e-05
1.4194e-05
1.42012e-05
1.42087e-05
1.42166e-05
1.42248e-05
1.42335e-05
1.42427e-05
1.42524e-05
1.42627e-05
1.42736e-05
1.42853e-05
1.42978e-05
1.43111e-05
1.43253e-05
1.43404e-05
1.43565e-05
1.43735e-05
1.43914e-05
1.44102e-05
1.44298e-05
1.44503e-05
1.44716e-05
1.44937e-05
1.45167e-05
1.45405e-05
1.45652e-05
1.45909e-05
1.46178e-05
1.46461e-05
1.46762e-05
1.47087e-05
1.47429e-05
1.47879e-05
1.47809e-05
2.60489e-05
2.60373e-05
2.60271e-05
2.60185e-05
2.60109e-05
2.60034e-05
2.59955e-05
2.5987e-05
2.59781e-05
2.5969e-05
2.59606e-05
2.59531e-05
2.59466e-05
2.38589e-05
2.38269e-05
2.37956e-05
2.37649e-05
2.37348e-05
2.37058e-05
2.36774e-05
2.36497e-05
2.36226e-05
2.35961e-05
2.357e-05
2.35442e-05
2.35187e-05
2.34934e-05
2.34683e-05
2.34434e-05
2.34187e-05
2.33943e-05
2.33703e-05
2.33468e-05
2.33237e-05
2.33012e-05
2.32793e-05
2.32582e-05
2.3238e-05
2.32187e-05
2.32005e-05
2.31836e-05
2.31679e-05
2.31538e-05
2.31414e-05
2.31311e-05
2.31227e-05
2.31165e-05
2.31122e-05
2.31098e-05
2.31098e-05
2.31113e-05
2.31151e-05
2.31213e-05
2.31301e-05
2.31416e-05
2.31556e-05
2.3172e-05
2.31911e-05
2.32129e-05
2.32373e-05
2.32646e-05
2.32944e-05
2.33261e-05
2.336e-05
2.3396e-05
2.34337e-05
2.34735e-05
2.35159e-05
2.35602e-05
2.36052e-05
2.3651e-05
2.36975e-05
2.37458e-05
2.37977e-05
2.38536e-05
2.39115e-05
2.39693e-05
2.40273e-05
2.4087e-05
2.41479e-05
2.42084e-05
2.42662e-05
2.43153e-05
2.43476e-05
2.43553e-05
2.43435e-05
2.42944e-05
2.41859e-05
2.39982e-05
2.37159e-05
2.33302e-05
2.28313e-05
2.22123e-05
2.14795e-05
2.06598e-05
1.97858e-05
1.89048e-05
1.80816e-05
1.73832e-05
1.68497e-05
1.64199e-05
1.60391e-05
1.57029e-05
1.54167e-05
1.51812e-05
1.49922e-05
1.48411e-05
1.47154e-05
1.46061e-05
1.45112e-05
1.44309e-05
1.43649e-05
1.43119e-05
1.42696e-05
1.42356e-05
1.42077e-05
1.41846e-05
1.4166e-05
1.41515e-05
1.41404e-05
1.41321e-05
1.41261e-05
1.41218e-05
1.41189e-05
1.41172e-05
1.41166e-05
1.41167e-05
1.41175e-05
1.41188e-05
1.41205e-05
1.41226e-05
1.4125e-05
1.41276e-05
1.41303e-05
1.41332e-05
1.41363e-05
1.41395e-05
1.41428e-05
1.41463e-05
1.415e-05
1.41539e-05
1.4158e-05
1.41624e-05
1.4167e-05
1.41719e-05
1.41772e-05
1.41828e-05
1.41887e-05
1.4195e-05
1.42016e-05
1.42086e-05
1.4216e-05
1.42237e-05
1.42317e-05
1.424e-05
1.42488e-05
1.4258e-05
1.42676e-05