/*--------------------------------*- C++ -*----------------------------------*\
| =========                 |                                                 |
| \\      /  F ield         | OpenFOAM: The Open Source CFD Toolbox           |
|  \\    /   O peration     | Version:  v1706                                 |
|   \\  /    A nd           | Web:      www.OpenFOAM.com                      |
|    \\/     M anipulation  |                                                 |
\*---------------------------------------------------------------------------*/
FoamFile
{
    version     2.0;
    format      ascii;
    class       volScalarField;
    location    "3.5e-05";
    object      kappave;
}
// * * * * * * * * * * * * * * * * * * * * * * * * * * * * * * * * * * * * * //

dimensions      [1 1 -3 -1 0 0 0];


internalField   nonuniform List<scalar> 
30104
(
1.46261e-10
1.46294e-10
1.46332e-10
1.46376e-10
1.46426e-10
1.46483e-10
1.46548e-10
1.46621e-10
1.46705e-10
1.46799e-10
1.46907e-10
1.4703e-10
1.4717e-10
1.47329e-10
1.47507e-10
1.47706e-10
1.47926e-10
1.67776e-10
1.66539e-10
1.65249e-10
1.63938e-10
1.62788e-10
1.61898e-10
1.61111e-10
1.60339e-10
1.5955e-10
1.58738e-10
1.57903e-10
1.57048e-10
1.5618e-10
1.55305e-10
1.54434e-10
1.53571e-10
1.52722e-10
1.5192e-10
1.51205e-10
1.50596e-10
1.50077e-10
1.49611e-10
1.49175e-10
1.48758e-10
1.48364e-10
1.47997e-10
1.47667e-10
1.47387e-10
1.47159e-10
1.46975e-10
1.46821e-10
1.4669e-10
1.46575e-10
1.46477e-10
1.46397e-10
1.46332e-10
1.46279e-10
1.46236e-10
1.46199e-10
1.46168e-10
1.46141e-10
1.4612e-10
1.46103e-10
1.46089e-10
1.46078e-10
1.4607e-10
1.46063e-10
1.46058e-10
1.46053e-10
1.4605e-10
1.46047e-10
1.46045e-10
1.46044e-10
1.46042e-10
1.46041e-10
1.4604e-10
1.4604e-10
1.46039e-10
1.46039e-10
1.46039e-10
1.46038e-10
1.46038e-10
1.46038e-10
1.46038e-10
1.46038e-10
1.46038e-10
1.46038e-10
1.46038e-10
1.46038e-10
1.46038e-10
1.46038e-10
1.46038e-10
1.46038e-10
1.46038e-10
1.46038e-10
1.46038e-10
1.46038e-10
1.46038e-10
1.46038e-10
1.46038e-10
1.46038e-10
1.46038e-10
1.46038e-10
1.46038e-10
1.46038e-10
1.46038e-10
1.46038e-10
1.46038e-10
1.46038e-10
1.46038e-10
1.46038e-10
1.46038e-10
1.46038e-10
1.46038e-10
1.46038e-10
1.46038e-10
1.46038e-10
1.46038e-10
1.46038e-10
1.46038e-10
1.46038e-10
1.46038e-10
1.46038e-10
1.46038e-10
1.46038e-10
1.46038e-10
1.46038e-10
1.46038e-10
1.46038e-10
1.46038e-10
1.46038e-10
1.46038e-10
1.46038e-10
1.46038e-10
1.46038e-10
1.46038e-10
1.46038e-10
1.46038e-10
1.46038e-10
1.46038e-10
1.46038e-10
1.46038e-10
1.46038e-10
1.46038e-10
1.46038e-10
1.46038e-10
1.46038e-10
1.46038e-10
1.46038e-10
1.46038e-10
1.46038e-10
1.46038e-10
1.46038e-10
1.46038e-10
1.46038e-10
1.46038e-10
1.46038e-10
1.46038e-10
1.46038e-10
1.46038e-10
1.46038e-10
1.46038e-10
1.46038e-10
1.46038e-10
1.46038e-10
1.46038e-10
1.46038e-10
1.46038e-10
1.46038e-10
1.46038e-10
1.46038e-10
1.46038e-10
1.46038e-10
1.46038e-10
1.46038e-10
1.46038e-10
1.46038e-10
1.46038e-10
1.46038e-10
1.46038e-10
1.46038e-10
1.46038e-10
1.46038e-10
1.46038e-10
1.46038e-10
1.46038e-10
1.46038e-10
1.46038e-10
1.46038e-10
1.46038e-10
1.46038e-10
1.46038e-10
1.46038e-10
1.46038e-10
1.46038e-10
1.46038e-10
1.46038e-10
1.46038e-10
1.46038e-10
1.46038e-10
1.46038e-10
1.46038e-10
1.46038e-10
1.46038e-10
1.46038e-10
1.46038e-10
1.46038e-10
1.46038e-10
1.46038e-10
1.46038e-10
1.46038e-10
1.46038e-10
1.46038e-10
1.47408e-10
1.47613e-10
1.47848e-10
1.48116e-10
1.48423e-10
1.48773e-10
1.49169e-10
1.49616e-10
1.50116e-10
1.50677e-10
1.51309e-10
1.52023e-10
1.52831e-10
1.53742e-10
1.54761e-10
1.5589e-10
1.57128e-10
2.16704e-10
2.16324e-10
2.15894e-10
2.15353e-10
2.14588e-10
2.13524e-10
2.12169e-10
2.10549e-10
2.08686e-10
2.06587e-10
2.04244e-10
2.01644e-10
1.98785e-10
1.95682e-10
1.92356e-10
1.88825e-10
1.85116e-10
1.81282e-10
1.7747e-10
1.74057e-10
1.71232e-10
1.68731e-10
1.66367e-10
1.64065e-10
1.61813e-10
1.59651e-10
1.57652e-10
1.55896e-10
1.54421e-10
1.53184e-10
1.52113e-10
1.5116e-10
1.50306e-10
1.49553e-10
1.48909e-10
1.48382e-10
1.47957e-10
1.47611e-10
1.47322e-10
1.47078e-10
1.46875e-10
1.4671e-10
1.46577e-10
1.46471e-10
1.46385e-10
1.46315e-10
1.46257e-10
1.4621e-10
1.46172e-10
1.46143e-10
1.4612e-10
1.46102e-10
1.46087e-10
1.46076e-10
1.46067e-10
1.4606e-10
1.46055e-10
1.46051e-10
1.46048e-10
1.46045e-10
1.46043e-10
1.46042e-10
1.46041e-10
1.4604e-10
1.46039e-10
1.46039e-10
1.46039e-10
1.46038e-10
1.46038e-10
1.46038e-10
1.46038e-10
1.46038e-10
1.46038e-10
1.46038e-10
1.46038e-10
1.46038e-10
1.46038e-10
1.46038e-10
1.46038e-10
1.46038e-10
1.46038e-10
1.46038e-10
1.46038e-10
1.46038e-10
1.46038e-10
1.46038e-10
1.46038e-10
1.46038e-10
1.46038e-10
1.46038e-10
1.46038e-10
1.46038e-10
1.46038e-10
1.46038e-10
1.46038e-10
1.46038e-10
1.46038e-10
1.46038e-10
1.46038e-10
1.46038e-10
1.46038e-10
1.46038e-10
1.46038e-10
1.46038e-10
1.46038e-10
1.46038e-10
1.46038e-10
1.46038e-10
1.46038e-10
1.46038e-10
1.46038e-10
1.46038e-10
1.46038e-10
1.46038e-10
1.46038e-10
1.46038e-10
1.46038e-10
1.46038e-10
1.46038e-10
1.46038e-10
1.46038e-10
1.46038e-10
1.46038e-10
1.46038e-10
1.46038e-10
1.46038e-10
1.46038e-10
1.46038e-10
1.46038e-10
1.46038e-10
1.46038e-10
1.46038e-10
1.46038e-10
1.46038e-10
1.46038e-10
1.46038e-10
1.46038e-10
1.46038e-10
1.46038e-10
1.46038e-10
1.46038e-10
1.46038e-10
1.46038e-10
1.46038e-10
1.46038e-10
1.46038e-10
1.46038e-10
1.46038e-10
1.46038e-10
1.46038e-10
1.46038e-10
1.46038e-10
1.46038e-10
1.46038e-10
1.46038e-10
1.46038e-10
1.46038e-10
1.46038e-10
1.46038e-10
1.46038e-10
1.46038e-10
1.46038e-10
1.46038e-10
1.46038e-10
1.46038e-10
1.46038e-10
1.46038e-10
1.46038e-10
1.46038e-10
1.46038e-10
1.46038e-10
1.46038e-10
1.46038e-10
1.46038e-10
1.46038e-10
1.46038e-10
1.46038e-10
1.46038e-10
1.46038e-10
1.46038e-10
1.46038e-10
1.46038e-10
1.46038e-10
1.46038e-10
1.46038e-10
1.46038e-10
1.46038e-10
1.46038e-10
1.46038e-10
1.46038e-10
1.46038e-10
1.46038e-10
1.46038e-10
1.50955e-10
1.51668e-10
1.52475e-10
1.53393e-10
1.54434e-10
1.55609e-10
1.56925e-10
1.58388e-10
1.6e-10
1.61779e-10
1.63751e-10
1.65944e-10
1.68368e-10
1.71015e-10
1.73865e-10
1.76891e-10
2.27776e-10
2.27851e-10
2.27945e-10
2.28023e-10
2.28038e-10
2.28008e-10
2.27907e-10
2.27701e-10
2.27392e-10
2.2699e-10
2.26508e-10
2.25954e-10
2.2533e-10
2.24626e-10
2.23805e-10
2.22814e-10
2.21591e-10
2.20062e-10
2.18127e-10
2.15663e-10
2.12624e-10
2.09072e-10
2.05067e-10
2.00656e-10
1.95883e-10
1.90817e-10
1.85583e-10
1.80452e-10
1.75976e-10
1.72261e-10
1.68983e-10
1.65937e-10
1.63063e-10
1.60399e-10
1.5803e-10
1.56028e-10
1.54385e-10
1.53011e-10
1.51825e-10
1.50788e-10
1.49892e-10
1.4914e-10
1.48533e-10
1.48052e-10
1.47664e-10
1.47344e-10
1.47079e-10
1.46863e-10
1.4669e-10
1.46554e-10
1.46446e-10
1.46359e-10
1.46288e-10
1.46232e-10
1.46187e-10
1.46152e-10
1.46126e-10
1.46105e-10
1.46089e-10
1.46076e-10
1.46067e-10
1.4606e-10
1.46054e-10
1.4605e-10
1.46047e-10
1.46044e-10
1.46042e-10
1.46041e-10
1.4604e-10
1.4604e-10
1.46039e-10
1.46039e-10
1.46038e-10
1.46038e-10
1.46038e-10
1.46038e-10
1.46038e-10
1.46038e-10
1.46038e-10
1.46038e-10
1.46038e-10
1.46038e-10
1.46038e-10
1.46038e-10
1.46038e-10
1.46038e-10
1.46038e-10
1.46038e-10
1.46038e-10
1.46038e-10
1.46038e-10
1.46038e-10
1.46038e-10
1.46038e-10
1.46038e-10
1.46038e-10
1.46038e-10
1.46038e-10
1.46038e-10
1.46038e-10
1.46038e-10
1.46038e-10
1.46038e-10
1.46038e-10
1.46038e-10
1.46038e-10
1.46038e-10
1.46038e-10
1.46038e-10
1.46038e-10
1.46038e-10
1.46038e-10
1.46038e-10
1.46038e-10
1.46038e-10
1.46038e-10
1.46038e-10
1.46038e-10
1.46038e-10
1.46038e-10
1.46038e-10
1.46038e-10
1.46038e-10
1.46038e-10
1.46038e-10
1.46038e-10
1.46038e-10
1.46038e-10
1.46038e-10
1.46038e-10
1.46038e-10
1.46038e-10
1.46038e-10
1.46038e-10
1.46038e-10
1.46038e-10
1.46038e-10
1.46038e-10
1.46038e-10
1.46038e-10
1.46038e-10
1.46038e-10
1.46038e-10
1.46038e-10
1.46038e-10
1.46038e-10
1.46038e-10
1.46038e-10
1.46038e-10
1.46038e-10
1.46038e-10
1.46038e-10
1.46038e-10
1.46038e-10
1.46038e-10
1.46038e-10
1.46038e-10
1.46038e-10
1.46038e-10
1.46038e-10
1.46038e-10
1.46038e-10
1.46038e-10
1.46038e-10
1.46038e-10
1.46038e-10
1.46038e-10
1.46038e-10
1.46038e-10
1.46038e-10
1.46038e-10
1.46038e-10
1.46038e-10
1.46038e-10
1.46038e-10
1.46038e-10
1.46038e-10
1.46038e-10
1.46038e-10
1.46038e-10
1.46038e-10
1.46038e-10
1.46038e-10
1.46038e-10
1.46038e-10
1.46038e-10
1.46038e-10
1.46038e-10
1.46038e-10
1.46038e-10
1.46038e-10
1.46038e-10
1.46038e-10
1.61339e-10
1.63369e-10
1.65631e-10
1.6815e-10
1.7093e-10
1.73959e-10
1.77213e-10
1.80663e-10
1.84282e-10
1.88071e-10
1.92125e-10
1.96567e-10
2.01349e-10
2.06364e-10
2.11478e-10
2.16557e-10
2.31039e-10
2.31108e-10
2.3119e-10
2.31276e-10
2.31355e-10
2.31421e-10
2.31457e-10
2.31459e-10
2.31441e-10
2.31394e-10
2.31319e-10
2.31214e-10
2.31088e-10
2.30945e-10
2.30775e-10
2.30563e-10
2.30293e-10
2.2996e-10
2.29565e-10
2.29118e-10
2.28626e-10
2.28071e-10
2.27399e-10
2.26539e-10
2.25405e-10
2.23892e-10
2.21893e-10
2.19288e-10
2.15951e-10
2.11889e-10
2.07213e-10
2.02027e-10
1.96417e-10
1.90498e-10
1.8451e-10
1.78937e-10
1.74364e-10
1.70501e-10
1.6702e-10
1.63791e-10
1.60835e-10
1.5824e-10
1.56076e-10
1.54323e-10
1.52869e-10
1.51626e-10
1.50551e-10
1.49638e-10
1.48893e-10
1.48306e-10
1.47844e-10
1.47473e-10
1.47168e-10
1.46921e-10
1.46726e-10
1.46574e-10
1.46455e-10
1.46361e-10
1.46286e-10
1.46226e-10
1.4618e-10
1.46145e-10
1.46119e-10
1.46098e-10
1.46083e-10
1.46071e-10
1.46063e-10
1.46056e-10
1.46051e-10
1.46048e-10
1.46045e-10
1.46043e-10
1.46041e-10
1.4604e-10
1.4604e-10
1.46039e-10
1.46039e-10
1.46039e-10
1.46038e-10
1.46038e-10
1.46038e-10
1.46038e-10
1.46038e-10
1.46038e-10
1.46038e-10
1.46038e-10
1.46038e-10
1.46038e-10
1.46038e-10
1.46038e-10
1.46038e-10
1.46038e-10
1.46038e-10
1.46038e-10
1.46038e-10
1.46038e-10
1.46038e-10
1.46038e-10
1.46038e-10
1.46038e-10
1.46038e-10
1.46038e-10
1.46038e-10
1.46038e-10
1.46038e-10
1.46038e-10
1.46038e-10
1.46038e-10
1.46038e-10
1.46038e-10
1.46038e-10
1.46038e-10
1.46038e-10
1.46038e-10
1.46038e-10
1.46038e-10
1.46038e-10
1.46038e-10
1.46038e-10
1.46038e-10
1.46038e-10
1.46038e-10
1.46038e-10
1.46038e-10
1.46038e-10
1.46038e-10
1.46038e-10
1.46038e-10
1.46038e-10
1.46038e-10
1.46038e-10
1.46038e-10
1.46038e-10
1.46038e-10
1.46038e-10
1.46038e-10
1.46038e-10
1.46038e-10
1.46038e-10
1.46038e-10
1.46038e-10
1.46038e-10
1.46038e-10
1.46038e-10
1.46038e-10
1.46038e-10
1.46038e-10
1.46038e-10
1.46038e-10
1.46038e-10
1.46038e-10
1.46038e-10
1.46038e-10
1.46038e-10
1.46038e-10
1.46038e-10
1.46038e-10
1.46038e-10
1.46038e-10
1.46038e-10
1.46038e-10
1.46038e-10
1.46038e-10
1.46038e-10
1.46038e-10
1.46038e-10
1.46038e-10
1.46038e-10
1.46038e-10
1.46038e-10
1.46038e-10
1.46038e-10
1.46038e-10
1.46038e-10
1.46038e-10
1.46038e-10
1.46038e-10
1.46038e-10
1.46038e-10
1.46038e-10
1.46038e-10
1.46038e-10
1.46038e-10
1.46038e-10
1.46038e-10
1.46038e-10
1.46038e-10
1.46039e-10
1.46039e-10
1.46039e-10
1.46039e-10
1.46039e-10
1.46039e-10
1.86149e-10
1.90255e-10
1.94682e-10
1.99493e-10
2.04621e-10
2.09947e-10
2.15331e-10
2.2063e-10
2.25723e-10
2.30505e-10
2.34879e-10
2.38778e-10
2.42198e-10
2.4516e-10
2.47699e-10
2.33355e-10
2.33368e-10
2.33383e-10
2.33397e-10
2.33408e-10
2.33408e-10
2.33397e-10
2.33372e-10
2.3334e-10
2.33302e-10
2.33257e-10
2.33217e-10
2.33167e-10
2.33098e-10
2.33009e-10
2.32908e-10
2.32797e-10
2.32691e-10
2.32594e-10
2.32502e-10
2.32422e-10
2.3235e-10
2.32268e-10
2.32157e-10
2.32e-10
2.31782e-10
2.31508e-10
2.31179e-10
2.30772e-10
2.30245e-10
2.29513e-10
2.28457e-10
2.26956e-10
2.24914e-10
2.22244e-10
2.18842e-10
2.14632e-10
2.09707e-10
2.04166e-10
1.98098e-10
1.91655e-10
1.85139e-10
1.79121e-10
1.74238e-10
1.70141e-10
1.66456e-10
1.63065e-10
1.60019e-10
1.57413e-10
1.55292e-10
1.53584e-10
1.5216e-10
1.50944e-10
1.49912e-10
1.49067e-10
1.48406e-10
1.47895e-10
1.47491e-10
1.47167e-10
1.46907e-10
1.46704e-10
1.46548e-10
1.46429e-10
1.46335e-10
1.46261e-10
1.46204e-10
1.46161e-10
1.4613e-10
1.46106e-10
1.46088e-10
1.46075e-10
1.46065e-10
1.46058e-10
1.46053e-10
1.46049e-10
1.46046e-10
1.46044e-10
1.46042e-10
1.46041e-10
1.4604e-10
1.4604e-10
1.46039e-10
1.46039e-10
1.46039e-10
1.46038e-10
1.46038e-10
1.46038e-10
1.46038e-10
1.46038e-10
1.46038e-10
1.46038e-10
1.46038e-10
1.46038e-10
1.46038e-10
1.46038e-10
1.46038e-10
1.46038e-10
1.46038e-10
1.46038e-10
1.46038e-10
1.46038e-10
1.46038e-10
1.46038e-10
1.46038e-10
1.46038e-10
1.46038e-10
1.46038e-10
1.46038e-10
1.46038e-10
1.46038e-10
1.46038e-10
1.46038e-10
1.46038e-10
1.46038e-10
1.46038e-10
1.46038e-10
1.46038e-10
1.46038e-10
1.46038e-10
1.46038e-10
1.46038e-10
1.46038e-10
1.46038e-10
1.46038e-10
1.46038e-10
1.46038e-10
1.46038e-10
1.46038e-10
1.46038e-10
1.46038e-10
1.46038e-10
1.46038e-10
1.46038e-10
1.46038e-10
1.46038e-10
1.46038e-10
1.46038e-10
1.46038e-10
1.46038e-10
1.46038e-10
1.46038e-10
1.46038e-10
1.46038e-10
1.46038e-10
1.46038e-10
1.46038e-10
1.46038e-10
1.46038e-10
1.46038e-10
1.46038e-10
1.46038e-10
1.46038e-10
1.46038e-10
1.46038e-10
1.46039e-10
1.46039e-10
1.46039e-10
1.46039e-10
1.46039e-10
1.46039e-10
1.46039e-10
1.46039e-10
1.46039e-10
1.46039e-10
1.46039e-10
1.46039e-10
1.46039e-10
1.46039e-10
1.46039e-10
1.46039e-10
1.46039e-10
1.46039e-10
1.46039e-10
1.46039e-10
1.4604e-10
1.4604e-10
1.4604e-10
1.4604e-10
1.4604e-10
1.4604e-10
1.4604e-10
1.4604e-10
1.4604e-10
1.4604e-10
1.4604e-10
1.46041e-10
1.46041e-10
1.46041e-10
1.46041e-10
1.46041e-10
1.46041e-10
1.46041e-10
1.46041e-10
2.21791e-10
2.27109e-10
2.32104e-10
2.36658e-10
2.40711e-10
2.44258e-10
2.47318e-10
2.4993e-10
2.52137e-10
2.53989e-10
2.55533e-10
2.56807e-10
2.57847e-10
2.58685e-10
2.59349e-10
2.59863e-10
2.35451e-10
2.35392e-10
2.35337e-10
2.35284e-10
2.35228e-10
2.35168e-10
2.35101e-10
2.35033e-10
2.34967e-10
2.34902e-10
2.34834e-10
2.34774e-10
2.34716e-10
2.34649e-10
2.34566e-10
2.34466e-10
2.34365e-10
2.34273e-10
2.34196e-10
2.34141e-10
2.34099e-10
2.34064e-10
2.3404e-10
2.3402e-10
2.34017e-10
2.3404e-10
2.34076e-10
2.34065e-10
2.34054e-10
2.34045e-10
2.34013e-10
2.33924e-10
2.33769e-10
2.33562e-10
2.33295e-10
2.32945e-10
2.32455e-10
2.31714e-10
2.3058e-10
2.28931e-10
2.26679e-10
2.23751e-10
2.20046e-10
2.1547e-10
2.1009e-10
2.04001e-10
1.97327e-10
1.9031e-10
1.83397e-10
1.77339e-10
1.725e-10
1.68345e-10
1.64575e-10
1.61169e-10
1.58223e-10
1.55811e-10
1.53899e-10
1.52338e-10
1.51025e-10
1.49922e-10
1.4903e-10
1.48341e-10
1.47817e-10
1.47408e-10
1.47085e-10
1.46831e-10
1.46637e-10
1.46491e-10
1.46379e-10
1.46293e-10
1.46226e-10
1.46177e-10
1.46141e-10
1.46114e-10
1.46095e-10
1.4608e-10
1.46069e-10
1.46061e-10
1.46056e-10
1.46051e-10
1.46048e-10
1.46046e-10
1.46044e-10
1.46042e-10
1.46041e-10
1.46041e-10
1.4604e-10
1.4604e-10
1.46039e-10
1.46039e-10
1.46039e-10
1.46039e-10
1.46039e-10
1.46038e-10
1.46038e-10
1.46038e-10
1.46038e-10
1.46038e-10
1.46038e-10
1.46038e-10
1.46038e-10
1.46038e-10
1.46038e-10
1.46038e-10
1.46038e-10
1.46038e-10
1.46038e-10
1.46038e-10
1.46038e-10
1.46038e-10
1.46038e-10
1.46038e-10
1.46038e-10
1.46038e-10
1.46038e-10
1.46038e-10
1.46038e-10
1.46038e-10
1.46039e-10
1.46039e-10
1.46039e-10
1.46039e-10
1.46039e-10
1.46039e-10
1.46039e-10
1.46039e-10
1.46039e-10
1.46039e-10
1.46039e-10
1.46039e-10
1.46039e-10
1.46039e-10
1.46039e-10
1.46039e-10
1.46039e-10
1.46039e-10
1.46039e-10
1.46039e-10
1.46039e-10
1.46039e-10
1.46039e-10
1.46039e-10
1.4604e-10
1.4604e-10
1.4604e-10
1.4604e-10
1.4604e-10
1.4604e-10
1.4604e-10
1.4604e-10
1.4604e-10
1.4604e-10
1.4604e-10
1.46041e-10
1.46041e-10
1.46041e-10
1.46041e-10
1.46041e-10
1.46041e-10
1.46041e-10
1.46041e-10
1.46042e-10
1.46042e-10
1.46042e-10
1.46042e-10
1.46042e-10
1.46043e-10
1.46043e-10
1.46043e-10
1.46043e-10
1.46043e-10
1.46044e-10
1.46044e-10
1.46044e-10
1.46044e-10
1.46045e-10
1.46045e-10
1.46045e-10
1.46046e-10
1.46046e-10
1.46046e-10
1.46047e-10
1.46047e-10
1.46048e-10
1.46048e-10
1.46049e-10
1.46049e-10
1.4605e-10
1.4605e-10
1.46051e-10
1.46051e-10
1.46052e-10
1.46051e-10
2.53296e-10
2.55318e-10
2.56994e-10
2.58372e-10
2.59493e-10
2.60395e-10
2.6111e-10
2.61665e-10
2.62087e-10
2.62415e-10
2.62682e-10
2.62908e-10
2.631e-10
2.37914e-10
2.37733e-10
2.37561e-10
2.37395e-10
2.37235e-10
2.37081e-10
2.36931e-10
2.3679e-10
2.36667e-10
2.36548e-10
2.36435e-10
2.3633e-10
2.36227e-10
2.36124e-10
2.36013e-10
2.35895e-10
2.35778e-10
2.35668e-10
2.35574e-10
2.355e-10
2.35444e-10
2.35402e-10
2.35374e-10
2.35349e-10
2.35341e-10
2.35354e-10
2.35366e-10
2.35369e-10
2.35381e-10
2.35413e-10
2.35467e-10
2.35534e-10
2.35622e-10
2.35722e-10
2.35778e-10
2.35836e-10
2.35888e-10
2.359e-10
2.35884e-10
2.35828e-10
2.35708e-10
2.35503e-10
2.3516e-10
2.34589e-10
2.33662e-10
2.32249e-10
2.30254e-10
2.27601e-10
2.2419e-10
2.19866e-10
2.14546e-10
2.08327e-10
2.01355e-10
1.9387e-10
1.86302e-10
1.79364e-10
1.73828e-10
1.69245e-10
1.65162e-10
1.61499e-10
1.58347e-10
1.55786e-10
1.53775e-10
1.52152e-10
1.508e-10
1.49685e-10
1.48806e-10
1.48143e-10
1.47644e-10
1.47258e-10
1.46958e-10
1.46727e-10
1.46555e-10
1.46427e-10
1.4633e-10
1.46256e-10
1.462e-10
1.46159e-10
1.4613e-10
1.46108e-10
1.46092e-10
1.46079e-10
1.4607e-10
1.46063e-10
1.46057e-10
1.46053e-10
1.4605e-10
1.46048e-10
1.46046e-10
1.46044e-10
1.46043e-10
1.46042e-10
1.46042e-10
1.46041e-10
1.46041e-10
1.4604e-10
1.4604e-10
1.4604e-10
1.4604e-10
1.4604e-10
1.4604e-10
1.4604e-10
1.4604e-10
1.4604e-10
1.4604e-10
1.4604e-10
1.4604e-10
1.4604e-10
1.4604e-10
1.4604e-10
1.4604e-10
1.4604e-10
1.4604e-10
1.4604e-10
1.4604e-10
1.4604e-10
1.4604e-10
1.4604e-10
1.4604e-10
1.4604e-10
1.46041e-10
1.46041e-10
1.46041e-10
1.46041e-10
1.46041e-10
1.46041e-10
1.46041e-10
1.46041e-10
1.46041e-10
1.46041e-10
1.46042e-10
1.46042e-10
1.46042e-10
1.46042e-10
1.46042e-10
1.46042e-10
1.46043e-10
1.46043e-10
1.46043e-10
1.46043e-10
1.46043e-10
1.46044e-10
1.46044e-10
1.46044e-10
1.46044e-10
1.46045e-10
1.46045e-10
1.46045e-10
1.46046e-10
1.46046e-10
1.46046e-10
1.46047e-10
1.46047e-10
1.46047e-10
1.46048e-10
1.46048e-10
1.46049e-10
1.46049e-10
1.4605e-10
1.4605e-10
1.46051e-10
1.46051e-10
1.46052e-10
1.46053e-10
1.46053e-10
1.46054e-10
1.46055e-10
1.46055e-10
1.46056e-10
1.46057e-10
1.46058e-10
1.46059e-10
1.4606e-10
1.46061e-10
1.46062e-10
1.46063e-10
1.46064e-10
1.46066e-10
1.46067e-10
1.46068e-10
1.4607e-10
1.46071e-10
1.46073e-10
1.46074e-10
1.46076e-10
1.46078e-10
1.4608e-10
1.46082e-10
1.46084e-10
1.46086e-10
1.46088e-10
1.46091e-10
1.46089e-10
2.63702e-10
2.64087e-10
2.64395e-10
2.6465e-10
2.64864e-10
2.65043e-10
2.65187e-10
2.65291e-10
2.65342e-10
2.65358e-10
2.65357e-10
2.65349e-10
2.65339e-10
2.41024e-10
2.40661e-10
2.40318e-10
2.39993e-10
2.39687e-10
2.394e-10
2.39135e-10
2.38891e-10
2.38669e-10
2.38463e-10
2.38271e-10
2.38092e-10
2.37919e-10
2.3775e-10
2.37582e-10
2.37417e-10
2.37257e-10
2.37108e-10
2.36973e-10
2.36859e-10
2.36764e-10
2.36684e-10
2.36618e-10
2.36558e-10
2.3651e-10
2.36474e-10
2.36446e-10
2.36437e-10
2.36442e-10
2.36463e-10
2.36502e-10
2.36558e-10
2.36635e-10
2.36716e-10
2.36802e-10
2.36906e-10
2.37033e-10
2.37181e-10
2.37352e-10
2.37543e-10
2.37706e-10
2.37849e-10
2.3798e-10
2.38093e-10
2.38174e-10
2.38195e-10
2.38171e-10
2.38067e-10
2.37811e-10
2.37317e-10
2.3648e-10
2.35175e-10
2.33292e-10
2.30737e-10
2.27387e-10
2.23058e-10
2.17586e-10
2.11048e-10
2.03629e-10
1.95611e-10
1.87472e-10
1.79996e-10
1.7405e-10
1.69187e-10
1.64888e-10
1.61078e-10
1.57857e-10
1.55291e-10
1.53301e-10
1.51696e-10
1.50372e-10
1.49308e-10
1.485e-10
1.47904e-10
1.47459e-10
1.47116e-10
1.46853e-10
1.46656e-10
1.4651e-10
1.464e-10
1.46316e-10
1.46251e-10
1.46202e-10
1.46165e-10
1.46138e-10
1.46117e-10
1.46101e-10
1.46089e-10
1.46079e-10
1.46071e-10
1.46066e-10
1.46061e-10
1.46057e-10
1.46054e-10
1.46052e-10
1.4605e-10
1.46048e-10
1.46047e-10
1.46046e-10
1.46046e-10
1.46045e-10
1.46045e-10
1.46044e-10
1.46044e-10
1.46044e-10
1.46044e-10
1.46044e-10
1.46044e-10
1.46044e-10
1.46044e-10
1.46045e-10
1.46045e-10
1.46045e-10
1.46045e-10
1.46045e-10
1.46046e-10
1.46046e-10
1.46046e-10
1.46046e-10
1.46047e-10
1.46047e-10
1.46047e-10
1.46047e-10
1.46048e-10
1.46048e-10
1.46048e-10
1.46049e-10
1.46049e-10
1.4605e-10
1.4605e-10
1.4605e-10
1.46051e-10
1.46051e-10
1.46052e-10
1.46052e-10
1.46053e-10
1.46054e-10
1.46054e-10
1.46055e-10
1.46056e-10
1.46056e-10
1.46057e-10
1.46058e-10
1.46059e-10
1.4606e-10
1.46061e-10
1.46062e-10
1.46063e-10
1.46064e-10
1.46065e-10
1.46066e-10
1.46068e-10
1.46069e-10
1.4607e-10
1.46072e-10
1.46074e-10
1.46075e-10
1.46077e-10
1.46079e-10
1.4608e-10
1.46082e-10
1.46084e-10
1.46087e-10
1.46089e-10
1.46091e-10
1.46094e-10
1.46096e-10
1.46099e-10
1.46102e-10
1.46105e-10
1.46108e-10
1.46112e-10
1.46115e-10
1.46119e-10
1.46123e-10
1.46127e-10
1.46131e-10
1.46136e-10
1.46141e-10
1.46145e-10
1.46151e-10
1.46156e-10
1.46162e-10
1.46168e-10
1.46175e-10
1.46181e-10
1.46189e-10
1.46196e-10
1.46204e-10
1.46213e-10
1.46222e-10
1.46232e-10
1.46225e-10
2.67069e-10
2.67155e-10
2.67188e-10
2.67205e-10
2.67209e-10
2.67209e-10
2.67216e-10
2.67231e-10
2.67263e-10
2.67312e-10
2.67355e-10
2.67382e-10
2.67398e-10
2.67398e-10
2.45525e-10
2.44831e-10
2.44185e-10
2.43586e-10
2.4303e-10
2.42516e-10
2.42045e-10
2.41616e-10
2.41225e-10
2.40866e-10
2.40537e-10
2.40231e-10
2.39941e-10
2.3967e-10
2.39413e-10
2.39168e-10
2.38936e-10
2.3872e-10
2.38523e-10
2.38347e-10
2.3819e-10
2.38049e-10
2.37923e-10
2.37809e-10
2.37707e-10
2.37619e-10
2.37546e-10
2.37492e-10
2.37456e-10
2.37443e-10
2.37444e-10
2.37463e-10
2.37503e-10
2.37563e-10
2.37642e-10
2.37741e-10
2.37859e-10
2.37997e-10
2.38157e-10
2.38329e-10
2.3851e-10
2.38704e-10
2.38919e-10
2.39156e-10
2.3941e-10
2.39671e-10
2.39914e-10
2.40134e-10
2.40337e-10
2.4053e-10
2.4071e-10
2.40835e-10
2.40859e-10
2.40812e-10
2.40612e-10
2.40151e-10
2.39332e-10
2.38038e-10
2.36143e-10
2.33527e-10
2.30042e-10
2.25469e-10
2.19616e-10
2.12558e-10
2.04514e-10
1.95843e-10
1.87154e-10
1.79386e-10
1.7335e-10
1.68379e-10
1.63988e-10
1.60163e-10
1.57019e-10
1.54583e-10
1.52707e-10
1.51196e-10
1.49972e-10
1.49022e-10
1.48319e-10
1.47804e-10
1.47412e-10
1.47106e-10
1.46868e-10
1.46686e-10
1.46549e-10
1.46444e-10
1.46361e-10
1.46295e-10
1.46244e-10
1.46204e-10
1.46174e-10
1.4615e-10
1.46131e-10
1.46116e-10
1.46104e-10
1.46093e-10
1.46085e-10
1.46079e-10
1.46074e-10
1.4607e-10
1.46066e-10
1.46064e-10
1.46062e-10
1.46061e-10
1.4606e-10
1.46059e-10
1.46059e-10
1.46059e-10
1.46059e-10
1.46059e-10
1.4606e-10
1.4606e-10
1.46061e-10
1.46061e-10
1.46062e-10
1.46063e-10
1.46063e-10
1.46064e-10
1.46065e-10
1.46066e-10
1.46067e-10
1.46068e-10
1.46069e-10
1.4607e-10
1.46071e-10
1.46072e-10
1.46073e-10
1.46075e-10
1.46076e-10
1.46077e-10
1.46079e-10
1.4608e-10
1.46082e-10
1.46084e-10
1.46086e-10
1.46088e-10
1.4609e-10
1.46092e-10
1.46094e-10
1.46096e-10
1.46099e-10
1.46102e-10
1.46104e-10
1.46107e-10
1.4611e-10
1.46114e-10
1.46117e-10
1.46121e-10
1.46124e-10
1.46128e-10
1.46133e-10
1.46137e-10
1.46142e-10
1.46147e-10
1.46152e-10
1.46157e-10
1.46162e-10
1.46168e-10
1.46174e-10
1.46181e-10
1.46187e-10
1.46194e-10
1.46202e-10
1.4621e-10
1.46218e-10
1.46227e-10
1.46236e-10
1.46246e-10
1.46256e-10
1.46267e-10
1.46279e-10
1.46291e-10
1.46304e-10
1.46318e-10
1.46332e-10
1.46347e-10
1.46362e-10
1.46379e-10
1.46396e-10
1.46414e-10
1.46433e-10
1.46453e-10
1.46474e-10
1.46496e-10
1.46519e-10
1.46543e-10
1.46569e-10
1.46596e-10
1.46625e-10
1.46657e-10
1.4669e-10
1.46729e-10
1.46709e-10
2.69178e-10
2.69231e-10
2.69289e-10
2.69335e-10
2.69371e-10
2.69388e-10
2.69406e-10
2.69435e-10
2.69489e-10
2.69576e-10
2.69688e-10
2.69814e-10
2.69946e-10
2.70084e-10
2.53082e-10
2.51732e-10
2.50483e-10
2.49333e-10
2.48277e-10
2.47313e-10
2.46434e-10
2.45636e-10
2.44912e-10
2.44253e-10
2.43654e-10
2.43109e-10
2.42607e-10
2.42145e-10
2.4172e-10
2.41328e-10
2.40966e-10
2.40634e-10
2.40332e-10
2.40059e-10
2.39811e-10
2.39586e-10
2.39381e-10
2.39195e-10
2.39028e-10
2.38879e-10
2.38748e-10
2.38637e-10
2.38545e-10
2.38475e-10
2.38424e-10
2.38403e-10
2.38403e-10
2.38423e-10
2.38467e-10
2.38531e-10
2.38613e-10
2.38717e-10
2.38842e-10
2.38989e-10
2.39159e-10
2.3935e-10
2.39565e-10
2.39802e-10
2.40054e-10
2.40321e-10
2.406e-10
2.40889e-10
2.41199e-10
2.41535e-10
2.41888e-10
2.4224e-10
2.42558e-10
2.42851e-10
2.43141e-10
2.43436e-10
2.43731e-10
2.43983e-10
2.44131e-10
2.44149e-10
2.44047e-10
2.43673e-10
2.42891e-10
2.4157e-10
2.39552e-10
2.36677e-10
2.3277e-10
2.27607e-10
2.21038e-10
2.13186e-10
2.04323e-10
1.94927e-10
1.85813e-10
1.78079e-10
1.72217e-10
1.67312e-10
1.63016e-10
1.59381e-10
1.56487e-10
1.54287e-10
1.52584e-10
1.51196e-10
1.50064e-10
1.49176e-10
1.48506e-10
1.48004e-10
1.47617e-10
1.47308e-10
1.4706e-10
1.46865e-10
1.46713e-10
1.46593e-10
1.46498e-10
1.46419e-10
1.46354e-10
1.46301e-10
1.46258e-10
1.46223e-10
1.46196e-10
1.46174e-10
1.46156e-10
1.46143e-10
1.46132e-10
1.46124e-10
1.46118e-10
1.46113e-10
1.4611e-10
1.46108e-10
1.46108e-10
1.46108e-10
1.46108e-10
1.46109e-10
1.4611e-10
1.46112e-10
1.46114e-10
1.46116e-10
1.46118e-10
1.46121e-10
1.46124e-10
1.46126e-10
1.46129e-10
1.46132e-10
1.46136e-10
1.46139e-10
1.46143e-10
1.46146e-10
1.4615e-10
1.46154e-10
1.46159e-10
1.46163e-10
1.46168e-10
1.46173e-10
1.46179e-10
1.46184e-10
1.46191e-10
1.46197e-10
1.46204e-10
1.46211e-10
1.46218e-10
1.46226e-10
1.46234e-10
1.46243e-10
1.46252e-10
1.46261e-10
1.46271e-10
1.46282e-10
1.46293e-10
1.46305e-10
1.46318e-10
1.46331e-10
1.46346e-10
1.46361e-10
1.46376e-10
1.46393e-10
1.46411e-10
1.46429e-10
1.46448e-10
1.46468e-10
1.46489e-10
1.46511e-10
1.46534e-10
1.46557e-10
1.46582e-10
1.46609e-10
1.46637e-10
1.46666e-10
1.46697e-10
1.4673e-10
1.46765e-10
1.46802e-10
1.46842e-10
1.46884e-10
1.46928e-10
1.46975e-10
1.47025e-10
1.47077e-10
1.47132e-10
1.4719e-10
1.4725e-10
1.47313e-10
1.47378e-10
1.47446e-10
1.47518e-10
1.47593e-10
1.47674e-10
1.47759e-10
1.4785e-10
1.47947e-10
1.48051e-10
1.48161e-10
1.48278e-10
1.48422e-10
1.48371e-10
2.7156e-10
2.71652e-10
2.71776e-10
2.7192e-10
2.72077e-10
2.72244e-10
2.72424e-10
2.72625e-10
2.72857e-10
2.73132e-10
2.73461e-10
2.73843e-10
2.74273e-10
2.74747e-10
2.67046e-10
2.64352e-10
2.61872e-10
2.59597e-10
2.57519e-10
2.55628e-10
2.5391e-10
2.52356e-10
2.50955e-10
2.49688e-10
2.48546e-10
2.47515e-10
2.46585e-10
2.45746e-10
2.44988e-10
2.44305e-10
2.4369e-10
2.43136e-10
2.42638e-10
2.42191e-10
2.41789e-10
2.41428e-10
2.41102e-10
2.4081e-10
2.40548e-10
2.40314e-10
2.40106e-10
2.39923e-10
2.39765e-10
2.3963e-10
2.39522e-10
2.39442e-10
2.39386e-10
2.3936e-10
2.39356e-10
2.3937e-10
2.39406e-10
2.39465e-10
2.39548e-10
2.39657e-10
2.39793e-10
2.39955e-10
2.40141e-10
2.40349e-10
2.40579e-10
2.40834e-10
2.41111e-10
2.41413e-10
2.41741e-10
2.42091e-10
2.42453e-10
2.42829e-10
2.43212e-10
2.43605e-10
2.44021e-10
2.4447e-10
2.44944e-10
2.4542e-10
2.45851e-10
2.46257e-10
2.46681e-10
2.47127e-10
2.47571e-10
2.47963e-10
2.48242e-10
2.48331e-10
2.48262e-10
2.47921e-10
2.47111e-10
2.45645e-10
2.43316e-10
2.39936e-10
2.3532e-10
2.29277e-10
2.21768e-10
2.13047e-10
2.03518e-10
1.93829e-10
1.84898e-10
1.77662e-10
1.72232e-10
1.67635e-10
1.63585e-10
1.60133e-10
1.57336e-10
1.55161e-10
1.53473e-10
1.52095e-10
1.50941e-10
1.49994e-10
1.49243e-10
1.48659e-10
1.48204e-10
1.47841e-10
1.4754e-10
1.47286e-10
1.47076e-10
1.46904e-10
1.46765e-10
1.46653e-10
1.46562e-10
1.46488e-10
1.46427e-10
1.46379e-10
1.46341e-10
1.46313e-10
1.46293e-10
1.46279e-10
1.4627e-10
1.46265e-10
1.46262e-10
1.46263e-10
1.46264e-10
1.46268e-10
1.46273e-10
1.46279e-10
1.46286e-10
1.46294e-10
1.46302e-10
1.46311e-10
1.4632e-10
1.4633e-10
1.4634e-10
1.46351e-10
1.46362e-10
1.46374e-10
1.46386e-10
1.46399e-10
1.46413e-10
1.46428e-10
1.46444e-10
1.4646e-10
1.46478e-10
1.46497e-10
1.46517e-10
1.46538e-10
1.4656e-10
1.46583e-10
1.46607e-10
1.46633e-10
1.46659e-10
1.46687e-10
1.46717e-10
1.46747e-10
1.4678e-10
1.46814e-10
1.4685e-10
1.46888e-10
1.46929e-10
1.46972e-10
1.47017e-10
1.47065e-10
1.47117e-10
1.47171e-10
1.47228e-10
1.47288e-10
1.47351e-10
1.47417e-10
1.47486e-10
1.47557e-10
1.47632e-10
1.47711e-10
1.47792e-10
1.47878e-10
1.47968e-10
1.48064e-10
1.48165e-10
1.48272e-10
1.48385e-10
1.48507e-10
1.48637e-10
1.48775e-10
1.48923e-10
1.4908e-10
1.49247e-10
1.49423e-10
1.49609e-10
1.49805e-10
1.50009e-10
1.50222e-10
1.50444e-10
1.50674e-10
1.50912e-10
1.5116e-10
1.51416e-10
1.51684e-10
1.51963e-10
1.52258e-10
1.52571e-10
1.52908e-10
1.53264e-10
1.53731e-10
1.53659e-10
2.75112e-10
2.75414e-10
2.75772e-10
2.7619e-10
2.76665e-10
2.77193e-10
2.77773e-10
2.78407e-10
2.79103e-10
2.79871e-10
2.80724e-10
2.81675e-10
2.82729e-10
2.93521e-10
2.88183e-10
2.83274e-10
2.78773e-10
2.74664e-10
2.70929e-10
2.67542e-10
2.6448e-10
2.6172e-10
2.59236e-10
2.57006e-10
2.55007e-10
2.53219e-10
2.51623e-10
2.50202e-10
2.48938e-10
2.47816e-10
2.46821e-10
2.45941e-10
2.45161e-10
2.44471e-10
2.4386e-10
2.4332e-10
2.42842e-10
2.4242e-10
2.42047e-10
2.41717e-10
2.41428e-10
2.41175e-10
2.40956e-10
2.4077e-10
2.40617e-10
2.40495e-10
2.40404e-10
2.40337e-10
2.40297e-10
2.40285e-10
2.4029e-10
2.40322e-10
2.40381e-10
2.40469e-10
2.40585e-10
2.40728e-10
2.40897e-10
2.41095e-10
2.41319e-10
2.41573e-10
2.41856e-10
2.42165e-10
2.42495e-10
2.42847e-10
2.43221e-10
2.43612e-10
2.44026e-10
2.44467e-10
2.44927e-10
2.45395e-10
2.45871e-10
2.46354e-10
2.46856e-10
2.47396e-10
2.47977e-10
2.48578e-10
2.49179e-10
2.49783e-10
2.50403e-10
2.51036e-10
2.51666e-10
2.52266e-10
2.52777e-10
2.53112e-10
2.53192e-10
2.5307e-10
2.52559e-10
2.51431e-10
2.4948e-10
2.46545e-10
2.42536e-10
2.3735e-10
2.30914e-10
2.23296e-10
2.14775e-10
2.05688e-10
1.9653e-10
1.87972e-10
1.80712e-10
1.75166e-10
1.70697e-10
1.66739e-10
1.63244e-10
1.60268e-10
1.5782e-10
1.55855e-10
1.54284e-10
1.52978e-10
1.51842e-10
1.50855e-10
1.5002e-10
1.49334e-10
1.48783e-10
1.48344e-10
1.4799e-10
1.477e-10
1.4746e-10
1.47267e-10
1.47116e-10
1.47e-10
1.46914e-10
1.46852e-10
1.46807e-10
1.46777e-10
1.46759e-10
1.46753e-10
1.46755e-10
1.46762e-10
1.46776e-10
1.46794e-10
1.46816e-10
1.4684e-10
1.46867e-10
1.46896e-10
1.46926e-10
1.46957e-10
1.46991e-10
1.47026e-10
1.47062e-10
1.471e-10
1.47141e-10
1.47184e-10
1.47229e-10
1.47277e-10
1.47328e-10
1.47383e-10
1.47441e-10
1.47503e-10
1.47568e-10
1.47637e-10
1.4771e-10
1.47786e-10
1.47866e-10
1.47949e-10
1.48036e-10
1.48127e-10
1.48223e-10
1.48323e-10
1.48429e-10
1.4854e-10