/*--------------------------------*- C++ -*----------------------------------*\
| =========                 |                                                 |
| \\      /  F ield         | OpenFOAM: The Open Source CFD Toolbox           |
|  \\    /   O peration     | Version:  v1706                                 |
|   \\  /    A nd           | Web:      www.OpenFOAM.com                      |
|    \\/     M anipulation  |                                                 |
\*---------------------------------------------------------------------------*/
FoamFile
{
    version     2.0;
    format      ascii;
    class       volScalarField;
    location    "3.5e-05";
    object      kappatr;
}
// * * * * * * * * * * * * * * * * * * * * * * * * * * * * * * * * * * * * * //

dimensions      [1 1 -3 -1 0 0 0];


internalField   nonuniform List<scalar> 
30104
(
0.0146153
0.0146186
0.0146225
0.0146268
0.0146318
0.0146375
0.014644
0.0146513
0.0146597
0.0146691
0.0146799
0.0146922
0.0147062
0.014722
0.0147399
0.0147598
0.0147817
0.0167652
0.0166416
0.0165127
0.0163817
0.0162668
0.0161778
0.0160992
0.0160221
0.0159433
0.0158621
0.0157786
0.0156933
0.0156065
0.0155191
0.015432
0.0153457
0.0152609
0.0151808
0.0151094
0.0150485
0.0149966
0.0149501
0.0149065
0.0148649
0.0148254
0.0147888
0.0147559
0.0147278
0.014705
0.0146866
0.0146713
0.0146581
0.0146467
0.0146369
0.0146289
0.0146224
0.0146172
0.0146128
0.0146091
0.014606
0.0146034
0.0146012
0.0145995
0.0145981
0.0145971
0.0145962
0.0145955
0.014595
0.0145946
0.0145942
0.014594
0.0145938
0.0145936
0.0145935
0.0145933
0.0145933
0.0145932
0.0145931
0.0145931
0.0145931
0.0145931
0.0145931
0.014593
0.014593
0.014593
0.014593
0.014593
0.014593
0.014593
0.014593
0.014593
0.014593
0.014593
0.014593
0.014593
0.014593
0.014593
0.014593
0.014593
0.014593
0.014593
0.014593
0.014593
0.014593
0.014593
0.014593
0.014593
0.014593
0.014593
0.014593
0.014593
0.014593
0.014593
0.014593
0.014593
0.014593
0.014593
0.014593
0.014593
0.014593
0.014593
0.014593
0.014593
0.014593
0.014593
0.014593
0.014593
0.014593
0.014593
0.014593
0.014593
0.014593
0.014593
0.014593
0.014593
0.014593
0.014593
0.014593
0.014593
0.014593
0.014593
0.014593
0.014593
0.014593
0.014593
0.014593
0.014593
0.014593
0.014593
0.014593
0.014593
0.014593
0.014593
0.014593
0.014593
0.014593
0.014593
0.014593
0.014593
0.014593
0.014593
0.014593
0.014593
0.014593
0.014593
0.014593
0.014593
0.014593
0.014593
0.014593
0.014593
0.014593
0.014593
0.014593
0.014593
0.014593
0.014593
0.014593
0.014593
0.014593
0.014593
0.014593
0.014593
0.014593
0.014593
0.014593
0.014593
0.014593
0.014593
0.014593
0.014593
0.014593
0.014593
0.014593
0.014593
0.014593
0.014593
0.014593
0.014593
0.014593
0.014593
0.014593
0.014593
0.014593
0.014593
0.014593
0.014593
0.014593
0.014593
0.014593
0.014593
0.014593
0.014593
0.0147299
0.0147504
0.0147739
0.0148007
0.0148314
0.0148664
0.014906
0.0149505
0.0150005
0.0150566
0.0151197
0.0151911
0.0152718
0.0153629
0.0154647
0.0155775
0.0157012
0.0216544
0.0216164
0.0215734
0.0215193
0.0214429
0.0213366
0.0212012
0.0210393
0.0208532
0.0206434
0.0204093
0.0201495
0.0198638
0.0195538
0.0192214
0.0188686
0.018498
0.0181148
0.0177339
0.0173929
0.0171106
0.0168606
0.0166245
0.0163944
0.0161694
0.0159533
0.0157536
0.0155781
0.0154307
0.0153071
0.0152001
0.0151048
0.0150195
0.0149442
0.01488
0.0148272
0.0147848
0.0147502
0.0147213
0.014697
0.0146767
0.0146601
0.0146469
0.0146363
0.0146277
0.0146207
0.0146149
0.0146102
0.0146065
0.0146035
0.0146012
0.0145994
0.014598
0.0145968
0.0145959
0.0145953
0.0145947
0.0145943
0.014594
0.0145937
0.0145936
0.0145934
0.0145933
0.0145932
0.0145932
0.0145931
0.0145931
0.0145931
0.0145931
0.014593
0.014593
0.014593
0.014593
0.014593
0.014593
0.014593
0.014593
0.014593
0.014593
0.014593
0.014593
0.014593
0.014593
0.014593
0.014593
0.014593
0.014593
0.014593
0.014593
0.014593
0.014593
0.014593
0.014593
0.014593
0.014593
0.014593
0.014593
0.014593
0.014593
0.014593
0.014593
0.014593
0.014593
0.014593
0.014593
0.014593
0.014593
0.014593
0.014593
0.014593
0.014593
0.014593
0.014593
0.014593
0.014593
0.014593
0.014593
0.014593
0.014593
0.014593
0.014593
0.014593
0.014593
0.014593
0.014593
0.014593
0.014593
0.014593
0.014593
0.014593
0.014593
0.014593
0.014593
0.014593
0.014593
0.014593
0.014593
0.014593
0.014593
0.014593
0.014593
0.014593
0.014593
0.014593
0.014593
0.014593
0.014593
0.014593
0.014593
0.014593
0.014593
0.014593
0.014593
0.014593
0.014593
0.014593
0.014593
0.014593
0.014593
0.014593
0.014593
0.014593
0.014593
0.014593
0.014593
0.014593
0.014593
0.014593
0.014593
0.014593
0.014593
0.014593
0.014593
0.014593
0.014593
0.014593
0.014593
0.014593
0.014593
0.014593
0.014593
0.014593
0.014593
0.014593
0.014593
0.014593
0.014593
0.014593
0.014593
0.014593
0.014593
0.014593
0.014593
0.0150844
0.0151556
0.0152363
0.015328
0.015432
0.0155494
0.015681
0.0158271
0.0159882
0.0161659
0.016363
0.0165821
0.0168243
0.0170888
0.0173736
0.0176759
0.0227603
0.0227679
0.0227773
0.0227852
0.0227867
0.0227838
0.0227737
0.0227532
0.0227223
0.0226821
0.022634
0.0225787
0.0225164
0.022446
0.022364
0.022265
0.0221428
0.0219899
0.0217966
0.0215504
0.0212468
0.0208918
0.0204916
0.0200508
0.0195739
0.0190676
0.0185446
0.0180319
0.0175846
0.0172134
0.0168859
0.0165815
0.0162942
0.016028
0.0157914
0.0155913
0.0154271
0.0152898
0.0151713
0.0150677
0.0149781
0.014903
0.0148424
0.0147943
0.0147555
0.0147236
0.0146971
0.0146754
0.0146582
0.0146446
0.0146338
0.0146251
0.0146181
0.0146124
0.0146079
0.0146045
0.0146018
0.0145997
0.0145981
0.0145969
0.0145959
0.0145952
0.0145947
0.0145942
0.0145939
0.0145937
0.0145935
0.0145934
0.0145933
0.0145932
0.0145931
0.0145931
0.0145931
0.0145931
0.014593
0.014593
0.014593
0.014593
0.014593
0.014593
0.014593
0.014593
0.014593
0.014593
0.014593
0.014593
0.014593
0.014593
0.014593
0.014593
0.014593
0.014593
0.014593
0.014593
0.014593
0.014593
0.014593
0.014593
0.014593
0.014593
0.014593
0.014593
0.014593
0.014593
0.014593
0.014593
0.014593
0.014593
0.014593
0.014593
0.014593
0.014593
0.014593
0.014593
0.014593
0.014593
0.014593
0.014593
0.014593
0.014593
0.014593
0.014593
0.014593
0.014593
0.014593
0.014593
0.014593
0.014593
0.014593
0.014593
0.014593
0.014593
0.014593
0.014593
0.014593
0.014593
0.014593
0.014593
0.014593
0.014593
0.014593
0.014593
0.014593
0.014593
0.014593
0.014593
0.014593
0.014593
0.014593
0.014593
0.014593
0.014593
0.014593
0.014593
0.014593
0.014593
0.014593
0.014593
0.014593
0.014593
0.014593
0.014593
0.014593
0.014593
0.014593
0.014593
0.014593
0.014593
0.014593
0.014593
0.014593
0.014593
0.014593
0.014593
0.014593
0.014593
0.014593
0.014593
0.014593
0.014593
0.014593
0.014593
0.014593
0.014593
0.014593
0.014593
0.014593
0.014593
0.014593
0.014593
0.014593
0.014593
0.014593
0.016122
0.0163248
0.0165509
0.0168025
0.0170803
0.017383
0.0177081
0.0180528
0.0184145
0.018793
0.0191981
0.019642
0.0201197
0.0206207
0.0211317
0.0216391
0.0230852
0.0230923
0.0231007
0.0231095
0.0231175
0.0231242
0.023128
0.0231283
0.0231266
0.023122
0.0231145
0.0231041
0.0230916
0.0230773
0.0230604
0.0230392
0.0230122
0.022979
0.0229396
0.0228949
0.0228457
0.0227903
0.0227232
0.0226372
0.0225238
0.0223727
0.0221729
0.0219127
0.0215792
0.0211732
0.0207061
0.0201879
0.0196272
0.0190358
0.0184374
0.0178805
0.0174235
0.0170376
0.0166897
0.016367
0.0160716
0.0158123
0.0155961
0.0154209
0.0152757
0.0151514
0.015044
0.0149528
0.0148783
0.0148197
0.0147735
0.0147364
0.014706
0.0146813
0.0146618
0.0146466
0.0146347
0.0146253
0.0146178
0.0146118
0.0146072
0.0146037
0.0146011
0.0145991
0.0145975
0.0145964
0.0145955
0.0145948
0.0145944
0.014594
0.0145937
0.0145935
0.0145934
0.0145933
0.0145932
0.0145932
0.0145931
0.0145931
0.0145931
0.0145931
0.014593
0.014593
0.014593
0.014593
0.014593
0.014593
0.014593
0.014593
0.014593
0.014593
0.014593
0.014593
0.014593
0.014593
0.014593
0.014593
0.014593
0.014593
0.014593
0.014593
0.014593
0.014593
0.014593
0.014593
0.014593
0.014593
0.014593
0.014593
0.014593
0.014593
0.014593
0.014593
0.014593
0.014593
0.014593
0.014593
0.014593
0.014593
0.014593
0.014593
0.014593
0.014593
0.014593
0.014593
0.014593
0.014593
0.014593
0.014593
0.014593
0.014593
0.014593
0.014593
0.014593
0.014593
0.014593
0.014593
0.014593
0.014593
0.014593
0.014593
0.014593
0.014593
0.014593
0.014593
0.014593
0.014593
0.014593
0.014593
0.014593
0.014593
0.014593
0.014593
0.014593
0.014593
0.014593
0.014593
0.014593
0.014593
0.014593
0.014593
0.014593
0.014593
0.014593
0.014593
0.014593
0.014593
0.014593
0.014593
0.014593
0.014593
0.014593
0.014593
0.0145931
0.0145931
0.0145931
0.0145931
0.0145931
0.0145931
0.0145931
0.0145931
0.0145931
0.0145931
0.0145931
0.0145931
0.0145931
0.0145931
0.0145931
0.0145931
0.0145931
0.0145931
0.0145931
0.0145931
0.0145931
0.0186009
0.0190112
0.0194536
0.0199342
0.0204465
0.0209787
0.0215165
0.022046
0.0225548
0.0230325
0.0234694
0.0238588
0.0242004
0.0244961
0.0247496
0.0233126
0.0233147
0.0233168
0.0233188
0.0233204
0.0233209
0.0233202
0.0233181
0.0233152
0.0233117
0.0233074
0.0233036
0.0232988
0.0232919
0.0232832
0.0232732
0.0232622
0.0232517
0.023242
0.023233
0.023225
0.0232178
0.0232096
0.0231985
0.0231829
0.0231611
0.0231337
0.0231008
0.0230601
0.0230075
0.0229344
0.0228289
0.0226789
0.0224748
0.022208
0.021868
0.0214474
0.0209552
0.0204015
0.0197952
0.0191514
0.0185003
0.0178989
0.017411
0.0170016
0.0166334
0.0162945
0.0159901
0.0157297
0.0155178
0.0153471
0.0152048
0.0150833
0.0149801
0.0148958
0.0148296
0.0147786
0.0147383
0.0147058
0.0146798
0.0146596
0.014644
0.0146321
0.0146227
0.0146153
0.0146096
0.0146054
0.0146022
0.0145998
0.0145981
0.0145967
0.0145957
0.014595
0.0145945
0.0145941
0.0145938
0.0145936
0.0145934
0.0145933
0.0145933
0.0145932
0.0145932
0.0145931
0.0145931
0.0145931
0.0145931
0.0145931
0.014593
0.014593
0.014593
0.014593
0.014593
0.014593
0.014593
0.014593
0.014593
0.014593
0.014593
0.014593
0.014593
0.014593
0.014593
0.014593
0.014593
0.014593
0.014593
0.014593
0.014593
0.014593
0.014593
0.014593
0.014593
0.014593
0.014593
0.014593
0.014593
0.014593
0.014593
0.014593
0.014593
0.014593
0.014593
0.014593
0.014593
0.014593
0.014593
0.014593
0.014593
0.014593
0.014593
0.014593
0.014593
0.014593
0.014593
0.014593
0.014593
0.014593
0.014593
0.0145931
0.0145931
0.0145931
0.0145931
0.0145931
0.0145931
0.0145931
0.0145931
0.0145931
0.0145931
0.0145931
0.0145931
0.0145931
0.0145931
0.0145931
0.0145931
0.0145931
0.0145931
0.0145931
0.0145931
0.0145931
0.0145931
0.0145931
0.0145931
0.0145931
0.0145931
0.0145931
0.0145931
0.0145931
0.0145931
0.0145932
0.0145932
0.0145932
0.0145932
0.0145932
0.0145932
0.0145932
0.0145932
0.0145932
0.0145932
0.0145932
0.0145932
0.0145932
0.0145933
0.0145933
0.0145933
0.0145933
0.0145933
0.0145933
0.0145933
0.0145933
0.0145933
0.0145934
0.0145934
0.0145934
0.0221617
0.022693
0.023192
0.0236468
0.0240516
0.0244057
0.0247113
0.0249719
0.0251921
0.0253768
0.0255306
0.0256574
0.0257608
0.025844
0.0259098
0.0259604
0.0235098
0.0235061
0.0235027
0.0234992
0.0234953
0.0234907
0.0234854
0.0234796
0.0234741
0.0234684
0.0234623
0.023457
0.0234517
0.0234455
0.0234376
0.0234279
0.0234182
0.0234092
0.0234016
0.0233963
0.0233922
0.0233888
0.0233864
0.0233846
0.0233843
0.0233867
0.0233903
0.0233892
0.0233881
0.0233872
0.023384
0.0233752
0.0233597
0.0233389
0.0233123
0.0232773
0.0232284
0.0231543
0.023041
0.0228762
0.0226512
0.0223586
0.0219883
0.0215311
0.0209936
0.0203851
0.0197182
0.0190169
0.0183262
0.0177208
0.0172373
0.0168221
0.0164453
0.016105
0.0158106
0.0155697
0.0153785
0.0152226
0.0150913
0.0149811
0.014892
0.0148232
0.0147708
0.01473
0.0146976
0.0146723
0.0146529
0.0146383
0.0146271
0.0146185
0.0146119
0.0146069
0.0146033
0.0146006
0.0145987
0.0145972
0.0145962
0.0145954
0.0145948
0.0145944
0.014594
0.0145938
0.0145936
0.0145935
0.0145934
0.0145933
0.0145932
0.0145932
0.0145932
0.0145931
0.0145931
0.0145931
0.0145931
0.0145931
0.0145931
0.0145931
0.0145931
0.0145931
0.0145931
0.0145931
0.0145931
0.0145931
0.0145931
0.0145931
0.0145931
0.0145931
0.0145931
0.0145931
0.0145931
0.0145931
0.0145931
0.0145931
0.0145931
0.0145931
0.0145931
0.0145931
0.0145931
0.0145931
0.0145931
0.0145931
0.0145931
0.0145931
0.0145931
0.0145931
0.0145931
0.0145931
0.0145931
0.0145931
0.0145931
0.0145931
0.0145931
0.0145931
0.0145931
0.0145931
0.0145931
0.0145931
0.0145931
0.0145932
0.0145932
0.0145932
0.0145932
0.0145932
0.0145932
0.0145932
0.0145932
0.0145932
0.0145932
0.0145932
0.0145932
0.0145932
0.0145933
0.0145933
0.0145933
0.0145933
0.0145933
0.0145933
0.0145933
0.0145933
0.0145934
0.0145934
0.0145934
0.0145934
0.0145934
0.0145934
0.0145934
0.0145935
0.0145935
0.0145935
0.0145935
0.0145936
0.0145936
0.0145936
0.0145936
0.0145937
0.0145937
0.0145937
0.0145937
0.0145938
0.0145938
0.0145938
0.0145939
0.0145939
0.014594
0.014594
0.0145941
0.0145941
0.0145941
0.0145942
0.0145943
0.0145943
0.0145944
0.0145944
0.0145944
0.0253072
0.0255087
0.0256756
0.0258127
0.025924
0.0260135
0.0260841
0.0261387
0.0261799
0.0262115
0.026237
0.0262583
0.026276
0.023721
0.0237095
0.0236982
0.0236869
0.0236757
0.0236646
0.0236533
0.0236426
0.0236331
0.0236238
0.0236146
0.023606
0.0235974
0.0235884
0.0235785
0.0235678
0.0235569
0.0235467
0.0235378
0.0235309
0.0235256
0.0235217
0.0235192
0.0235169
0.0235162
0.0235177
0.023519
0.0235193
0.0235206
0.0235239
0.0235293
0.023536
0.0235448
0.0235548
0.0235604
0.0235662
0.0235714
0.0235726
0.023571
0.0235654
0.0235535
0.0235329
0.0234987
0.0234416
0.023349
0.0232078
0.0230084
0.0227433
0.0224025
0.0219703
0.0214388
0.0208174
0.0201207
0.0193727
0.0186165
0.0179232
0.01737
0.0169121
0.016504
0.016138
0.0158231
0.0155671
0.0153662
0.015204
0.0150689
0.0149575
0.0148696
0.0148034
0.0147535
0.014715
0.0146849
0.0146619
0.0146447
0.0146319
0.0146222
0.0146148
0.0146092
0.0146052
0.0146022
0.0146
0.0145984
0.0145971
0.0145962
0.0145955
0.014595
0.0145946
0.0145942
0.014594
0.0145938
0.0145937
0.0145936
0.0145935
0.0145934
0.0145934
0.0145933
0.0145933
0.0145933
0.0145932
0.0145932
0.0145932
0.0145932
0.0145932
0.0145932
0.0145932
0.0145932
0.0145932
0.0145932
0.0145932
0.0145932
0.0145932
0.0145932
0.0145932
0.0145932
0.0145932
0.0145932
0.0145933
0.0145933
0.0145933
0.0145933
0.0145933
0.0145933
0.0145933
0.0145933
0.0145933
0.0145933
0.0145933
0.0145933
0.0145934
0.0145934
0.0145934
0.0145934
0.0145934
0.0145934
0.0145934
0.0145935
0.0145935
0.0145935
0.0145935
0.0145935
0.0145935
0.0145936
0.0145936
0.0145936
0.0145936
0.0145937
0.0145937
0.0145937
0.0145938
0.0145938
0.0145938
0.0145939
0.0145939
0.0145939
0.014594
0.014594
0.0145941
0.0145941
0.0145942
0.0145942
0.0145943
0.0145943
0.0145944
0.0145944
0.0145945
0.0145946
0.0145946
0.0145947
0.0145948
0.0145949
0.0145949
0.014595
0.0145951
0.0145952
0.0145953
0.0145954
0.0145955
0.0145957
0.0145958
0.0145959
0.0145961
0.0145962
0.0145963
0.0145965
0.0145967
0.0145968
0.014597
0.0145972
0.0145974
0.0145976
0.0145978
0.0145981
0.0145983
0.0145981
0.0263391
0.0263763
0.0264056
0.0264294
0.026449
0.0264649
0.0264771
0.026485
0.0264875
0.0264863
0.0264831
0.0264787
0.0264739
0.023939
0.0239203
0.023902
0.0238841
0.0238664
0.0238494
0.023833
0.0238178
0.0238035
0.0237898
0.0237768
0.0237641
0.0237514
0.0237384
0.023725
0.0237113
0.0236978
0.0236849
0.023673
0.0236631
0.0236547
0.0236476
0.0236417
0.0236364
0.023632
0.0236288
0.0236262
0.0236256
0.0236262
0.0236285
0.0236325
0.0236382
0.0236459
0.023654
0.0236627
0.0236731
0.0236858
0.0237006
0.0237177
0.0237368
0.0237531
0.0237674
0.0237805
0.0237917
0.0237999
0.0238019
0.0237995
0.0237892
0.0237636
0.0237142
0.0236305
0.0235002
0.023312
0.0230567
0.022722
0.0222894
0.0217426
0.0210893
0.0203479
0.0195467
0.0187334
0.0179864
0.0173922
0.0169063
0.0164767
0.016096
0.0157741
0.0155177
0.0153188
0.0151584
0.0150261
0.0149198
0.014839
0.0147795
0.014735
0.0147008
0.0146745
0.0146548
0.0146402
0.0146293
0.0146208
0.0146143
0.0146094
0.0146057
0.014603
0.0146009
0.0145993
0.0145981
0.0145971
0.0145964
0.0145958
0.0145953
0.0145949
0.0145946
0.0145944
0.0145942
0.0145941
0.0145939
0.0145939
0.0145938
0.0145937
0.0145937
0.0145937
0.0145937
0.0145937
0.0145936
0.0145937
0.0145937
0.0145937
0.0145937
0.0145937
0.0145937
0.0145937
0.0145938
0.0145938
0.0145938
0.0145938
0.0145938
0.0145939
0.0145939
0.0145939
0.0145939
0.014594
0.014594
0.014594
0.0145941
0.0145941
0.0145942
0.0145942
0.0145942
0.0145943
0.0145943
0.0145944
0.0145944
0.0145945
0.0145945
0.0145946
0.0145947
0.0145947
0.0145948
0.0145949
0.014595
0.014595
0.0145951
0.0145952
0.0145953
0.0145954
0.0145955
0.0145956
0.0145958
0.0145959
0.014596
0.0145961
0.0145963
0.0145964
0.0145966
0.0145967
0.0145969
0.0145971
0.0145973
0.0145975
0.0145977
0.0145979
0.0145981
0.0145984
0.0145986
0.0145989
0.0145991
0.0145994
0.0145997
0.0146001
0.0146004
0.0146008
0.0146011
0.0146015
0.0146019
0.0146024
0.0146028
0.0146033
0.0146038
0.0146043
0.0146048
0.0146054
0.014606
0.0146067
0.0146074
0.0146081
0.0146089
0.0146097
0.0146105
0.0146114
0.0146124
0.0146117
0.0266582
0.0266637
0.0266635
0.0266614
0.0266577
0.026653
0.0266487
0.0266446
0.0266417
0.0266398
0.0266369
0.0266316
0.0266243
0.0266147
0.0241572
0.0241325
0.0241087
0.0240856
0.0240631
0.0240414
0.0240206
0.0240011
0.0239825
0.0239647
0.0239476
0.0239309
0.023914
0.0238972
0.0238805
0.0238636
0.0238469
0.0238308
0.0238156
0.0238018
0.0237892
0.0237777
0.0237671
0.0237574
0.0237486
0.0237408
0.0237343
0.0237296
0.0237265
0.0237256
0.023726
0.0237282
0.0237323
0.0237384
0.0237464
0.0237564
0.0237682
0.0237821
0.0237981
0.0238153
0.0238334
0.0238528
0.0238743
0.0238979
0.0239233
0.0239494
0.0239737
0.0239957
0.024016
0.0240353
0.0240533
0.0240657
0.0240682
0.0240635
0.0240435
0.0239974
0.0239156
0.0237863
0.0235969
0.0233355
0.0229873
0.0225303
0.0219454
0.0212401
0.0204364
0.0195699
0.0187016
0.0179254
0.0173222
0.0168255
0.0163867
0.0160045
0.0156903
0.0154469
0.0152595
0.0151084
0.0149861
0.0148912
0.014821
0.0147695
0.0147303
0.0146997
0.0146759
0.0146578
0.0146441
0.0146336
0.0146253
0.0146187
0.0146136
0.0146097
0.0146066
0.0146042
0.0146024
0.0146008
0.0145996
0.0145986
0.0145978
0.0145971
0.0145966
0.0145962
0.0145959
0.0145956
0.0145954
0.0145953
0.0145952
0.0145952
0.0145951
0.0145951
0.0145951
0.0145952
0.0145952
0.0145953
0.0145953
0.0145954
0.0145954
0.0145955
0.0145956
0.0145957
0.0145957
0.0145958
0.0145959
0.014596
0.0145961
0.0145962
0.0145963
0.0145964
0.0145966
0.0145967
0.0145968
0.014597
0.0145971
0.0145973
0.0145974
0.0145976
0.0145978
0.014598
0.0145982
0.0145984
0.0145986
0.0145989
0.0145991
0.0145994
0.0145997
0.0146
0.0146003
0.0146006
0.0146009
0.0146013
0.0146017
0.0146021
0.0146025
0.0146029
0.0146034
0.0146039
0.0146044
0.0146049
0.0146055
0.0146061
0.0146067
0.0146073
0.014608
0.0146087
0.0146094
0.0146102
0.014611
0.0146119
0.0146128
0.0146138
0.0146148
0.0146159
0.0146171
0.0146183
0.0146196
0.014621
0.0146224
0.0146239
0.0146254
0.0146271
0.0146288
0.0146306
0.0146325
0.0146345
0.0146366
0.0146388
0.0146411
0.0146435
0.0146461
0.0146488
0.0146517
0.0146549
0.0146582
0.0146621
0.0146601
0.0268231
0.0268205
0.0268177
0.0268129
0.0268062
0.0267966
0.0267861
0.0267754
0.0267658
0.0267582
0.0267515
0.0267445
0.0267363
0.0267267
0.0243714
0.0243428
0.024315
0.0242879
0.0242618
0.0242365
0.0242122
0.024189
0.0241667
0.0241449
0.024124
0.0241037
0.0240833
0.024063
0.0240428
0.0240227
0.0240028
0.0239834
0.0239648
0.0239472
0.0239304
0.0239146
0.0238995
0.0238854
0.0238723
0.0238602
0.0238494
0.0238401
0.0238323
0.0238264
0.0238222
0.0238207
0.0238212
0.0238236
0.0238282
0.0238348
0.0238433
0.0238537
0.0238663
0.0238811
0.0238981
0.0239173
0.0239388
0.0239624
0.0239876
0.0240143
0.0240422
0.0240712
0.0241021
0.0241356
0.024171
0.0242061
0.0242379
0.0242672
0.0242962
0.0243256
0.0243551
0.0243804
0.0243951
0.0243969
0.0243867
0.0243494
0.0242712
0.0241392
0.0239376
0.0236503
0.0232598
0.022744
0.0220875
0.0213029
0.0204172
0.0194783
0.0185676
0.0177948
0.017209
0.0167189
0.0162896
0.0159263
0.0156371
0.0154173
0.0152472
0.0151085
0.0149953
0.0149066
0.0148396
0.0147895
0.0147508
0.0147199
0.0146952
0.0146757
0.0146605
0.0146485
0.014639
0.0146311
0.0146247
0.0146193
0.014615
0.0146115
0.0146088
0.0146066
0.0146049
0.0146035
0.0146024
0.0146016
0.014601
0.0146006
0.0146003
0.0146001
0.0146
0.0146
0.0146
0.0146001
0.0146002
0.0146004
0.0146006
0.0146008
0.0146011
0.0146013
0.0146016
0.0146019
0.0146022
0.0146025
0.0146028
0.0146031
0.0146035
0.0146039
0.0146042
0.0146047
0.0146051
0.0146055
0.014606
0.0146066
0.0146071
0.0146077
0.0146083
0.0146089
0.0146096
0.0146103
0.014611
0.0146118
0.0146126
0.0146135
0.0146144
0.0146153
0.0146163
0.0146174
0.0146186
0.0146197
0.014621
0.0146224
0.0146238
0.0146253
0.0146269
0.0146285
0.0146303
0.0146321
0.014634
0.014636
0.0146381
0.0146403
0.0146426
0.0146449
0.0146474
0.0146501
0.0146529
0.0146558
0.0146589
0.0146622
0.0146657
0.0146694
0.0146734
0.0146776
0.014682
0.0146867
0.0146917
0.0146969
0.0147024
0.0147082
0.0147142
0.0147204
0.0147269
0.0147338
0.0147409
0.0147485
0.0147565
0.014765
0.0147741
0.0147838
0.0147941
0.0148052
0.0148168
0.0148313
0.0148261
0.0269522
0.0269428
0.0269348
0.0269269
0.0269183
0.0269083
0.0268972
0.0268853
0.0268736
0.0268629
0.0268539
0.0268463
0.0268393
0.0268321
0.0245807
0.0245494
0.0245188
0.0244889
0.02446
0.0244319
0.0244046
0.0243783
0.024353
0.0243281
0.0243039
0.02428
0.0242564
0.0242329
0.0242096
0.0241865
0.0241636
0.0241412
0.0241193
0.024098
0.0240775
0.0240576
0.0240385
0.0240203
0.0240031
0.0239869
0.023972
0.0239583
0.0239462
0.0239356
0.0239271
0.0239208
0.0239167
0.0239151
0.0239155
0.0239175
0.0239216
0.0239278
0.0239364
0.0239475
0.0239612
0.0239775
0.0239962
0.024017
0.0240401
0.0240655
0.0240933
0.0241234
0.0241562
0.0241912
0.0242274
0.024265
0.0243033
0.0243425
0.0243841
0.024429
0.0244763
0.0245239
0.024567
0.0246075
0.0246499
0.0246945
0.0247389
0.0247781
0.0248059
0.0248148
0.0248079
0.0247738
0.0246929
0.0245464
0.0243136
0.0239759
0.0235147
0.0229108
0.0221605
0.021289
0.0203368
0.0193686
0.0184762
0.0177531
0.0172105
0.0167512
0.0163465
0.0160015
0.015722
0.0155046
0.015336
0.0151983
0.015083
0.0149884
0.0149133
0.0148549
0.0148095
0.0147732
0.0147431
0.0147178
0.0146968
0.0146796
0.0146657
0.0146545
0.0146454
0.014638
0.0146319
0.0146271
0.0146233
0.0146205
0.0146185
0.0146171
0.0146162
0.0146157
0.0146155
0.0146155
0.0146157
0.014616
0.0146165
0.0146171
0.0146178
0.0146186
0.0146194
0.0146203
0.0146212
0.0146222
0.0146232
0.0146243
0.0146254
0.0146266
0.0146278
0.0146291
0.0146305
0.014632
0.0146336
0.0146352
0.014637
0.0146389
0.0146409
0.014643
0.0146452
0.0146475
0.0146499
0.0146525
0.0146551
0.0146579
0.0146608
0.0146639
0.0146672
0.0146706
0.0146742
0.014678
0.0146821
0.0146863
0.0146909
0.0146957
0.0147008
0.0147062
0.0147119
0.0147179
0.0147242
0.0147308
0.0147377
0.0147449
0.0147524
0.0147602
0.0147683
0.0147769
0.0147859
0.0147955
0.0148055
0.0148162
0.0148276
0.0148397
0.0148527
0.0148665
0.0148813
0.014897
0.0149137
0.0149313
0.0149499
0.0149694
0.0149899
0.0150112
0.0150333
0.0150562
0.0150801
0.0151048
0.0151305
0.0151572
0.0151851
0.0152146
0.0152459
0.0152795
0.0153151
0.0153618
0.0153546
0.0270599
0.0270478
0.0270372
0.0270284
0.0270204
0.0270126
0.0270044
0.0269956
0.0269863
0.0269769
0.0269681
0.0269604
0.0269537
0.0247849
0.0247517
0.0247191
0.0246872
0.024656
0.0246259
0.0245964
0.0245676
0.0245394
0.0245119
0.0244847
0.024458
0.0244315
0.0244052
0.0243791
0.0243532
0.0243276
0.0243023
0.0242774
0.0242529
0.0242289
0.0242055
0.0241828
0.0241609
0.0241399
0.0241199
0.024101
0.0240834
0.0240671
0.0240524
0.0240396
0.0240288
0.0240201
0.0240137
0.0240092
0.0240067
0.0240068
0.0240083
0.0240122
0.0240187
0.0240278
0.0240397
0.0240543
0.0240714
0.0240912
0.0241138
0.0241392
0.0241675
0.0241985
0.0242315
0.0242667
0.024304
0.0243432
0.0243845
0.0244286
0.0244746
0.0245214
0.0245689
0.0246172
0.0246674
0.0247213
0.0247794
0.0248395
0.0248996
0.0249599
0.0250218
0.0250851
0.025148
0.025208
0.025259
0.0252925
0.0253005
0.0252883
0.0252373
0.0251246
0.0249296
0.0246364
0.0242357
0.0237175
0.0230744
0.0223132
0.0214617
0.0205537
0.0196385
0.0187834
0.0180579
0.0175037
0.0170572
0.0166616
0.0163124
0.016015
0.0157704
0.015574
0.0154171
0.0152865
0.015173
0.0150744
0.014991
0.0149224
0.0148673
0.0148234
0.0147881
0.0147591
0.0147352
0.0147159
0.0147007
0.0146892
0.0146806
0.0146743
0.0146699
0.0146669
0.0146651
0.0146645
0.0146646
0.0146654
0.0146667
0.0146686
0.0146708
0.0146732
0.0146759
0.0146787
0.0146818
0.0146849
0.0146882
0.0146917
0.0146954
0.0146992
0.0147032
0.0147075
0.014712
0.0147168
0.014722
0.0147274
0.0147332
0.0147394
0.0147459
0.0147528
0.0147601
0.0147677
0.0147757
0.014784
0.0147927
0.0148018
0.0148114
0.0148214
0.0148319
0.014843
0.0148547
0.0148671
0.0148803
0.0148943
0.0149091
0.014925
0.0149418
0.0149597
0.0149787
0.0149988
0.01502
0.0150421
0.0150651
0.0150889
0.0151133
0.0151387
0.0151649
0.0151922
0.0152207
0.0152506
0.0152818
0.0153148
0.0153496
0.0153864
0.0154255
0.0154671
0.0155115
0.0155589
0.0156095
0.0156632
0.01572
0.0157797
0.0158417
0.0159053
0.01597
0.0160357
0.0161027
0.0161714
0.0162424
0.016316
0.0163932
0.0164734
0.0165591
0.0166453
0.0167524
0.0167716
0.0271704
0.0271603
0.0271506
0.0271419
0.0271342
0.0271272
0.0271206
0.0271139
0.0271069
0.0270995
0.027092
0.0270849
0.0270784
0.0249153
0.024882
0.0248493
0.0248171
0.0247856
0.0247547
0.0247243
0.0246943
0.0246648
0.0246356
0.0246066
0.0245779
0.0245494
0.024521
0.0244929
0.0244649
0.0244373
0.0244099
0.0243829
0.0243563
0.0243303
0.024305
0.0242805
0.0242569
0.0242344
0.0242131
0.0241931
0.0241745
0.0241576
0.0241426
0.0241294
0.0241182
0.024109
0.0241017
0.0240965
0.0240933
0.0240931
0.0240944
0.0240984
0.0241052
0.0241148
0.0241272
0.0241426
0.024161
0.0241825
0.024207
0.0242341
0.0242637
0.024296
0.0243304
0.0243669
0.024406
0.0244475
0.0244907
0.0245357
0.0245822
0.0246305
0.0246813
0.024735
0.0247911
0.0248494
0.0249106
0.0249757
0.0250439
0.0251133
0.0251831
0.0252541
0.0253268
0.0254009
0.0254756
0.0255521
0.0256244
0.0256809
0.0257154
0.0257237
0.025714
0.025672
0.0255823
0.0254353
0.0252209
0.0249291
0.0245478
0.0240708
0.0234961
0.0228263
0.0220792
0.02128
0.020458
0.0196511
0.0189015
0.0182489
0.0177209
0.0173052
0.0169348
0.0165928
0.0162839
0.0160132
0.0157832
0.0155932
0.0154388
0.0153105
0.0152001
0.015106
0.0150286
0.0149675
0.0149208
0.0148862
0.0148607
0.014842
0.0148285
0.0148199
0.0148154
0.0148143
0.0148154
0.0148185
0.0148235
0.0148298
0.0148371
0.0148452
0.0148541
0.0148634
0.0148733
0.0148836
0.0148945
0.0149059
0.0149178
0.0149304
0.0149436
0.0149577
0.0149727
0.0149887
0.0150058
0.0150241
0.0150437
0.0150645
0.0150866
0.0151098
0.015134
0.0151591
0.0151851
0.0152121
0.01524
0.015269
0.0152992
0.0153306
0.0153633
0.0153975
0.0154334
0.0154712
0.015511
0.0155532
0.0155979
0.0156453
0.0156957
0.015749
0.0158054
0.0158646
0.0159264
0.0159902
0.0160553
0.0161219
0.0161899
0.0162595
0.0163306
0.0164035
0.0164784
0.0165557
0.0166359
0.0167194
0.0168069
0.016899
0.016996
0.0170982
0.0172057
0.0173182
0.0174356
0.0175581
0.0176863
0.0178195
0.0179539
0.0180877
0.0182206
0.01835
0.018475
0.0185906
0.0186979
0.0187934
0.0188825
0.0189648
0.0190585
0.0190876
0.0272804
0.0272725
0.0272647
0.0272576
0.027251
0.027245
0.0272394
0.0272339
0.0272282
0.0272225
0.0272167
0.0272111
0.0251066
0.0250719
0.0250377
0.0250039
0.0249707
0.0249379
0.0249055
0.0248736
0.024842
0.0248107
0.0247796
0.0247488
0.0247181
0.0246875
0.0246571
0.0246267
0.0245965
0.0245664
0.0245366
0.0245071
0.0244781
0.0244497
0.024422
0.0243952
0.0243693
0.0243445
0.0243209
0.0242987
0.0242779
0.0242587
0.0242413
0.0242255
0.0242115
0.0241993
0.024189
0.0241808
0.0241748
0.0241709
0.0241702
0.0241714
0.0241753
0.0241822
0.024192
0.024205
0.0242211
0.02424
0.0242618
0.0242861
0.0243131
0.0243428
0.0243752
0.0244103
0.0244478
0.024488
0.0245306
0.0245751
0.0246217
0.0246707
0.0247221
0.0247752
0.0248309
0.0248901
0.0249525
0.0250165
0.0250812
0.0251476
0.0252172
0.0252903
0.0253662
0.0254435
0.0255201
0.0255929
0.0256608
0.0257273
0.0257937
0.025859
0.0259124
0.0259521
0.0259779
0.0259845
0.025976
0.0259432
0.0258781
0.0257764
0.0256331
0.0254419
0.025197
0.0248948
0.0245329
0.0241071
0.023612
0.0230508
0.0224283
0.021755
0.0210408
0.0203016
0.0195633
0.0188601
0.01823
0.0177057
0.0172894
0.0169217
0.0165874
0.0162923
0.0160415
0.0158365
0.0156751
0.0155518
0.0154572
0.0153832
0.0153273
0.0152882
0.0152643
0.0152532
0.0152523
0.0152572
0.0152688
0.0152855
0.0153058
0.0153288
0.0153539
0.0153806
0.0154086
0.015438
0.0154686
0.0155003
0.0155334
0.015568
0.0156043
0.0156426
0.0156832
0.0157262
0.015772
0.0158208
0.0158728
0.015928
0.0159864
0.0160475
0.0161104
0.0161751
0.0162414
0.0163094
0.016379
0.0164502
0.016523
0.0165976
0.0166743
0.0167531
0.0168344
0.0169185
0.0170058
0.0170967
0.0171918
0.0172916
0.0173967
0.0175074
0.0176239
0.0177463
0.017872
0.0179969
0.0181196
0.0182397
0.0183573
0.0184721
0.0185839
0.0186927
0.018798
0.0188989
0.0189946
0.0190841
0.0191667
0.0192422
0.0193116
0.0193764
0.0194385
0.0194996
0.0195603
0.0196193
0.0196748
0.0197245
0.0197648
0.0197934
0.0198124
0.0198241
0.019834
0.0198447
0.0198622
0.0198871
0.0199233
0.0199711
0.0199878
0.0274062
0.0274
0.0273938
0.0273877
0.0273821
0.0273768
0.027372
0.0273675
0.0273632
0.0273589
0.0252906
0.0252547
0.0252192
0.025184
0.0251492
0.0251148
0.0250808
0.0250471
0.0250138
0.0249807
0.0249478
0.024915
0.0248823
0.0248496
0.024817
0.0247843
0.0247517
0.0247191
0.0246866
0.0246544
0.0246225
0.0245912
0.0245605
0.0245306
0.0245015
0.0244734
0.0244464
0.0244206
0.0243961
0.0243729
0.0243511
0.0243309
0.0243122
0.024295
0.0242796
0.024266
0.0242543
0.0242448
0.0242378
0.0242329
0.0242313
0.024232
0.0242351
0.0242415
0.0242507
0.0242626
0.0242774
0.0242952
0.0243162
0.0243407
0.0243687
0.0243995
0.0244327
0.0244683
0.0245064
0.0245469
0.0245896
0.0246336
0.0246795
0.0247288
0.0247816
0.0248363
0.0248914
0.0249476
0.025007
0.02507
0.0251364
0.0252054
0.0252757
0.0253461
0.0254163
0.0254862
0.0255574
0.0256295
0.0256992
0.0257626
0.0258153
0.0258583
0.0258941