/*--------------------------------*- C++ -*----------------------------------*\
| =========                 |                                                 |
| \\      /  F ield         | OpenFOAM: The Open Source CFD Toolbox           |
|  \\    /   O peration     | Version:  v1706                                 |
|   \\  /    A nd           | Web:      www.OpenFOAM.com                      |
|    \\/     M anipulation  |                                                 |
\*---------------------------------------------------------------------------*/
FoamFile
{
    version     2.0;
    format      ascii;
    class       volScalarField;
    location    "3.5e-05";
    object      Mach;
}
// * * * * * * * * * * * * * * * * * * * * * * * * * * * * * * * * * * * * * //

dimensions      [0 0 0 0 0 0 0];


internalField   nonuniform List<scalar> 
30104
(
3.98952
3.98871
3.98777
3.98669
3.98545
3.98403
3.98242
3.98059
3.97854
3.97623
3.97363
3.97069
3.96737
3.96362
3.95937
3.95459
3.94924
3.5251
3.54855
3.57299
3.59776
3.61917
3.63604
3.65187
3.66805
3.68492
3.7025
3.72075
3.73957
3.75884
3.77849
3.79834
3.81795
3.83739
3.85707
3.87546
3.89078
3.90359
3.91501
3.92546
3.93512
3.94397
3.95182
3.95846
3.96396
3.9686
3.97264
3.9762
3.97931
3.98204
3.98442
3.98646
3.98813
3.98947
3.99055
3.99143
3.99213
3.99267
3.9931
3.99346
3.99375
3.994
3.9942
3.99436
3.9945
3.99461
3.9947
3.99477
3.99482
3.99485
3.99488
3.9949
3.99492
3.99493
3.99494
3.99495
3.99496
3.99496
3.99497
3.99497
3.99497
3.99497
3.99497
3.99498
3.99498
3.99498
3.99498
3.99498
3.99498
3.99498
3.99498
3.99498
3.99498
3.99498
3.99498
3.99498
3.99498
3.99498
3.99498
3.99498
3.99498
3.99498
3.99498
3.99498
3.99498
3.99498
3.99498
3.99498
3.99498
3.99498
3.99498
3.99498
3.99498
3.99498
3.99498
3.99498
3.99498
3.99498
3.99498
3.99498
3.99498
3.99498
3.99498
3.99498
3.99498
3.99498
3.99498
3.99498
3.99498
3.99498
3.99498
3.99498
3.99498
3.99498
3.99498
3.99498
3.99498
3.99498
3.99498
3.99498
3.99498
3.99498
3.99498
3.99498
3.99498
3.99498
3.99498
3.99498
3.99498
3.99498
3.99498
3.99498
3.99498
3.99498
3.99498
3.99498
3.99498
3.99498
3.99498
3.99498
3.99498
3.99498
3.99498
3.99498
3.99498
3.99498
3.99498
3.99498
3.99498
3.99498
3.99498
3.99498
3.99498
3.99498
3.99498
3.99498
3.99498
3.99498
3.99498
3.99498
3.99498
3.99498
3.99498
3.99498
3.99498
3.99498
3.99498
3.99498
3.99498
3.99498
3.99498
3.99498
3.99498
3.99498
3.99498
3.99498
3.99498
3.99498
3.99498
3.99498
3.99498
3.99498
3.99498
3.99498
3.99498
3.99498
3.99498
3.99498
3.99498
3.99498
3.96072
3.95564
3.94986
3.94329
3.93583
3.92736
3.91778
3.90698
3.89488
3.8813
3.866
3.84874
3.82933
3.8077
3.7839
3.75807
3.73038
2.70533
2.71618
2.72868
2.7434
2.76139
2.78331
2.80876
2.83737
2.86901
2.90373
2.94166
2.98299
3.02781
3.07618
3.12824
3.18413
3.24386
3.30671
3.36969
3.42617
3.47471
3.52057
3.56614
3.61192
3.65759
3.70256
3.74534
3.78311
3.81444
3.84078
3.86383
3.88441
3.90265
3.91837
3.93154
3.9424
3.95144
3.95909
3.96561
3.9712
3.97592
3.97981
3.98291
3.98538
3.98734
3.98891
3.99016
3.99115
3.99194
3.99258
3.99309
3.9935
3.99384
3.99411
3.99432
3.99448
3.9946
3.99469
3.99476
3.99481
3.99485
3.99488
3.99491
3.99493
3.99494
3.99495
3.99496
3.99496
3.99497
3.99497
3.99497
3.99497
3.99497
3.99498
3.99498
3.99498
3.99498
3.99498
3.99498
3.99498
3.99498
3.99498
3.99498
3.99498
3.99498
3.99498
3.99498
3.99498
3.99498
3.99498
3.99498
3.99498
3.99498
3.99498
3.99498
3.99498
3.99498
3.99498
3.99498
3.99498
3.99498
3.99498
3.99498
3.99498
3.99498
3.99498
3.99498
3.99498
3.99498
3.99498
3.99498
3.99498
3.99498
3.99498
3.99498
3.99498
3.99498
3.99498
3.99498
3.99498
3.99498
3.99498
3.99498
3.99498
3.99498
3.99498
3.99498
3.99498
3.99498
3.99498
3.99498
3.99498
3.99498
3.99498
3.99498
3.99498
3.99498
3.99498
3.99498
3.99498
3.99498
3.99498
3.99498
3.99498
3.99498
3.99498
3.99498
3.99498
3.99498
3.99498
3.99498
3.99498
3.99498
3.99498
3.99498
3.99498
3.99498
3.99498
3.99498
3.99498
3.99498
3.99498
3.99498
3.99498
3.99498
3.99498
3.99498
3.99498
3.99498
3.99498
3.99498
3.99498
3.99498
3.99498
3.99498
3.99498
3.99498
3.99498
3.99498
3.99498
3.99498
3.99498
3.99498
3.99498
3.99498
3.99498
3.99498
3.99498
3.99498
3.99498
3.99498
3.99498
3.99498
3.87457
3.85751
3.83824
3.81646
3.79198
3.76471
3.73466
3.70195
3.66656
3.62837
3.58681
3.54112
3.49098
3.4367
3.37908
3.31914
2.60924
2.61298
2.61672
2.62065
2.62498
2.6295
2.63437
2.63981
2.64583
2.65241
2.65962
2.66795
2.67819
2.69046
2.705
2.72228
2.74295
2.76779
2.79771
2.8341
2.87733
2.92657
2.98178
3.04344
3.11187
3.18659
3.26546
3.34381
3.41343
3.47451
3.53219
3.58848
3.64348
3.6962
3.74419
3.78489
3.81849
3.84712
3.87212
3.89385
3.91229
3.92753
3.93995
3.95013
3.95859
3.96568
3.97165
3.97658
3.98054
3.98366
3.98611
3.98803
3.98955
3.99074
3.99168
3.99242
3.993
3.99346
3.99383
3.99412
3.99434
3.9945
3.99463
3.99472
3.99478
3.99483
3.99487
3.9949
3.99492
3.99494
3.99495
3.99496
3.99496
3.99497
3.99497
3.99497
3.99497
3.99497
3.99498
3.99498
3.99498
3.99498
3.99498
3.99498
3.99498
3.99498
3.99498
3.99498
3.99498
3.99498
3.99498
3.99498
3.99498
3.99498
3.99498
3.99498
3.99498
3.99498
3.99498
3.99498
3.99498
3.99498
3.99498
3.99498
3.99498
3.99498
3.99498
3.99498
3.99498
3.99498
3.99498
3.99498
3.99498
3.99498
3.99498
3.99498
3.99498
3.99498
3.99498
3.99498
3.99498
3.99498
3.99498
3.99498
3.99498
3.99498
3.99498
3.99498
3.99498
3.99498
3.99498
3.99498
3.99498
3.99498
3.99498
3.99498
3.99498
3.99498
3.99498
3.99498
3.99498
3.99498
3.99498
3.99498
3.99498
3.99498
3.99498
3.99498
3.99498
3.99498
3.99498
3.99498
3.99498
3.99498
3.99498
3.99498
3.99498
3.99498
3.99498
3.99498
3.99498
3.99498
3.99498
3.99498
3.99498
3.99498
3.99498
3.99498
3.99497
3.99497
3.99497
3.99497
3.99497
3.99497
3.99497
3.99497
3.99497
3.99497
3.99497
3.99497
3.99497
3.99497
3.99497
3.99497
3.99497
3.99497
3.99497
3.99497
3.99497
3.99497
3.99497
3.99497
3.99497
3.63747
3.59427
3.54709
3.49531
3.43887
3.37823
3.31429
3.24806
3.18071
3.11196
3.04071
2.96544
2.88721
2.80804
2.73007
2.65512
2.60856
2.61072
2.61283
2.61503
2.61734
2.61977
2.62242
2.62528
2.62826
2.63144
2.6348
2.63871
2.6437
2.64943
2.65545
2.66156
2.6678
2.67431
2.68126
2.68893
2.69766
2.70752
2.719
2.7329
2.75011
2.77155
2.79807
2.83088
2.87194
2.92177
2.98014
3.04738
3.12341
3.20669
3.29327
3.37595
3.44703
3.51178
3.57386
3.63406
3.69134
3.74298
3.78634
3.82183
3.8518
3.87763
3.89967
3.91803
3.933
3.94511
3.95496
3.9631
3.96987
3.97544
3.9799
3.98336
3.98602
3.98807
3.98966
3.99089
3.99185
3.9926
3.99317
3.99362
3.99398
3.99425
3.99444
3.99459
3.99469
3.99476
3.99482
3.99486
3.99489
3.99492
3.99493
3.99495
3.99495
3.99496
3.99496
3.99497
3.99497
3.99497
3.99497
3.99497
3.99497
3.99497
3.99498
3.99498
3.99498
3.99498
3.99498
3.99498
3.99498
3.99498
3.99498
3.99498
3.99498
3.99498
3.99498
3.99498
3.99498
3.99498
3.99498
3.99498
3.99498
3.99498
3.99498
3.99498
3.99498
3.99498
3.99498
3.99498
3.99498
3.99498
3.99498
3.99498
3.99498
3.99498
3.99498
3.99498
3.99498
3.99498
3.99498
3.99498
3.99498
3.99498
3.99498
3.99498
3.99498
3.99498
3.99498
3.99497
3.99497
3.99497
3.99497
3.99497
3.99497
3.99497
3.99497
3.99497
3.99497
3.99497
3.99497
3.99497
3.99497
3.99497
3.99497
3.99497
3.99497
3.99497
3.99497
3.99497
3.99497
3.99497
3.99497
3.99497
3.99497
3.99497
3.99497
3.99497
3.99497
3.99497
3.99497
3.99497
3.99497
3.99497
3.99497
3.99497
3.99497
3.99497
3.99497
3.99497
3.99497
3.99497
3.99496
3.99496
3.99496
3.99496
3.99496
3.99496
3.99496
3.99496
3.99496
3.99496
3.99496
3.99496
3.99496
3.99496
3.99496
3.99495
3.99495
3.99495
3.99495
3.14814
3.07462
2.99817
2.9181
2.83578
2.75332
2.67286
2.59617
2.52464
2.45925
2.40102
2.3505
2.30723
2.27055
2.23972
2.5959
2.59911
2.60225
2.60538
2.60859
2.61198
2.61564
2.61976
2.62447
2.62962
2.63554
2.64191
2.64701
2.65133
2.65535
2.65916
2.66295
2.66683
2.67035
2.67379
2.67772
2.68207
2.68641
2.69048
2.69432
2.69819
2.70247
2.70775
2.71445
2.72274
2.73323
2.74693
2.76486
2.78791
2.81727
2.85494
2.90304
2.96163
3.03081
3.11032
3.19821
3.28996
3.37778
3.4532
3.52171
3.58727
3.65051
3.70968
3.76142
3.8038
3.83844
3.86765
3.89244
3.91308
3.92989
3.94337
3.95415
3.9629
3.97008
3.97593
3.98054
3.98404
3.98667
3.98867
3.99019
3.99136
3.99225
3.99294
3.99346
3.99386
3.99417
3.99439
3.99455
3.99466
3.99474
3.9948
3.99484
3.99488
3.9949
3.99492
3.99494
3.99495
3.99495
3.99496
3.99496
3.99496
3.99497
3.99497
3.99497
3.99497
3.99497
3.99497
3.99497
3.99497
3.99497
3.99497
3.99497
3.99497
3.99497
3.99497
3.99497
3.99497
3.99497
3.99497
3.99497
3.99497
3.99497
3.99497
3.99497
3.99497
3.99497
3.99497
3.99497
3.99497
3.99497
3.99497
3.99497
3.99497
3.99497
3.99497
3.99497
3.99497
3.99497
3.99497
3.99497
3.99497
3.99497
3.99497
3.99497
3.99497
3.99497
3.99497
3.99497
3.99497
3.99497
3.99497
3.99497
3.99497
3.99497
3.99497
3.99496
3.99496
3.99496
3.99496
3.99496
3.99496
3.99496
3.99496
3.99496
3.99496
3.99496
3.99496
3.99496
3.99496
3.99496
3.99495
3.99495
3.99495
3.99495
3.99495
3.99495
3.99495
3.99495
3.99495
3.99495
3.99494
3.99494
3.99494
3.99494
3.99494
3.99494
3.99493
3.99493
3.99493
3.99493
3.99493
3.99492
3.99492
3.99492
3.99492
3.99492
3.99491
3.99491
3.99491
3.9949
3.9949
3.9949
3.99489
3.99489
3.99489
3.99488
3.99488
3.99488
2.58015
2.50578
2.43782
2.37754
2.32527
2.28054
2.24271
2.21103
2.18469
2.16291
2.14497
2.13033
2.11857
2.10927
2.10202
2.09649
2.58792
2.59156
2.59504
2.59841
2.60176
2.60521
2.60889
2.61299
2.61755
2.62246
2.62767
2.63294
2.63802
2.64304
2.6477
2.65247
2.65712
2.6617
2.66653
2.67134
2.67512
2.67819
2.68073
2.68288
2.68505
2.68736
2.68888
2.69061
2.69357
2.69668
2.69934
2.70151
2.70355
2.70604
2.70964
2.71472
2.72159
2.73078
2.74316
2.75981
2.78198
2.81135
2.85041
2.9017
2.96522
3.04067
3.12716
3.22177
3.31867
3.40798
3.48485
3.55608
3.62453
3.6894
3.74731
3.79517
3.83349
3.86508
3.89151
3.91334
3.93099
3.945
3.95604
3.9649
3.97209
3.9778
3.98216
3.98538
3.98776
3.98954
3.99089
3.99192
3.99269
3.99328
3.99372
3.99405
3.99429
3.99447
3.99459
3.99468
3.99475
3.9948
3.99484
3.99487
3.99489
3.99491
3.99492
3.99493
3.99494
3.99495
3.99495
3.99495
3.99496
3.99496
3.99496
3.99496
3.99496
3.99496
3.99496
3.99496
3.99496
3.99496
3.99496
3.99496
3.99496
3.99496
3.99496
3.99496
3.99496
3.99496
3.99496
3.99496
3.99496
3.99496
3.99496
3.99496
3.99496
3.99496
3.99496
3.99496
3.99496
3.99495
3.99495
3.99495
3.99495
3.99495
3.99495
3.99495
3.99495
3.99495
3.99495
3.99495
3.99495
3.99494
3.99494
3.99494
3.99494
3.99494
3.99494
3.99494
3.99493
3.99493
3.99493
3.99493
3.99493
3.99492
3.99492
3.99492
3.99492
3.99491
3.99491
3.99491
3.99491
3.9949
3.9949
3.9949
3.99489
3.99489
3.99489
3.99488
3.99488
3.99488
3.99487
3.99487
3.99486
3.99486
3.99485
3.99485
3.99484
3.99483
3.99483
3.99482
3.99481
3.99481
3.9948
3.99479
3.99478
3.99477
3.99477
3.99476
3.99475
3.99474
3.99472
3.99471
3.9947
3.99469
3.99468
3.99466
3.99465
3.99463
3.99462
3.9946
3.99462
2.17002
2.14608
2.12645
2.11051
2.09772
2.08757
2.07962
2.07349
2.06889
2.06543
2.06273
2.06051
2.05878
2.57805
2.58212
2.58611
2.59004
2.59396
2.59791
2.60193
2.6063
2.61093
2.61554
2.62032
2.62501
2.62967
2.63437
2.639
2.64356
2.64799
2.65237
2.65667
2.66064
2.66447
2.66818
2.67178
2.67513
2.67831
2.68131
2.6841
2.68665
2.68886
2.69066
2.692
2.69299
2.69407
2.69471
2.69542
2.69691
2.69805
2.69849
2.69853
2.699
2.70049
2.70337
2.70804
2.71484
2.72425
2.73728
2.75541
2.78043
2.81467
2.86114
2.92154
2.99527
3.08166
3.17869
3.28143
3.38098
3.46639
3.54319
3.61622
3.68527
3.74678
3.79731
3.83725
3.86967
3.89642
3.91826
3.93569
3.9493
3.9599
3.96834
3.97506
3.98021
3.984
3.98673
3.98873
3.99024
3.99139
3.99226
3.99291
3.9934
3.99378
3.99407
3.99428
3.99443
3.99454
3.99463
3.9947
3.99475
3.99479
3.99482
3.99485
3.99487
3.99488
3.9949
3.99491
3.99491
3.99492
3.99492
3.99492
3.99493
3.99493
3.99493
3.99493
3.99493
3.99493
3.99493
3.99493
3.99493
3.99492
3.99492
3.99492
3.99492
3.99492
3.99492
3.99492
3.99491
3.99491
3.99491
3.99491
3.99491
3.9949
3.9949
3.9949
3.9949
3.99489
3.99489
3.99489
3.99489
3.99488
3.99488
3.99488
3.99487
3.99487
3.99487
3.99486
3.99486
3.99485
3.99485
3.99484
3.99484
3.99483
3.99482
3.99482
3.99481
3.9948
3.9948
3.99479
3.99478
3.99477
3.99476
3.99475
3.99474
3.99473
3.99472
3.99471
3.9947
3.99469
3.99468
3.99466
3.99465
3.99463
3.99462
3.9946
3.99459
3.99457
3.99455
3.99453
3.99451
3.99449
3.99447
3.99445
3.99442
3.9944
3.99437
3.99434
3.99431
3.99428
3.99425
3.99422
3.99418
3.99414
3.9941
3.99406
3.99402
3.99397
3.99392
3.99387
3.99382
3.99376
3.99371
3.99365
3.99358
3.99363
2.04924
2.04501
2.04174
2.0391
2.03704
2.03546
2.03433
2.0337
2.03378
2.03432
2.03503
2.03567
2.03642
2.56515
2.56965
2.57415
2.57865
2.58316
2.58771
2.59235
2.59706
2.60175
2.60645
2.61114
2.61574
2.62031
2.62485
2.62932
2.63369
2.63795
2.64206
2.64599
2.64979
2.65342
2.65698
2.66047
2.66382
2.66703
2.67024
2.67368
2.67712
2.68038
2.68329
2.68578
2.68789
2.68977
2.69137
2.69252
2.69316
2.69325
2.69288
2.69244
2.69188
2.69115
2.69107
2.69084
2.69006
2.68915
2.68893
2.68953
2.69137
2.69497
2.70064
2.70863
2.71995
2.73629
2.75962
2.79228
2.8372
2.89707
2.97162
3.06014
3.16087
3.26887
3.37473
3.46584
3.54704
3.62391
3.69576
3.75834
3.80854
3.84764
3.87913
3.90485
3.9256
3.94187
3.95431
3.96392
3.9715
3.97737
3.98174
3.98489
3.98718
3.98891
3.99025
3.99129
3.99209
3.9927
3.99317
3.99355
3.99384
3.99406
3.99423
3.99435
3.99445
3.99453
3.9946
3.99465
3.99469
3.99472
3.99475
3.99477
3.99479
3.9948
3.99481
3.99481
3.99481
3.99482
3.99482
3.99481
3.99481
3.99481
3.9948
3.9948
3.9948
3.99479
3.99479
3.99478
3.99477
3.99477
3.99476
3.99476
3.99475
3.99474
3.99473
3.99473
3.99472
3.99471
3.9947
3.99469
3.99468
3.99467
3.99466
3.99465
3.99463
3.99462
3.99461
3.99459
3.99458
3.99456
3.99455
3.99453
3.99451
3.99449
3.99447
3.99445
3.99442
3.9944
3.99437
3.99435
3.99432
3.99429
3.99426
3.99423
3.99419
3.99416
3.99412
3.99409
3.99405
3.994
3.99396
3.99391
3.99387
3.99382
3.99376
3.99371
3.99365
3.99358
3.99352
3.99345
3.99337
3.99329
3.99321
3.99313
3.99304
3.99294
3.99284
3.99274
3.99263
3.99252
3.9924
3.99227
3.99214
3.992
3.99186
3.99171
3.99155
3.99138
3.9912
3.99102
3.99082
3.99061
3.99039
3.99016
3.98991
3.99007
2.01272
2.01231
2.01258
2.01305
2.01355
2.01409
2.01476
2.01513
2.01562
2.01614
2.01673
2.01773
2.01916
2.02042
2.54947
2.55445
2.5595
2.56451
2.56947
2.57443
2.5794
2.58437
2.58933
2.59424
2.59904
2.60368
2.60824
2.61283
2.6173
2.62166
2.62593
2.63006
2.63404
2.63787
2.64156
2.64516
2.6487
2.65218
2.65566
2.65924
2.6629
2.66646
2.66981
2.67285
2.67566
2.67842
2.68114
2.68371
2.68595
2.68774
2.68909
2.6901
2.69071
2.69087
2.69062
2.69
2.68902
2.68776
2.68637
2.68484
2.68329
2.68216
2.68104
2.67973
2.67857
2.67813
2.67866
2.68007
2.68291
2.68761
2.69455
2.70486
2.72043
2.74336
2.77612
2.82185
2.88357
2.9614
3.05476
3.16153
3.27562
3.38579
3.47929
3.56327
3.64262
3.715
3.7757
3.82282
3.85912
3.88826
3.91191
3.93071
3.94516
3.95614
3.96472
3.97156
3.9769
3.98093
3.98391
3.98613
3.98785
3.98921
3.9903
3.99116
3.99184
3.99238
3.99282
3.99317
3.99347
3.9937
3.99389
3.99403
3.99414
3.99423
3.99429
3.99434
3.99438
3.99441
3.99442
3.99443
3.99444
3.99444
3.99443
3.99442
3.99441
3.9944
3.99438
3.99437
3.99435
3.99433
3.99431
3.99429
3.99427
3.99425
3.99422
3.9942
3.99417
3.99415
3.99412
3.99409
3.99406
3.99403
3.99399
3.99395
3.99391
3.99387
3.99383
3.99379
3.99374
3.99369
3.99364
3.99358
3.99352
3.99346
3.9934
3.99333
3.99325
3.99318
3.9931
3.99301
3.99292
3.99282
3.99272
3.99262
3.99251
3.99239
3.99227
3.99214
3.992
3.99186
3.99172
3.99156
3.9914
3.99124
3.99106
3.99088
3.99068
3.99048
3.99026
3.99003
3.98979
3.98954
3.98927
3.98899
3.98869
3.98838
3.98804
3.9877
3.98733
3.98695
3.98654
3.98612
3.98568
3.98522
3.98473
3.98422
3.98367
3.98308
3.98246
3.9818
3.9811
3.98037
3.97959
3.97876
3.97791
3.97689
3.97733
1.99384
1.99431
1.99481
1.99556
1.99686
1.99797
1.99941
2.00092
2.00238
2.00343
2.00421
2.00512
2.00624
2.00751
2.53173
2.53717
2.54253
2.54784
2.55313
2.55841
2.56367
2.5689
2.57405
2.57908
2.58408
2.58892
2.59362
2.59824
2.60278
2.60725
2.61165
2.61594
2.62011
2.62415
2.62808
2.63194
2.63577
2.63961
2.6435
2.64745
2.65135
2.65511
2.65868
2.6621
2.66545
2.66874
2.67197
2.67494
2.67753
2.67973
2.68161
2.68322
2.68463
2.68579
2.68665
2.68718
2.68739
2.6873
2.68697
2.6861
2.68478
2.68323
2.68152
2.67975
2.67787
2.67581
2.67349
2.67161
2.66998
2.66851
2.66731
2.6665
2.66633
2.66698
2.66841
2.67152
2.67721
2.68686
2.70256
2.72654
2.76127
2.81004
2.87597
2.95939
3.05986
3.17412
3.29392
3.40528
3.49803
3.58215
3.66037
3.72914
3.78473
3.82708
3.85992
3.88675
3.90884
3.92663
3.94055
3.95131
3.95981
3.96671
3.9723
3.97671
3.98013
3.98275
3.9848
3.98645
3.98781
3.98895
3.98988
3.99065
3.99126
3.99176
3.99216
3.99247
3.99272
3.99291
3.99305
3.99314
3.99319
3.99322
3.99323
3.99322
3.9932
3.99317
3.99313
3.99308
3.99303
3.99297
3.99291
3.99285
3.99278
3.99271
3.99263
3.99255
3.99247
3.99238
3.99229
3.99219
3.99209
3.99198
3.99187
3.99175
3.99162
3.99148
3.99134
3.99119
3.99103
3.99086
3.99068
3.9905
3.9903
3.9901
3.98988
3.98966
3.98942
3.98917
3.9889
3.98862
3.98833
3.98802
3.98769
3.98734
3.98698
3.9866
3.98619
3.98577
3.98533
3.98486
3.98438
3.98387
3.98333
3.98277
3.98218
3.98156
3.98091
3.98022
3.97949
3.97871
3.97789
3.97701
3.97608
3.97509
3.97405
3.97294
3.97177
3.97054
3.96924
3.96787
3.96644
3.96494
3.96337
3.96173
3.96002
3.95824
3.95637
3.95441
3.95236
3.95019
3.94789
3.94544
3.94283
3.94001
3.93709
3.93346
3.9345
1.98011
1.98135
1.9822
1.98306
1.9841
1.98527
1.98659
1.988
1.98937
1.99069
1.99184
1.99284
1.9938
1.99483
2.51239
2.5181
2.52372
2.5293
2.53483
2.54032
2.54575
2.55119
2.55654
2.56175
2.56686
2.57184
2.57671
2.58148
2.58618
2.59084
2.59543
2.59994
2.60436
2.60868
2.61292
2.61713
2.62134
2.6256
2.6299
2.6342
2.63843
2.64254
2.64655
2.6505
2.65443
2.65829
2.66198
2.66535
2.6684
2.6712
2.67376
2.6761
2.67819
2.67995
2.68137
2.68248
2.68328
2.68378
2.6839
2.68372
2.68335
2.68282
2.68209
2.68111
2.68
2.67844
2.67645
2.67432
2.67221
2.67026
2.66839
2.66619
2.66327
2.6606
2.65789
2.65508
2.65241
2.65
2.64799
2.64665
2.646
2.64728
2.65201
2.66179
2.67869
2.70491
2.74312
2.79685
2.86864
2.95829
3.06443
3.18179
3.30032
3.40628
3.49328
3.57249
3.64626
3.71161
3.76561
3.8078
3.84053
3.86733
3.8899
3.90871
3.92405
3.93637
3.94623
3.95428
3.96106
3.96682
3.97165
3.97559
3.97873
3.9812
3.98314
3.98468
3.98593
3.98692
3.98769
3.98827
3.9887
3.98898
3.98917
3.98928
3.98931
3.98928
3.98921
3.9891
3.98896
3.9888
3.98861
3.98841
3.98819
3.98796
3.98772
3.98747
3.98721
3.98693
3.98664
3.98633
3.98601
3.98567
3.98531
3.98493
3.98453
3.9841
3.98365
3.98317
3.98267
3.98214
3.98158
3.98099
3.98038
3.97973
3.97905
3.97833
3.97758
3.97678
3.97594
3.97505
3.9741
3.9731
3.97204
3.97091
3.96972
3.96845
3.96711
3.9657
3.96421
3.96264
3.961
3.95928
3.9575
3.95564
3.95371
3.95169
3.94959
3.94738
3.94505
3.94261
3.94002
3.93729
3.9344
3.93133
3.92807
3.9246
3.92091
3.91699
3.91283
3.90843
3.9038
3.89896
3.89392
3.88869
3.88328
3.87766
3.87178
3.8656
3.85909
3.85219
3.84494
3.83726
3.82921
3.82059
3.8118
3.80052
3.80114
1.96735
1.96867
1.9699
1.97094
1.97189
1.97286
1.97389
1.97502
1.97621
1.97744
1.97864
1.97971
1.98068
2.49188
2.4978
2.50362
2.50934
2.51505
2.52073
2.52633
2.53186
2.53731
2.54266
2.5479
2.55303
2.55808
2.56304
2.56795
2.57281
2.57763
2.58238
2.58707
2.59169
2.59628
2.60086
2.60547
2.61012
2.6148
2.61946
2.62406
2.6286
2.63309
2.63758
2.64205
2.64642
2.65062
2.65457
2.65829
2.6618
2.66509
2.66818
2.67094
2.67336
2.67546
2.67727
2.67876
2.67989
2.68062
2.68105
2.68124
2.68119
2.68088
2.68035
2.67957
2.67859
2.67754
2.67647
2.67527
2.67371
2.67182
2.66966
2.66722
2.66463
2.66193
2.65909
2.6558
2.65198
2.64779
2.64318
2.63818
2.63344
2.62886
2.62424
2.61985
2.61624
2.61373
2.61398
2.61853
2.62896
2.64699
2.67451
2.71414
2.76857
2.83924
2.92541
3.0256
3.13553
3.24754
3.35163
3.43814
3.51285
3.58283
3.64746
3.70443
3.75232
3.79107
3.8221
3.84795
3.8705
3.89015
3.90702
3.92122
3.93293
3.94247
3.95026
3.95675
3.96213
3.96649
3.96987
3.97239
3.9742
3.97546
3.9763
3.97682
3.97709
3.97712
3.97698
3.97671
3.97631
3.97582
3.97525
3.97462
3.97394
3.97321
3.97244
3.97163
3.97077
3.96988
3.96894
3.96795
3.9669
3.96579
3.96461
3.96336
3.96203
3.96062
3.9591
3.9575
3.9558
3.954
3.95212
3.95016
3.94811
3.94597
3.94373
3.9414
3.93896
3.93639
3.9337
3.93087
3.92789
3.92475
3.92142
3.9179
3.91417
3.91022
3.90604
3.90162
3.89696
3.89205
3.8869
3.88152
3.87592
3.87011
3.86409
3.85783
3.85132
3.84453
3.83744
3.83
3.82218
3.81392
3.80519
3.79594
3.78614
3.77575
3.76475
3.75312
3.74085
3.72795
3.71444
3.70038
3.68589
3.67112
3.65615
3.641
3.62563
3.60996
3.59392
3.57741
3.56034
3.54277
3.52402
3.50587
3.4827
3.47624
1.95452
1.9557
1.95687
1.95795
1.95891
1.95979
1.96065
1.96154
1.96249
1.9635
1.96454
1.96557
1.96653
2.48254
2.48842
2.49423
2.49999
2.50568
2.5113
2.51684
2.5223
2.52767
2.53296
2.53817
2.54333
2.54845
2.55352
2.55856
2.56356
2.56852
2.57344
2.57836
2.58329
2.58826
2.59328
2.59831
2.60333
2.60833
2.61331
2.61829
2.62327
2.62823
2.6331
2.63783
2.6424
2.64681
2.65104
2.65508
2.65886
2.66231
2.66551
2.66842
2.67103
2.6733
2.67518
2.67669
2.67786
2.67875
2.67935
2.67965
2.67964
2.67934
2.67886
2.67827
2.67743
2.67628
2.67499
2.67352
2.67175
2.66976
2.6676
2.66524
2.66256
2.6594
2.65573
2.65164
2.64718
2.64227
2.63701
2.63153
2.62573
2.61932
2.61225
2.60549
2.59915
2.59272
2.58634
2.58032
2.57505
2.5719
2.57196
2.57612
2.58583
2.60261
2.62802
2.6635
2.71053
2.77037
2.84269
2.92648
3.0198
3.11883
3.21831
3.31211
3.39408
3.46294
3.52766
3.59011
3.64869
3.70153
3.74717
3.78498
3.81558
3.84092
3.86266
3.88115
3.89647
3.90878
3.91835
3.92554
3.93084
3.93469
3.93736
3.93905
3.93981
3.93973
3.93917
3.93816
3.93676
3.93508
3.93316
3.93107
3.92883
3.92646
3.92397
3.92136
3.91863
3.91578
3.91279
3.90964
3.90631
3.90278
3.89903
3.89503
3.89079
3.88628
3.8815
3.87645
3.87112
3.86554
3.85973
3.85368
3.84741
3.84089
3.83411
3.82705
3.81969
3.81201
3.80398
3.79557
3.78673
3.77744
3.76765
3.75731
3.74639
3.73486
3.72268
3.70987
3.69646
3.68251
3.66813
3.65347
3.63859
3.62349
3.60814
3.59254
3.57665
3.56043
3.54383
3.52678
3.50919
3.49096
3.47199
3.45219
3.43147
3.40976
3.38704
3.36327
3.3385
3.31277
3.28619
3.25918
3.23265
3.20704
3.18236
3.15894
3.13628
3.11506
3.09381
3.07474
3.05473
3.03837
3.0191
3.01133
1.9421
1.94307
1.94404
1.94495
1.9458
1.94659
1.94736
1.94813
1.94894
1.94979
1.95066
1.95153
2.4607
2.46665
2.47253
2.47835
2.4841
2.48979
2.49542
2.50097
2.50646
2.5119
2.51728
2.52262
2.52792
2.5332
2.53845
2.54368
2.54889
2.55409
2.55931
2.56456
2.56986
2.5752
2.58056
2.58594
2.59133
2.59673
2.60216
2.6076
2.61301
2.61837
2.62364
2.6288
2.63385
2.63876
2.64348
2.64796
2.65218
2.65615
2.65982
2.66324
2.66633
2.66905
2.6714
2.67342
2.6751
2.67644
2.67742
2.67808
2.67843
2.67848
2.67822
2.67766
2.67679
2.67561
2.67417
2.67245
2.67055
2.6684
2.66583
2.66282
2.65956
2.65613
2.65233
2.64781
2.64277
2.63756
2.63216
2.6265
2.62047
2.61395
2.60703
2.59987
2.59251
2.58472
2.57679
2.56962
2.56225
2.55509
2.54835
2.54234
2.5371
2.53336
2.53161
2.53231
2.5361
2.54383
2.55642
2.57468
2.59954
2.6322
2.67398
2.72539
2.78677
2.85779
2.93824
3.02695
3.1213
3.21719
3.30926
3.39129
3.46034
3.52433
3.58489
3.64016
3.6882
3.7278
3.75877
3.78212
3.79985
3.81356
3.82366
3.83034
3.83412
3.83544
3.83465
3.83262
3.82932
3.82504
3.82
3.81438
3.80832
3.80189
3.79515
3.78812
3.78078
3.77314
3.76518
3.75687
3.74816
3.73898
3.72927
3.71895
3.70798
3.69632
3.68398
3.67097
3.65737
3.64333
3.62898
3.61436
3.59947
3.58431
3.56889
3.55319
3.53722
3.52094
3.50431
3.4873
3.46985
3.45189
3.43334
3.41411
3.3941
3.37323
3.35143
3.32867
3.30498
3.28044
3.25558
3.23111
3.20716
3.18377
3.16102
3.13896
3.11769
3.09726
3.07777
3.05926
3.04178
3.02531
3.00984
2.99534
2.9818
2.96921
2.95759
2.947
2.93753
2.92921
2.92191
2.91517
2.90903
2.90297
2.89758
2.89238
2.8878
2.88325
2.87884
2.87534
2.87235
2.86974
2.87255
1.9279
1.92868
1.92947
1.93026
1.93102
1.93175
1.93243
1.9331
1.93377
1.93446
2.43816
2.44415
2.45007
2.45593
2.46173
2.46748
2.47319
2.47883
2.48444
2.49
2.49553
2.50103
2.5065
2.51196
2.51741
2.52285
2.52829
2.53374
2.53923
2.54477
2.55035
2.55599
2.56167
2.56738
2.57314
2.57893
2.58476
2.59061
2.59646
2.60227
2.60804
2.61376
2.61938
2.62489
2.63024
2.63538
2.64032
2.64504
2.6495
2.6537
2.65754
2.66107
2.66429
2.66714
2.66963
2.67174
2.67347
2.67477
2.67564
2.6761
2.67614
2.67588
2.67539
2.67462
2.67347
2.672
2.6701
2.6678
2.66533
2.66269
2.65966
2.65596
2.6517
2.64728
2.64261
2.63749
2.63188
2.62576
2.61923
2.61254
2.60577
2.59879
2.59151
2.58403
2.57648
2.56857
2.56055
2.55322
2.54642
2.53963
2.53287
2.52679
2.5212
2.51618
2.51159
2.50748
2.50442
2.50255
2.50204
2.50328
2.50667
2.51274
2.52196
2.53484
2.55189
2.57373
2.60123
2.63564
2.67849
2.73136
2.79528
2.86895
2.95135
3.04038
3.13235
3.22235
3.30472
3.37383
3.42763
3.47282
3.5109
3.54094
3.56255
3.57636
3.58395
3.58514
3.58224
3.57666
3.56832
3.5581
3.54649
3.53394
3.52072
3.507
3.49287
3.47841
3.46363
3.44853
3.43305
3.41713
3.40069
3.3836
3.36576
3.34707
3.32743
3.30675
3.28496
3.26226
3.2395
3.21695
3.19468
3.17275
3.15125
3.13028
3.10994
3.09028
3.07136
3.05323
3.03593
3.0195
3.004
2.98948
2.97597
2.96349
2.95204
2.9416
2.9321
2.92347
2.91556
2.9082
2.9014
2.89516
2.88949
2.88435
2.87971
2.87551
2.87168
2.86817
2.86494
2.86197
2.85925
2.85679
2.85463
2.85287
2.85147
2.85029
2.84907
2.84764
2.84641
2.84494
2.84394
2.84281
2.84129
2.84011
2.83976
2.84022
2.84119
2.84228
2.84251
2.84209
2.84131
1.91374
1.91437
1.91501
1.91564
1.91627
1.91687
1.91745
1.91802
1.91859
2.42091
2.42685
2.43274
2.43859
2.4444
2.45017
2.45591
2.46161
2.46729
2.47294
2.47858
2.48421
2.48984
2.49546
2.50109
2.50674
2.51243
2.51816
2.52394
2.52979
2.5357
2.54167
2.54769
2.55378
2.55992
2.56611
2.57234
2.57858
2.58482
2.59104
2.59723
2.60336
2.6094
2.61531
2.62107
2.62666
2.63205
2.63722
2.64213
2.64673
2.65104
2.65504
2.65864
2.66191
2.66472
2.66701
2.66881
2.6702
2.67132
2.67218
2.67267
2.67272
2.67231
2.67145
2.67017
2.66856
2.66672
2.66447
2.66169
2.65843
2.65492
2.65112
2.64687
2.64221
2.63718
2.63178
2.62601
2.61989
2.61346
2.60679
2.59989
2.59269
2.58511
2.57744
2.56982
2.56143
2.55314
2.54574
2.53849
2.53103
2.52407
2.51801
2.51278
2.50816
2.50329
2.4994
2.49644
2.49424
2.49261
2.49124
2.49056
2.49086
2.49215
2.49435
2.49747
2.50163
2.50709
2.51419
2.52337
2.53517
2.55036
2.56964
2.59377
2.62359
2.66019
2.70463
2.75717
2.8163
2.87947
2.94363
3.00481
3.0589
3.10281
3.13469
3.15478
3.16572
3.16748
3.16309
3.15516
3.14353
3.12962
3.11448
3.09866
3.08257
3.06652
3.05068
3.0352
3.02017
3.00573
2.99197
2.97893
2.96661
2.95504
2.94424
2.93424
2.92504
2.91653
2.9085
2.90091
2.89381
2.8872
2.8811
2.87545
2.87022
2.86539
2.86094
2.85688
2.85321
2.84993
2.84702
2.84443
2.8421
2.83997
2.838
2.83616
2.83443
2.83283
2.83141
2.83019
2.82916
2.82828
2.82752
2.82684
2.8262
2.82564
2.82517
2.82475
2.82442
2.82426
2.82426
2.82442
2.82469
2.82489
2.82493
2.8248
2.82445
2.82411
2.82393
2.82397
2.82404
2.82396
2.82434
2.82515
2.82585
2.82604
2.82594
2.82577
2.82537
2.82544
2.82638
1.89829
1.89879
2.39687
2.40282
2.40874
2.41463
2.42049
2.42632
2.43213
2.43792
2.4437
2.44947
2.45523
2.461
2.46677
2.47256
2.47837
2.48421
2.4901
2.49605
2.50207
2.50816
2.51432
2.52055
2.52686
2.53324
2.53969
2.5462
2.55276
2.55935
2.56596
2.57258
2.57918
2.58575
2.59225
2.59865
2.60495
2.6111
2.61707
2.62285
2.62841
2.63371
2.63873
2.64342
2.64769
2.65146
2.65471
2.65762
2.66028
2.66264
2.66455
2.66597
2.66688
2.6673
2.66728
2.66682
2.66598
2.66475
2.66304
2.66087
2.65839
2.65565
2.65253
2.64898
2.64502
2.64072
2.63609
2.63114
2.62581
2.62009
2.61401
2.60766
2.60112
2.59425
2.58691
2.57956
2.5722
2.56399
2.55554
2.54806
2.54092
2.53375
2.52679
2.5209
2.5153
2.51019
2.50545
2.5011
2.49721
2.49383
2.49101
2.48897
2.48765
2.48729
2.48765
2.4887
2.49049
2.49297
2.49602
2.49938
2.5026
2.50534
2.5084
2.51214
2.51673
2.52241
2.52958
2.53875
2.55041
2.56519
2.58376
2.60656
2.63326
2.66331
2.69572
2.72889
2.76087
2.7893
2.81267
2.83088
2.84402
2.85265
2.8579
2.85942
2.85921
2.8579
2.85581
2.85305
2.85006
2.84703
2.84402
2.84109
2.83824
2.83553
2.83298
2.83059
2.82832
2.82615
2.8241
2.82226
2.82061
2.81911
2.81771
2.81642
2.81523
2.81415
2.81322
2.81249
2.81193
2.8115
2.81113
2.81078
2.81044
2.81009
2.80975
2.80943
2.80914
2.80893
2.80879
2.80873
2.80872
2.80872
2.80875
2.80882
2.80892
2.80903
2.80918
2.80941
2.80972
2.8101
2.81051
2.81083
2.81103
2.81127
2.81131
2.81131
2.8114
2.81158
2.81182
2.81219
2.81257
2.81295
2.81358
2.81428
2.81478
2.8149
2.81527
2.81548
2.8155
2.8156
2.8158
2.81661
2.37191
2.37787
2.3838
2.38972
2.39562
2.40151
2.40738
2.41326
2.41913
2.425
2.43087
2.43677
2.44268
2.44861
2.45459
2.46061
2.4667
2.47285
2.47908
2.48539
2.49178
2.49826
2.50482
2.51147
2.51819
2.52498
2.53182
2.53872
2.54564
2.5526
2.55956
2.5665
2.57339
2.58021
2.58696
2.5936
2.6001
2.60641
2.61251
2.61837
2.62387
2.62895
2.63367
2.63805
2.64218
2.64606
2.64952
2.6524
2.65479
2.65668
2.65805
2.65897
2.65945
2.6595
2.65911
2.65823
2.65692
2.65526
2.65329
2.65098
2.64827
2.64519
2.64177
2.63804
2.63399
2.62959
2.62481
2.61964
2.61411
2.6083
2.60224
2.59576
2.58884
2.58185
2.57484
2.56729
2.55887
2.55166
2.54507
2.53822
2.53126
2.52606
2.52099
2.51543
2.51075
2.50674
2.50298
2.49975
2.49731
2.49564
2.49457
2.49438
2.49437
2.4947
2.49549
2.49675
2.49829
2.49991
2.50166
2.50387
2.5064
2.50931
2.51243
2.51605
2.51987
2.52354
2.52694
2.53102
2.53628
2.54292
2.55135
2.56189
2.57486
2.59058
2.60919
2.63053
2.65408
2.67887
2.70338
2.72609
2.74577
2.76185
2.77449
2.78405
2.79094
2.7957
2.7989
2.80103
2.80238
2.80306
2.8034
2.80341
2.8032
2.80286
2.80241
2.80192
2.8014
2.8009
2.80044
2.8
2.7996
2.79932
2.79917
2.79912
2.79908
2.79903
2.79895
2.79887
2.7988
2.79873
2.79867
2.79861
2.79857
2.79856
2.79858
2.79864
2.79871
2.79877
2.79885
2.79896
2.7991
2.79924
2.79939
2.79958
2.79981
2.80007
2.80036
2.80059
2.8008
2.80104
2.80122
2.80136
2.80148
2.80163
2.80183
2.80212
2.80248
2.80284
2.80328
2.80381
2.80432
2.80461
2.80479
2.80514
2.80525
2.80525
2.80529
2.80544
2.80556
2.80659
2.34587
2.35182
2.35777
2.36371