/*--------------------------------*- C++ -*----------------------------------*\
| =========                 |                                                 |
| \\      /  F ield         | OpenFOAM: The Open Source CFD Toolbox           |
|  \\    /   O peration     | Version:  v1706                                 |
|   \\  /    A nd           | Web:      www.OpenFOAM.com                      |
|    \\/     M anipulation  |                                                 |
\*---------------------------------------------------------------------------*/
FoamFile
{
    version     2.0;
    format      ascii;
    class       volScalarField;
    location    "3.5e-05";
    object      mu;
}
// * * * * * * * * * * * * * * * * * * * * * * * * * * * * * * * * * * * * * //

dimensions      [1 -1 -1 0 0 0 0];


internalField   nonuniform List<scalar> 
30104
(
1.03668e-05
1.03692e-05
1.03719e-05
1.0375e-05
1.03785e-05
1.03826e-05
1.03872e-05
1.03924e-05
1.03983e-05
1.0405e-05
1.04126e-05
1.04213e-05
1.04313e-05
1.04425e-05
1.04552e-05
1.04693e-05
1.04849e-05
1.18918e-05
1.18041e-05
1.17127e-05
1.16198e-05
1.15383e-05
1.14751e-05
1.14194e-05
1.13647e-05
1.13088e-05
1.12512e-05
1.1192e-05
1.11314e-05
1.10699e-05
1.10079e-05
1.09461e-05
1.08849e-05
1.08248e-05
1.07679e-05
1.07173e-05
1.06741e-05
1.06373e-05
1.06043e-05
1.05734e-05
1.05438e-05
1.05159e-05
1.04899e-05
1.04665e-05
1.04466e-05
1.04305e-05
1.04174e-05
1.04066e-05
1.03972e-05
1.03891e-05
1.03822e-05
1.03765e-05
1.03719e-05
1.03681e-05
1.0365e-05
1.03624e-05
1.03602e-05
1.03583e-05
1.03568e-05
1.03556e-05
1.03546e-05
1.03539e-05
1.03533e-05
1.03528e-05
1.03524e-05
1.03521e-05
1.03519e-05
1.03517e-05
1.03515e-05
1.03514e-05
1.03513e-05
1.03512e-05
1.03512e-05
1.03511e-05
1.03511e-05
1.03511e-05
1.03511e-05
1.0351e-05
1.0351e-05
1.0351e-05
1.0351e-05
1.0351e-05
1.0351e-05
1.0351e-05
1.0351e-05
1.0351e-05
1.0351e-05
1.0351e-05
1.0351e-05
1.0351e-05
1.0351e-05
1.0351e-05
1.0351e-05
1.0351e-05
1.0351e-05
1.0351e-05
1.0351e-05
1.0351e-05
1.0351e-05
1.0351e-05
1.0351e-05
1.0351e-05
1.0351e-05
1.0351e-05
1.0351e-05
1.0351e-05
1.0351e-05
1.0351e-05
1.0351e-05
1.0351e-05
1.0351e-05
1.0351e-05
1.0351e-05
1.0351e-05
1.0351e-05
1.0351e-05
1.0351e-05
1.0351e-05
1.0351e-05
1.0351e-05
1.0351e-05
1.0351e-05
1.0351e-05
1.0351e-05
1.0351e-05
1.0351e-05
1.0351e-05
1.0351e-05
1.0351e-05
1.0351e-05
1.0351e-05
1.0351e-05
1.0351e-05
1.0351e-05
1.0351e-05
1.0351e-05
1.0351e-05
1.0351e-05
1.0351e-05
1.0351e-05
1.0351e-05
1.0351e-05
1.0351e-05
1.0351e-05
1.0351e-05
1.0351e-05
1.0351e-05
1.0351e-05
1.0351e-05
1.0351e-05
1.0351e-05
1.0351e-05
1.0351e-05
1.0351e-05
1.0351e-05
1.0351e-05
1.0351e-05
1.0351e-05
1.0351e-05
1.0351e-05
1.0351e-05
1.0351e-05
1.0351e-05
1.0351e-05
1.0351e-05
1.0351e-05
1.0351e-05
1.0351e-05
1.0351e-05
1.0351e-05
1.0351e-05
1.0351e-05
1.0351e-05
1.0351e-05
1.0351e-05
1.0351e-05
1.0351e-05
1.0351e-05
1.0351e-05
1.0351e-05
1.0351e-05
1.0351e-05
1.0351e-05
1.0351e-05
1.0351e-05
1.0351e-05
1.0351e-05
1.0351e-05
1.0351e-05
1.0351e-05
1.0351e-05
1.0351e-05
1.0351e-05
1.0351e-05
1.0351e-05
1.0351e-05
1.0351e-05
1.0351e-05
1.0351e-05
1.0351e-05
1.0351e-05
1.0351e-05
1.0351e-05
1.0351e-05
1.0351e-05
1.0351e-05
1.0351e-05
1.0351e-05
1.0351e-05
1.0351e-05
1.04481e-05
1.04627e-05
1.04793e-05
1.04983e-05
1.05201e-05
1.05449e-05
1.0573e-05
1.06046e-05
1.06401e-05
1.06798e-05
1.07246e-05
1.07752e-05
1.08325e-05
1.08971e-05
1.09693e-05
1.10493e-05
1.11371e-05
1.53597e-05
1.53328e-05
1.53023e-05
1.52639e-05
1.52097e-05
1.51343e-05
1.50383e-05
1.49235e-05
1.47914e-05
1.46426e-05
1.44766e-05
1.42923e-05
1.40897e-05
1.38697e-05
1.3634e-05
1.33837e-05
1.31209e-05
1.28491e-05
1.25789e-05
1.2337e-05
1.21367e-05
1.19595e-05
1.1792e-05
1.16288e-05
1.14692e-05
1.13159e-05
1.11742e-05
1.10498e-05
1.09452e-05
1.08575e-05
1.07816e-05
1.0714e-05
1.06535e-05
1.06001e-05
1.05545e-05
1.05171e-05
1.0487e-05
1.04625e-05
1.0442e-05
1.04247e-05
1.04103e-05
1.03986e-05
1.03892e-05
1.03817e-05
1.03756e-05
1.03706e-05
1.03665e-05
1.03632e-05
1.03605e-05
1.03585e-05
1.03568e-05
1.03555e-05
1.03545e-05
1.03537e-05
1.03531e-05
1.03526e-05
1.03522e-05
1.03519e-05
1.03517e-05
1.03515e-05
1.03514e-05
1.03513e-05
1.03512e-05
1.03512e-05
1.03511e-05
1.03511e-05
1.03511e-05
1.0351e-05
1.0351e-05
1.0351e-05
1.0351e-05
1.0351e-05
1.0351e-05
1.0351e-05
1.0351e-05
1.0351e-05
1.0351e-05
1.0351e-05
1.0351e-05
1.0351e-05
1.0351e-05
1.0351e-05
1.0351e-05
1.0351e-05
1.0351e-05
1.0351e-05
1.0351e-05
1.0351e-05
1.0351e-05
1.0351e-05
1.0351e-05
1.0351e-05
1.0351e-05
1.0351e-05
1.0351e-05
1.0351e-05
1.0351e-05
1.0351e-05
1.0351e-05
1.0351e-05
1.0351e-05
1.0351e-05
1.0351e-05
1.0351e-05
1.0351e-05
1.0351e-05
1.0351e-05
1.0351e-05
1.0351e-05
1.0351e-05
1.0351e-05
1.0351e-05
1.0351e-05
1.0351e-05
1.0351e-05
1.0351e-05
1.0351e-05
1.0351e-05
1.0351e-05
1.0351e-05
1.0351e-05
1.0351e-05
1.0351e-05
1.0351e-05
1.0351e-05
1.0351e-05
1.0351e-05
1.0351e-05
1.0351e-05
1.0351e-05
1.0351e-05
1.0351e-05
1.0351e-05
1.0351e-05
1.0351e-05
1.0351e-05
1.0351e-05
1.0351e-05
1.0351e-05
1.0351e-05
1.0351e-05
1.0351e-05
1.0351e-05
1.0351e-05
1.0351e-05
1.0351e-05
1.0351e-05
1.0351e-05
1.0351e-05
1.0351e-05
1.0351e-05
1.0351e-05
1.0351e-05
1.0351e-05
1.0351e-05
1.0351e-05
1.0351e-05
1.0351e-05
1.0351e-05
1.0351e-05
1.0351e-05
1.0351e-05
1.0351e-05
1.0351e-05
1.0351e-05
1.0351e-05
1.0351e-05
1.0351e-05
1.0351e-05
1.0351e-05
1.0351e-05
1.0351e-05
1.0351e-05
1.0351e-05
1.0351e-05
1.0351e-05
1.0351e-05
1.0351e-05
1.0351e-05
1.0351e-05
1.0351e-05
1.0351e-05
1.0351e-05
1.0351e-05
1.0351e-05
1.0351e-05
1.0351e-05
1.0351e-05
1.0351e-05
1.0351e-05
1.0351e-05
1.0351e-05
1.0351e-05
1.06995e-05
1.075e-05
1.08073e-05
1.08723e-05
1.09461e-05
1.10294e-05
1.11227e-05
1.12263e-05
1.13406e-05
1.14667e-05
1.16065e-05
1.17619e-05
1.19337e-05
1.21213e-05
1.23233e-05
1.25378e-05
1.61442e-05
1.61496e-05
1.61563e-05
1.61618e-05
1.61629e-05
1.61609e-05
1.61537e-05
1.61391e-05
1.61172e-05
1.60887e-05
1.60546e-05
1.60153e-05
1.59711e-05
1.59213e-05
1.58631e-05
1.57928e-05
1.57062e-05
1.55977e-05
1.54606e-05
1.5286e-05
1.50706e-05
1.48188e-05
1.45349e-05
1.42223e-05
1.3884e-05
1.35249e-05
1.31539e-05
1.27903e-05
1.2473e-05
1.22097e-05
1.19774e-05
1.17614e-05
1.15577e-05
1.13689e-05
1.1201e-05
1.10591e-05
1.09427e-05
1.08452e-05
1.07612e-05
1.06877e-05
1.06242e-05
1.05709e-05
1.05279e-05
1.04938e-05
1.04663e-05
1.04436e-05
1.04248e-05
1.04095e-05
1.03972e-05
1.03876e-05
1.03799e-05
1.03738e-05
1.03688e-05
1.03647e-05
1.03616e-05
1.03591e-05
1.03572e-05
1.03558e-05
1.03546e-05
1.03537e-05
1.03531e-05
1.03526e-05
1.03522e-05
1.03519e-05
1.03516e-05
1.03515e-05
1.03513e-05
1.03512e-05
1.03512e-05
1.03511e-05
1.03511e-05
1.03511e-05
1.03511e-05
1.0351e-05
1.0351e-05
1.0351e-05
1.0351e-05
1.0351e-05
1.0351e-05
1.0351e-05
1.0351e-05
1.0351e-05
1.0351e-05
1.0351e-05
1.0351e-05
1.0351e-05
1.0351e-05
1.0351e-05
1.0351e-05
1.0351e-05
1.0351e-05
1.0351e-05
1.0351e-05
1.0351e-05
1.0351e-05
1.0351e-05
1.0351e-05
1.0351e-05
1.0351e-05
1.0351e-05
1.0351e-05
1.0351e-05
1.0351e-05
1.0351e-05
1.0351e-05
1.0351e-05
1.0351e-05
1.0351e-05
1.0351e-05
1.0351e-05
1.0351e-05
1.0351e-05
1.0351e-05
1.0351e-05
1.0351e-05
1.0351e-05
1.0351e-05
1.0351e-05
1.0351e-05
1.0351e-05
1.0351e-05
1.0351e-05
1.0351e-05
1.0351e-05
1.0351e-05
1.0351e-05
1.0351e-05
1.0351e-05
1.0351e-05
1.0351e-05
1.0351e-05
1.0351e-05
1.0351e-05
1.0351e-05
1.0351e-05
1.0351e-05
1.0351e-05
1.0351e-05
1.0351e-05
1.0351e-05
1.0351e-05
1.0351e-05
1.0351e-05
1.0351e-05
1.0351e-05
1.0351e-05
1.0351e-05
1.0351e-05
1.0351e-05
1.0351e-05
1.0351e-05
1.0351e-05
1.0351e-05
1.0351e-05
1.0351e-05
1.0351e-05
1.0351e-05
1.0351e-05
1.0351e-05
1.0351e-05
1.0351e-05
1.0351e-05
1.0351e-05
1.0351e-05
1.0351e-05
1.0351e-05
1.0351e-05
1.0351e-05
1.0351e-05
1.0351e-05
1.0351e-05
1.0351e-05
1.0351e-05
1.0351e-05
1.0351e-05
1.0351e-05
1.0351e-05
1.0351e-05
1.0351e-05
1.0351e-05
1.0351e-05
1.0351e-05
1.0351e-05
1.0351e-05
1.0351e-05
1.0351e-05
1.0351e-05
1.0351e-05
1.0351e-05
1.0351e-05
1.0351e-05
1.0351e-05
1.0351e-05
1.14355e-05
1.15794e-05
1.17397e-05
1.19182e-05
1.21153e-05
1.233e-05
1.25606e-05
1.28051e-05
1.30616e-05
1.33301e-05
1.36175e-05
1.39323e-05
1.42712e-05
1.46266e-05
1.4989e-05
1.53489e-05
1.63747e-05
1.63796e-05
1.63856e-05
1.63919e-05
1.63976e-05
1.64023e-05
1.6405e-05
1.64052e-05
1.6404e-05
1.64007e-05
1.63954e-05
1.6388e-05
1.63792e-05
1.6369e-05
1.6357e-05
1.6342e-05
1.63229e-05
1.62993e-05
1.62713e-05
1.62396e-05
1.62048e-05
1.61654e-05
1.61178e-05
1.60568e-05
1.59764e-05
1.58692e-05
1.57275e-05
1.55429e-05
1.53064e-05
1.50184e-05
1.46871e-05
1.43195e-05
1.39218e-05
1.35023e-05
1.30779e-05
1.26829e-05
1.23587e-05
1.2085e-05
1.18382e-05
1.16093e-05
1.13998e-05
1.12159e-05
1.10625e-05
1.09382e-05
1.08352e-05
1.07471e-05
1.06709e-05
1.06062e-05
1.05534e-05
1.05118e-05
1.04791e-05
1.04527e-05
1.04311e-05
1.04136e-05
1.03998e-05
1.0389e-05
1.03806e-05
1.03739e-05
1.03686e-05
1.03644e-05
1.03611e-05
1.03586e-05
1.03567e-05
1.03553e-05
1.03542e-05
1.03534e-05
1.03528e-05
1.03523e-05
1.0352e-05
1.03517e-05
1.03515e-05
1.03514e-05
1.03513e-05
1.03512e-05
1.03511e-05
1.03511e-05
1.03511e-05
1.03511e-05
1.0351e-05
1.0351e-05
1.0351e-05
1.0351e-05
1.0351e-05
1.0351e-05
1.0351e-05
1.0351e-05
1.0351e-05
1.0351e-05
1.0351e-05
1.0351e-05
1.0351e-05
1.0351e-05
1.0351e-05
1.0351e-05
1.0351e-05
1.0351e-05
1.0351e-05
1.0351e-05
1.0351e-05
1.0351e-05
1.0351e-05
1.0351e-05
1.0351e-05
1.0351e-05
1.0351e-05
1.0351e-05
1.0351e-05
1.0351e-05
1.0351e-05
1.0351e-05
1.0351e-05
1.0351e-05
1.0351e-05
1.0351e-05
1.0351e-05
1.0351e-05
1.0351e-05
1.0351e-05
1.0351e-05
1.0351e-05
1.0351e-05
1.0351e-05
1.0351e-05
1.0351e-05
1.0351e-05
1.0351e-05
1.0351e-05
1.0351e-05
1.0351e-05
1.0351e-05
1.0351e-05
1.0351e-05
1.0351e-05
1.0351e-05
1.0351e-05
1.0351e-05
1.0351e-05
1.0351e-05
1.0351e-05
1.0351e-05
1.0351e-05
1.0351e-05
1.0351e-05
1.0351e-05
1.0351e-05
1.0351e-05
1.0351e-05
1.0351e-05
1.0351e-05
1.0351e-05
1.0351e-05
1.0351e-05
1.0351e-05
1.0351e-05
1.0351e-05
1.0351e-05
1.0351e-05
1.0351e-05
1.0351e-05
1.0351e-05
1.0351e-05
1.0351e-05
1.0351e-05
1.0351e-05
1.0351e-05
1.0351e-05
1.0351e-05
1.0351e-05
1.0351e-05
1.0351e-05
1.0351e-05
1.0351e-05
1.0351e-05
1.0351e-05
1.0351e-05
1.0351e-05
1.0351e-05
1.0351e-05
1.0351e-05
1.0351e-05
1.0351e-05
1.0351e-05
1.0351e-05
1.03511e-05
1.03511e-05
1.03511e-05
1.03511e-05
1.03511e-05
1.03511e-05
1.03511e-05
1.03511e-05
1.03511e-05
1.03511e-05
1.31939e-05
1.34849e-05
1.37986e-05
1.41396e-05
1.4503e-05
1.48804e-05
1.5262e-05
1.56375e-05
1.59984e-05
1.63372e-05
1.66472e-05
1.69233e-05
1.71656e-05
1.73754e-05
1.75552e-05
1.65359e-05
1.65374e-05
1.65389e-05
1.65403e-05
1.65414e-05
1.65418e-05
1.65413e-05
1.65398e-05
1.65377e-05
1.65353e-05
1.65322e-05
1.65295e-05
1.65261e-05
1.65213e-05
1.65151e-05
1.6508e-05
1.65002e-05
1.64927e-05
1.64859e-05
1.64794e-05
1.64738e-05
1.64687e-05
1.64629e-05
1.6455e-05
1.64439e-05
1.64284e-05
1.6409e-05
1.63857e-05
1.63568e-05
1.63195e-05
1.62676e-05
1.61928e-05
1.60864e-05
1.59416e-05
1.57524e-05
1.55113e-05
1.52129e-05
1.48638e-05
1.4471e-05
1.4041e-05
1.35843e-05
1.31225e-05
1.26959e-05
1.23498e-05
1.20595e-05
1.17983e-05
1.15579e-05
1.1342e-05
1.11572e-05
1.10069e-05
1.08859e-05
1.0785e-05
1.06988e-05
1.06256e-05
1.05657e-05
1.05188e-05
1.04826e-05
1.0454e-05
1.0431e-05
1.04126e-05
1.03982e-05
1.03872e-05
1.03787e-05
1.03721e-05
1.03668e-05
1.03628e-05
1.03598e-05
1.03575e-05
1.03558e-05
1.03546e-05
1.03536e-05
1.03529e-05
1.03524e-05
1.03521e-05
1.03518e-05
1.03516e-05
1.03514e-05
1.03513e-05
1.03512e-05
1.03512e-05
1.03511e-05
1.03511e-05
1.03511e-05
1.03511e-05
1.03511e-05
1.0351e-05
1.0351e-05
1.0351e-05
1.0351e-05
1.0351e-05
1.0351e-05
1.0351e-05
1.0351e-05
1.0351e-05
1.0351e-05
1.0351e-05
1.0351e-05
1.0351e-05
1.0351e-05
1.0351e-05
1.0351e-05
1.0351e-05
1.0351e-05
1.0351e-05
1.0351e-05
1.0351e-05
1.0351e-05
1.0351e-05
1.0351e-05
1.0351e-05
1.0351e-05
1.0351e-05
1.0351e-05
1.0351e-05
1.0351e-05
1.0351e-05
1.0351e-05
1.0351e-05
1.0351e-05
1.0351e-05
1.0351e-05
1.0351e-05
1.0351e-05
1.0351e-05
1.0351e-05
1.0351e-05
1.0351e-05
1.0351e-05
1.0351e-05
1.0351e-05
1.0351e-05
1.0351e-05
1.0351e-05
1.0351e-05
1.0351e-05
1.0351e-05
1.0351e-05
1.0351e-05
1.0351e-05
1.0351e-05
1.0351e-05
1.0351e-05
1.0351e-05
1.0351e-05
1.0351e-05
1.0351e-05
1.0351e-05
1.0351e-05
1.0351e-05
1.03511e-05
1.03511e-05
1.03511e-05
1.03511e-05
1.03511e-05
1.03511e-05
1.03511e-05
1.03511e-05
1.03511e-05
1.03511e-05
1.03511e-05
1.03511e-05
1.03511e-05
1.03511e-05
1.03511e-05
1.03511e-05
1.03511e-05
1.03511e-05
1.03511e-05
1.03511e-05
1.03511e-05
1.03511e-05
1.03511e-05
1.03511e-05
1.03511e-05
1.03511e-05
1.03511e-05
1.03511e-05
1.03512e-05
1.03512e-05
1.03512e-05
1.03512e-05
1.03512e-05
1.03512e-05
1.03512e-05
1.03512e-05
1.03512e-05
1.03512e-05
1.03512e-05
1.03512e-05
1.03512e-05
1.03513e-05
1.03513e-05
1.03513e-05
1.57196e-05
1.60964e-05
1.64504e-05
1.6773e-05
1.70601e-05
1.73113e-05
1.7528e-05
1.77129e-05
1.78691e-05
1.80001e-05
1.81092e-05
1.81991e-05
1.82725e-05
1.83315e-05
1.83781e-05
1.8414e-05
1.66758e-05
1.66732e-05
1.66708e-05
1.66683e-05
1.66655e-05
1.66623e-05
1.66585e-05
1.66544e-05
1.66505e-05
1.66465e-05
1.66421e-05
1.66384e-05
1.66346e-05
1.66302e-05
1.66246e-05
1.66177e-05
1.66108e-05
1.66044e-05
1.65991e-05
1.65953e-05
1.65924e-05
1.659e-05
1.65883e-05
1.6587e-05
1.65868e-05
1.65885e-05
1.6591e-05
1.65902e-05
1.65894e-05
1.65888e-05
1.65866e-05
1.65803e-05
1.65693e-05
1.65546e-05
1.65357e-05
1.65109e-05
1.64762e-05
1.64237e-05
1.63433e-05
1.62264e-05
1.60667e-05
1.58593e-05
1.55966e-05
1.52723e-05
1.4891e-05
1.44594e-05
1.39864e-05
1.3489e-05
1.2999e-05
1.25696e-05
1.22266e-05
1.19321e-05
1.16649e-05
1.14235e-05
1.12147e-05
1.10438e-05
1.09082e-05
1.07976e-05
1.07045e-05
1.06263e-05
1.05631e-05
1.05143e-05
1.04771e-05
1.04482e-05
1.04252e-05
1.04072e-05
1.03935e-05
1.03831e-05
1.03752e-05
1.03691e-05
1.03644e-05
1.03609e-05
1.03583e-05
1.03564e-05
1.0355e-05
1.0354e-05
1.03532e-05
1.03527e-05
1.03523e-05
1.0352e-05
1.03517e-05
1.03516e-05
1.03514e-05
1.03513e-05
1.03513e-05
1.03512e-05
1.03512e-05
1.03511e-05
1.03511e-05
1.03511e-05
1.03511e-05
1.03511e-05
1.03511e-05
1.03511e-05
1.03511e-05
1.0351e-05
1.0351e-05
1.0351e-05
1.0351e-05
1.0351e-05
1.0351e-05
1.0351e-05
1.0351e-05
1.0351e-05
1.0351e-05
1.0351e-05
1.0351e-05
1.0351e-05
1.0351e-05
1.0351e-05
1.0351e-05
1.0351e-05
1.03511e-05
1.03511e-05
1.03511e-05
1.03511e-05
1.03511e-05
1.03511e-05
1.03511e-05
1.03511e-05
1.03511e-05
1.03511e-05
1.03511e-05
1.03511e-05
1.03511e-05
1.03511e-05
1.03511e-05
1.03511e-05
1.03511e-05
1.03511e-05
1.03511e-05
1.03511e-05
1.03511e-05
1.03511e-05
1.03511e-05
1.03511e-05
1.03511e-05
1.03511e-05
1.03511e-05
1.03511e-05
1.03511e-05
1.03511e-05
1.03511e-05
1.03511e-05
1.03511e-05
1.03511e-05
1.03512e-05
1.03512e-05
1.03512e-05
1.03512e-05
1.03512e-05
1.03512e-05
1.03512e-05
1.03512e-05
1.03512e-05
1.03512e-05
1.03512e-05
1.03512e-05
1.03512e-05
1.03513e-05
1.03513e-05
1.03513e-05
1.03513e-05
1.03513e-05
1.03513e-05
1.03513e-05
1.03513e-05
1.03514e-05
1.03514e-05
1.03514e-05
1.03514e-05
1.03514e-05
1.03514e-05
1.03515e-05
1.03515e-05
1.03515e-05
1.03515e-05
1.03515e-05
1.03516e-05
1.03516e-05
1.03516e-05
1.03517e-05
1.03517e-05
1.03517e-05
1.03517e-05
1.03518e-05
1.03518e-05
1.03518e-05
1.03519e-05
1.03519e-05
1.0352e-05
1.0352e-05
1.0352e-05
1.79507e-05
1.80936e-05
1.82121e-05
1.83093e-05
1.83882e-05
1.84517e-05
1.85018e-05
1.85405e-05
1.85697e-05
1.85922e-05
1.86103e-05
1.86253e-05
1.86379e-05
1.68256e-05
1.68174e-05
1.68094e-05
1.68014e-05
1.67935e-05
1.67856e-05
1.67776e-05
1.677e-05
1.67633e-05
1.67566e-05
1.67501e-05
1.6744e-05
1.67379e-05
1.67316e-05
1.67245e-05
1.67169e-05
1.67092e-05
1.67019e-05
1.66957e-05
1.66908e-05
1.6687e-05
1.66843e-05
1.66825e-05
1.66808e-05
1.66804e-05
1.66814e-05
1.66823e-05
1.66825e-05
1.66834e-05
1.66858e-05
1.66896e-05
1.66944e-05
1.67006e-05
1.67077e-05
1.67117e-05
1.67158e-05
1.67195e-05
1.67204e-05
1.67192e-05
1.67152e-05
1.67068e-05
1.66922e-05
1.66679e-05
1.66274e-05
1.65617e-05
1.64616e-05
1.63202e-05
1.61321e-05
1.58904e-05
1.55838e-05
1.52068e-05
1.4766e-05
1.42718e-05
1.37413e-05
1.32049e-05
1.27131e-05
1.23207e-05
1.19959e-05
1.17065e-05
1.14469e-05
1.12235e-05
1.10419e-05
1.08994e-05
1.07844e-05
1.06886e-05
1.06095e-05
1.05472e-05
1.05002e-05
1.04649e-05
1.04375e-05
1.04162e-05
1.03999e-05
1.03877e-05
1.03786e-05
1.03717e-05
1.03665e-05
1.03625e-05
1.03596e-05
1.03575e-05
1.0356e-05
1.03548e-05
1.03539e-05
1.03533e-05
1.03528e-05
1.03524e-05
1.03521e-05
1.03519e-05
1.03517e-05
1.03516e-05
1.03515e-05
1.03514e-05
1.03513e-05
1.03513e-05
1.03513e-05
1.03512e-05
1.03512e-05
1.03512e-05
1.03512e-05
1.03512e-05
1.03511e-05
1.03511e-05
1.03511e-05
1.03511e-05
1.03511e-05
1.03511e-05
1.03511e-05
1.03511e-05
1.03511e-05
1.03511e-05
1.03512e-05
1.03512e-05
1.03512e-05
1.03512e-05
1.03512e-05
1.03512e-05
1.03512e-05
1.03512e-05
1.03512e-05
1.03512e-05
1.03512e-05
1.03512e-05
1.03512e-05
1.03512e-05
1.03512e-05
1.03512e-05
1.03512e-05
1.03512e-05
1.03513e-05
1.03513e-05
1.03513e-05
1.03513e-05
1.03513e-05
1.03513e-05
1.03513e-05
1.03513e-05
1.03513e-05
1.03513e-05
1.03514e-05
1.03514e-05
1.03514e-05
1.03514e-05
1.03514e-05
1.03514e-05
1.03515e-05
1.03515e-05
1.03515e-05
1.03515e-05
1.03515e-05
1.03516e-05
1.03516e-05
1.03516e-05
1.03516e-05
1.03517e-05
1.03517e-05
1.03517e-05
1.03517e-05
1.03518e-05
1.03518e-05
1.03518e-05
1.03519e-05
1.03519e-05
1.0352e-05
1.0352e-05
1.03521e-05
1.03521e-05
1.03522e-05
1.03522e-05
1.03523e-05
1.03523e-05
1.03524e-05
1.03524e-05
1.03525e-05
1.03526e-05
1.03526e-05
1.03527e-05
1.03528e-05
1.03529e-05
1.0353e-05
1.03531e-05
1.03532e-05
1.03533e-05
1.03534e-05
1.03535e-05
1.03536e-05
1.03537e-05
1.03538e-05
1.0354e-05
1.03541e-05
1.03543e-05
1.03544e-05
1.03546e-05
1.03548e-05
1.03546e-05
1.86826e-05
1.8709e-05
1.87298e-05
1.87467e-05
1.87606e-05
1.87719e-05
1.87805e-05
1.87862e-05
1.87879e-05
1.8787e-05
1.87848e-05
1.87817e-05
1.87783e-05
1.69802e-05
1.6967e-05
1.6954e-05
1.69413e-05
1.69288e-05
1.69166e-05
1.69051e-05
1.68942e-05
1.68841e-05
1.68744e-05
1.68652e-05
1.68562e-05
1.68472e-05
1.6838e-05
1.68285e-05
1.68188e-05
1.68092e-05
1.68e-05
1.67916e-05
1.67845e-05
1.67785e-05
1.67736e-05
1.67694e-05
1.67656e-05
1.67625e-05
1.67602e-05
1.67584e-05
1.67579e-05
1.67584e-05
1.676e-05
1.67628e-05
1.67669e-05
1.67723e-05
1.67781e-05
1.67843e-05
1.67916e-05
1.68007e-05
1.68111e-05
1.68232e-05
1.68368e-05
1.68484e-05
1.68585e-05
1.68678e-05
1.68758e-05
1.68816e-05
1.6883e-05
1.68813e-05
1.6874e-05
1.68558e-05
1.68208e-05
1.67614e-05
1.6669e-05
1.65355e-05
1.63544e-05
1.6117e-05
1.58101e-05
1.54223e-05
1.49589e-05
1.4433e-05
1.38647e-05
1.32878e-05
1.27579e-05
1.23365e-05
1.19918e-05
1.16871e-05
1.14171e-05
1.11888e-05
1.10069e-05
1.08658e-05
1.0752e-05
1.06582e-05
1.05828e-05
1.05255e-05
1.04833e-05
1.04517e-05
1.04274e-05
1.04088e-05
1.03948e-05
1.03845e-05
1.03767e-05
1.03707e-05
1.03661e-05
1.03626e-05
1.036e-05
1.03581e-05
1.03566e-05
1.03555e-05
1.03546e-05
1.03539e-05
1.03534e-05
1.0353e-05
1.03526e-05
1.03524e-05
1.03522e-05
1.0352e-05
1.03519e-05
1.03518e-05
1.03517e-05
1.03516e-05
1.03516e-05
1.03515e-05
1.03515e-05
1.03515e-05
1.03515e-05
1.03515e-05
1.03515e-05
1.03515e-05
1.03515e-05
1.03515e-05
1.03515e-05
1.03515e-05
1.03515e-05
1.03515e-05
1.03515e-05
1.03515e-05
1.03516e-05
1.03516e-05
1.03516e-05
1.03516e-05
1.03516e-05
1.03517e-05
1.03517e-05
1.03517e-05
1.03517e-05
1.03517e-05
1.03518e-05
1.03518e-05
1.03518e-05
1.03518e-05
1.03519e-05
1.03519e-05
1.03519e-05
1.0352e-05
1.0352e-05
1.0352e-05
1.03521e-05
1.03521e-05
1.03522e-05
1.03522e-05
1.03523e-05
1.03523e-05
1.03524e-05
1.03524e-05
1.03525e-05
1.03526e-05
1.03526e-05
1.03527e-05
1.03528e-05
1.03529e-05
1.0353e-05
1.0353e-05
1.03531e-05
1.03532e-05
1.03533e-05
1.03534e-05
1.03535e-05
1.03537e-05
1.03538e-05
1.03539e-05
1.0354e-05
1.03542e-05
1.03543e-05
1.03545e-05
1.03546e-05
1.03548e-05
1.0355e-05
1.03552e-05
1.03554e-05
1.03556e-05
1.03558e-05
1.0356e-05
1.03562e-05
1.03565e-05
1.03568e-05
1.0357e-05
1.03573e-05
1.03576e-05
1.0358e-05
1.03583e-05
1.03586e-05
1.0359e-05
1.03594e-05
1.03598e-05
1.03602e-05
1.03607e-05
1.03612e-05
1.03617e-05
1.03622e-05
1.03628e-05
1.03634e-05
1.0364e-05
1.03648e-05
1.03643e-05
1.8909e-05
1.89129e-05
1.89128e-05
1.89113e-05
1.89086e-05
1.89053e-05
1.89022e-05
1.88994e-05
1.88973e-05
1.8896e-05
1.88939e-05
1.88901e-05
1.8885e-05
1.88781e-05
1.7135e-05
1.71175e-05
1.71006e-05
1.70842e-05
1.70683e-05
1.70528e-05
1.70381e-05
1.70243e-05
1.70111e-05
1.69985e-05
1.69864e-05
1.69745e-05
1.69625e-05
1.69506e-05
1.69387e-05
1.69268e-05
1.69149e-05
1.69035e-05
1.68927e-05
1.68829e-05
1.6874e-05
1.68658e-05
1.68583e-05
1.68514e-05
1.68452e-05
1.68396e-05
1.6835e-05
1.68317e-05
1.68295e-05
1.68288e-05
1.68292e-05
1.68307e-05
1.68336e-05
1.6838e-05
1.68436e-05
1.68507e-05
1.68591e-05
1.68689e-05
1.68803e-05
1.68925e-05
1.69053e-05
1.69191e-05
1.69343e-05
1.69511e-05
1.69691e-05
1.69876e-05
1.70049e-05
1.70204e-05
1.70348e-05
1.70485e-05
1.70613e-05
1.70701e-05
1.70719e-05
1.70685e-05
1.70544e-05
1.70217e-05
1.69636e-05
1.68719e-05
1.67376e-05
1.65522e-05
1.63052e-05
1.5981e-05
1.55662e-05
1.50659e-05
1.44958e-05
1.38811e-05
1.32653e-05
1.27147e-05
1.22869e-05
1.19346e-05
1.16233e-05
1.13522e-05
1.11294e-05
1.09567e-05
1.08237e-05
1.07166e-05
1.06299e-05
1.05625e-05
1.05127e-05
1.04762e-05
1.04484e-05
1.04267e-05
1.04098e-05
1.0397e-05
1.03872e-05
1.03798e-05
1.03739e-05
1.03692e-05
1.03656e-05
1.03628e-05
1.03607e-05
1.0359e-05
1.03576e-05
1.03565e-05
1.03557e-05
1.0355e-05
1.03544e-05
1.03539e-05
1.03536e-05
1.03533e-05
1.0353e-05
1.03529e-05
1.03527e-05
1.03526e-05
1.03526e-05
1.03525e-05
1.03525e-05
1.03525e-05
1.03525e-05
1.03525e-05
1.03526e-05
1.03526e-05
1.03526e-05
1.03527e-05
1.03527e-05
1.03528e-05
1.03528e-05
1.03529e-05
1.03529e-05
1.0353e-05
1.03531e-05
1.03531e-05
1.03532e-05
1.03533e-05
1.03534e-05
1.03534e-05
1.03535e-05
1.03536e-05
1.03537e-05
1.03538e-05
1.03539e-05
1.0354e-05
1.03541e-05
1.03543e-05
1.03544e-05
1.03545e-05
1.03547e-05
1.03548e-05
1.0355e-05
1.03552e-05
1.03553e-05
1.03555e-05
1.03557e-05
1.03559e-05
1.03562e-05
1.03564e-05
1.03566e-05
1.03569e-05
1.03572e-05
1.03574e-05
1.03577e-05
1.0358e-05
1.03584e-05
1.03587e-05
1.03591e-05
1.03595e-05
1.03598e-05
1.03603e-05
1.03607e-05
1.03611e-05
1.03616e-05
1.03621e-05
1.03626e-05
1.03632e-05
1.03638e-05
1.03644e-05
1.03651e-05
1.03657e-05
1.03665e-05
1.03673e-05
1.03681e-05
1.0369e-05
1.03699e-05
1.03708e-05
1.03718e-05
1.03729e-05
1.0374e-05
1.03752e-05
1.03764e-05
1.03777e-05
1.0379e-05
1.03804e-05
1.03819e-05
1.03835e-05
1.03851e-05
1.03868e-05
1.03886e-05
1.03906e-05
1.03927e-05
1.03949e-05
1.03972e-05
1.04e-05
1.03986e-05
1.90259e-05
1.90241e-05
1.90221e-05
1.90187e-05
1.9014e-05
1.90072e-05
1.89997e-05
1.89921e-05
1.89853e-05
1.89799e-05
1.89752e-05
1.89702e-05
1.89644e-05
1.89576e-05
1.7287e-05
1.72667e-05
1.72469e-05
1.72277e-05
1.72092e-05
1.71912e-05
1.7174e-05
1.71575e-05
1.71417e-05
1.71263e-05
1.71115e-05
1.7097e-05
1.70826e-05
1.70682e-05
1.70538e-05
1.70396e-05
1.70255e-05
1.70117e-05
1.69985e-05
1.6986e-05
1.69742e-05
1.69629e-05
1.69522e-05
1.69422e-05
1.69329e-05
1.69243e-05
1.69167e-05
1.69101e-05
1.69046e-05
1.69004e-05
1.68974e-05
1.68963e-05
1.68967e-05
1.68984e-05
1.69017e-05
1.69064e-05
1.69123e-05
1.69198e-05
1.69287e-05
1.69392e-05
1.69512e-05
1.69648e-05
1.69801e-05
1.69969e-05
1.70147e-05
1.70337e-05
1.70534e-05
1.7074e-05
1.70959e-05
1.71197e-05
1.71448e-05
1.71697e-05
1.71922e-05
1.7213e-05
1.72336e-05
1.72545e-05
1.72754e-05
1.72933e-05
1.73038e-05
1.7305e-05
1.72978e-05
1.72713e-05
1.72159e-05
1.71222e-05
1.69792e-05
1.67755e-05
1.64985e-05
1.61326e-05
1.56669e-05
1.51104e-05
1.44822e-05
1.38162e-05
1.31703e-05
1.26221e-05
1.22065e-05
1.18589e-05
1.15544e-05
1.12967e-05
1.10916e-05
1.09357e-05
1.0815e-05
1.07166e-05
1.06364e-05
1.05734e-05
1.05259e-05
1.04903e-05
1.04629e-05
1.0441e-05
1.04235e-05
1.04096e-05
1.03988e-05
1.03904e-05
1.03836e-05
1.0378e-05
1.03734e-05
1.03697e-05
1.03666e-05
1.03641e-05
1.03622e-05
1.03607e-05
1.03594e-05
1.03584e-05
1.03577e-05
1.03571e-05
1.03567e-05
1.03564e-05
1.03561e-05
1.0356e-05
1.0356e-05
1.0356e-05
1.0356e-05
1.0356e-05
1.03561e-05
1.03563e-05
1.03564e-05
1.03566e-05
1.03567e-05
1.03569e-05
1.03571e-05
1.03573e-05
1.03575e-05
1.03577e-05
1.03579e-05
1.03582e-05
1.03584e-05
1.03587e-05
1.0359e-05
1.03593e-05
1.03596e-05
1.03599e-05
1.03602e-05
1.03606e-05
1.0361e-05
1.03614e-05
1.03618e-05
1.03623e-05
1.03628e-05
1.03633e-05
1.03638e-05
1.03643e-05
1.03649e-05
1.03655e-05
1.03662e-05
1.03668e-05
1.03676e-05
1.03683e-05
1.03691e-05
1.037e-05
1.03709e-05
1.03718e-05
1.03728e-05
1.03739e-05
1.0375e-05
1.03762e-05
1.03774e-05
1.03787e-05
1.03801e-05
1.03815e-05
1.0383e-05
1.03845e-05
1.03862e-05
1.03878e-05
1.03896e-05
1.03915e-05
1.03935e-05
1.03955e-05
1.03978e-05
1.04001e-05
1.04026e-05
1.04052e-05
1.0408e-05
1.0411e-05
1.04141e-05
1.04175e-05
1.0421e-05
1.04247e-05
1.04286e-05
1.04327e-05
1.04369e-05
1.04414e-05
1.0446e-05
1.04508e-05
1.04559e-05
1.04613e-05
1.0467e-05
1.0473e-05
1.04795e-05
1.04863e-05
1.04937e-05
1.05015e-05
1.05098e-05
1.052e-05
1.05164e-05
1.91175e-05
1.91108e-05
1.91052e-05
1.90996e-05
1.90935e-05
1.90864e-05
1.90785e-05
1.90701e-05
1.90618e-05
1.90542e-05
1.90478e-05
1.90424e-05
1.90375e-05
1.90323e-05
1.74354e-05
1.74132e-05
1.73915e-05
1.73703e-05
1.73498e-05
1.73299e-05
1.73105e-05
1.72918e-05
1.72739e-05
1.72563e-05
1.7239e-05
1.72221e-05
1.72054e-05
1.71887e-05
1.71722e-05
1.71558e-05
1.71396e-05
1.71236e-05
1.71081e-05
1.7093e-05
1.70785e-05
1.70644e-05
1.70508e-05
1.70379e-05
1.70257e-05
1.70142e-05
1.70036e-05
1.69939e-05
1.69853e-05
1.69779e-05
1.69718e-05
1.69674e-05
1.69644e-05
1.69633e-05
1.69636e-05
1.6965e-05
1.69679e-05
1.69723e-05
1.69784e-05
1.69863e-05
1.6996e-05
1.70075e-05
1.70208e-05
1.70356e-05
1.70519e-05
1.707e-05
1.70897e-05
1.7111e-05
1.71343e-05
1.71591e-05
1.71848e-05
1.72115e-05
1.72386e-05
1.72664e-05
1.7296e-05
1.73278e-05
1.73614e-05
1.73951e-05
1.74257e-05
1.74544e-05
1.74845e-05
1.75161e-05
1.75476e-05
1.75754e-05
1.75951e-05
1.76015e-05
1.75966e-05
1.75724e-05
1.7515e-05
1.74111e-05
1.7246e-05
1.70064e-05
1.66793e-05
1.62509e-05
1.57187e-05
1.51006e-05
1.44251e-05
1.37384e-05
1.31054e-05
1.25925e-05
1.22076e-05
1.18818e-05
1.15947e-05
1.13501e-05
1.11518e-05
1.09976e-05
1.0878e-05
1.07804e-05
1.06985e-05
1.06314e-05
1.05782e-05
1.05368e-05
1.05046e-05
1.04788e-05
1.04574e-05
1.04395e-05
1.04246e-05
1.04124e-05
1.04026e-05
1.03946e-05
1.03882e-05
1.03829e-05
1.03786e-05
1.03752e-05
1.03725e-05
1.03705e-05
1.03691e-05
1.03681e-05
1.03675e-05
1.03671e-05
1.03669e-05
1.03669e-05
1.03671e-05
1.03673e-05
1.03677e-05
1.03681e-05
1.03686e-05
1.03692e-05
1.03697e-05
1.03704e-05
1.0371e-05
1.03717e-05
1.03724e-05
1.03732e-05
1.0374e-05
1.03748e-05
1.03757e-05
1.03766e-05
1.03776e-05
1.03787e-05
1.03798e-05
1.0381e-05
1.03822e-05
1.03835e-05
1.03849e-05
1.03864e-05
1.0388e-05
1.03896e-05
1.03914e-05
1.03932e-05
1.03951e-05
1.0397e-05
1.03991e-05
1.04013e-05
1.04036e-05
1.0406e-05
1.04086e-05
1.04113e-05
1.04142e-05
1.04172e-05
1.04204e-05
1.04238e-05
1.04275e-05
1.04313e-05
1.04353e-05
1.04396e-05
1.04441e-05
1.04487e-05
1.04536e-05
1.04587e-05
1.0464e-05
1.04696e-05
1.04754e-05
1.04815e-05
1.04879e-05
1.04946e-05
1.05017e-05
1.05093e-05
1.05174e-05
1.0526e-05
1.05352e-05
1.0545e-05
1.05555e-05
1.05666e-05
1.05785e-05
1.0591e-05
1.06042e-05
1.0618e-05
1.06325e-05
1.06476e-05
1.06633e-05
1.06796e-05
1.06965e-05
1.0714e-05
1.07322e-05
1.07512e-05
1.0771e-05
1.07919e-05
1.08141e-05
1.0838e-05
1.08632e-05
1.08963e-05
1.08912e-05
1.91939e-05
1.91853e-05
1.91779e-05
1.91716e-05
1.91659e-05
1.91604e-05
1.91546e-05
1.91483e-05
1.91417e-05
1.91351e-05
1.91288e-05
1.91234e-05
1.91186e-05
1.75803e-05
1.75567e-05
1.75336e-05
1.7511e-05
1.74888e-05
1.74674e-05
1.74465e-05
1.74261e-05
1.74061e-05
1.73866e-05
1.73673e-05
1.73483e-05
1.73296e-05
1.73109e-05
1.72924e-05
1.72741e-05
1.72559e-05
1.72379e-05
1.72202e-05
1.72029e-05
1.71859e-05
1.71693e-05
1.71532e-05
1.71376e-05
1.71227e-05
1.71085e-05
1.70951e-05
1.70826e-05
1.70711e-05
1.70607e-05
1.70516e-05
1.70439e-05
1.70378e-05
1.70332e-05
1.703e-05
1.70283e-05
1.70283e-05
1.70294e-05
1.70321e-05
1.70367e-05
1.70432e-05
1.70517e-05
1.7062e-05
1.70741e-05
1.70882e-05
1.71042e-05
1.71222e-05
1.71423e-05
1.71643e-05
1.71877e-05
1.72127e-05
1.72392e-05
1.72669e-05
1.72963e-05
1.73275e-05
1.73601e-05
1.73933e-05
1.7427e-05
1.74613e-05
1.74969e-05
1.75351e-05
1.75763e-05
1.7619e-05
1.76616e-05
1.77044e-05
1.77483e-05
1.77932e-05
1.78378e-05
1.78804e-05
1.79165e-05
1.79403e-05
1.7946e-05
1.79373e-05
1.79011e-05
1.78212e-05
1.76829e-05
1.74749e-05
1.71907e-05
1.68231e-05
1.6367e-05
1.5827e-05
1.5223e-05
1.4579e-05
1.39298e-05
1.33233e-05
1.28087e-05
1.24156e-05
1.20989e-05
1.18183e-05
1.15706e-05
1.13597e-05
1.11861e-05
1.10469e-05
1.09355e-05
1.08429e-05
1.07624e-05
1.06925e-05
1.06333e-05
1.05847e-05
1.05456e-05
1.05144e-05
1.04894e-05
1.04688e-05
1.04518e-05
1.04381e-05
1.04274e-05
1.04192e-05
1.04131e-05
1.04087e-05
1.04055e-05
1.04034e-05
1.04022e-05
1.04017e-05
1.04018e-05
1.04023e-05
1.04033e-05
1.04046e-05
1.04062e-05
1.04079e-05
1.04098e-05
1.04118e-05
1.0414e-05
1.04162e-05
1.04186e-05
1.0421e-05
1.04236e-05
1.04263e-05
1.04292e-05
1.04322e-05
1.04354e-05
1.04388e-05
1.04425e-05
1.04463e-05
1.04505e-05
1.04548e-05
1.04595e-05
1.04644e-05
1.04695e-05
1.04749e-05
1.04806e-05
1.04865e-05
1.04927e-05
1.04991e-05
1.05059e-05
1.0513e-05
1.05205e-05
1.05283e-05
1.05367e-05
1.05455e-05
1.05548e-05
1.05647e-05
1.05752e-05
1.05865e-05
1.05984e-05
1.06111e-05
1.06246e-05
1.06389e-05
1.06539e-05
1.06696e-05
1.06859e-05
1.07027e-05
1.07201e-05
1.0738e-05
1.07567e-05
1.0776e-05
1.07963e-05
1.08174e-05
1.08396e-05
1.0863e-05
1.08876e-05
1.09138e-05
1.09415e-05
1.0971e-05
1.10025e-05
1.10361e-05
1.1072e-05
1.11101e-05
1.11504e-05
1.11927e-05
1.12367e-05
1.12818e-05
1.13277e-05
1.13743e-05
1.14219e-05
1.14706e-05
1.15209e-05
1.15731e-05
1.16279e-05
1.16848e-05
1.17456e-05