/*--------------------------------*- C++ -*----------------------------------*\
| =========                 |                                                 |
| \\      /  F ield         | OpenFOAM: The Open Source CFD Toolbox           |
|  \\    /   O peration     | Version:  v1706                                 |
|   \\  /    A nd           | Web:      www.OpenFOAM.com                      |
|    \\/     M anipulation  |                                                 |
\*---------------------------------------------------------------------------*/
FoamFile
{
    version     2.0;
    format      ascii;
    class       volScalarField;
    location    "3.5e-05";
    object      p;
}
// * * * * * * * * * * * * * * * * * * * * * * * * * * * * * * * * * * * * * //

dimensions      [1 -1 -2 0 0 0 0];


internalField   nonuniform List<scalar> 
30104
(
21.981
21.9913
22.0029
22.016
22.0309
22.0477
22.0668
22.0887
22.1139
22.1428
22.1762
22.2148
22.2591
22.3095
22.3659
22.4281
22.4956
31.2241
30.3923
29.5443
28.7007
28.0092
27.5353
27.1663
26.8321
26.5061
26.1815
25.8588
25.5401
25.2268
24.9217
24.6292
24.3466
24.071
23.8271
23.6296
23.4597
23.3024
23.1512
23.0034
22.859
22.7199
22.587
22.4626
22.3547
22.2702
22.2066
22.157
22.1158
22.0806
22.0516
22.0285
22.0098
21.9941
21.9805
21.9687
21.9581
21.9488
21.9409
21.9346
21.9299
21.9265
21.9238
21.9218
21.9202
21.919
21.918
21.9172
21.9165
21.9159
21.9154
21.915
21.9147
21.9145
21.9143
21.9142
21.9142
21.9141
21.9141
21.914
21.914
21.914
21.9139
21.9139
21.9139
21.9139
21.9139
21.9139
21.9139
21.9139
21.9139
21.9139
21.9139
21.9139
21.9139
21.9139
21.9139
21.9139
21.9139
21.9139
21.9139
21.9139
21.9139
21.9139
21.9139
21.9139
21.9139
21.9139
21.9139
21.9139
21.9139
21.9139
21.9139
21.9139
21.9139
21.9139
21.9139
21.9139
21.9139
21.9139
21.9139
21.9139
21.9139
21.9139
21.9139
21.9139
21.9139
21.9139
21.9139
21.9139
21.9139
21.9139
21.9139
21.9139
21.9139
21.9139
21.9139
21.9139
21.9139
21.9139
21.9139
21.9139
21.9139
21.9139
21.9139
21.9139
21.9139
21.9139
21.9139
21.9139
21.9139
21.9139
21.9139
21.9139
21.9139
21.9139
21.9139
21.9139
21.9139
21.9139
21.9139
21.9139
21.9139
21.9139
21.9139
21.9139
21.9139
21.9139
21.9139
21.9139
21.9139
21.9139
21.9139
21.9139
21.9139
21.9139
21.9139
21.9139
21.9139
21.9139
21.9139
21.9139
21.9139
21.9139
21.9139
21.9139
21.9139
21.9139
21.9139
21.9139
21.9139
21.9139
21.9139
21.9139
21.9139
21.9139
21.9139
21.9139
21.9139
21.9139
21.9139
21.9139
21.9139
21.9139
21.9139
21.9139
21.9139
21.9139
21.9139
21.9139
22.3066
22.3665
22.4355
22.5151
22.6066
22.7111
22.8296
22.9629
23.1122
23.2796
23.4682
23.6829
23.9295
24.2134
24.5393
24.9103
25.3287
89.4549
87.6155
85.6603
83.55
81.1478
78.3978
75.4008
72.2355
68.9423
65.5405
62.0413
58.4582
54.8272
51.2102
47.6665
44.2363
40.9627
37.9076
35.1855
33.062
31.5477
30.3536
29.3089
28.3436
27.4368
26.6012
25.8717
25.2619
24.7541
24.3221
23.9461
23.615
23.3218
23.0631
22.841
22.6601
22.5182
22.406
22.3143
22.2381
22.1755
22.1249
22.0843
22.0515
22.0246
22.0024
21.9838
21.9684
21.956
21.9464
21.9392
21.9335
21.9291
21.9257
21.9231
21.921
21.9194
21.9181
21.9171
21.9162
21.9156
21.9151
21.9148
21.9146
21.9144
21.9143
21.9142
21.9141
21.914
21.914
21.914
21.9139
21.9139
21.9139
21.9139
21.9139
21.9139
21.9139
21.9139
21.9139
21.9139
21.9139
21.9139
21.9139
21.9139
21.9139
21.9139
21.9139
21.9139
21.9139
21.9139
21.9139
21.9139
21.9139
21.9139
21.9139
21.9139
21.9139
21.9139
21.9139
21.9139
21.9139
21.9139
21.9139
21.9139
21.9139
21.9139
21.9139
21.9139
21.9139
21.9139
21.9139
21.9139
21.9139
21.9139
21.9139
21.9139
21.9139
21.9139
21.9139
21.9139
21.9139
21.9139
21.9139
21.9139
21.9139
21.9139
21.9139
21.9139
21.9139
21.9139
21.9139
21.9139
21.9139
21.9139
21.9139
21.9139
21.9139
21.9139
21.9139
21.9139
21.9139
21.9139
21.9139
21.9139
21.9139
21.9139
21.9139
21.9139
21.9139
21.9139
21.9139
21.9139
21.9139
21.9139
21.9139
21.9139
21.9139
21.9139
21.9139
21.9139
21.9139
21.9139
21.9139
21.9139
21.9139
21.9139
21.9139
21.9139
21.9139
21.9139
21.9139
21.9139
21.9139
21.9139
21.9139
21.9139
21.9139
21.9139
21.9139
21.9139
21.9139
21.9139
21.9139
21.9139
21.9139
21.9139
21.9139
21.9139
21.9139
21.9139
21.9139
21.9139
23.3342
23.545
23.7851
24.0603
24.3775
24.7431
25.1631
25.6424
26.1849
26.7991
27.4965
28.2857
29.1705
30.1522
31.2338
32.4216
123.241
121.933
120.564
119.133
117.607
116.01
114.346
112.59
110.724
108.737
106.632
104.391
101.997
99.4626
96.7466
93.776
90.4804
86.7958
82.6248
77.7542
72.2148
66.3742
60.5377
54.8903
49.5521
44.6245
40.2026
36.4609
33.7105
31.7762
30.262
28.9632
27.8101
26.8054
25.9662
25.2792
24.7118
24.2326
23.8218
23.4666
23.1595
22.9015
22.6959
22.5377
22.4141
22.3145
22.2335
22.1683
22.1166
22.0754
22.0422
22.0152
21.9928
21.9743
21.9597
21.9486
21.9404
21.9341
21.9293
21.9257
21.9229
21.9207
21.919
21.9177
21.9167
21.9159
21.9153
21.9149
21.9146
21.9144
21.9143
21.9142
21.9141
21.9141
21.914
21.914
21.914
21.9139
21.9139
21.9139
21.9139
21.9139
21.9139
21.9139
21.9139
21.9139
21.9139
21.9139
21.9139
21.9139
21.9139
21.9139
21.9139
21.9139
21.9139
21.9139
21.9139
21.9139
21.9139
21.9139
21.9139
21.9139
21.9139
21.9139
21.9139
21.9139
21.9139
21.9139
21.9139
21.9139
21.9139
21.9139
21.9139
21.9139
21.9139
21.9139
21.9139
21.9139
21.9139
21.9139
21.9139
21.9139
21.9139
21.9139
21.9139
21.9139
21.9139
21.9139
21.9139
21.9139
21.9139
21.9139
21.9139
21.9139
21.9139
21.9139
21.9139
21.9139
21.9139
21.9139
21.9139
21.9139
21.9139
21.9139
21.9139
21.9139
21.9139
21.9139
21.9139
21.9139
21.9139
21.9139
21.9139
21.9139
21.9139
21.9139
21.9139
21.9139
21.9139
21.9139
21.9139
21.9139
21.9139
21.9139
21.9139
21.9139
21.9139
21.9139
21.9139
21.9139
21.9139
21.9139
21.9139
21.9139
21.9139
21.9139
21.9139
21.914
21.914
21.914
21.914
21.914
21.914
21.914
21.914
21.914
21.914
21.914
21.914
21.914
21.914
21.914
21.914
26.5686
27.2684
28.0689
28.9795
30.0051
31.1488
32.4155
33.8121
35.3567
37.063
39.0315
41.4484
44.4089
47.9599
52.1093
56.8361
127.312
126.732
126.162
125.607
125.074
124.573
124.1
123.649
123.219
122.781
122.282
121.626
120.761
119.704
118.49
117.138
115.65
114.033
112.272
110.318
108.141
105.73
103.032
99.9637
96.419
92.277
87.4598
81.9035
75.4906
68.5376
61.6003
55.0292
48.9865
43.5574
38.8596
35.1724
32.6517
30.8123
29.3086
28.0107
26.9026
25.9921
25.2569
24.6578
24.1582
23.7337
23.369
23.0584
22.8058
22.6117
22.4643
22.3489
22.2565
22.1828
22.125
22.0797
22.0439
22.0149
21.9911
21.9718
21.9569
21.9459
21.9379
21.9319
21.9274
21.924
21.9215
21.9196
21.9181
21.9169
21.916
21.9154
21.915
21.9147
21.9145
21.9144
21.9142
21.9142
21.9141
21.914
21.914
21.914
21.914
21.914
21.9139
21.9139
21.9139
21.9139
21.9139
21.9139
21.9139
21.9139
21.9139
21.9139
21.9139
21.9139
21.9139
21.9139
21.9139
21.9139
21.9139
21.9139
21.9139
21.9139
21.9139
21.9139
21.9139
21.9139
21.9139
21.9139
21.9139
21.9139
21.9139
21.9139
21.9139
21.9139
21.9139
21.9139
21.9139
21.9139
21.9139
21.9139
21.9139
21.9139
21.9139
21.9139
21.9139
21.9139
21.9139
21.9139
21.9139
21.9139
21.9139
21.9139
21.9139
21.9139
21.9139
21.9139
21.9139
21.9139
21.914
21.914
21.914
21.914
21.914
21.914
21.914
21.914
21.914
21.914
21.914
21.914
21.914
21.914
21.914
21.914
21.914
21.914
21.914
21.914
21.914
21.914
21.914
21.914
21.914
21.914
21.914
21.914
21.914
21.9141
21.9141
21.9141
21.9141
21.9141
21.9141
21.9141
21.9141
21.9141
21.9141
21.9141
21.9141
21.9141
21.9142
21.9142
21.9142
21.9142
21.9142
21.9142
21.9142
21.9142
21.9142
21.9143
21.9143
36.0511
37.9188
40.1152
42.8071
46.0892
50.0116
54.5869
59.7947
65.5904
71.9121
78.6009
85.3988
92.1405
98.7066
105.009
128.33
127.763
127.192
126.629
126.088
125.577
125.099
124.654
124.251
123.857
123.423
123.019
122.71
122.433
122.144
121.841
121.532
121.26
121.001
120.671
120.209
119.581
118.771
117.775
116.597
115.231
113.729
112.054
110.069
107.671
104.746
101.153
96.7786
91.5852
85.6014
78.8141
71.3192
63.7328
56.5211
49.8984
43.9806
38.9206
35.0182
32.4009
30.509
28.9659
27.6495
26.5521
25.6674
24.9586
24.3809
23.8981
23.4872
23.1379
22.853
22.6352
22.4733
22.3494
22.2519
22.1754
22.1163
22.0705
22.0345
22.0056
21.9822
21.9639
21.9504
21.9408
21.9338
21.9287
21.925
21.9222
21.9201
21.9185
21.9172
21.9163
21.9156
21.9152
21.9149
21.9146
21.9145
21.9144
21.9143
21.9142
21.9141
21.9141
21.914
21.914
21.914
21.914
21.914
21.914
21.914
21.914
21.914
21.914
21.914
21.914
21.914
21.914
21.914
21.914
21.914
21.914
21.914
21.914
21.914
21.914
21.914
21.914
21.914
21.914
21.914
21.914
21.914
21.914
21.914
21.914
21.914
21.914
21.914
21.914
21.914
21.914
21.914
21.914
21.914
21.914
21.914
21.914
21.914
21.914
21.914
21.914
21.914
21.914
21.9141
21.9141
21.9141
21.9141
21.9141
21.9141
21.9141
21.9141
21.9141
21.9141
21.9141
21.9141
21.9141
21.9142
21.9142
21.9142
21.9142
21.9142
21.9142
21.9142
21.9142
21.9142
21.9143
21.9143
21.9143
21.9143
21.9143
21.9143
21.9144
21.9144
21.9144
21.9144
21.9144
21.9145
21.9145
21.9145
21.9145
21.9146
21.9146
21.9146
21.9147
21.9147
21.9147
21.9148
21.9148
21.9148
21.9149
21.9149
21.9149
21.915
21.915
21.9151
21.9151
21.9152
21.9152
21.9153
21.9153
59.942
65.9343
72.5207
79.4926
86.6073
93.6904
100.606
107.246
113.528
119.393
124.809
129.744
134.161
138.042
141.389
144.221
127.906
127.42
126.952
126.499
126.06
125.637
125.229
124.851
124.513
124.176
123.828
123.556
123.328
123.123
122.896
122.641
122.4
122.183
121.972
121.787
121.661
121.573
121.521
121.485
121.485
121.589
121.655
121.514
121.182
120.673
119.951
118.988
117.836
116.563
115.086
113.231
110.814
107.658
103.627
98.6762
92.8538
86.2572
78.9147
70.9256
62.9053
55.3209
48.413
42.3503
37.3604
33.7702
31.3997
29.6138
28.1295
26.8905
25.8919
25.0992
24.4636
23.9396
23.4976
23.1261
22.828
22.6049
22.4417
22.3185
22.2234
22.1504
22.0947
22.0519
22.0182
21.9913
21.9701
21.9545
21.9436
21.9359
21.9304
21.9264
21.9234
21.9211
21.9193
21.918
21.9169
21.9162
21.9156
21.9153
21.915
21.9148
21.9146
21.9145
21.9144
21.9143
21.9143
21.9142
21.9142
21.9142
21.9141
21.9141
21.9141
21.9141
21.9141
21.9141
21.9141
21.9141
21.9141
21.9141
21.9141
21.9141
21.9141
21.9141
21.9141
21.9141
21.9141
21.9141
21.9142
21.9142
21.9142
21.9142
21.9142
21.9142
21.9142
21.9142
21.9142
21.9142
21.9142
21.9142
21.9143
21.9143
21.9143
21.9143
21.9143
21.9143
21.9143
21.9143
21.9144
21.9144
21.9144
21.9144
21.9144
21.9144
21.9145
21.9145
21.9145
21.9145
21.9146
21.9146
21.9146
21.9147
21.9147
21.9147
21.9148
21.9148
21.9148
21.9149
21.9149
21.9149
21.915
21.915
21.9151
21.9151
21.9152
21.9152
21.9153
21.9154
21.9154
21.9155
21.9156
21.9156
21.9157
21.9158
21.9159
21.9159
21.916
21.9161
21.9162
21.9163
21.9164
21.9165
21.9167
21.9168
21.9169
21.917
21.9172
21.9173
21.9175
21.9176
21.9178
21.918
21.9182
21.9184
21.9186
21.9188
21.919
21.9193
21.9192
113.057
119.37
125.208
130.521
135.268
139.428
143.008
146.033
148.535
150.594
152.312
153.775
155.025
127.312
126.856
126.425
126.016
125.628
125.258
124.9
124.574
124.297
124.021
123.763
123.557
123.385
123.233
123.074
122.911
122.752
122.596
122.46
122.368
122.312
122.287
122.296
122.316
122.369
122.51
122.656
122.758
122.867
123.019
123.224
123.473
123.743
123.865
123.791
123.529
123.05
122.341
121.473
120.494
119.342
117.853
115.782
112.892
109.048
104.222
98.4687
91.8937
84.5711
76.4493
67.8045
59.3465
51.5425
44.6552
38.9065
34.6037
31.8167
29.8406
28.2465
26.9315
25.8796
25.0508
24.3919
23.8519
23.3998
23.0275
22.7399
22.5318
22.3814
22.2688
22.1833
22.1186
22.0695
22.0316
22.0016
21.9782
21.9609
21.9488
21.9403
21.9341
21.9296
21.9261
21.9235
21.9215
21.9198
21.9185
21.9175
21.9168
21.9163
21.9159
21.9156
21.9153
21.9152
21.915
21.9149
21.9148
21.9147
21.9147
21.9146
21.9146
21.9146
21.9146
21.9146
21.9146
21.9146
21.9146
21.9146
21.9146
21.9146
21.9147
21.9147
21.9147
21.9147
21.9147
21.9148
21.9148
21.9148
21.9148
21.9149
21.9149
21.9149
21.915
21.915
21.915
21.9151
21.9151
21.9151
21.9152
21.9152
21.9153
21.9153
21.9154
21.9154
21.9155
21.9155
21.9156
21.9157
21.9158
21.9158
21.9159
21.916
21.9161
21.9162
21.9163
21.9164
21.9165
21.9166
21.9167
21.9168
21.9169
21.9171
21.9172
21.9173
21.9175
21.9176
21.9178
21.918
21.9181
21.9183
21.9185
21.9187
21.9189
21.9192
21.9194
21.9197
21.9199
21.9202
21.9205
21.9208
21.9211
21.9215
21.9218
21.9222
21.9226
21.923
21.9234
21.9239
21.9243
21.9249
21.9254
21.9259
21.9265
21.9271
21.9277
21.9283
21.9289
21.9296
21.9304
21.9312
21.932
21.9329
21.9339
21.9337
149.386
151.753
153.705
155.344
156.723
157.886
158.857
159.635
160.181
160.51
160.668
160.74
160.711
126.711
126.286
125.887
125.514
125.164
124.837
124.535
124.264
124.019
123.791
123.594
123.429
123.288
123.159
123.039
122.928
122.822
122.722
122.641
122.597
122.592
122.624
122.686
122.766
122.873
123.013
123.157
123.308
123.478
123.684
123.932
124.224
124.534
124.799
125.048
125.319
125.629
125.966
126.302
126.526
126.592
126.485
126.16
125.648
125.009
124.218
123.231
121.906
119.977
117.172
113.345
108.484
102.644
95.9038
88.3168
79.8435
70.5871
61.3553
52.8287
45.3629
39.1972
34.6205
31.6886
29.6474
28.0224
26.7041
25.6629
24.848
24.2013
23.6707
23.2317
22.8841
22.6296
22.4506
22.3215
22.2251
22.1523
22.0973
22.0551
22.0221
21.996
21.9758
21.9609
21.9503
21.9425
21.9367
21.9323
21.9289
21.9263
21.9241
21.9224
21.921
21.9198
21.9189
21.9182
21.9176
21.9172
21.9169
21.9166
21.9165
21.9164
21.9163
21.9162
21.9162
21.9162
21.9162
21.9162
21.9162
21.9163
21.9163
21.9164
21.9165
21.9165
21.9166
21.9167
21.9168
21.9168
21.9169
21.917
21.9171
21.9172
21.9173
21.9174
21.9176
21.9177
21.9178
21.9179
21.9181
21.9182
21.9184
21.9185
21.9187
21.9189
21.9191
21.9193
21.9195
21.9197
21.92
21.9202
21.9205
21.9207
21.921
21.9213
21.9217
21.922
21.9224
21.9228
21.9232
21.9236
21.924
21.9245
21.925
21.9255
21.926
21.9266
21.9272
21.9278
21.9284
21.9291
21.9298
21.9305
21.9313
21.9321
21.933
21.9339
21.9348
21.9358
21.9368
21.9379
21.939
21.9402
21.9414
21.9428
21.9442
21.9456
21.9472
21.9488
21.9504
21.9522
21.954
21.9559
21.958
21.9602
21.9625
21.965
21.9677
21.9705
21.9735
21.9765
21.9797
21.9829
21.9867
21.9868
161.229
161.913
162.338
162.558
162.671
162.659
162.618
162.558
162.527
162.55
162.597
162.591
162.521
162.373
126.145
125.745
125.382
125.054
124.744
124.456
124.197
123.967
123.758
123.57
123.412
123.281
123.163
123.057
122.972
122.898
122.83
122.769
122.727
122.713
122.733
122.786
122.867
122.975
123.105
123.248
123.404
123.584
123.797
124.046
124.326
124.624
124.923
125.215
125.516
125.837
126.179
126.539
126.903
127.251
127.602
127.968
128.357
128.759
129.124
129.371
129.513
129.494
129.285
128.954
128.542
127.95
127.041
125.706
123.704
120.767
116.747
111.632
105.464
98.2949
90.1636
81.0545
71.1206
61.2729
52.2927
44.5657
38.3465
33.9
31.1184
29.1498
27.5809
26.3268
25.3461
24.5817
23.974
23.4776
23.0791
22.779
22.5665
22.4164
22.3055
22.2209
22.1557
22.1054
22.0659
22.0345
22.0091
21.9889
21.9735
21.9619
21.9531
21.9464
21.9412
21.937
21.9337
21.931
21.9288
21.927
21.9255
21.9243
21.9233
21.9225
21.922
21.9216
21.9214
21.9213
21.9213
21.9213
21.9214
21.9216
21.9217
21.9219
21.9222
21.9224
21.9226
21.9229
21.9232
21.9235
21.9238
21.9241
21.9244
21.9247
21.9251
21.9255
21.9259
21.9263
21.9268
21.9272
21.9277
21.9283
21.9288
21.9294
21.93
21.9307
21.9314
21.9321
21.9329
21.9337
21.9346
21.9355
21.9364
21.9374
21.9384
21.9395
21.9407
21.9419
21.9432
21.9445
21.9459
21.9474
21.9489
21.9506
21.9522
21.954
21.9559
21.9578
21.9598
21.962
21.9642
21.9666
21.9691
21.9718
21.9745
21.9775
21.9806
21.9839
21.9874
21.9912
21.9951
21.9993
22.0038
22.0085
22.0134
22.0185
22.0239
22.0295
22.0354
22.0417
22.0483
22.0553
22.0627
22.0704
22.0784
22.0867
22.0953
22.1042
22.1138
22.124
22.1349
22.1468
22.1593
22.1738
22.1753
164.51
164.504
164.537
164.546
164.493
164.354
164.15
163.898
163.627
163.406
163.246
163.103
162.937
162.734
125.605
125.252
124.929
124.634
124.364
124.117
123.894
123.696
123.522
123.365
123.23
123.125
123.036
122.959
122.898
122.849
122.808
122.778
122.765
122.776
122.814
122.881
122.975
123.094
123.231
123.379
123.544
123.734
123.955
124.21
124.489
124.786
125.091
125.408
125.745
126.1
126.464
126.83
127.191
127.556
127.938
128.341
128.759
129.17
129.557
129.97
130.415
130.869
131.339
131.831
132.288
132.619
132.813
132.847
132.755
132.61
132.404
131.99
131.178
129.801
127.68
124.529
120.188
114.639
107.881
99.9311
90.8548
80.7488
69.9967
59.6746
50.5107
42.837
36.9069
32.9039
30.4341
28.6213
27.1738
26.0324
25.1473
24.4585
23.9079
23.4566
23.0941
22.8181
22.6175
22.4721
22.3627
22.2773
22.2099
22.1566
22.1142
22.0799
22.0516
22.028
22.0083
21.9921
21.9792
21.9691
21.9613
21.9552
21.9506
21.947
21.9443
21.9423
21.9409
21.9398
21.9391
21.9387
21.9386
21.9386
21.9389
21.9393
21.9398
21.9405
21.9413
21.9421
21.943
21.944
21.9449
21.946
21.9471
21.9482
21.9494
21.9506
21.9519
21.9533
21.9547
21.9562
21.9578
21.9595
21.9613
21.9632
21.9652
21.9673
21.9694
21.9717
21.9742
21.9767
21.9794
21.9823
21.9853
21.9885
21.9918
21.9954
21.9992
22.0032
22.0075
22.012
22.0168
22.0219
22.0272
22.0329
22.0388
22.0451
22.0518
22.0587
22.066
22.0737
22.0816
22.0899
22.0985
22.1075
22.117
22.127
22.1376
22.1488
22.1606
22.173
22.1862
22.2001
22.2148
22.2303
22.2469
22.2644
22.2831
22.3028
22.3235
22.3453
22.3679
22.3915
22.4161
22.442
22.4694
22.4988
22.5304
22.5646
22.6015
22.641
22.6828
22.727
22.7725
22.8264
22.8396
165.742
165.466
165.248
165.066
164.871
164.646
164.38
164.08
163.761
163.433
163.132
162.878
162.658
162.45
125.099
124.791
124.507
124.247
124.011
123.8
123.606
123.433
123.288
123.162
123.055
122.969
122.901
122.848
122.809
122.781
122.763
122.757
122.768
122.798
122.852
122.93
123.031
123.154
123.293
123.447
123.619
123.814
124.038
124.29
124.564
124.854
125.159
125.487
125.834
126.192
126.556
126.92
127.286
127.668
128.07
128.491
128.914
129.326
129.746
130.192
130.662
131.153
131.663
132.166
132.657
133.191
133.752
134.315
134.905
135.538
136.155
136.633
136.928
137.08
137.172
137.244
137.208
136.877
136.024
134.409
131.901
128.315
123.466
117.253
109.61
100.583
90.3481
79.194
67.8428
57.4335
48.517
41.3178
35.9844
32.497
30.3148
28.6578
27.3114
26.236
25.3895
24.7205
24.1826
23.7376
23.3682
23.0705
22.84
22.666
22.534
22.4305
22.3464
22.2771
22.2203
22.1737
22.1354
22.1037
22.0773
22.0552
22.037
22.0225
22.0115
22.0036
21.9983
21.9949
21.993
21.9921
21.9922
21.9929
21.9941
21.9958
21.9978
22.0001
22.0028
22.0056
22.0086
22.0118
22.0152
22.0188
22.0226
22.0265
22.0306
22.035
22.0396
22.0445
22.0497
22.0552
22.061
22.0672
22.0738
22.0808
22.0882
22.0961
22.1045
22.1133
22.1224
22.132
22.1421
22.1526
22.1637
22.1753
22.1876
22.2005
22.2141
22.2285
22.2437
22.2598
22.2768
22.2948
22.3138
22.3339
22.355
22.3772
22.4005
22.425
22.4507
22.4777
22.5062
22.5361
22.5676
22.6009
22.6362
22.6735
22.7132
22.7557
22.8011
22.8499
22.9022
22.9583
23.0181
23.0817
23.149
23.2199
23.2945
23.3731
23.4559
23.5432
23.6351
23.7319
23.8332
23.9385
24.0472
24.1594
24.276
24.3987
24.5301
24.6743
24.8273
25.0182
25.1071
165.786
165.424
165.071
164.761
164.491
164.245
164.003
163.752
163.488
163.209
162.929
162.666
162.431
124.617
124.348
124.102
123.876
123.666
123.482
123.319
123.176
123.054
122.951
122.867
122.801
122.752
122.718
122.698
122.689
122.691
122.705
122.735
122.782
122.848
122.934
123.041
123.165
123.306
123.463
123.64
123.84
124.065
124.312
124.58
124.868
125.175
125.504
125.849
126.205
126.567
126.927
127.296
127.681
128.086
128.502
128.921
129.343
129.784
130.245
130.729
131.234
131.742
132.248
132.787
133.362
133.953
134.573
135.241
135.933
136.609
137.283
137.983
138.731
139.561
140.433
141.236
141.926
142.542
143.09
143.549
143.845
143.851
143.388
142.209
140.076
136.921
132.543
126.733
119.409
110.64
100.686
89.8966
78.6639
67.6919
57.8742
49.517
42.6907
37.4434
33.7585
31.4024
29.7227
28.3447
27.2075
26.2891
25.551
24.9516
24.4562
24.0359
23.6712
23.3576
23.0958
22.8854
22.7211
22.5938
22.4939
22.414
22.3499
22.2993
22.26
22.2297
22.2069
22.1901
22.1783
22.1707
22.167
22.1665
22.1685
22.1726
22.1787
22.1862
22.1947
22.2041
22.2143
22.225
22.2362
22.248
22.2604
22.2733
22.287
22.3013
22.3163
22.3323
22.3491
22.3671
22.3863
22.4067
22.4283
22.451
22.475
22.5003
22.527
22.5551
22.5848
22.6159
22.6488
22.6834
22.72
22.7586
22.7995
22.843
22.8892
22.9384
22.9908
23.0468
23.1065
23.1702
23.2383
23.3109
23.3883
23.4705
23.5573
23.6483
23.7429
23.8409
23.9424
24.0479
24.1582
24.2738
24.3955
24.5239
24.6596
24.8033
24.9555
25.1171
25.2892
25.4732
25.671
25.8842
26.1144
26.362
26.6266
26.9068
27.2001
27.504
27.8173
28.142
28.4828
28.8461
29.2398
29.6698
30.1453
30.6585
31.2292
31.8146
32.4791
33.1025
165.357
165.053
164.741
164.441
164.164
163.914
163.682
163.458
163.234
163.001
162.762
162.523
162.293
123.695
123.5
123.322
123.164
123.025
122.905
122.805
122.722
122.658
122.611
122.58
122.564
122.561
122.57
122.589
122.62
122.665
122.725
122.8
122.893
123.003
123.128
123.271
123.432
123.613
123.816
124.041
124.287
124.553
124.84
125.147
125.475
125.816
126.167
126.523
126.883
127.258
127.644
128.044
128.454
128.871
129.302
129.75
130.217
130.704
131.204
131.709
132.236
132.798
133.383
133.995
134.644
135.316
135.995
136.7
137.447
138.236
139.075
139.946
140.827
141.731
142.709
143.779
144.876
145.91
146.878
147.838
148.814
149.751
150.561
151.248
151.723
151.538
150.419
148.352
145.434
141.468
136.242
129.782
122.208
113.653
104.258
94.2431
83.8945
73.6006
64.0658
55.7162
48.6248
42.7888
38.1857
34.7587
32.3777
30.7265
29.3634
28.1841
27.1828
26.3475
25.6539
25.0758
24.5912
24.1801
23.8269
23.5287
23.287
23.101
22.9646
22.8677
22.7996
22.7521
22.7208
22.7035
22.6977
22.7013
22.7113
22.7272
22.7482
22.7734
22.802
22.8333
22.867
22.903
22.9409
22.9808
23.0228
23.0671
23.114
23.1637
23.2163
23.2723
23.332
23.396
23.4648
23.5388
23.6184
23.7037
23.7944
23.89
23.99
24.094
24.2023
24.3152
24.433
24.5562
24.6852
24.8205
24.9627
25.1123
25.2704
25.4379
25.616
25.8058
26.0085
26.2248
26.4554
26.7007
26.9612
27.2373
27.5292
27.8366
28.1593
28.4979
28.8534
29.2268
29.6197
30.0345
30.4746
30.9451
31.4525
32.0041
32.6078
33.271
33.9992
34.7953
35.6601
36.5945
37.6028
38.6956
39.8895
41.1891
42.5736
44.0299
45.5548
47.1065
48.6578
50.1317
51.5324
52.8179
54.0653
55.3315
56.5984
58.4404
164.709
164.446
164.181
163.924
163.681
163.453
163.238
163.03
162.825
162.617
162.406
162.196
123.287
123.117
122.965
122.829
122.713
122.614
122.533
122.471
122.426
122.398
122.385
122.386
122.399
122.422
122.457
122.502
122.558
122.627
122.709
122.806
122.918
123.046
123.191
123.355
123.54
123.746
123.972
124.219
124.485
124.773
125.08
125.404
125.742
126.089
126.443
126.805
127.178
127.563
127.965
128.372
128.79
129.225
129.678
130.148
130.634
131.131
131.646
132.189
132.758
133.351
133.972
134.617
135.28
135.969
136.698
137.469
138.282
139.129
139.989
140.866
141.814
142.862
143.963
145.043
146.101
147.235
148.504
149.886
151.309
152.68
153.947
155.077
156.051
156.896
157.621
158.214
158.45
158.105
157.2
155.636
153.34
150.203
146.139
141.11
135.166
128.42
120.963
112.899
104.388
95.5995
86.6659
77.7532
69.1524
61.2674
54.2074
48.0021
42.6987
38.3532
35.0017
32.6081
30.9444
29.5904
28.4386
27.4845
26.7141
26.0995
25.6126
25.231
24.9353
24.7089
24.5447
24.438
24.3823
24.3657
24.383
24.4238
24.4862
24.565
24.6565
24.7573
24.8655
24.9801
25.1008
25.2275
25.3603
25.4991
25.6449
25.7987
25.9623
26.1369
26.3234
26.5227
26.7354
26.9622
27.2042
27.4621
27.7363
28.0266
28.3322
28.6534
28.9908
29.345
29.717
30.108
30.5202
30.9562
31.4194
31.9137
32.443
33.0117
33.6253
34.2904
35.0151
35.8087
36.6812
37.6421
38.6985
39.8531
41.083
42.3506
43.6456
44.9678
46.3183
47.699
49.1113
50.5537
52.0184
53.4906
54.9495
56.3723
57.7399
59.045
60.2973
61.5225
62.7507
64.0023
65.269
66.5065
67.6647
68.6976
69.541
70.1607
70.6178
70.9726
71.35
71.8142
72.4868
73.3328
74.4372
75.5003
76.6525
164.422
164.19
163.959
163.729
163.504
163.287
163.081
162.883
162.69
162.501
122.863
122.717
122.587
122.474
122.378
122.299
122.239
122.197
122.171
122.161
122.165
122.182
122.21
122.247
122.293
122.348
122.413
122.488
122.575
122.675
122.79
122.92
123.068
123.236
123.425
123.634
123.864
124.112
124.381
124.669
124.975
125.297
125.632
125.976
126.329
126.692
127.067
127.452
127.85
128.257
128.683
129.123
129.577
130.049
130.537
131.041
131.565
132.115
132.688
133.284
133.904
134.54
135.201
135.901
136.648
137.438
138.246
139.044
139.872
140.804
141.834
142.873
143.86
144.868
146.002
147.274
148.633
150.002
151.327
152.622
153.928
155.254
156.644
158.1
159.474
160.604
161.425
162.012
162.429
162.682
162.715
162.579
162.271
161.689
160.744
159.348
157.356
154.694
151.324
147.257
142.57
137.346
131.624
125.398
118.643
111.348
103.544
95.3044
86.7309
77.9634
69.3077
61.31
54.1953
48.0449
42.9136
38.8335
35.7984
33.7288
32.3821
31.3669
30.5726
29.9837
29.5827
29.3475
29.2452
29.2469
29.3325
29.4783
29.6848
29.9383
30.2298
30.5518
30.8993
31.2696
31.6619
32.0767
32.5148
32.9768
33.4641
33.9806
34.5342
35.1344
35.791
36.5134
37.3118
38.1985
39.1864
40.273
41.4196
42.6075
43.8336
45.0982
46.4014
47.7415
49.1139
50.5101
51.9199
53.3337
54.7446
56.1487
57.5432
58.9237
60.2818
61.6042
62.8742
64.074
65.1888
66.2119
67.1656
68.0861
68.9862
69.8682
70.7268
71.5497
72.3191
73.0182
73.6378
74.1824
74.6697
75.1278
75.5892
76.083
76.6255
77.2051
77.7755
78.2686
78.6091
78.7669
78.8065
78.7777
78.7502
78.7769
78.8803
79.1265
79.5681
80.1392
80.728
81.1477
81.3344
81.3238
80.9369
163.981
163.772
163.565
163.36
163.16
162.965
162.776
162.593
162.414
122.295
122.187
122.096
122.021
121.964
121.925
121.902
121.895
121.903
121.923
121.954
121.994
122.042
122.097
122.16
122.23
122.31
122.401
122.504
122.621
122.756
122.909
123.081
123.275
123.488
123.721
123.973
124.243
124.532
124.837
125.157
125.489
125.832
126.186
126.549
126.924
127.311
127.71
128.12
128.547
128.992
129.452
129.932
130.421
130.93
131.461
132.014
132.586
133.177
133.792
134.437
135.118
135.839
136.596
137.372
138.153
138.974
139.875
140.828
141.783
142.737
143.744
144.831
145.998
147.236
148.511
149.79
151.066
152.363
153.702
155.098
156.605
158.131
159.465
160.647
161.632
162.37
163.057
163.821
164.575
165.158
165.581
165.85
165.921
165.691
165.139
164.373
163.462
162.483
161.489
160.392
159.111
157.585
155.737
153.464
150.636
147.119
142.812
137.69
131.84
125.346
118.259
110.659
102.67
94.4414
86.1206
77.8944
70.1256
63.2821
57.548
52.9674
49.5163
47.1052
45.5861
44.7827
44.4723
44.5352
44.9486
45.591
46.4218
47.3786
48.415
49.5145
50.663
51.8434
53.0455
54.271
55.5281
56.8154
58.1169
59.4123
60.6853
61.927
63.1311
64.2829
65.3616
66.3645
67.3284
68.2735
69.2038
70.1122
70.9839
71.8047
72.5688
73.2823
73.9599
74.6163
75.2598
75.889
76.4944
77.0637
77.5862
78.0571
78.4784
78.8585
79.2096
79.5434
79.8664
80.1751
80.4579
80.702
80.8996
81.0521
81.1724
81.2725
81.3698
81.4849
81.6344
81.8229
82.0461
82.2772
82.4739
82.5862
82.5988
82.5308
82.367
82.1864
82.0482
81.9728
81.9601
82.0276
82.1984
82.432
82.6457
82.7395
82.7376
82.6362
82.4491
82.2113
81.8373
163.815
163.621
121.856
121.77
121.701
121.648
121.613
121.594
121.59
121.601
121.625
121.659
121.702
121.751
121.807
121.868
121.936
122.01
122.094
122.188
122.296
122.418
122.558
122.717
122.896
123.094
123.312
123.549
123.804
124.077
124.366
124.67
124.989
125.32
125.663
126.017
126.381
126.756
127.143
127.546
127.963
128.396
128.844
129.306
129.783
130.277
130.796
131.329
131.876
132.45
133.054
133.685
134.345
135.037
135.762
136.511
137.276
138.075
138.931
139.826
140.735
141.669
142.65
143.685
144.78
145.932
147.13
148.356
149.595
150.859
152.179
153.55
154.969
156.472
157.913
159.159
160.326
161.385
162.196
162.916
163.722
164.607
165.292
165.802
166.186
166.388
166.447
166.407
166.34
166.289
166.232
166.074
165.768
165.387
164.941
164.405
163.772
163.039
162.198
161.242
160.187
158.994
157.473
155.491
152.934
149.709
145.739
140.994
135.552
129.525
122.992
116.047
108.911
101.869
95.2288
89.2771
84.2396
80.2481
77.2975
75.2379
73.9211
73.2084
72.9174
72.9276
73.2056
73.6652
74.218
74.837
75.4788
76.0992
76.6675
77.1899
77.6882
78.1684
78.6266
79.0561
79.4576
79.8426
80.2198
80.5829
80.9143
81.2001
81.4415
81.6561
81.8672
82.0914
82.3343
82.5885
82.8381
83.0661
83.2619
83.423
83.5536
83.6617
83.7567
83.8467
83.9361
84.0256
84.1114
84.1843
84.2346
84.2592
84.2638
84.2586
84.2524
84.2518
84.2649
84.3004
84.359
84.429
84.4915
84.5258
84.52
84.4727
84.3622
84.2079
84.0426
83.8939
83.7837
83.7233
83.7082
83.7543
83.8551
83.9781
84.0659
84.088
84.0618
83.9663
83.7871
83.5481
83.2838
82.9737
121.404
121.341
121.294
121.264
121.249
121.25
121.264
121.29
121.327
121.372
121.423
121.479
121.54
121.606
121.678
121.757
121.845
121.944
122.057
122.187
122.334
122.501
122.686
122.891
123.113
123.353
123.611
123.886
124.177
124.481
124.798
125.128
125.47
125.826
126.195
126.574
126.965
127.369
127.786
128.218
128.667
129.132
129.614
130.111
130.625
131.161
131.725
132.321
132.937
133.576
134.244
134.941
135.664
136.408
137.181
137.996
138.851
139.733
140.642
141.588
142.579
143.617
144.703
145.833
146.999
148.194
149.417
150.69
152.032
153.408
154.819
156.277
157.661
158.892
160.068
161.24
162.11
162.765
163.512
164.384
164.957
165.439
165.95
166.278
166.456
166.618
166.779
166.879
166.866
166.7
166.423
166.212
166.056
165.9
165.795
165.818
165.987
166.24
166.454
166.469
166.253
165.833
165.206
164.373
163.338
162.118
160.672
158.785
156.318
153.192
149.32
144.615
139.071
132.781
125.95
118.892
111.985
105.631
100.145
95.6736
92.2183
89.6467
87.776
86.448
85.5187
84.8751
84.4543
84.2324
84.145
84.1435
84.2014
84.2984
84.412
84.5258
84.6354
84.739
84.8247
84.8888
84.9457
85.0122
85.0975
85.201
85.3126
85.4171
85.5004
85.5568
85.5919
85.6162
85.6375
85.6597
85.6846
85.7133
85.7464
85.7824
85.8179
85.8481
85.8679
85.8733
85.8665
85.8541
85.8416
85.832
85.8292
85.8382
85.8602
85.8898
85.9144
85.923
85.9136
85.8802
85.8099
85.7066
85.582
85.4528
85.3402
85.2631
85.2262
85.2267
85.2771
85.367
85.4624
85.5148
85.5142
85.4602
85.333
85.1308
84.8879
84.6486
84.4381
84.2785
120.946
120.906
120.881
120.871
120.875
120.893
120.922
120.961
121.008
121.06
121.117
121.178
121.243
121.313