/*--------------------------------*- C++ -*----------------------------------*\
| =========                 |                                                 |
| \\      /  F ield         | OpenFOAM: The Open Source CFD Toolbox           |
|  \\    /   O peration     | Version:  v1706                                 |
|   \\  /    A nd           | Web:      www.OpenFOAM.com                      |
|    \\/     M anipulation  |                                                 |
\*---------------------------------------------------------------------------*/
FoamFile
{
    version     2.0;
    format      ascii;
    class       volScalarField;
    location    "3.5e-05";
    object      rho;
}
// * * * * * * * * * * * * * * * * * * * * * * * * * * * * * * * * * * * * * //

dimensions      [1 -3 0 0 0 0 0];


internalField   nonuniform List<scalar> 
30104
(
0.000511821
0.000511901
0.00051199
0.000512089
0.000512198
0.00051232
0.000512459
0.00051262
0.000512809
0.000513032
0.000513297
0.000513611
0.000513976
0.00051439
0.000514848
0.000515339
0.000515852
0.000603898
0.000593714
0.000583238
0.000572711
0.000564273
0.000558864
0.000555018
0.000551758
0.000548695
0.000545725
0.000542852
0.000540104
0.00053749
0.000535034
0.00053279
0.00053068
0.000528619
0.000527004
0.000525985
0.000525065
0.00052399
0.000522784
0.000521502
0.00052019
0.000518886
0.000517581
0.000516287
0.000515136
0.000514265
0.000513667
0.000513246
0.000512915
0.000512641
0.000512428
0.000512273
0.000512147
0.000512032
0.000511923
0.000511821
0.000511724
0.000511632
0.000511549
0.000511484
0.000511439
0.000511409
0.000511388
0.000511373
0.000511362
0.000511353
0.000511347
0.00051134
0.000511334
0.000511329
0.000511323
0.000511319
0.000511316
0.000511314
0.000511313
0.000511312
0.000511311
0.000511311
0.000511311
0.00051131
0.00051131
0.00051131
0.00051131
0.00051131
0.000511309
0.000511309
0.000511309
0.000511309
0.000511309
0.000511309
0.000511309
0.000511309
0.000511309
0.000511309
0.000511309
0.000511309
0.000511309
0.000511309
0.000511309
0.000511309
0.000511309
0.000511309
0.000511309
0.000511309
0.000511309
0.000511309
0.000511309
0.000511309
0.000511309
0.000511309
0.000511309
0.000511309
0.000511309
0.000511309
0.000511309
0.000511309
0.000511309
0.000511309
0.000511309
0.000511309
0.000511309
0.000511309
0.000511309
0.000511309
0.000511309
0.000511309
0.000511309
0.000511309
0.000511309
0.000511309
0.000511309
0.000511309
0.000511309
0.000511309
0.000511309
0.000511309
0.000511309
0.000511309
0.000511309
0.000511309
0.000511309
0.000511309
0.000511309
0.000511309
0.000511309
0.000511309
0.000511309
0.000511309
0.000511309
0.000511309
0.000511309
0.000511309
0.000511309
0.000511309
0.000511309
0.000511309
0.000511309
0.000511309
0.000511309
0.000511309
0.000511309
0.000511309
0.000511309
0.000511309
0.000511309
0.000511309
0.000511309
0.000511309
0.000511309
0.000511309
0.000511309
0.000511309
0.000511309
0.000511309
0.000511309
0.000511309
0.000511309
0.000511309
0.000511309
0.000511309
0.000511309
0.000511309
0.000511309
0.000511309
0.000511309
0.000511309
0.000511309
0.000511309
0.000511309
0.000511309
0.000511309
0.000511309
0.000511309
0.000511309
0.000511309
0.000511309
0.000511309
0.000511309
0.000511309
0.000511309
0.000511309
0.000511309
0.000511309
0.000511309
0.000511309
0.000511309
0.000511309
0.000511309
0.000511309
0.000511309
0.000513952
0.000514364
0.000514846
0.000515407
0.000516056
0.000516796
0.00051763
0.000518556
0.000519581
0.000520714
0.000521976
0.000523412
0.000525088
0.000527072
0.000529422
0.000532176
0.00053536
0.00122444
0.00120211
0.00117844
0.0011533
0.00112551
0.00109465
0.00106187
0.00102786
0.000992826
0.000956794
0.00091975
0.000881736
0.000843055
0.00080433
0.000766195
0.000729059
0.00069343
0.000660108
0.000630563
0.000608303
0.000593449
0.000582468
0.000573247
0.000564906
0.000557142
0.000550092
0.000544205
0.000539502
0.000535512
0.00053193
0.000528708
0.000525852
0.00052332
0.000521048
0.000519054
0.000517428
0.00051619
0.000515252
0.000514508
0.000513903
0.000513416
0.000513029
0.000512715
0.000512455
0.000512238
0.000512055
0.000511898
0.000511762
0.000511651
0.000511568
0.000511508
0.000511463
0.000511429
0.000511403
0.000511383
0.000511367
0.000511355
0.000511344
0.000511336
0.000511328
0.000511323
0.000511319
0.000511316
0.000511314
0.000511313
0.000511312
0.000511312
0.000511311
0.000511311
0.00051131
0.00051131
0.00051131
0.00051131
0.00051131
0.000511309
0.000511309
0.000511309
0.000511309
0.000511309
0.000511309
0.000511309
0.000511309
0.000511309
0.000511309
0.000511309
0.000511309
0.000511309
0.000511309
0.000511309
0.000511309
0.000511309
0.000511309
0.000511309
0.000511309
0.000511309
0.000511309
0.000511309
0.000511309
0.000511309
0.000511309
0.000511309
0.000511309
0.000511309
0.000511309
0.000511309
0.000511309
0.000511309
0.000511309
0.000511309
0.000511309
0.000511309
0.000511309
0.000511309
0.000511309
0.000511309
0.000511309
0.000511309
0.000511309
0.000511309
0.000511309
0.000511309
0.000511309
0.000511309
0.000511309
0.000511309
0.000511309
0.000511309
0.000511309
0.000511309
0.000511309
0.000511309
0.000511309
0.000511309
0.000511309
0.000511309
0.000511309
0.000511309
0.000511309
0.000511309
0.000511309
0.000511309
0.000511309
0.000511309
0.000511309
0.000511309
0.000511309
0.000511309
0.000511309
0.000511309
0.000511309
0.000511309
0.000511309
0.000511309
0.000511309
0.000511309
0.000511309
0.000511309
0.000511309
0.000511309
0.000511309
0.000511309
0.000511309
0.000511309
0.000511309
0.000511309
0.000511309
0.000511309
0.000511309
0.000511309
0.000511309
0.000511309
0.000511309
0.000511309
0.000511309
0.000511309
0.000511309
0.000511309
0.000511309
0.000511309
0.000511309
0.000511309
0.000511309
0.000511309
0.000511309
0.000511309
0.000511309
0.00051131
0.00051131
0.00051131
0.00051131
0.00051131
0.00051131
0.00051131
0.000520637
0.000522013
0.000523567
0.000525351
0.000527436
0.000529895
0.000532793
0.000536184
0.000540086
0.000544564
0.000549667
0.000555374
0.000561636
0.000568434
0.000575823
0.000583949
0.00157717
0.00155972
0.00154135
0.00152234
0.00150269
0.00148254
0.00146213
0.00144142
0.00142011
0.00139796
0.00137483
0.00135038
0.00132434
0.00129689
0.00126771
0.00123615
0.00120158
0.00116345
0.00112077
0.00107096
0.00101385
0.00095326
0.000892412
0.000833246
0.000777043
0.000724963
0.00067812
0.000638769
0.000611034
0.000592857
0.000579478
0.000568419
0.000558838
0.000550789
0.000544404
0.000539238
0.000534752
0.000530773
0.000527302
0.00052428
0.000521618
0.000519334
0.000517525
0.000516183
0.000515182
0.000514404
0.000513789
0.000513307
0.000512927
0.000512617
0.00051236
0.000512143
0.000511956
0.000511797
0.000511669
0.000511575
0.000511509
0.000511461
0.000511426
0.000511399
0.000511379
0.000511364
0.000511351
0.00051134
0.000511331
0.000511324
0.00051132
0.000511317
0.000511315
0.000511313
0.000511312
0.000511312
0.000511311
0.000511311
0.00051131
0.00051131
0.00051131
0.00051131
0.00051131
0.00051131
0.00051131
0.000511309
0.000511309
0.000511309
0.000511309
0.000511309
0.000511309
0.000511309
0.000511309
0.000511309
0.000511309
0.000511309
0.000511309
0.000511309
0.000511309
0.000511309
0.000511309
0.000511309
0.000511309
0.000511309
0.000511309
0.000511309
0.000511309
0.000511309
0.000511309
0.000511309
0.000511309
0.000511309
0.000511309
0.000511309
0.000511309
0.000511309
0.000511309
0.000511309
0.000511309
0.000511309
0.000511309
0.000511309
0.000511309
0.000511309
0.000511309
0.000511309
0.000511309
0.000511309
0.000511309
0.000511309
0.000511309
0.000511309
0.000511309
0.000511309
0.000511309
0.000511309
0.000511309
0.000511309
0.000511309
0.000511309
0.000511309
0.000511309
0.000511309
0.000511309
0.000511309
0.000511309
0.000511309
0.00051131
0.00051131
0.00051131
0.00051131
0.00051131
0.00051131
0.00051131
0.00051131
0.00051131
0.00051131
0.00051131
0.00051131
0.00051131
0.00051131
0.00051131
0.00051131
0.00051131
0.00051131
0.00051131
0.00051131
0.00051131
0.00051131
0.00051131
0.00051131
0.00051131
0.00051131
0.00051131
0.00051131
0.00051131
0.00051131
0.00051131
0.00051131
0.00051131
0.00051131
0.00051131
0.00051131
0.00051131
0.00051131
0.00051131
0.00051131
0.00051131
0.00051131
0.00051131
0.00051131
0.00051131
0.00051131
0.00051131
0.00051131
0.00051131
0.00051131
0.000541872
0.00054683
0.000552526
0.000558942
0.000566047
0.000573844
0.000582414
0.000591889
0.000602558
0.000614508
0.00062877
0.000647402
0.000671482
0.000701469
0.000737358
0.000778857
0.00159835
0.00159042
0.00158249
0.00157471
0.00156729
0.00156041
0.00155412
0.00154844
0.00154321
0.00153814
0.00153254
0.00152525
0.00151551
0.00150349
0.00148972
0.00147454
0.0014581
0.00144052
0.00142155
0.00140049
0.00137684
0.00135056
0.00132133
0.00128854
0.00125126
0.0012084
0.00115922
0.00110295
0.00103779
0.000966623
0.000895311
0.000827617
0.000765272
0.000709147
0.000660561
0.000623234
0.00059923
0.000582885
0.000570128
0.000559461
0.000550737
0.000543951
0.000538526
0.000533867
0.000529798
0.00052628
0.00052321
0.000520528
0.000518323
0.000516674
0.000515482
0.000514588
0.000513896
0.000513363
0.000512952
0.000512623
0.000512353
0.000512125
0.000511929
0.000511763
0.000511635
0.000511545
0.000511484
0.00051144
0.000511409
0.000511386
0.000511368
0.000511354
0.000511342
0.000511332
0.000511325
0.00051132
0.000511317
0.000511315
0.000511314
0.000511313
0.000511312
0.000511311
0.000511311
0.00051131
0.00051131
0.00051131
0.00051131
0.00051131
0.00051131
0.00051131
0.00051131
0.00051131
0.00051131
0.00051131
0.00051131
0.00051131
0.00051131
0.00051131
0.00051131
0.00051131
0.00051131
0.00051131
0.00051131
0.00051131
0.00051131
0.00051131
0.00051131
0.00051131
0.00051131
0.00051131
0.00051131
0.00051131
0.00051131
0.00051131
0.00051131
0.00051131
0.00051131
0.00051131
0.00051131
0.00051131
0.00051131
0.00051131
0.00051131
0.00051131
0.00051131
0.00051131
0.00051131
0.00051131
0.00051131
0.00051131
0.00051131
0.00051131
0.00051131
0.00051131
0.00051131
0.00051131
0.00051131
0.00051131
0.00051131
0.00051131
0.00051131
0.00051131
0.00051131
0.00051131
0.00051131
0.00051131
0.00051131
0.00051131
0.00051131
0.00051131
0.00051131
0.00051131
0.00051131
0.00051131
0.00051131
0.00051131
0.00051131
0.00051131
0.00051131
0.00051131
0.00051131
0.00051131
0.00051131
0.00051131
0.00051131
0.000511311
0.000511311
0.000511311
0.000511311
0.000511311
0.000511311
0.000511311
0.000511311
0.000511311
0.000511311
0.000511311
0.000511311
0.000511311
0.000511311
0.000511311
0.000511311
0.000511312
0.000511312
0.000511312
0.000511312
0.000511312
0.000511312
0.000511312
0.000511312
0.000511312
0.000511312
0.000511313
0.000511313
0.000511313
0.000511313
0.000511313
0.000511313
0.000606093
0.000618977
0.000634795
0.000655419
0.000681887
0.00071467
0.000753812
0.000799037
0.000849863
0.00090574
0.000965142
0.00102554
0.00108543
0.00114383
0.00120003
0.00158994
0.00158272
0.00157546
0.0015683
0.00156145
0.00155507
0.00154921
0.00154389
0.00153915
0.00153458
0.00152959
0.00152491
0.00152151
0.00151867
0.00151585
0.00151296
0.00151008
0.00150763
0.00150525
0.00150194
0.00149688
0.00148969
0.00148029
0.00146882
0.00145545
0.00144022
0.00142371
0.00140543
0.00138381
0.00135783
0.00132659
0.00128906
0.00124427
0.0011919
0.00113207
0.00106417
0.000988492
0.000911418
0.000838004
0.000770536
0.00071015
0.000658511
0.000619599
0.000595179
0.000578775
0.000566022
0.000555554
0.0005473
0.000540971
0.000535799
0.000531306
0.000527397
0.000523994
0.000521023
0.000518566
0.000516737
0.000515447
0.000514508
0.000513797
0.000513261
0.000512852
0.000512529
0.000512261
0.000512034
0.000511839
0.000511683
0.000511572
0.000511499
0.000511449
0.000511415
0.000511391
0.000511372
0.000511357
0.000511344
0.000511334
0.000511326
0.000511321
0.000511318
0.000511316
0.000511315
0.000511314
0.000511313
0.000511312
0.000511312
0.000511311
0.000511311
0.00051131
0.00051131
0.00051131
0.00051131
0.00051131
0.00051131
0.00051131
0.00051131
0.00051131
0.00051131
0.00051131
0.00051131
0.00051131
0.00051131
0.00051131
0.00051131
0.00051131
0.00051131
0.00051131
0.00051131
0.00051131
0.00051131
0.00051131
0.00051131
0.00051131
0.00051131
0.00051131
0.00051131
0.00051131
0.00051131
0.00051131
0.00051131
0.00051131
0.00051131
0.00051131
0.00051131
0.00051131
0.00051131
0.00051131
0.00051131
0.00051131
0.000511311
0.000511311
0.000511311
0.000511311
0.000511311
0.000511311
0.000511311
0.000511311
0.000511311
0.000511311
0.000511311
0.000511311
0.000511311
0.000511311
0.000511311
0.000511311
0.000511311
0.000511312
0.000511312
0.000511312
0.000511312
0.000511312
0.000511312
0.000511312
0.000511312
0.000511312
0.000511312
0.000511313
0.000511313
0.000511313
0.000511313
0.000511313
0.000511313
0.000511313
0.000511314
0.000511314
0.000511314
0.000511314
0.000511314
0.000511315
0.000511315
0.000511315
0.000511315
0.000511316
0.000511316
0.000511316
0.000511316
0.000511317
0.000511317
0.000511317
0.000511318
0.000511318
0.000511319
0.000511319
0.000511319
0.00051132
0.00051132
0.000511321
0.000511321
0.000511322
0.000511322
0.000511323
0.000511323
0.000511324
0.000511324
0.000511325
0.000795363
0.0008473
0.000904933
0.000966215
0.00102881
0.00109116
0.00115214
0.00121088
0.00126668
0.00131902
0.00136762
0.0014122
0.00145236
0.00148786
0.0015187
0.00154503
0.00156675
0.00156112
0.00155569
0.00155045
0.00154542
0.00154062
0.00153609
0.00153197
0.00152831
0.00152466
0.00152093
0.00151804
0.00151571
0.00151372
0.00151163
0.00150932
0.00150721
0.00150531
0.00150336
0.00150155
0.00150036
0.00149956
0.00149912
0.00149884
0.00149886
0.00149995
0.00150044
0.0014988
0.00149479
0.00148859
0.00147995
0.00146881
0.00145589
0.00144187
0.00142579
0.00140565
0.00137953
0.00134599
0.00130415
0.00125388
0.00119568
0.00113033
0.00105761
0.000977825
0.000897305
0.000821034
0.000751482
0.000690308
0.000640208
0.000605647
0.000584646
0.000569892
0.000558175
0.00054891
0.000541904
0.000536369
0.000531619
0.000527465
0.00052384
0.000520704
0.000518171
0.000516344
0.000515086
0.000514186
0.000513525
0.000513039
0.000512669
0.000512369
0.000512115
0.000511898
0.000511721
0.000511595
0.000511513
0.00051146
0.000511424
0.000511399
0.00051138
0.000511364
0.000511351
0.000511339
0.000511331
0.000511325
0.000511321
0.000511319
0.000511317
0.000511316
0.000511315
0.000511314
0.000511314
0.000511313
0.000511312
0.000511312
0.000511312
0.000511311
0.000511311
0.000511311
0.000511311
0.000511311
0.000511311
0.000511311
0.000511311
0.000511311
0.000511311
0.000511311
0.000511311
0.000511312
0.000511312
0.000511312
0.000511312
0.000511312
0.000511312
0.000511312
0.000511312
0.000511312
0.000511312
0.000511312
0.000511312
0.000511312
0.000511312
0.000511312
0.000511313
0.000511313
0.000511313
0.000511313
0.000511313
0.000511313
0.000511313
0.000511313
0.000511314
0.000511314
0.000511314
0.000511314
0.000511314
0.000511314
0.000511314
0.000511315
0.000511315
0.000511315
0.000511315
0.000511316
0.000511316
0.000511316
0.000511316
0.000511317
0.000511317
0.000511317
0.000511318
0.000511318
0.000511318
0.000511319
0.000511319
0.00051132
0.00051132
0.00051132
0.000511321
0.000511321
0.000511322
0.000511323
0.000511323
0.000511324
0.000511324
0.000511325
0.000511326
0.000511326
0.000511327
0.000511328
0.000511329
0.000511329
0.00051133
0.000511331
0.000511332
0.000511333
0.000511334
0.000511335
0.000511336
0.000511337
0.000511339
0.00051134
0.000511341
0.000511343
0.000511344
0.000511346
0.000511348
0.000511349
0.000511351
0.000511353
0.000511355
0.000511357
0.00051136
0.000511362
0.000511364
0.000511367
0.000511369
0.00125368
0.00130956
0.00136154
0.00140913
0.00145189
0.00148959
0.00152224
0.00155005
0.00157325
0.00159245
0.0016085
0.00162217
0.00163387
0.00154072
0.00153621
0.00153197
0.00152801
0.00152427
0.00152075
0.00151737
0.00151434
0.00151179
0.00150924
0.00150689
0.00150513
0.00150377
0.00150268
0.0015016
0.00150053
0.00149951
0.00149849
0.00149759
0.00149706
0.00149683
0.00149686
0.00149718
0.00149763
0.00149834
0.00149995
0.00150162
0.00150283
0.00150406
0.00150563
0.00150769
0.00151015
0.00151269
0.00151331
0.00151191
0.0015082
0.0015019
0.00149314
0.00148268
0.0014712
0.00145812
0.00144161
0.00141904
0.00138813
0.001348
0.00129887
0.00124148
0.00117679
0.00110523
0.00102562
0.00094014
0.000856134
0.000778475
0.000709821
0.000652626
0.000611061
0.000586255
0.000570099
0.000557775
0.000548203
0.00054105
0.00053544
0.000530624
0.000526393
0.000522701
0.000519591
0.000517223
0.000515606
0.000514515
0.000513747
0.000513198
0.000512792
0.000512469
0.000512197
0.000511963
0.000511772
0.000511634
0.000511544
0.000511485
0.000511446
0.000511419
0.000511398
0.000511381
0.000511367
0.000511354
0.000511344
0.000511336
0.00051133
0.000511326
0.000511324
0.000511322
0.00051132
0.00051132
0.000511319
0.000511318
0.000511318
0.000511317
0.000511317
0.000511316
0.000511316
0.000511316
0.000511316
0.000511316
0.000511316
0.000511316
0.000511316
0.000511316
0.000511317
0.000511317
0.000511317
0.000511317
0.000511317
0.000511318
0.000511318
0.000511318
0.000511318
0.000511319
0.000511319
0.000511319
0.00051132
0.00051132
0.00051132
0.000511321
0.000511321
0.000511321
0.000511322
0.000511322
0.000511323
0.000511323
0.000511324
0.000511324
0.000511325
0.000511325
0.000511326
0.000511327
0.000511327
0.000511328
0.000511329
0.00051133
0.00051133
0.000511331
0.000511332
0.000511333
0.000511334
0.000511335
0.000511336
0.000511338
0.000511339
0.00051134
0.000511341
0.000511343
0.000511344
0.000511346
0.000511347
0.000511349
0.00051135
0.000511352
0.000511354
0.000511356
0.000511358
0.00051136
0.000511363
0.000511365
0.000511368
0.00051137
0.000511373
0.000511376
0.00051138
0.000511383
0.000511387
0.00051139
0.000511394
0.000511398
0.000511402
0.000511407
0.000511411
0.000511416
0.000511422
0.000511427
0.000511433
0.000511439
0.000511445
0.000511451
0.000511457
0.000511464
0.000511471
0.000511478
0.000511486
0.000511495
0.000511504
0.000511513
0.000511524
0.000511531
0.00156935
0.00159117
0.00160923
0.0016244
0.00163718
0.00164799
0.00165709
0.00166452
0.00167001
0.00167354
0.00167546
0.00167658
0.0016767
0.0015146
0.00151111
0.00150789
0.00150496
0.00150226
0.00149978
0.00149754
0.00149557
0.00149384
0.00149224
0.00149097
0.00149006
0.00148942
0.00148897
0.00148865
0.00148846
0.00148832
0.00148822
0.00148824
0.00148855
0.00148921
0.00149019
0.00149145
0.00149288
0.00149455
0.00149653
0.0014985
0.0015004
0.00150242
0.00150473
0.0015074
0.00151047
0.00151357
0.00151608
0.00151835
0.00152075
0.0015234
0.0015262
0.00152878
0.00152983
0.00152921
0.00152668
0.00152161
0.00151446
0.00150606
0.00149635
0.00148465
0.00146953
0.00144836
0.00141843
0.00137862
0.00132932
0.00127141
0.00120564
0.00113231
0.00105048
0.000960259
0.000869681
0.000785827
0.000712353
0.000651901
0.000608403
0.000582849
0.000566639
0.000554564
0.000545472
0.000538757
0.000533381
0.000528676
0.000524517
0.000520944
0.000518118
0.000516151
0.000514872
0.000514012
0.000513411
0.000512975
0.000512635
0.000512351
0.000512106
0.000511899
0.000511738
0.000511626
0.000511551
0.0005115
0.000511464
0.000511438
0.000511418
0.000511402
0.000511388
0.000511376
0.000511365
0.000511355
0.000511348
0.000511342
0.000511338
0.000511336
0.000511334
0.000511333
0.000511332
0.000511332
0.000511332
0.000511332
0.000511332
0.000511332
0.000511332
0.000511333
0.000511333
0.000511334
0.000511334
0.000511335
0.000511335
0.000511336
0.000511337
0.000511338
0.000511339
0.00051134
0.000511341
0.000511342
0.000511343
0.000511344
0.000511345
0.000511346
0.000511347
0.000511348
0.00051135
0.000511351
0.000511353
0.000511354
0.000511356
0.000511358
0.000511359
0.000511361
0.000511363
0.000511365
0.000511367
0.00051137
0.000511372
0.000511375
0.000511378
0.000511381
0.000511384
0.000511387
0.000511391
0.000511394
0.000511398
0.000511402
0.000511407
0.000511411
0.000511416
0.000511421
0.000511426
0.000511432
0.000511438
0.000511444
0.00051145
0.000511457
0.000511464
0.000511471
0.000511478
0.000511486
0.000511495
0.000511503
0.000511512
0.000511522
0.000511532
0.000511542
0.000511553
0.000511564
0.000511576
0.000511589
0.000511602
0.000511616
0.000511631
0.000511646
0.000511663
0.00051168
0.000511697
0.000511716
0.000511735
0.000511755
0.000511777
0.000511801
0.000511827
0.000511855
0.000511885
0.000511916
0.000511948
0.000511981
0.000512015
0.000512049
0.000512088
0.000512123
0.00166641
0.00167301
0.00167742
0.00167988
0.00168136
0.00168163
0.00168157
0.0016813
0.00168123
0.00168162
0.00168236
0.00168275
0.00168265
0.00168194
0.00148945
0.00148677
0.00148447
0.00148249
0.0014807
0.00147908
0.00147772
0.00147661
0.00147566
0.0014749
0.00147443
0.00147426
0.00147425
0.00147439
0.00147476
0.00147528
0.00147585
0.00147648
0.00147724
0.00147823
0.00147953
0.00148114
0.00148301
0.00148513
0.00148745
0.00148983
0.00149227
0.00149486
0.00149769
0.00150079
0.00150413
0.00150756
0.00151082
0.00151383
0.00151678
0.0015198
0.00152291
0.00152605
0.00152905
0.00153175
0.0015344
0.00153711
0.00153991
0.00154268
0.00154483
0.00154551
0.00154507
0.00154293
0.00153869
0.00153307
0.00152663
0.00151852
0.00150752
0.00149206
0.00146991
0.00143868
0.00139717
0.00134571
0.00128507
0.00121577
0.00113796
0.00105098
0.000955385
0.00086011
0.000773221
0.000698629
0.00063915
0.000598444
0.000575456
0.000560714
0.000549858
0.000541908
0.000535944
0.000530935
0.000526462
0.000522564
0.000519391
0.000517083
0.000515562
0.000514562
0.000513867
0.000513366
0.000512988
0.000512681
0.000512418
0.000512188
0.000511992
0.000511835
0.000511719
0.000511636
0.000511576
0.000511533
0.000511501
0.000511477
0.000511459
0.000511444
0.000511431
0.00051142
0.00051141
0.0005114
0.000511393
0.000511387
0.000511383
0.000511381
0.00051138
0.00051138
0.000511381
0.000511382
0.000511384
0.000511386
0.000511388
0.000511391
0.000511393
0.000511395
0.000511398
0.000511401
0.000511404
0.000511407
0.00051141
0.000511413
0.000511416
0.00051142
0.000511424
0.000511428
0.000511432
0.000511437
0.000511441
0.000511446
0.000511452
0.000511457
0.000511463
0.000511469
0.000511476
0.000511483
0.000511491
0.000511499
0.000511507
0.000511516
0.000511525
0.000511534
0.000511545
0.000511555
0.000511566
0.000511578
0.00051159
0.000511603
0.000511617
0.000511631
0.000511646
0.000511661
0.000511677
0.000511694
0.000511712
0.00051173
0.000511749
0.00051177
0.000511791
0.000511813
0.000511837
0.000511862
0.000511889
0.000511918
0.000511948
0.000511979
0.000512013
0.000512049
0.000512087
0.000512127
0.00051217
0.000512216
0.000512265
0.000512316
0.000512369
0.000512424
0.000512482
0.000512542
0.000512606
0.000512674
0.000512746
0.000512823
0.000512905
0.00051299
0.000513078
0.000513167
0.000513258
0.000513352
0.000513451
0.000513557
0.000513673
0.000513801
0.000513933
0.000514086
0.000514216
0.00168622
0.00168637
0.00168694
0.00168745
0.00168746
0.00168686
0.00168566
0.00168397
0.001682
0.00168038
0.00167931
0.00167842
0.00167741
0.00167613
0.00146547
0.00146367
0.00146216
0.0014609
0.00145986
0.00145902
0.00145837
0.00145793
0.00145769
0.00145762
0.00145773
0.00145814
0.00145875
0.00145951
0.00146044
0.00146151
0.00146265
0.00146389
0.00146527
0.00146686
0.00146871
0.00147083
0.0014732
0.0014758
0.00147855
0.00148134
0.00148423
0.00148729
0.00149061
0.00149418
0.0014979
0.0015016
0.00150522
0.00150884
0.0015125
0.0015162
0.00151986
0.00152336
0.0015266
0.00152971
0.00153282
0.00153598
0.00153911
0.00154196
0.0015444
0.001547
0.00154986
0.00155273
0.0015556
0.0015585
0.00156082
0.00156166
0.00156116
0.00155901
0.00155541
0.00155117
0.00154623
0.00153923
0.00152849
0.00151228
0.00148837
0.00145459
0.00140993
0.00135469
0.00128926
0.00121376
0.00112848
0.00103364
0.000932007
0.000834218
0.000747697
0.000675695
0.000621097
0.000586611
0.000567793
0.000555277
0.0005461
0.000539406
0.000534195
0.000529653
0.000525586
0.000522098
0.000519299
0.000517248
0.000515849
0.000514897
0.000514216
0.000513711
0.000513327
0.000513022
0.000512763
0.000512535
0.000512332
0.000512154
0.000512003
0.000511881
0.000511786
0.000511715
0.000511664
0.000511627
0.000511601
0.000511584
0.000511573
0.000511565
0.00051156
0.000511556
0.000511554
0.000511553
0.000511554
0.000511556
0.00051156
0.000511565
0.000511572
0.000511579
0.000511588
0.000511597
0.000511607
0.000511617
0.000511627
0.000511638
0.000511649
0.000511661
0.000511673
0.000511686
0.0005117
0.000511714
0.000511729
0.000511745
0.000511762
0.000511779
0.000511798
0.000511818
0.000511838
0.00051186
0.000511882
0.000511905
0.00051193
0.000511956
0.000511984
0.000512014
0.000512046
0.000512079
0.000512115
0.000512153
0.000512193
0.000512236
0.000512282
0.000512331
0.000512382
0.000512436
0.000512494
0.000512554
0.000512618
0.000512686
0.000512758
0.000512833
0.000512912
0.000512994
0.00051308
0.000513169
0.000513262
0.000513359
0.000513461
0.000513569
0.000513683
0.000513803
0.000513929
0.000514062
0.000514201
0.000514347
0.000514501
0.000514664
0.000514836
0.00051502
0.000515216
0.000515423
0.000515642
0.000515871
0.00051611
0.000516358
0.000516616
0.000516889
0.000517182
0.000517499
0.000517848
0.00051823
0.000518646
0.000519092
0.000519558
0.000520049
0.000520537
0.000521082
0.000521627
0.00168785
0.00168583
0.00168429
0.00168309
0.00168184
0.00168038
0.00167861
0.00167654
0.00167426
0.00167181
0.00166949
0.00166752
0.00166586
0.00166434
0.00144279
0.00144172
0.00144088
0.00144024
0.0014398
0.00143957
0.0014395
0.00143958
0.00143991
0.00144042
0.00144111
0.00144202
0.00144312
0.00144439
0.0014458
0.00144734
0.00144898
0.00145073
0.00145263
0.00145473
0.00145705
0.00145959
0.00146236
0.00146533
0.00146841
0.00147158
0.00147487
0.00147834
0.00148203
0.00148592
0.00148992
0.00149392
0.00149792
0.00150198
0.0015061
0.00151022
0.00151424
0.00151806
0.0015217
0.00152531
0.00152894
0.00153256
0.00153599
0.00153909
0.00154209
0.00154518
0.00154835
0.00155155
0.00155472
0.00155762
0.00156025
0.00156325
0.00156649
0.00156966
0.00157293
0.0015764
0.00157944
0.00158082
0.00158047
0.00157871
0.0015761
0.00157307
0.00156885
0.00156171
0.00154959
0.00153042
0.00150239
0.0014642
0.00141503
0.00135456
0.00128254
0.0011992
0.00110565
0.00100363
0.000899162
0.000803459
0.000721918
0.000656661
0.000609609
0.000581203
0.000565502
0.000554535
0.000546281
0.000540168
0.000535396
0.000531245
0.000527459
0.000524125
0.000521329
0.000519103
0.000517437
0.000516239
0.000515372
0.000514718
0.00051421
0.000513812
0.000513496
0.000513235
0.000513008
0.000512805
0.000512623
0.000512463
0.000512328
0.000512221
0.000512144
0.000512094
0.000512066
0.000512054
0.000512053
0.000512059
0.000512071
0.000512087
0.000512106
0.000512128
0.000512152
0.000512178
0.000512206
0.000512235
0.000512267
0.0005123
0.000512335
0.000512373
0.000512412
0.000512453
0.000512496
0.000512542
0.000512591
0.000512642
0.000512697
0.000512755
0.000512817
0.000512882
0.000512951
0.000513025
0.000513104
0.000513189
0.000513278
0.000513371
0.000513469
0.000513572
0.000513679
0.000513791
0.000513909
0.000514034
0.000514164
0.000514302
0.000514446
0.000514598
0.000514759
0.000514928
0.000515107
0.000515295
0.000515493
0.000515701
0.000515919
0.000516147
0.000516386
0.000516637
0.000516903
0.000517186
0.000517485
0.000517803
0.000518141
0.000518498
0.000518879
0.000519283
0.000519716
0.00052018
0.000520678
0.000521216
0.000521794
0.000522415
0.000523075
0.000523773
0.000524507
0.000525275
0.000526079
0.000526925
0.000527818
0.000528768
0.000529778
0.000530852
0.00053198
0.000533149
0.000534345
0.000535561
0.000536809
0.000538114
0.000539513
0.00054107
0.000542718
0.00054465
0.000546934
0.00167922
0.00167657
0.00167387
0.00167147
0.0016694
0.00166755
0.00166577
0.00166395
0.00166205
0.00165999
0.00165787
0.00165584
0.001654
0.00142125
0.00142076
0.00142047
0.00142036
0.00142038
0.00142061
0.00142104
0.00142164
0.00142243
0.0014234
0.00142456
0.0014259
0.00142742
0.00142911
0.00143093
0.00143288
0.00143495
0.00143714
0.00143948
0.00144199
0.0014447
0.0014476
0.0014507
0.00145395
0.00145732
0.00146082
0.00146446
0.00146828
0.00147229
0.00147644
0.0014807
0.00148501
0.0014894
0.00149385
0.00149835
0.00150279
0.0015071
0.00151126
0.00151532
0.00151936
0.00152339
0.00152733
0.00153105
0.00153459
0.00153811
0.00154163
0.00154516
0.00154867
0.00155198
0.00155508
0.00155836
0.00156186
0.00156538
0.00156902
0.00157298
0.00157701
0.00158076
0.00158442
0.00158826
0.00159249
0.00159731
0.0016022
0.0016061
0.00160868
0.00161039
0.00161117
0.00161084
0.0016087
0.00160358
0.00159404
0.00157806
0.00155369
0.00151965
0.00147499
0.00141877
0.00135079
0.00127161
0.00118296
0.00108733
0.000987289
0.000888824
0.000800813
0.000726306
0.000665907
0.000620327
0.000589977
0.000572553
0.000561237
0.000552492
0.000545767
0.000540668
0.000536585
0.00053299
0.000529645
0.000526577
0.000523855
0.000521505
0.000519559
0.000518041
0.000516914
0.000516088
0.000515473
0.000515012
0.000514671
0.000514422
0.000514234
0.000514084
0.000513964
0.000513873
0.000513812
0.000513782
0.000513781
0.000513799
0.000513839
0.0005139
0.000513976
0.000514064
0.000514159
0.000514261
0.000514369
0.000514482
0.0005146
0.000514723
0.000514852
0.000514987
0.000515129
0.000515279
0.000515436
0.000515601
0.000515777
0.000515965
0.000516164
0.000516376
0.000516598
0.00051683
0.000517073
0.000517328
0.000517597
0.000517882
0.000518185
0.000518506
0.000518847
0.000519208
0.000519593
0.000520002
0.000520437
0.000520902
0.0005214
0.000521932
0.000522502
0.00052311
0.00052376
0.000524454
0.000525194
0.000525984
0.000526827
0.000527722
0.000528666
0.000529652
0.000530676
0.000531734
0.00053283
0.00053397
0.000535164
0.00053642
0.000537746
0.000539151
0.000540637
0.000542208
0.000543867
0.000545621
0.00054748
0.000549462
0.000551589
0.000553885
0.000556368
0.000559044
0.000561902
0.000564917
0.000568058
0.000571302
0.00057465
0.000578142
0.000581856
0.000585899
0.000590394
0.000595431
0.000601127
0.000607346
0.000614331
0.000621471
0.000628983
0.000640069
0.00166568
0.00166344
0.0016611
0.0016588
0.00165665
0.00165469
0.00165289
0.00165118
0.0016495
0.00164776
0.00164595
0.00164412
0.00164233
0.00140077
0.00140109
0.00140156
0.00140221
0.00140304
0.00140404
0.00140522