/*--------------------------------*- C++ -*----------------------------------*\
| =========                 |                                                 |
| \\      /  F ield         | OpenFOAM: The Open Source CFD Toolbox           |
|  \\    /   O peration     | Version:  v1706                                 |
|   \\  /    A nd           | Web:      www.OpenFOAM.com                      |
|    \\/     M anipulation  |                                                 |
\*---------------------------------------------------------------------------*/
FoamFile
{
    version     2.0;
    format      ascii;
    class       volScalarField;
    location    "3.5e-05";
    object      Tt;
}
// * * * * * * * * * * * * * * * * * * * * * * * * * * * * * * * * * * * * * //

dimensions      [0 0 0 1 0 0 0];


internalField   nonuniform List<scalar> 
30104
(
144.698
144.742
144.794
144.852
144.919
144.995
145.082
145.18
145.291
145.418
145.562
145.727
145.914
146.127
146.366
146.633
146.928
174.204
172.472
170.671
168.845
167.241
166.003
164.913
163.847
162.759
161.641
160.494
159.322
158.133
156.938
155.749
154.574
153.42
152.331
151.361
150.536
149.833
149.205
148.617
148.056
147.525
147.032
146.588
146.211
145.904
145.657
145.451
145.274
145.121
144.99
144.882
144.795
144.724
144.665
144.616
144.574
144.539
144.51
144.487
144.469
144.455
144.443
144.434
144.427
144.421
144.417
144.413
144.41
144.408
144.406
144.405
144.403
144.403
144.402
144.401
144.401
144.401
144.401
144.4
144.4
144.4
144.4
144.4
144.4
144.4
144.4
144.4
144.4
144.4
144.4
144.4
144.4
144.4
144.4
144.4
144.4
144.4
144.4
144.4
144.4
144.4
144.4
144.4
144.4
144.4
144.4
144.4
144.4
144.4
144.4
144.4
144.4
144.4
144.4
144.4
144.4
144.4
144.4
144.4
144.4
144.4
144.4
144.4
144.4
144.4
144.4
144.4
144.4
144.4
144.4
144.4
144.4
144.4
144.4
144.4
144.4
144.4
144.4
144.4
144.4
144.4
144.4
144.4
144.4
144.4
144.4
144.4
144.4
144.4
144.4
144.4
144.4
144.4
144.4
144.4
144.4
144.4
144.4
144.4
144.4
144.4
144.4
144.4
144.4
144.4
144.4
144.4
144.4
144.4
144.4
144.4
144.4
144.4
144.4
144.4
144.4
144.4
144.4
144.4
144.4
144.4
144.4
144.4
144.4
144.4
144.4
144.4
144.4
144.4
144.4
144.4
144.4
144.4
144.4
144.4
144.4
144.4
144.4
144.4
144.4
144.4
144.4
144.4
144.4
144.4
144.4
144.4
144.4
144.4
146.232
146.507
146.822
147.182
147.594
148.064
148.597
149.197
149.872
150.629
151.482
152.448
153.544
154.781
156.168
157.708
159.403
246.148
245.566
244.908
244.082
242.918
241.3
239.24
236.781
233.961
230.793
227.27
223.377
219.115
214.513
209.607
204.431
199.029
193.483
188.004
183.122
179.108
175.578
172.262
169.048
165.92
162.929
160.175
157.763
155.743
154.056
152.599
151.306
150.15
149.132
148.263
147.551
146.979
146.513
146.124
145.797
145.524
145.302
145.124
144.982
144.866
144.772
144.694
144.631
144.581
144.541
144.51
144.486
144.467
144.451
144.44
144.43
144.423
144.418
144.413
144.41
144.407
144.405
144.404
144.403
144.402
144.402
144.401
144.401
144.401
144.4
144.4
144.4
144.4
144.4
144.4
144.4
144.4
144.4
144.4
144.4
144.4
144.4
144.4
144.4
144.4
144.4
144.4
144.4
144.4
144.4
144.4
144.4
144.4
144.4
144.4
144.4
144.4
144.4
144.4
144.4
144.4
144.4
144.4
144.4
144.4
144.4
144.4
144.4
144.4
144.4
144.4
144.4
144.4
144.4
144.4
144.4
144.4
144.4
144.4
144.4
144.4
144.4
144.4
144.4
144.4
144.4
144.4
144.4
144.4
144.4
144.4
144.4
144.4
144.4
144.4
144.4
144.4
144.4
144.4
144.4
144.4
144.4
144.4
144.4
144.4
144.4
144.4
144.4
144.4
144.4
144.4
144.4
144.4
144.4
144.4
144.4
144.4
144.4
144.4
144.4
144.4
144.4
144.4
144.4
144.4
144.4
144.4
144.4
144.4
144.4
144.4
144.4
144.4
144.4
144.4
144.4
144.4
144.4
144.4
144.4
144.4
144.4
144.4
144.4
144.4
144.4
144.4
144.4
144.4
144.4
144.4
144.4
144.4
151.004
151.967
153.061
154.306
155.722
157.324
159.124
161.13
163.35
165.807
168.542
171.598
174.993
178.719
182.754
187.064
263.275
263.393
263.54
263.665
263.69
263.646
263.49
263.173
262.693
262.068
261.319
260.458
259.489
258.397
257.126
255.594
253.707
251.353
248.384
244.615
239.984
234.595
228.556
221.949
214.857
207.39
199.746
192.316
185.879
180.585
175.951
171.676
167.667
163.972
160.701
157.948
155.698
153.823
152.211
150.805
149.592
148.576
147.757
147.108
146.586
146.155
145.799
145.508
145.276
145.093
144.948
144.831
144.737
144.66
144.6
144.554
144.518
144.49
144.469
144.452
144.439
144.429
144.422
144.416
144.412
144.409
144.406
144.405
144.403
144.402
144.402
144.401
144.401
144.401
144.4
144.4
144.4
144.4
144.4
144.4
144.4
144.4
144.4
144.4
144.4
144.4
144.4
144.4
144.4
144.4
144.4
144.4
144.4
144.4
144.4
144.4
144.4
144.4
144.4
144.4
144.4
144.4
144.4
144.4
144.4
144.4
144.4
144.4
144.4
144.4
144.4
144.4
144.4
144.4
144.4
144.4
144.4
144.4
144.4
144.4
144.4
144.4
144.4
144.4
144.4
144.4
144.4
144.4
144.4
144.4
144.4
144.4
144.4
144.4
144.4
144.4
144.4
144.4
144.4
144.4
144.4
144.4
144.4
144.4
144.4
144.4
144.4
144.4
144.4
144.4
144.4
144.4
144.4
144.4
144.4
144.4
144.4
144.4
144.4
144.4
144.4
144.4
144.4
144.4
144.4
144.4
144.4
144.4
144.4
144.4
144.4
144.4
144.4
144.4
144.4
144.4
144.4
144.4
144.4
144.4
144.4
144.4
144.4
144.4
144.4
144.4
144.4
144.4
144.4
144.4
144.4
144.4
144.4
165.198
168.011
171.161
174.685
178.597
182.885
187.522
192.47
197.699
203.21
209.149
215.707
222.826
230.357
238.105
245.866
268.365
268.476
268.608
268.747
268.874
268.979
269.04
269.045
269.02
268.948
268.832
268.668
268.473
268.25
267.985
267.653
267.232
266.712
266.096
265.398
264.63
263.765
262.719
261.383
259.625
257.285
254.199
250.194
245.084
238.893
231.814
224.024
215.671
206.946
198.206
190.144
183.588
178.103
173.202
168.688
164.582
160.995
158.017
155.616
153.633
151.943
150.486
149.251
148.244
147.451
146.829
146.328
145.919
145.587
145.324
145.12
144.961
144.834
144.733
144.653
144.591
144.544
144.509
144.482
144.461
144.445
144.433
144.425
144.418
144.413
144.41
144.407
144.405
144.404
144.403
144.402
144.401
144.401
144.401
144.401
144.4
144.4
144.4
144.4
144.4
144.4
144.4
144.4
144.4
144.4
144.4
144.4
144.4
144.4
144.4
144.4
144.4
144.4
144.4
144.4
144.4
144.4
144.4
144.4
144.4
144.4
144.4
144.4
144.4
144.4
144.4
144.4
144.4
144.4
144.4
144.4
144.4
144.4
144.4
144.4
144.4
144.4
144.4
144.4
144.4
144.4
144.4
144.4
144.4
144.4
144.4
144.4
144.4
144.4
144.4
144.4
144.4
144.4
144.4
144.4
144.4
144.4
144.4
144.4
144.4
144.4
144.4
144.4
144.4
144.4
144.4
144.4
144.4
144.4
144.4
144.4
144.4
144.4
144.4
144.4
144.4
144.4
144.4
144.4
144.4
144.4
144.4
144.4
144.401
144.401
144.401
144.401
144.401
144.401
144.401
144.401
144.401
144.401
144.401
144.401
144.401
144.401
144.401
144.401
144.401
144.401
144.401
144.401
144.401
144.401
144.401
144.401
144.401
200.406
206.401
212.915
220.053
227.729
235.774
243.981
252.132
260.029
267.504
274.389
280.564
286.01
290.749
294.825
271.943
271.976
272.01
272.042
272.067
272.076
272.066
272.033
271.988
271.933
271.866
271.805
271.73
271.624
271.487
271.33
271.157
270.991
270.839
270.696
270.571
270.458
270.33
270.156
269.912
269.571
269.142
268.627
267.991
267.17
266.029
264.387
262.056
258.89
254.765
249.531
243.089
235.601
227.246
218.185
208.661
199.135
190.421
183.417
177.603
172.419
167.684
163.457
159.86
156.946
154.61
152.671
151.02
149.623
148.48
147.587
146.898
146.354
145.917
145.568
145.295
145.086
144.925
144.799
144.7
144.624
144.566
144.523
144.492
144.468
144.45
144.437
144.427
144.42
144.415
144.411
144.408
144.406
144.404
144.403
144.403
144.402
144.402
144.401
144.401
144.401
144.401
144.401
144.4
144.4
144.4
144.4
144.4
144.4
144.4
144.4
144.4
144.4
144.4
144.4
144.4
144.4
144.4
144.4
144.4
144.4
144.4
144.4
144.4
144.4
144.4
144.4
144.4
144.4
144.4
144.4
144.4
144.4
144.4
144.4
144.4
144.4
144.4
144.4
144.4
144.4
144.4
144.4
144.4
144.4
144.4
144.4
144.4
144.401
144.401
144.401
144.401
144.401
144.401
144.401
144.401
144.401
144.401
144.401
144.401
144.401
144.401
144.401
144.401
144.401
144.401
144.401
144.401
144.401
144.401
144.401
144.401
144.401
144.401
144.401
144.401
144.401
144.402
144.402
144.402
144.402
144.402
144.402
144.402
144.402
144.402
144.402
144.402
144.402
144.402
144.403
144.403
144.403
144.403
144.403
144.403
144.403
144.403
144.404
144.404
144.404
144.404
144.404
144.404
144.405
144.405
144.405
144.405
253.92
262.184
270.008
277.194
283.63
289.294
294.203
298.408
301.973
304.973
307.476
309.544
311.233
312.594
313.67
314.5
275.057
275
274.946
274.891
274.83
274.758
274.674
274.584
274.497
274.407
274.311
274.227
274.143
274.046
273.922
273.77
273.616
273.474
273.355
273.27
273.205
273.151
273.115
273.086
273.081
273.117
273.176
273.159
273.141
273.128
273.078
272.942
272.699
272.373
271.955
271.407
270.642
269.485
267.717
265.147
261.647
257.111
251.398
244.384
236.199
227.017
217.057
206.702
196.617
187.864
180.952
175.079
169.794
165.055
160.981
157.662
155.043
152.916
151.132
149.638
148.431
147.501
146.794
146.243
145.808
145.466
145.205
145.009
144.859
144.743
144.654
144.587
144.538
144.503
144.476
144.457
144.443
144.432
144.424
144.418
144.414
144.411
144.408
144.406
144.405
144.404
144.403
144.403
144.402
144.402
144.402
144.401
144.401
144.401
144.401
144.401
144.401
144.401
144.401
144.401
144.401
144.401
144.401
144.401
144.401
144.401
144.401
144.401
144.401
144.401
144.401
144.401
144.401
144.401
144.401
144.401
144.401
144.401
144.401
144.401
144.401
144.401
144.401
144.401
144.401
144.401
144.401
144.401
144.401
144.402
144.402
144.402
144.402
144.402
144.402
144.402
144.402
144.402
144.402
144.402
144.402
144.402
144.402
144.403
144.403
144.403
144.403
144.403
144.403
144.403
144.403
144.403
144.404
144.404
144.404
144.404
144.404
144.404
144.405
144.405
144.405
144.405
144.405
144.406
144.406
144.406
144.406
144.407
144.407
144.407
144.408
144.408
144.408
144.409
144.409
144.409
144.41
144.41
144.411
144.411
144.412
144.412
144.413
144.413
144.414
144.415
144.415
144.416
144.417
144.417
144.418
144.419
144.418
303.838
307.115
309.838
312.077
313.9
315.366
316.525
317.422
318.099
318.62
319.04
319.389
319.681
278.405
278.222
278.043
277.865
277.687
277.511
277.333
277.163
277.013
276.865
276.72
276.584
276.448
276.306
276.15
275.981
275.809
275.647
275.507
275.397
275.313
275.252
275.212
275.175
275.164
275.188
275.208
275.213
275.233
275.285
275.37
275.477
275.615
275.774
275.864
275.956
276.039
276.059
276.035
275.947
275.76
275.438
274.902
274.009
272.558
270.348
267.232
263.099
257.81
251.141
242.995
233.552
223.075
211.96
200.858
190.796
182.852
176.355
170.623
165.52
161.158
157.631
154.878
152.666
150.831
149.32
148.13
147.234
146.562
146.042
145.637
145.327
145.096
144.924
144.793
144.693
144.618
144.564
144.524
144.494
144.472
144.456
144.443
144.434
144.426
144.421
144.417
144.413
144.411
144.409
144.408
144.406
144.405
144.405
144.404
144.404
144.403
144.403
144.403
144.403
144.403
144.403
144.403
144.403
144.403
144.403
144.403
144.403
144.403
144.403
144.403
144.403
144.403
144.403
144.403
144.403
144.403
144.403
144.404
144.404
144.404
144.404
144.404
144.404
144.404
144.404
144.405
144.405
144.405
144.405
144.405
144.405
144.406
144.406
144.406
144.406
144.406
144.407
144.407
144.407
144.408
144.408
144.408
144.409
144.409
144.409
144.41
144.41
144.411
144.411
144.411
144.412
144.412
144.413
144.413
144.414
144.415
144.415
144.416
144.417
144.417
144.418
144.419
144.42
144.421
144.422
144.423
144.424
144.425
144.426
144.427
144.428
144.43
144.431
144.432
144.434
144.436
144.437
144.439
144.441
144.443
144.445
144.447
144.449
144.451
144.454
144.456
144.459
144.462
144.465
144.468
144.471
144.468
320.716
321.329
321.812
322.205
322.528
322.79
322.991
323.123
323.165
323.144
323.092
323.02
322.941
281.869
281.572
281.282
280.996
280.716
280.445
280.186
279.943
279.716
279.499
279.292
279.091
278.89
278.685
278.472
278.256
278.041
277.836
277.648
277.49
277.356
277.245
277.151
277.067
276.997
276.946
276.906
276.895
276.905
276.941
277.004
277.094
277.216
277.345
277.482
277.647
277.848
278.081
278.352
278.655
278.915
279.142
279.35
279.53
279.661
279.695
279.658
279.497
279.097
278.322
277.006
274.958
272.006
268.009
262.79
256.084
247.667
237.697
226.503
214.554
202.584
191.722
183.18
176.284
170.249
164.944
160.488
156.958
154.234
152.049
150.252
148.812
147.717
146.913
146.312
145.851
145.497
145.232
145.035
144.888
144.774
144.686
144.62
144.571
144.535
144.507
144.485
144.468
144.455
144.445
144.437
144.431
144.426
144.422
144.419
144.416
144.414
144.413
144.411
144.41
144.41
144.409
144.409
144.409
144.409
144.409
144.409
144.409
144.409
144.409
144.409
144.409
144.41
144.41
144.41
144.411
144.411
144.411
144.412
144.412
144.412
144.413
144.413
144.413
144.414
144.414
144.415
144.415
144.416
144.416
144.417
144.418
144.418
144.419
144.42
144.42
144.421
144.422
144.423
144.424
144.425
144.426
144.427
144.428
144.43
144.431
144.432
144.434
144.435
144.437
144.438
144.44
144.442
144.444
144.446
144.448
144.45
144.452
144.455
144.457
144.46
144.462
144.465
144.468
144.471
144.475
144.478
144.482
144.486
144.49
144.494
144.499
144.504
144.509
144.514
144.519
144.525
144.531
144.537
144.544
144.551
144.558
144.566
144.574
144.583
144.592
144.602
144.612
144.623
144.634
144.646
144.659
144.65
325.982
326.072
326.07
326.035
325.973
325.896
325.824
325.758
325.709
325.679
325.63
325.542
325.423
325.264
285.348
284.955
284.575
284.207
283.849
283.502
283.171
282.86
282.564
282.281
282.009
281.742
281.474
281.208
280.942
280.674
280.409
280.152
279.911
279.691
279.491
279.308
279.141
278.986
278.846
278.723
278.62
278.545
278.495
278.48
278.487
278.521
278.586
278.683
278.809
278.967
279.154
279.374
279.628
279.901
280.188
280.497
280.837
281.213
281.617
282.032
282.42
282.77
283.094
283.402
283.689
283.89
283.932
283.86
283.548
282.823
281.532
279.493
276.51
272.402
266.953
259.844
250.812
240.019
227.86
214.924
202.141
190.857
182.195
175.156
169.001
163.683
159.339
155.992
153.428
151.372
149.711
148.425
147.474
146.777
146.249
145.836
145.516
145.272
145.087
144.945
144.834
144.746
144.677
144.624
144.583
144.551
144.526
144.505
144.488
144.475
144.464
144.455
144.448
144.443
144.438
144.435
144.432
144.431
144.429
144.429
144.428
144.428
144.429
144.429
144.429
144.43
144.431
144.432
144.432
144.433
144.434
144.435
144.437
144.438
144.439
144.44
144.441
144.443
144.444
144.446
144.447
144.449
144.451
144.453
144.455
144.457
144.459
144.462
144.464
144.467
144.469
144.472
144.475
144.478
144.482
144.485
144.489
144.493
144.497
144.501
144.506
144.511
144.516
144.521
144.527
144.533
144.539
144.545
144.552
144.559
144.567
144.574
144.582
144.591
144.6
144.609
144.619
144.63
144.641
144.652
144.665
144.678
144.692
144.706
144.722
144.738
144.756
144.774
144.793
144.813
144.834
144.855
144.878
144.903
144.928
144.954
144.982
145.012
145.042
145.075
145.109
145.146
145.185
145.227
145.272
145.324
145.297
328.709
328.666
328.621
328.54
328.43
328.272
328.097
327.92
327.763
327.636
327.525
327.409
327.274
327.116
288.775
288.317
287.872
287.439
287.021
286.617
286.229
285.857
285.501
285.155
284.821
284.496
284.171
283.847
283.526
283.206
282.889
282.581
282.285
282.003
281.737
281.485
281.245
281.021
280.812
280.62
280.448
280.3
280.176
280.081
280.015
279.99
279.998
280.036
280.109
280.213
280.347
280.513
280.712
280.947
281.217
281.522
281.863
282.239
282.64
283.065
283.509
283.97
284.463
284.998
285.561
286.123
286.632
287.101
287.565
288.036
288.509
288.915
289.156
289.187
289.029
288.442
287.207
285.116
281.928
277.395
271.26
263.207
253.04
241.014
227.609
213.599
200.207
188.985
180.593
173.664
167.652
162.604
158.607
155.585
153.26
151.372
149.835
148.632
147.725
147.046
146.524
146.108
145.775
145.512
145.307
145.146
145.018
144.912
144.825
144.753
144.695
144.649
144.612
144.583
144.559
144.541
144.526
144.515
144.507
144.501
144.497
144.495
144.493
144.493
144.494
144.495
144.497
144.499
144.502
144.505
144.508
144.511
144.515
144.519
144.522
144.527
144.531
144.535
144.54
144.545
144.55
144.556
144.561
144.568
144.574
144.581
144.588
144.596
144.604
144.613
144.621
144.631
144.641
144.651
144.662
144.673
144.686
144.698
144.712
144.726
144.741
144.757
144.774
144.792
144.811
144.831
144.852
144.875
144.898
144.923
144.948
144.975
145.003
145.032
145.062
145.094
145.128
145.163
145.2
145.239
145.281
145.325
145.372
145.422
145.474
145.53
145.59
145.653
145.719
145.79
145.863
145.94
146.021
146.105
146.192
146.283
146.379
146.481
146.588
146.702
146.824
146.955
147.093
147.241
147.398
147.592
147.523
330.849
330.693
330.561
330.431
330.287
330.122
329.937
329.742
329.547
329.37
329.221
329.095
328.979
328.859
292.133
291.63
291.138
290.66
290.195
289.746
289.308
288.886
288.481
288.083
287.695
287.314
286.936
286.561
286.189
285.82
285.454
285.096
284.747
284.408
284.08
283.764
283.459
283.169
282.894
282.637
282.398
282.181
281.987
281.819
281.683
281.583
281.516
281.491
281.497
281.528
281.592
281.691
281.827
282.004
282.221
282.48
282.777
283.109
283.475
283.881
284.323
284.803
285.326
285.884
286.462
287.063
287.675
288.302
288.968
289.686
290.444
291.208
291.902
292.553
293.234
293.951
294.666
295.3
295.753
295.903
295.798
295.261
293.977
291.646
287.947
282.593
275.317
265.859
254.213
240.842
226.432
211.996
198.882
188.385
180.614
174.119
168.446
163.644
159.775
156.781
154.47
152.592
151.023
149.739
148.72
147.93
147.315
146.825
146.419
146.079
145.795
145.564
145.377
145.226
145.104
145.004
144.922
144.857
144.807
144.769
144.742
144.723
144.711
144.703
144.7
144.7
144.703
144.708
144.714
144.722
144.732
144.742
144.753
144.765
144.777
144.79
144.804
144.818
144.833
144.849
144.865
144.883
144.902
144.921
144.942
144.964
144.988
145.013
145.04
145.068
145.097
145.128
145.161
145.195
145.23
145.268
145.307
145.348
145.392
145.437
145.486
145.537
145.591
145.648
145.709
145.774
145.842
145.914
145.991
146.071
146.155
146.244
146.336
146.432
146.533
146.637
146.747
146.862
146.983
147.111
147.246
147.39
147.543
147.706
147.88
148.066
148.264
148.476
148.7
148.938
149.188
149.451
149.727
150.014
150.312
150.623
150.945
151.279
151.626
151.988
152.366
152.765
153.189
153.646
154.13
154.764
154.665
332.638
332.437
332.261
332.114
331.982
331.852
331.717
331.571
331.416
331.26
331.115
330.986
330.874
295.419
294.883
294.359
293.846
293.344
292.859
292.385
291.922
291.471
291.028
290.593
290.164
289.739
289.318
288.901
288.486
288.076
287.671
287.273
286.881
286.498
286.124
285.761
285.411
285.076
284.756
284.455
284.174
283.914
283.68
283.475
283.303
283.164
283.061
282.989
282.949
282.95
282.973
283.035
283.138
283.283
283.472
283.704
283.976
284.291
284.651
285.056
285.508
286.001
286.528
287.09
287.687
288.313
288.975
289.68
290.417
291.168
291.931
292.707
293.512
294.379
295.313
296.282
297.251
298.224
299.224
300.247
301.267
302.24
303.072
303.623
303.76
303.57
302.76
300.959
297.838
293.15
286.766
278.557
268.449
256.597
243.492
229.703
215.998
203.369
192.788
184.79
178.432
172.853
167.963
163.823
160.436
157.729
155.574
153.79
152.244
150.904
149.772
148.842
148.096
147.502
147.025
146.633
146.311
146.05
145.846
145.691
145.575
145.49
145.43
145.389
145.365
145.357
145.359
145.368
145.386
145.411
145.44
145.473
145.508
145.547
145.587
145.629
145.674
145.72
145.769
145.821
145.875
145.932
145.992
146.057
146.125
146.199
146.277
146.359
146.447
146.539
146.637
146.739
146.846
146.958
147.074
147.197
147.325
147.459
147.601
147.75
147.907
148.074
148.251
148.439
148.639
148.852
149.079
149.32
149.576
149.847
150.133
150.432
150.742
151.063
151.395
151.737
152.093
152.463
152.849
153.253
153.678
154.126
154.598
155.099
155.632
156.199
156.804
157.452
158.143
158.878
159.657
160.475
161.328
162.204
163.096
164.003
164.929
165.881
166.865
167.886
168.96
170.077
171.273
172.479
173.979
174.247
334.474
334.307
334.146
334
333.872
333.757
333.647
333.535
333.418
333.296
333.172
333.053
332.944
297.522
296.984
296.456
295.938
295.43
294.932
294.443
293.961
293.485
293.016
292.55
292.089
291.631
291.177
290.725
290.277
289.833
289.394
288.962
288.536
288.12
287.715
287.323
286.946
286.587
286.245
285.925
285.628
285.358
285.117
284.907
284.728
284.58
284.465
284.381
284.33
284.325
284.346
284.409
284.517
284.669
284.867
285.112
285.405
285.748
286.138
286.571
287.044
287.559
288.109
288.694
289.32
289.984
290.676
291.397
292.145
292.92
293.736
294.6
295.503
296.441
297.428
298.478
299.579
300.702
301.833
302.982
304.162
305.364
306.579
307.823
309.005
309.932
310.503
310.647
310.495
309.824
308.381
306.012
302.558
297.867
291.764
284.169
275.08
264.578
252.977
240.708
228.246
216.166
205.082
195.542
187.895
181.941
176.69
171.878
167.557
163.792
160.608
157.989
155.868
154.114
152.609
151.328
150.277
149.446
148.813
148.343
147.998
147.744
147.562
147.444
147.382
147.367
147.381
147.422
147.488
147.573
147.671
147.781
147.899
148.025
148.157
148.297
148.443
148.596
148.756
148.926
149.104
149.294
149.496
149.711
149.942
150.189
150.453
150.735
151.033
151.347
151.675
152.015
152.367
152.732
153.111
153.505
153.914
154.341
154.786
155.251
155.74
156.255
156.798
157.374
157.985
158.634
159.324
160.055
160.829
161.644
162.495
163.374
164.274
165.195
166.137
167.102
168.091
169.105
170.149
171.228
172.348
173.518
174.745
176.039
177.405
178.848
180.368
181.962
183.63
185.375
187.205
189.112
191.043
192.969
194.889
196.764
198.578
200.262
201.829
203.225
204.53
205.737
207.112
207.538
336.306
336.174
336.045
335.925
335.816
335.717
335.623
335.531
335.437
335.341
335.244
335.151
300.613
300.052
299.498
298.953
298.416
297.886
297.364
296.849
296.339
295.835
295.335
294.838
294.344
293.852
293.362
292.874
292.389
291.906
291.427
290.954
290.489
290.033
289.59
289.159
288.745
288.347
287.97
287.614
287.281
286.974
286.694
286.442
286.218
286.024
285.859
285.727
285.63
285.567
285.557
285.575
285.636
285.745
285.903
286.109
286.365
286.668
287.015
287.403
287.835
288.31
288.828
289.389
289.99
290.635
291.317
292.03
292.778
293.567
294.393
295.247
296.144
297.098
298.104
299.139
300.184
301.258
302.384
303.569
304.801
306.056
307.303
308.49
309.598
310.682
311.766
312.834
313.712
314.365
314.793
314.907
314.774
314.247
313.194
311.547
309.225
306.132
302.179
297.317
291.517
284.731
276.889
268.064
258.356
247.956
237.04
225.871
214.844
204.463
195.26
187.674
181.711
176.5
171.795
167.664
164.172
161.329
159.098
157.399
156.1
155.085
154.319
153.783
153.453
153.3
153.284
153.35
153.506
153.73
154.006
154.318
154.659
155.022
155.404
155.804
156.221
156.654
157.106
157.579
158.075
158.599
159.154
159.744
160.373
161.043
161.758
162.518
163.323
164.166
165.037
165.933
166.852
167.796
168.764
169.755
170.772
171.815
172.887
173.992
175.133
176.316
177.546
178.829
180.174
181.588
183.079
184.654
186.316
188.066
189.868
191.664
193.432
195.169
196.871
198.537
200.165
201.751
203.289
204.767
206.171
207.487
208.703
209.817
210.841
211.799
212.717
213.622
214.521
215.396
216.221
216.962
217.564
217.992
218.278
218.453
218.6
218.758
219.018
219.386
219.924
220.636
220.887
338.403
338.299
338.196
338.095
338
337.913
337.832
337.757
337.685
337.613
303.595
303.013
302.437
301.867
301.304
300.747
300.196
299.652
299.112
298.578
298.046
297.517
296.99
296.464
295.937
295.411
294.885
294.36
293.838
293.32
292.808
292.304
291.811
291.331
290.864
290.413
289.98
289.566
289.173
288.801
288.453
288.128
287.829
287.554
287.307
287.089
286.902
286.75
286.637
286.558
286.532
286.544
286.593
286.693
286.841
287.03
287.266
287.551
287.886
288.277
288.725
289.217
289.749
290.32
290.93
291.58
292.265
292.972
293.709
294.501
295.35
296.232
297.12
298.028
298.986
300.003
301.076
302.194
303.334
304.477
305.617
306.753
307.91
309.086
310.223
311.26
312.124
312.829
313.416
313.903
314.291
314.68
315.014
315.19
315.197
315.052
314.618
313.85
312.735
311.252
309.403
307.171
304.492
301.284
297.456
292.911
287.532
281.19
273.751
265.104
255.262
244.634
233.573
222.472
211.815
202.123
193.867
187.363
182.527
178.599
175.343
172.77
170.875
169.6
168.862
168.545
168.546
168.754
169.192
169.786
170.495
171.284
172.131
173.022
173.949
174.907
175.892
176.904
177.944
179.015
180.124
181.282
182.499
183.783
185.145
186.594
188.143
189.787
191.465
193.143
194.813
196.471
198.113
199.733
201.323
202.875
204.378
205.824
207.207
208.523
209.771
210.95
212.061
213.099
214.063
214.949
215.755
216.484
217.146
217.76
218.335
218.874
219.377
219.841
220.255
220.612
220.908
221.144
221.334
221.495
221.651
221.825
222.036
222.287
222.564
222.83
223.032
223.128
223.144
223.095
223.001
222.904
222.822
222.808
222.902
223.129
223.44
223.734
223.939
224.032
223.858
340.516
340.437
340.36
340.285
340.216
340.152
340.094
340.04
339.99
305.822
305.225
304.632
304.045
303.464
302.888
302.318
301.752
301.189
300.628
300.069
299.509
298.948
298.385
297.82
297.254
296.688
296.122
295.56
295.003
294.453
293.912
293.382
292.865
292.362
291.874
291.403
290.948
290.512
290.095
289.697
289.32
288.965
288.633
288.325
288.045
287.797
287.58
287.398
287.256
287.153
287.085
287.074
287.097
287.166
287.288
287.473
287.715
288.007
288.348
288.734
289.161
289.63
290.14
290.689
291.267
291.882
292.544
293.245
293.972
294.722
295.507
296.327
297.184
298.09
299.046
300.035
301.039
302.047
303.061
304.093
305.173
306.265
307.277
308.2
309
309.651
310.24
310.832
311.399
311.844
312.163
312.372
312.453
312.376
312.113
311.681
311.15
310.626
310.215
309.813
309.346
308.791
308.122
307.295
306.236
304.844
303.008
300.622
297.63
293.973
289.592
284.43
278.435
271.557
263.75
255.092
245.94
236.745
227.941
219.972
213.201
207.837
203.896
201.221
199.608
198.815
198.692
198.966
199.666
200.632
201.735
202.927
204.169
205.427
206.678
207.911
209.123
210.309
211.455
212.549
213.585
214.56
215.475
216.326
217.109
217.827
218.5
219.137
219.74
220.308
220.833
221.307
221.726
222.096
222.425
222.725
223.004
223.266
223.513
223.741
223.947
224.131
224.293
224.437
224.567
224.687
224.798
224.899
224.986
225.05
225.087
225.095
225.086
225.058
225.018
224.987
224.978
224.994
225.049
225.134
225.228
225.298
225.315
225.282
225.175
225.021
224.861
224.715
224.602
224.536
224.541
224.625
224.778
224.913
224.989
225.001
224.943
224.807
224.491
342.824
342.766
308.422
307.805
307.192
306.584
305.981
305.382
304.787
304.195
303.604
303.014
302.423
301.829
301.232
300.631
300.027
299.42
298.811
298.201
297.594
296.992
296.395
295.807
295.228
294.66
294.104
293.56
293.03
292.513
292.01
291.522
291.05
290.594
290.156
289.737
289.336
288.958
288.607
288.284
287.989
287.725
287.498
287.314
287.173
287.08
287.061
287.079
287.139
287.255
287.421
287.63
287.882
288.179
288.52
288.904
289.325
289.784
290.287
290.827
291.396
291.997
292.631
293.297
293.996
294.738
295.524
296.346
297.188
298.043
298.914
299.805
300.725
301.686
302.623
303.465
304.243
304.937
305.478
305.939
306.395
306.831
307.134
307.337
307.449
307.445
307.359
307.17
306.931
306.7
306.479
306.17
305.744
305.266
304.736
304.139
303.47
302.725
301.906
301.04
300.213
299.481
298.632
297.563
296.215
294.52
292.387
289.718
286.47
282.6
278.038
272.759
266.918
260.709
254.362
248.16
242.411
237.396
233.259
229.993
227.557
225.871
224.803
224.151
223.845
223.792
223.868
224.062
224.309
224.564
224.801
225.018
225.224
225.419
225.603
225.774
225.934
226.087
226.232
226.364
226.474
226.555
226.608
226.641
226.666
226.69
226.721
226.758
226.8
226.84
226.872
226.895
226.908
226.912
226.913
226.912
226.911
226.911
226.909
226.903
226.884
226.85
226.8
226.74
226.676
226.612
226.553
226.51
226.491
226.492
226.506
226.526
226.529
226.517
226.461
226.358
226.223
226.074
225.929
225.808
225.727
225.7
225.722
225.802
225.909
225.987
226.026
226.014
225.927
225.757
225.542
225.202
310.756
310.121
309.49
308.862
308.237
307.615
306.996
306.377
305.757
305.135
304.51
303.879
303.244
302.602
301.956
301.305
300.652
299.998
299.346
298.697
298.053
297.416
296.787
296.166
295.555
294.952
294.36
293.778
293.206
292.645
292.094
291.555
291.031
290.523
290.028
289.548
289.089
288.657
288.255
287.884
287.546
287.257
287.016
286.816
286.662
286.553
286.482
286.47
286.489
286.547
286.655
286.81
287.011
287.254
287.537
287.864
288.233
288.636
289.074
289.544
290.045
290.58
291.152
291.764
292.411
293.084
293.776
294.491
295.236
296.005
296.801
297.618
298.391
299.078
299.715
300.312
300.731
301.02
301.307
301.585
301.683
301.737
301.773
301.725
301.582
301.382
301.148
300.866
300.511
300.054
299.501
298.944
298.384
297.81
297.248
296.74
296.31
295.944
295.57
295.036
294.357
293.558
292.628
291.601
290.502
289.408
288.353
287.105
285.551
283.643
281.309
278.482
275.132
271.249
266.864
262.079
257.063
252.061
247.341
243.124
239.544
236.623
234.316
232.546
231.22
230.248
229.549
229.068
228.754
228.536
228.398
228.322
228.283
228.263
228.251
228.242
228.227
228.201
228.167
228.133
228.103
228.08
228.063
228.049
228.033
228.013
227.988
227.961
227.934
227.91
227.886
227.866
227.848
227.832
227.817
227.801
227.781
227.752
227.713
227.667
227.619
227.57
227.525
227.49
227.469
227.465
227.468
227.473
227.473
227.463
227.428
227.362
227.266
227.148
227.024
226.915
226.836
226.801
226.809
226.862
226.952
227.04
227.087
227.091
227.041
226.915
226.732
226.524
226.334
226.107
312.775
312.122
311.472
310.824
310.178
309.532
308.886
308.237
307.586
306.929
306.266
305.596
304.919
304.234
303.544
302.848
302.149
301.45
300.75
300.053
299.361
298.673
297.991
297.316
296.645
295.979
295.321
294.669
294.027
293.391
292.76
292.137
291.524
290.925
290.341
289.774
289.223
288.695
288.201
287.742
287.314
286.916
286.553
286.232
285.951
285.707
285.5
285.337
285.213
285.129
285.106
285.121
285.176
285.279
285.427
285.618
285.849
286.119
286.423
286.759
287.129
287.534
287.976
288.453
288.961
289.493
290.05
290.64
291.263
291.906
292.568
293.235
293.859
294.413
294.928
295.442
295.721
295.855
296.02
296.146
296.118
296.085
296.092
296.055
295.89
295.66
295.372
295.002
294.541
293.995
293.44
292.908
292.385
291.889
291.445
291.069
290.744
290.426
290.06
289.628
289.152
288.664
288.188
287.745
287.341
286.93
286.401
285.789
285.157
284.571
283.873
282.979
281.835
280.39
278.573
276.304
273.508
270.139
266.19
261.739
256.963
252.115
247.492
243.351
239.849
237.031
234.853
233.207