/*--------------------------------*- C++ -*----------------------------------*\
| =========                 |                                                 |
| \\      /  F ield         | OpenFOAM: The Open Source CFD Toolbox           |
|  \\    /   O peration     | Version:  v1706                                 |
|   \\  /    A nd           | Web:      www.OpenFOAM.com                      |
|    \\/     M anipulation  |                                                 |
\*---------------------------------------------------------------------------*/
FoamFile
{
    version     2.0;
    format      ascii;
    class       volScalarField;
    location    "3.5e-05";
    object      wallHeatFlux;
}
// * * * * * * * * * * * * * * * * * * * * * * * * * * * * * * * * * * * * * //

dimensions      [1 0 -3 0 0 0 0];


internalField   uniform 0;

boundaryField
{
    cone
    {
        type            calculated;
        value           nonuniform List<scalar> 
119
(
-669.815
-697.088
-727.712
-760.577
-794.657
-829.028
-862.875
-895.531
-926.488
-955.396
-982.043
-1006.34
-1028.39
-1048.33
-1066.34
-1082.67
-1097.61
-1111.42
-1124.37
-1136.7
-1148.63
-1160.33
-1171.94
-1183.6
-1195.36
-1207.3
-1219.45
-1231.83
-1244.44
-1257.27
-1270.31
-1283.52
-1296.88
-1310.35
-1323.89
-1337.43
-1350.93
-1364.31
-1377.5
-1390.43
-1403.02
-1415.17
-1426.81
-1437.84
-1448.19
-1457.77
-1466.51
-1474.35
-1481.22
-1487.08
-1491.91
-1495.7
-1498.41
-1500.02
-1500.59
-1500.11
-1498.63
-1496.18
-1492.8
-1488.53
-1483.41
-1477.47
-1470.76
-1463.3
-1455.11
-1446.21
-1436.6
-1426.28
-1415.24
-1403.47
-1390.94
-1377.63
-1363.51
-1348.54
-1332.69
-1315.92
-1298.19
-1279.45
-1259.69
-1238.86
-1216.96
-1193.97
-1169.91
-1144.8
-1118.67
-1091.58
-1063.6
-1034.86
-1005.5
-975.797
-946.08
-916.744
-888.146
-860.477
-833.637
-807.196
-780.461
-752.647
-723.074
-691.33
-657.353
-621.407
-583.986
-545.682
-507.066
-468.602
-430.626
-393.357
-356.927
-321.401
-286.823
-253.25
-220.76
-189.346
-158.171
-124.217
-82.2617
-36.5969
23.0345
)
;
    }
    inlet
    {
        type            calculated;
        value           uniform 0;
    }
    rWedge
    {
        type            wedge;
    }
    lWedge
    {
        type            wedge;
    }
    outlet
    {
        type            calculated;
        value           uniform 0;
    }
    procBoundary0to1
    {
        type            processor;
        value           uniform 0;
    }
    procBoundary0to2
    {
        type            processor;
        value           uniform 0;
    }
}


// ************************************************************************* //
