/*--------------------------------*- C++ -*----------------------------------*\
| =========                 |                                                 |
| \\      /  F ield         | OpenFOAM: The Open Source CFD Toolbox           |
|  \\    /   O peration     | Version:  v1706                                 |
|   \\  /    A nd           | Web:      www.OpenFOAM.com                      |
|    \\/     M anipulation  |                                                 |
\*---------------------------------------------------------------------------*/
FoamFile
{
    version     2.0;
    format      ascii;
    class       volScalarField;
    location    "3.8e-05";
    object      alpha;
}
// * * * * * * * * * * * * * * * * * * * * * * * * * * * * * * * * * * * * * //

dimensions      [1 -1 -1 0 0 0 0];


internalField   nonuniform List<scalar> 
30104
(
1.40533e-05
1.40541e-05
1.40551e-05
1.40562e-05
1.40575e-05
1.4059e-05
1.40607e-05
1.40626e-05
1.40648e-05
1.40674e-05
1.40703e-05
1.40736e-05
1.40774e-05
1.40817e-05
1.40866e-05
1.40922e-05
1.40986e-05
1.69193e-05
1.6861e-05
1.68027e-05
1.67446e-05
1.66867e-05
1.66289e-05
1.65711e-05
1.65132e-05
1.64551e-05
1.63967e-05
1.63376e-05
1.62778e-05
1.6217e-05
1.61549e-05
1.60914e-05
1.60265e-05
1.59602e-05
1.58924e-05
1.58232e-05
1.57525e-05
1.56802e-05
1.56084e-05
1.55516e-05
1.55068e-05
1.54664e-05
1.54257e-05
1.53831e-05
1.53377e-05
1.52894e-05
1.52384e-05
1.5185e-05
1.51294e-05
1.50719e-05
1.50128e-05
1.49526e-05
1.48914e-05
1.48294e-05
1.47668e-05
1.4704e-05
1.46413e-05
1.45792e-05
1.45211e-05
1.44702e-05
1.44274e-05
1.43899e-05
1.4355e-05
1.43212e-05
1.42883e-05
1.42564e-05
1.42261e-05
1.4198e-05
1.41732e-05
1.41525e-05
1.41359e-05
1.41223e-05
1.41107e-05
1.41005e-05
1.40915e-05
1.40837e-05
1.40773e-05
1.40721e-05
1.40679e-05
1.40645e-05
1.40616e-05
1.4059e-05
1.40569e-05
1.40551e-05
1.40536e-05
1.40524e-05
1.40515e-05
1.40507e-05
1.40501e-05
1.40497e-05
1.40493e-05
1.4049e-05
1.40487e-05
1.40485e-05
1.40484e-05
1.40483e-05
1.40482e-05
1.40481e-05
1.4048e-05
1.4048e-05
1.40479e-05
1.40479e-05
1.40479e-05
1.40478e-05
1.40478e-05
1.40478e-05
1.40478e-05
1.40478e-05
1.40478e-05
1.40478e-05
1.40478e-05
1.40478e-05
1.40478e-05
1.40478e-05
1.40478e-05
1.40478e-05
1.40478e-05
1.40478e-05
1.40478e-05
1.40478e-05
1.40478e-05
1.40478e-05
1.40478e-05
1.40478e-05
1.40478e-05
1.40478e-05
1.40478e-05
1.40478e-05
1.40478e-05
1.40478e-05
1.40478e-05
1.40478e-05
1.40478e-05
1.40478e-05
1.40478e-05
1.40478e-05
1.40478e-05
1.40478e-05
1.40478e-05
1.40478e-05
1.40478e-05
1.40478e-05
1.40478e-05
1.40478e-05
1.40478e-05
1.40478e-05
1.40478e-05
1.40478e-05
1.40478e-05
1.40478e-05
1.40478e-05
1.40478e-05
1.40478e-05
1.40478e-05
1.40478e-05
1.40478e-05
1.40478e-05
1.40478e-05
1.40478e-05
1.40478e-05
1.40478e-05
1.40478e-05
1.40478e-05
1.40478e-05
1.40478e-05
1.40478e-05
1.40478e-05
1.40478e-05
1.40478e-05
1.40478e-05
1.40478e-05
1.40478e-05
1.40478e-05
1.40478e-05
1.40478e-05
1.40478e-05
1.40478e-05
1.40478e-05
1.40478e-05
1.40478e-05
1.40478e-05
1.40478e-05
1.40478e-05
1.40478e-05
1.40478e-05
1.40478e-05
1.40478e-05
1.40478e-05
1.40478e-05
1.40478e-05
1.40478e-05
1.40478e-05
1.40478e-05
1.40478e-05
1.40478e-05
1.40478e-05
1.40478e-05
1.40478e-05
1.40478e-05
1.40478e-05
1.40478e-05
1.40478e-05
1.40478e-05
1.40478e-05
1.40478e-05
1.40478e-05
1.40478e-05
1.40478e-05
1.40478e-05
1.40478e-05
1.40818e-05
1.40871e-05
1.40931e-05
1.41001e-05
1.4108e-05
1.41171e-05
1.41276e-05
1.41396e-05
1.41533e-05
1.41689e-05
1.41868e-05
1.42072e-05
1.42306e-05
1.42574e-05
1.4288e-05
1.43227e-05
1.4362e-05
2.11045e-05
2.10761e-05
2.10485e-05
2.10214e-05
2.09951e-05
2.09694e-05
2.09443e-05
2.09198e-05
2.08958e-05
2.08722e-05
2.08488e-05
2.08257e-05
2.08025e-05
2.07793e-05
2.07557e-05
2.07315e-05
2.07064e-05
2.068e-05
2.06516e-05
2.06207e-05
2.05869e-05
2.05493e-05
2.05031e-05
2.04456e-05
2.03755e-05
2.02919e-05
2.01943e-05
2.00833e-05
1.9959e-05
1.98209e-05
1.96683e-05
1.95001e-05
1.9316e-05
1.91165e-05
1.89027e-05
1.86752e-05
1.84341e-05
1.81793e-05
1.79101e-05
1.76259e-05
1.73278e-05
1.70214e-05
1.67266e-05
1.64818e-05
1.62725e-05
1.60785e-05
1.58888e-05
1.56996e-05
1.5511e-05
1.53255e-05
1.51483e-05
1.49874e-05
1.48496e-05
1.47361e-05
1.46405e-05
1.45561e-05
1.44797e-05
1.44102e-05
1.4348e-05
1.42943e-05
1.42501e-05
1.42146e-05
1.41859e-05
1.4162e-05
1.41414e-05
1.41238e-05
1.41092e-05
1.40973e-05
1.40879e-05
1.40803e-05
1.40742e-05
1.4069e-05
1.40648e-05
1.40612e-05
1.40584e-05
1.40562e-05
1.40545e-05
1.40531e-05
1.4052e-05
1.40511e-05
1.40504e-05
1.40498e-05
1.40494e-05
1.4049e-05
1.40488e-05
1.40486e-05
1.40484e-05
1.40483e-05
1.40481e-05
1.40481e-05
1.4048e-05
1.4048e-05
1.40479e-05
1.40479e-05
1.40479e-05
1.40478e-05
1.40478e-05
1.40478e-05
1.40478e-05
1.40478e-05
1.40478e-05
1.40478e-05
1.40478e-05
1.40478e-05
1.40478e-05
1.40478e-05
1.40478e-05
1.40478e-05
1.40478e-05
1.40478e-05
1.40478e-05
1.40478e-05
1.40478e-05
1.40478e-05
1.40478e-05
1.40478e-05
1.40478e-05
1.40478e-05
1.40478e-05
1.40478e-05
1.40478e-05
1.40478e-05
1.40478e-05
1.40478e-05
1.40478e-05
1.40478e-05
1.40478e-05
1.40478e-05
1.40478e-05
1.40478e-05
1.40478e-05
1.40478e-05
1.40478e-05
1.40478e-05
1.40478e-05
1.40478e-05
1.40478e-05
1.40478e-05
1.40478e-05
1.40478e-05
1.40478e-05
1.40478e-05
1.40478e-05
1.40478e-05
1.40478e-05
1.40478e-05
1.40478e-05
1.40478e-05
1.40478e-05
1.40478e-05
1.40478e-05
1.40478e-05
1.40478e-05
1.40478e-05
1.40478e-05
1.40478e-05
1.40478e-05
1.40478e-05
1.40478e-05
1.40478e-05
1.40478e-05
1.40478e-05
1.40478e-05
1.40478e-05
1.40478e-05
1.40478e-05
1.40478e-05
1.40478e-05
1.40478e-05
1.40478e-05
1.40478e-05
1.40478e-05
1.40478e-05
1.40478e-05
1.40478e-05
1.40478e-05
1.40478e-05
1.40478e-05
1.40478e-05
1.40478e-05
1.40478e-05
1.40478e-05
1.40478e-05
1.40478e-05
1.40478e-05
1.40478e-05
1.40478e-05
1.40478e-05
1.40478e-05
1.40478e-05
1.40478e-05
1.40478e-05
1.40478e-05
1.41722e-05
1.41912e-05
1.4213e-05
1.42381e-05
1.42668e-05
1.42998e-05
1.43376e-05
1.43807e-05
1.44296e-05
1.44849e-05
1.45474e-05
1.46182e-05
1.46987e-05
1.47902e-05
1.48941e-05
1.50109e-05
2.17666e-05
2.17451e-05
2.17242e-05
2.17037e-05
2.16837e-05
2.16641e-05
2.1645e-05
2.16264e-05
2.16085e-05
2.15913e-05
2.1575e-05
2.15597e-05
2.15458e-05
2.15335e-05
2.15232e-05
2.15153e-05
2.15097e-05
2.15075e-05
2.15078e-05
2.15099e-05
2.15141e-05
2.152e-05
2.15268e-05
2.15342e-05
2.15417e-05
2.15471e-05
2.15466e-05
2.15427e-05
2.15335e-05
2.15192e-05
2.1501e-05
2.14801e-05
2.14571e-05
2.14311e-05
2.14005e-05
2.13632e-05
2.13172e-05
2.12608e-05
2.11912e-05
2.11044e-05
2.0995e-05
2.08569e-05
2.06818e-05
2.04616e-05
2.01992e-05
1.98994e-05
1.95652e-05
1.91977e-05
1.87974e-05
1.83657e-05
1.79092e-05
1.74436e-05
1.70044e-05
1.66446e-05
1.63429e-05
1.60702e-05
1.58121e-05
1.55652e-05
1.53332e-05
1.51245e-05
1.49473e-05
1.48038e-05
1.46859e-05
1.45845e-05
1.44947e-05
1.44151e-05
1.43462e-05
1.42888e-05
1.4243e-05
1.4207e-05
1.41778e-05
1.41534e-05
1.41327e-05
1.41156e-05
1.41019e-05
1.40911e-05
1.40826e-05
1.40758e-05
1.40701e-05
1.40655e-05
1.40617e-05
1.40587e-05
1.40564e-05
1.40546e-05
1.40532e-05
1.4052e-05
1.40511e-05
1.40504e-05
1.40498e-05
1.40494e-05
1.40491e-05
1.40488e-05
1.40486e-05
1.40484e-05
1.40482e-05
1.40481e-05
1.40481e-05
1.4048e-05
1.4048e-05
1.40479e-05
1.40479e-05
1.40479e-05
1.40478e-05
1.40478e-05
1.40478e-05
1.40478e-05
1.40478e-05
1.40478e-05
1.40478e-05
1.40478e-05
1.40478e-05
1.40478e-05
1.40478e-05
1.40478e-05
1.40478e-05
1.40478e-05
1.40478e-05
1.40478e-05
1.40478e-05
1.40478e-05
1.40478e-05
1.40478e-05
1.40478e-05
1.40478e-05
1.40478e-05
1.40478e-05
1.40478e-05
1.40478e-05
1.40478e-05
1.40478e-05
1.40478e-05
1.40478e-05
1.40478e-05
1.40478e-05
1.40478e-05
1.40478e-05
1.40478e-05
1.40478e-05
1.40478e-05
1.40478e-05
1.40478e-05
1.40478e-05
1.40478e-05
1.40478e-05
1.40478e-05
1.40478e-05
1.40478e-05
1.40478e-05
1.40478e-05
1.40478e-05
1.40478e-05
1.40478e-05
1.40478e-05
1.40478e-05
1.40478e-05
1.40478e-05
1.40478e-05
1.40478e-05
1.40478e-05
1.40478e-05
1.40478e-05
1.40478e-05
1.40478e-05
1.40478e-05
1.40478e-05
1.40478e-05
1.40478e-05
1.40478e-05
1.40478e-05
1.40478e-05
1.40478e-05
1.40478e-05
1.40478e-05
1.40478e-05
1.40478e-05
1.40478e-05
1.40478e-05
1.40478e-05
1.40478e-05
1.40478e-05
1.40478e-05
1.40478e-05
1.40478e-05
1.40478e-05
1.40478e-05
1.40478e-05
1.40478e-05
1.40478e-05
1.40478e-05
1.40478e-05
1.40478e-05
1.40478e-05
1.40478e-05
1.44589e-05
1.45202e-05
1.45898e-05
1.46689e-05
1.47589e-05
1.48613e-05
1.49775e-05
1.51086e-05
1.52552e-05
1.54181e-05
1.55987e-05
1.57997e-05
1.60243e-05
1.62737e-05
1.65474e-05
1.68438e-05
2.19071e-05
2.18838e-05
2.18613e-05
2.18397e-05
2.1819e-05
2.1799e-05
2.17799e-05
2.17616e-05
2.17441e-05
2.17274e-05
2.17117e-05
2.16969e-05
2.16832e-05
2.16709e-05
2.16601e-05
2.16513e-05
2.16444e-05
2.16419e-05
2.16427e-05
2.16461e-05
2.1653e-05
2.16633e-05
2.16768e-05
2.16933e-05
2.17123e-05
2.17327e-05
2.17528e-05
2.17715e-05
2.17876e-05
2.17996e-05
2.18072e-05
2.18116e-05
2.1815e-05
2.18185e-05
2.18225e-05
2.18266e-05
2.18299e-05
2.18304e-05
2.18292e-05
2.18255e-05
2.18186e-05
2.18095e-05
2.17983e-05
2.17845e-05
2.17657e-05
2.17387e-05
2.16989e-05
2.16407e-05
2.15575e-05
2.14434e-05
2.12927e-05
2.10982e-05
2.08493e-05
2.05364e-05
2.01663e-05
1.97473e-05
1.92844e-05
1.87812e-05
1.82458e-05
1.76966e-05
1.71725e-05
1.67391e-05
1.63884e-05
1.60793e-05
1.57912e-05
1.55202e-05
1.52726e-05
1.50581e-05
1.48829e-05
1.47435e-05
1.46279e-05
1.45277e-05
1.44397e-05
1.43636e-05
1.43003e-05
1.42501e-05
1.42113e-05
1.41805e-05
1.4155e-05
1.41336e-05
1.4116e-05
1.4102e-05
1.40911e-05
1.40826e-05
1.40758e-05
1.40702e-05
1.40655e-05
1.40617e-05
1.40587e-05
1.40564e-05
1.40546e-05
1.40532e-05
1.4052e-05
1.40511e-05
1.40504e-05
1.40498e-05
1.40494e-05
1.4049e-05
1.40488e-05
1.40485e-05
1.40484e-05
1.40482e-05
1.40481e-05
1.40481e-05
1.4048e-05
1.4048e-05
1.40479e-05
1.40479e-05
1.40479e-05
1.40479e-05
1.40478e-05
1.40478e-05
1.40478e-05
1.40478e-05
1.40478e-05
1.40478e-05
1.40478e-05
1.40478e-05
1.40478e-05
1.40478e-05
1.40478e-05
1.40478e-05
1.40478e-05
1.40478e-05
1.40478e-05
1.40478e-05
1.40478e-05
1.40478e-05
1.40478e-05
1.40478e-05
1.40478e-05
1.40478e-05
1.40478e-05
1.40478e-05
1.40478e-05
1.40478e-05
1.40478e-05
1.40478e-05
1.40478e-05
1.40478e-05
1.40478e-05
1.40478e-05
1.40478e-05
1.40478e-05
1.40478e-05
1.40478e-05
1.40478e-05
1.40478e-05
1.40478e-05
1.40478e-05
1.40478e-05
1.40478e-05
1.40478e-05
1.40478e-05
1.40478e-05
1.40478e-05
1.40478e-05
1.40478e-05
1.40478e-05
1.40478e-05
1.40478e-05
1.40478e-05
1.40478e-05
1.40478e-05
1.40478e-05
1.40478e-05
1.40478e-05
1.40478e-05
1.40478e-05
1.40478e-05
1.40478e-05
1.40478e-05
1.40478e-05
1.40478e-05
1.40478e-05
1.40478e-05
1.40478e-05
1.40478e-05
1.40478e-05
1.40478e-05
1.40478e-05
1.40478e-05
1.40478e-05
1.40478e-05
1.40478e-05
1.40478e-05
1.40478e-05
1.40478e-05
1.40478e-05
1.40478e-05
1.40478e-05
1.40478e-05
1.40478e-05
1.53001e-05
1.54733e-05
1.56659e-05
1.58804e-05
1.612e-05
1.63859e-05
1.66778e-05
1.69939e-05
1.73315e-05
1.76881e-05
1.80629e-05
1.84623e-05
1.89001e-05
1.93728e-05
1.98702e-05
2.202e-05
2.19941e-05
2.19692e-05
2.19455e-05
2.19227e-05
2.19009e-05
2.188e-05
2.18601e-05
2.18411e-05
2.18229e-05
2.18058e-05
2.17895e-05
2.17743e-05
2.17601e-05
2.17473e-05
2.17361e-05
2.17268e-05
2.17204e-05
2.17191e-05
2.17205e-05
2.17251e-05
2.17337e-05
2.17462e-05
2.17628e-05
2.1783e-05
2.18062e-05
2.18312e-05
2.1857e-05
2.1882e-05
2.19043e-05
2.19227e-05
2.19371e-05
2.19487e-05
2.19588e-05
2.19683e-05
2.1978e-05
2.19877e-05
2.19969e-05
2.20058e-05
2.20139e-05
2.20214e-05
2.2029e-05
2.20372e-05
2.20466e-05
2.20572e-05
2.20683e-05
2.20786e-05
2.20865e-05
2.20916e-05
2.20942e-05
2.2094e-05
2.20907e-05
2.20808e-05
2.20611e-05
2.20268e-05
2.19699e-05
2.1881e-05
2.17527e-05
2.15794e-05
2.13554e-05
2.10724e-05
2.0721e-05
2.03055e-05
1.98333e-05
1.93089e-05
1.87388e-05
1.81388e-05
1.75405e-05
1.70018e-05
1.65808e-05
1.62321e-05
1.59166e-05
1.56217e-05
1.53513e-05
1.51158e-05
1.49225e-05
1.47705e-05
1.46477e-05
1.45428e-05
1.44512e-05
1.43722e-05
1.43066e-05
1.42547e-05
1.42149e-05
1.41837e-05
1.4158e-05
1.41363e-05
1.41183e-05
1.41039e-05
1.40927e-05
1.40839e-05
1.40768e-05
1.40711e-05
1.40662e-05
1.40623e-05
1.40591e-05
1.40566e-05
1.40547e-05
1.40532e-05
1.40521e-05
1.40511e-05
1.40504e-05
1.40498e-05
1.40494e-05
1.4049e-05
1.40488e-05
1.40486e-05
1.40484e-05
1.40483e-05
1.40482e-05
1.40481e-05
1.4048e-05
1.4048e-05
1.40479e-05
1.40479e-05
1.40479e-05
1.40479e-05
1.40478e-05
1.40478e-05
1.40478e-05
1.40478e-05
1.40478e-05
1.40478e-05
1.40478e-05
1.40478e-05
1.40478e-05
1.40478e-05
1.40478e-05
1.40478e-05
1.40478e-05
1.40478e-05
1.40478e-05
1.40478e-05
1.40478e-05
1.40478e-05
1.40478e-05
1.40478e-05
1.40478e-05
1.40478e-05
1.40478e-05
1.40478e-05
1.40478e-05
1.40478e-05
1.40478e-05
1.40478e-05
1.40478e-05
1.40478e-05
1.40478e-05
1.40478e-05
1.40478e-05
1.40478e-05
1.40478e-05
1.40478e-05
1.40478e-05
1.40478e-05
1.40478e-05
1.40478e-05
1.40478e-05
1.40478e-05
1.40478e-05
1.40478e-05
1.40478e-05
1.40478e-05
1.40478e-05
1.40478e-05
1.40478e-05
1.40478e-05
1.40478e-05
1.40478e-05
1.40478e-05
1.40478e-05
1.40478e-05
1.40478e-05
1.40478e-05
1.40478e-05
1.40478e-05
1.40478e-05
1.40478e-05
1.40478e-05
1.40478e-05
1.40478e-05
1.40478e-05
1.40478e-05
1.40478e-05
1.40478e-05
1.40478e-05
1.40478e-05
1.40478e-05
1.40478e-05
1.40479e-05
1.40479e-05
1.40479e-05
1.40479e-05
1.70185e-05
1.73682e-05
1.77388e-05
1.8129e-05
1.85431e-05
1.89939e-05
1.94785e-05
1.99878e-05
2.0509e-05
2.10281e-05
2.15321e-05
2.20096e-05
2.24504e-05
2.28455e-05
2.31937e-05
2.34962e-05
2.21363e-05
2.21068e-05
2.20788e-05
2.20521e-05
2.20267e-05
2.20027e-05
2.198e-05
2.19588e-05
2.19389e-05
2.19205e-05
2.19034e-05
2.18877e-05
2.18734e-05
2.18604e-05
2.18488e-05
2.18386e-05
2.18299e-05
2.18232e-05
2.18208e-05
2.18214e-05
2.18244e-05
2.18309e-05
2.18415e-05
2.18561e-05
2.18745e-05
2.18963e-05
2.19207e-05
2.19465e-05
2.19723e-05
2.1997e-05
2.20189e-05
2.20372e-05
2.20519e-05
2.20639e-05
2.2074e-05
2.20831e-05
2.20926e-05
2.2102e-05
2.21112e-05
2.21218e-05
2.21334e-05
2.21444e-05
2.21551e-05
2.21668e-05
2.218e-05
2.21951e-05
2.22114e-05
2.22288e-05
2.22476e-05
2.22631e-05
2.22786e-05
2.22955e-05
2.23133e-05
2.23307e-05
2.23462e-05
2.23579e-05
2.23644e-05
2.23655e-05
2.23635e-05
2.23566e-05
2.23417e-05
2.23151e-05
2.22693e-05
2.21938e-05
2.20784e-05
2.19163e-05
2.17028e-05
2.14324e-05
2.10956e-05
2.06851e-05
2.02069e-05
1.96661e-05
1.90702e-05
1.8436e-05
1.77945e-05
1.71976e-05
1.67185e-05
1.6342e-05
1.60109e-05
1.57033e-05
1.54211e-05
1.51741e-05
1.49697e-05
1.48083e-05
1.46809e-05
1.45736e-05
1.44795e-05
1.43974e-05
1.43279e-05
1.42718e-05
1.42283e-05
1.41946e-05
1.41672e-05
1.4144e-05
1.41244e-05
1.41085e-05
1.40958e-05
1.4086e-05
1.40783e-05
1.4072e-05
1.40669e-05
1.40627e-05
1.40593e-05
1.40568e-05
1.40548e-05
1.40534e-05
1.40522e-05
1.40512e-05
1.40505e-05
1.40499e-05
1.40495e-05
1.40491e-05
1.40489e-05
1.40486e-05
1.40485e-05
1.40483e-05
1.40482e-05
1.40481e-05
1.40481e-05
1.4048e-05
1.4048e-05
1.40479e-05
1.40479e-05
1.40479e-05
1.40479e-05
1.40479e-05
1.40478e-05
1.40478e-05
1.40478e-05
1.40478e-05
1.40478e-05
1.40478e-05
1.40478e-05
1.40478e-05
1.40478e-05
1.40478e-05
1.40478e-05
1.40478e-05
1.40478e-05
1.40478e-05
1.40478e-05
1.40478e-05
1.40478e-05
1.40478e-05
1.40478e-05
1.40478e-05
1.40478e-05
1.40478e-05
1.40478e-05
1.40478e-05
1.40478e-05
1.40478e-05
1.40478e-05
1.40478e-05
1.40478e-05
1.40478e-05
1.40478e-05
1.40478e-05
1.40479e-05
1.40479e-05
1.40479e-05
1.40479e-05
1.40479e-05
1.40479e-05
1.40479e-05
1.40479e-05
1.40479e-05
1.40479e-05
1.40479e-05
1.40479e-05
1.40479e-05
1.40479e-05
1.40479e-05
1.40479e-05
1.40479e-05
1.40479e-05
1.40479e-05
1.40479e-05
1.40479e-05
1.40479e-05
1.40479e-05
1.4048e-05
1.4048e-05
1.4048e-05
1.4048e-05
1.4048e-05
1.4048e-05
1.4048e-05
1.4048e-05
1.4048e-05
1.4048e-05
1.4048e-05
1.4048e-05
2.04527e-05
2.09848e-05
2.15055e-05
2.20025e-05
2.24642e-05
2.28804e-05
2.32485e-05
2.35689e-05
2.3844e-05
2.40776e-05
2.42744e-05
2.44389e-05
2.45752e-05
2.23056e-05
2.22725e-05
2.2241e-05
2.2211e-05
2.21825e-05
2.21554e-05
2.21299e-05
2.21062e-05
2.20843e-05
2.20641e-05
2.20458e-05
2.20293e-05
2.20146e-05
2.20015e-05
2.19901e-05
2.19803e-05
2.1972e-05
2.19654e-05
2.1962e-05
2.19621e-05
2.19639e-05
2.19685e-05
2.19767e-05
2.19887e-05
2.2004e-05
2.20223e-05
2.20433e-05
2.20659e-05
2.20888e-05
2.21109e-05
2.21313e-05
2.2149e-05
2.21633e-05
2.21755e-05
2.21853e-05
2.21934e-05
2.22016e-05
2.22089e-05
2.22162e-05
2.22255e-05
2.22356e-05
2.22456e-05
2.22556e-05
2.22662e-05
2.22779e-05
2.22911e-05
2.23055e-05
2.23218e-05
2.23387e-05
2.23544e-05
2.23701e-05
2.23871e-05
2.24058e-05
2.24262e-05
2.24473e-05
2.24682e-05
2.24885e-05
2.25092e-05
2.25285e-05
2.25468e-05
2.25653e-05
2.25831e-05
2.25987e-05
2.26111e-05
2.26198e-05
2.26225e-05
2.26207e-05
2.2613e-05
2.25934e-05
2.25543e-05
2.24855e-05
2.23768e-05
2.22211e-05
2.20143e-05
2.17527e-05
2.14284e-05
2.10284e-05
2.05518e-05
2.00057e-05
1.94002e-05
1.87529e-05
1.80925e-05
1.74627e-05
1.69253e-05
1.65208e-05
1.6181e-05
1.58667e-05
1.55737e-05
1.53106e-05
1.50855e-05
1.49018e-05
1.47565e-05
1.46387e-05
1.45362e-05
1.44449e-05
1.43657e-05
1.42999e-05
1.42477e-05
1.42076e-05
1.41762e-05
1.41505e-05
1.41291e-05
1.41116e-05
1.40979e-05
1.40874e-05
1.40792e-05
1.40728e-05
1.40675e-05
1.40633e-05
1.40599e-05
1.40573e-05
1.40554e-05
1.40539e-05
1.40526e-05
1.40517e-05
1.40509e-05
1.40502e-05
1.40498e-05
1.40494e-05
1.4049e-05
1.40488e-05
1.40486e-05
1.40484e-05
1.40483e-05
1.40482e-05
1.40481e-05
1.40481e-05
1.4048e-05
1.4048e-05
1.4048e-05
1.40479e-05
1.40479e-05
1.40479e-05
1.40479e-05
1.40479e-05
1.40479e-05
1.40479e-05
1.40479e-05
1.40479e-05
1.40479e-05
1.40479e-05
1.40479e-05
1.40479e-05
1.40479e-05
1.40479e-05
1.40479e-05
1.40479e-05
1.40479e-05
1.40479e-05
1.40479e-05
1.4048e-05
1.4048e-05
1.4048e-05
1.4048e-05
1.4048e-05
1.4048e-05
1.4048e-05
1.4048e-05
1.4048e-05
1.4048e-05
1.4048e-05
1.4048e-05
1.40481e-05
1.40481e-05
1.40481e-05
1.40481e-05
1.40481e-05
1.40481e-05
1.40481e-05
1.40481e-05
1.40482e-05
1.40482e-05
1.40482e-05
1.40482e-05
1.40482e-05
1.40483e-05
1.40483e-05
1.40483e-05
1.40483e-05
1.40483e-05
1.40484e-05
1.40484e-05
1.40484e-05
1.40485e-05
1.40485e-05
1.40485e-05
1.40486e-05
1.40486e-05
1.40486e-05
1.40487e-05
1.40487e-05
1.40488e-05
1.40487e-05
2.38409e-05
2.41014e-05
2.43208e-05
2.45041e-05
2.46559e-05
2.47805e-05
2.48818e-05
2.49632e-05
2.50276e-05
2.50775e-05
2.51158e-05
2.51462e-05
2.51715e-05
2.25223e-05
2.2486e-05
2.24515e-05
2.24186e-05
2.23869e-05
2.23567e-05
2.23282e-05
2.23016e-05
2.22771e-05
2.22546e-05
2.22343e-05
2.22162e-05
2.22002e-05
2.21862e-05
2.21742e-05
2.21641e-05
2.21559e-05
2.21492e-05
2.21447e-05
2.21438e-05
2.21446e-05
2.21473e-05
2.21526e-05
2.21611e-05
2.21725e-05
2.2186e-05
2.22015e-05
2.22189e-05
2.22368e-05
2.22539e-05
2.22697e-05
2.22831e-05
2.22947e-05
2.23054e-05
2.23132e-05
2.23196e-05
2.23254e-05
2.23294e-05
2.23342e-05
2.23403e-05
2.23468e-05
2.23536e-05
2.23606e-05
2.23684e-05
2.23771e-05
2.23865e-05
2.2397e-05
2.24089e-05
2.24217e-05
2.24348e-05
2.24482e-05
2.24628e-05
2.24788e-05
2.24963e-05
2.25149e-05
2.25341e-05
2.25536e-05
2.25738e-05
2.25947e-05
2.26166e-05
2.26402e-05
2.26654e-05
2.26918e-05
2.27186e-05
2.27452e-05
2.27718e-05
2.27974e-05
2.28211e-05
2.28437e-05
2.28644e-05
2.28834e-05
2.29014e-05
2.29165e-05
2.29248e-05
2.29253e-05
2.29182e-05
2.28917e-05
2.28339e-05
2.27372e-05
2.25972e-05
2.24107e-05
2.21736e-05
2.1878e-05
2.15109e-05
2.1064e-05
2.05453e-05
1.99642e-05
1.93321e-05
1.86687e-05
1.80062e-05
1.7391e-05
1.68796e-05
1.64915e-05
1.61513e-05
1.58289e-05
1.5528e-05
1.52598e-05
1.50323e-05
1.48482e-05
1.47032e-05
1.45842e-05
1.44809e-05
1.43914e-05
1.43173e-05
1.42591e-05
1.4215e-05
1.41813e-05
1.41546e-05
1.41326e-05
1.41148e-05
1.41008e-05
1.409e-05
1.40817e-05
1.40751e-05
1.40697e-05
1.40652e-05
1.40616e-05
1.40587e-05
1.40565e-05
1.40547e-05
1.40533e-05
1.40522e-05
1.40513e-05
1.40506e-05
1.405e-05
1.40496e-05
1.40492e-05
1.4049e-05
1.40488e-05
1.40486e-05
1.40485e-05
1.40484e-05
1.40483e-05
1.40483e-05
1.40482e-05
1.40482e-05
1.40482e-05
1.40482e-05
1.40482e-05
1.40482e-05
1.40482e-05
1.40482e-05
1.40482e-05
1.40482e-05
1.40482e-05
1.40483e-05
1.40483e-05
1.40483e-05
1.40483e-05
1.40483e-05
1.40484e-05
1.40484e-05
1.40484e-05
1.40484e-05
1.40485e-05
1.40485e-05
1.40485e-05
1.40485e-05
1.40486e-05
1.40486e-05
1.40486e-05
1.40487e-05
1.40487e-05
1.40488e-05
1.40488e-05
1.40488e-05
1.40489e-05
1.40489e-05
1.4049e-05
1.4049e-05
1.40491e-05
1.40492e-05
1.40492e-05
1.40493e-05
1.40494e-05
1.40494e-05
1.40495e-05
1.40496e-05
1.40497e-05
1.40498e-05
1.40499e-05
1.405e-05
1.40501e-05
1.40502e-05
1.40503e-05
1.40504e-05
1.40506e-05
1.40507e-05
1.40509e-05
1.4051e-05
1.40512e-05
1.40514e-05
1.40512e-05
2.50516e-05
2.51288e-05
2.51892e-05
2.52355e-05
2.52714e-05
2.53004e-05
2.53247e-05
2.5345e-05
2.53616e-05
2.53746e-05
2.53832e-05
2.53875e-05
2.53877e-05
2.53869e-05
2.27769e-05
2.27381e-05
2.27022e-05
2.2667e-05
2.26327e-05
2.25996e-05
2.25682e-05
2.25389e-05
2.25118e-05
2.24869e-05
2.24643e-05
2.2444e-05
2.2426e-05
2.24105e-05
2.23971e-05
2.23856e-05
2.23764e-05
2.23693e-05
2.23633e-05
2.23595e-05
2.23593e-05
2.23601e-05
2.23618e-05
2.23658e-05
2.23727e-05
2.23809e-05
2.23899e-05
2.24004e-05
2.24123e-05
2.24235e-05
2.24328e-05
2.24402e-05
2.2448e-05
2.24549e-05
2.24594e-05
2.24628e-05
2.24644e-05
2.24652e-05
2.24666e-05
2.24685e-05
2.24705e-05
2.2473e-05
2.24763e-05
2.24801e-05
2.24845e-05
2.24895e-05
2.24953e-05
2.25022e-05
2.251e-05
2.25187e-05
2.2528e-05
2.25384e-05
2.25501e-05
2.25631e-05
2.25774e-05
2.25929e-05
2.26097e-05
2.26279e-05
2.26476e-05
2.2669e-05
2.26922e-05
2.27173e-05
2.2744e-05
2.27717e-05
2.28001e-05
2.28293e-05
2.28595e-05
2.28906e-05
2.29229e-05
2.29567e-05
2.2992e-05
2.30285e-05
2.30651e-05
2.31017e-05
2.31352e-05
2.31678e-05
2.32014e-05
2.32376e-05
2.32746e-05
2.33089e-05
2.33379e-05
2.33592e-05
2.33658e-05
2.33593e-05
2.333e-05
2.32659e-05
2.31622e-05
2.30152e-05
2.28192e-05
2.25662e-05
2.22466e-05
2.1851e-05
2.13731e-05
2.08159e-05
2.0183e-05
1.94856e-05
1.87495e-05
1.8018e-05
1.73499e-05
1.68081e-05
1.63927e-05
1.60218e-05
1.5677e-05
1.53685e-05
1.51073e-05
1.48975e-05
1.47355e-05
1.46079e-05
1.45003e-05
1.44081e-05
1.4332e-05
1.42721e-05
1.42266e-05
1.41919e-05
1.41645e-05
1.41418e-05
1.4123e-05
1.41078e-05
1.40957e-05
1.40862e-05
1.40787e-05
1.40725e-05
1.40674e-05
1.40633e-05
1.40599e-05
1.40574e-05
1.40554e-05
1.40539e-05
1.40527e-05
1.40518e-05
1.40511e-05
1.40505e-05
1.40501e-05
1.40498e-05
1.40496e-05
1.40494e-05
1.40493e-05
1.40492e-05
1.40492e-05
1.40492e-05
1.40492e-05
1.40492e-05
1.40492e-05
1.40493e-05
1.40493e-05
1.40494e-05
1.40494e-05
1.40495e-05
1.40496e-05
1.40496e-05
1.40497e-05
1.40498e-05
1.40499e-05
1.405e-05
1.40501e-05
1.40502e-05
1.40503e-05
1.40504e-05
1.40505e-05
1.40506e-05
1.40507e-05
1.40509e-05
1.4051e-05
1.40512e-05
1.40513e-05
1.40515e-05
1.40516e-05
1.40518e-05
1.4052e-05
1.40522e-05
1.40524e-05
1.40526e-05
1.40528e-05
1.40531e-05
1.40533e-05
1.40536e-05
1.40539e-05
1.40542e-05
1.40545e-05
1.40549e-05
1.40552e-05
1.40556e-05
1.4056e-05
1.40564e-05
1.40568e-05
1.40573e-05
1.40577e-05
1.40582e-05
1.40588e-05
1.40593e-05
1.40599e-05
1.40606e-05
1.40602e-05
2.54969e-05
2.55125e-05
2.55239e-05
2.55306e-05
2.55329e-05
2.55324e-05
2.55312e-05
2.55293e-05
2.55276e-05
2.55262e-05
2.55266e-05
2.55274e-05
2.55263e-05
2.55229e-05
2.3058e-05
2.30171e-05
2.29794e-05
2.29438e-05
2.2908e-05
2.2872e-05
2.2838e-05
2.28069e-05
2.27777e-05
2.27505e-05
2.27255e-05
2.27029e-05
2.26825e-05
2.26648e-05
2.26496e-05
2.26359e-05
2.26244e-05
2.26161e-05
2.26086e-05
2.26012e-05
2.25978e-05
2.25966e-05
2.25943e-05
2.25933e-05
2.25953e-05
2.25983e-05
2.26005e-05
2.26032e-05
2.26088e-05
2.26138e-05
2.26157e-05
2.26171e-05
2.26198e-05
2.26213e-05
2.26213e-05
2.26204e-05
2.26179e-05
2.26149e-05
2.26119e-05
2.26089e-05
2.26064e-05
2.26045e-05
2.26031e-05
2.26022e-05
2.26017e-05
2.26019e-05
2.26028e-05
2.26045e-05
2.2607e-05
2.26104e-05
2.26148e-05
2.26203e-05
2.2627e-05
2.2635e-05
2.26447e-05
2.26559e-05
2.26689e-05
2.26838e-05
2.27006e-05
2.27194e-05
2.27403e-05
2.27633e-05
2.27882e-05
2.28147e-05
2.28429e-05
2.28728e-05
2.29043e-05
2.29372e-05
2.29718e-05
2.30084e-05
2.30465e-05
2.30854e-05
2.31255e-05
2.31669e-05
2.32091e-05
2.32535e-05
2.33016e-05
2.33528e-05
2.34062e-05
2.34603e-05
2.35137e-05
2.35676e-05
2.36231e-05
2.36804e-05
2.37385e-05
2.37959e-05
2.38508e-05
2.39024e-05
2.39478e-05
2.39821e-05
2.39988e-05
2.39968e-05
2.39704e-05
2.38991e-05
2.37752e-05
2.35934e-05
2.33461e-05
2.30248e-05
2.26182e-05
2.21134e-05
2.15053e-05
2.08038e-05
2.00232e-05
1.91928e-05
1.83621e-05
1.75966e-05
1.69652e-05
1.64976e-05
1.61058e-05
1.57492e-05
1.54321e-05
1.51639e-05
1.49482e-05
1.47809e-05
1.46507e-05
1.45419e-05
1.44475e-05
1.4367e-05
1.43013e-05
1.42496e-05
1.42097e-05
1.41784e-05
1.41527e-05
1.41312e-05
1.41138e-05
1.40999e-05
1.40892e-05
1.40809e-05
1.40743e-05
1.4069e-05
1.40647e-05
1.40613e-05
1.40589e-05
1.4057e-05
1.40557e-05
1.40546e-05
1.40539e-05
1.40534e-05
1.4053e-05
1.40528e-05
1.40528e-05
1.40527e-05
1.40528e-05
1.40529e-05
1.4053e-05
1.40531e-05
1.40533e-05
1.40535e-05
1.40537e-05
1.4054e-05
1.40542e-05
1.40545e-05
1.40548e-05
1.40551e-05
1.40554e-05
1.40557e-05
1.40561e-05
1.40565e-05
1.40569e-05
1.40573e-05
1.40578e-05
1.40583e-05
1.40588e-05
1.40593e-05
1.40598e-05
1.40604e-05
1.40609e-05
1.40616e-05
1.40622e-05
1.40629e-05
1.40636e-05
1.40643e-05
1.40652e-05
1.4066e-05
1.40669e-05
1.40679e-05
1.40689e-05
1.407e-05
1.40712e-05
1.40724e-05
1.40737e-05
1.40751e-05
1.40765e-05
1.4078e-05
1.40796e-05
1.40812e-05
1.40829e-05
1.40847e-05
1.40866e-05
1.40886e-05
1.40908e-05
1.40933e-05
1.4092e-05
2.56797e-05
2.56778e-05
2.56764e-05
2.56768e-05
2.56763e-05
2.56737e-05
2.5669e-05
2.56621e-05
2.56542e-05
2.56465e-05
2.56404e-05
2.5636e-05
2.5632e-05
2.56273e-05
2.33531e-05
2.33106e-05
2.3272e-05
2.32354e-05
2.32006e-05
2.31621e-05
2.31256e-05
2.30926e-05
2.3062e-05
2.30332e-05
2.30063e-05
2.29816e-05
2.29587e-05
2.29383e-05
2.2921e-05
2.29042e-05
2.289e-05
2.28792e-05
2.28698e-05
2.28587e-05
2.28511e-05
2.28471e-05
2.28412e-05
2.2834e-05
2.28309e-05
2.28288e-05
2.28244e-05
2.28206e-05
2.28197e-05
2.2818e-05
2.28131e-05
2.28088e-05
2.28053e-05
2.28011e-05
2.27961e-05
2.279e-05
2.2783e-05
2.27756e-05
2.2768e-05
2.27604e-05
2.27531e-05
2.27463e-05
2.27399e-05
2.2734e-05
2.27285e-05
2.27236e-05
2.27194e-05
2.27158e-05
2.2713e-05
2.27109e-05
2.27102e-05
2.27106e-05
2.27121e-05
2.27151e-05
2.27199e-05
2.27265e-05
2.27352e-05
2.27459e-05
2.27589e-05
2.27742e-05
2.27918e-05
2.28118e-05
2.28341e-05
2.28587e-05
2.28854e-05
2.29143e-05
2.29452e-05
2.2978e-05
2.30128e-05
2.30496e-05
2.30879e-05
2.3128e-05
2.31701e-05
2.32135e-05
2.32587e-05
2.3307e-05
2.33578e-05
2.34106e-05
2.3466e-05
2.35221e-05
2.35804e-05
2.3643e-05
2.37048e-05
2.37694e-05
2.38414e-05
2.39136e-05
2.39859e-05
2.40639e-05
2.41428e-05
2.42206e-05
2.42948e-05
2.43639e-05
2.44294e-05
2.44896e-05
2.4543e-05
2.45875e-05
2.46176e-05
2.46254e-05
2.46149e-05
2.45687e-05
2.44696e-05
2.431e-05
2.40858e-05
2.37918e-05
2.34204e-05
2.29626e-05
2.24101e-05
2.17605e-05
2.10258e-05
2.0223e-05
1.93811e-05
1.85449e-05
1.77718e-05
1.71212e-05
1.6633e-05
1.62444e-05
1.58921e-05
1.55711e-05
1.52897e-05
1.50537e-05
1.48638e-05
1.47145e-05
1.45931e-05
1.44882e-05
1.43976e-05
1.43227e-05
1.42638e-05
1.42189e-05
1.41846e-05
1.41573e-05
1.4135e-05
1.41172e-05
1.41034e-05
1.4093e-05
1.40851e-05
1.4079e-05
1.40743e-05
1.40708e-05
1.40682e-05
1.40666e-05
1.40656e-05
1.4065e-05
1.40649e-05
1.40649e-05
1.40651e-05
1.40655e-05
1.4066e-05
1.40666e-05
1.40673e-05
1.40681e-05
1.40689e-05
1.40698e-05
1.40707e-05
1.40717e-05
1.40728e-05
1.4074e-05
1.40753e-05
1.40766e-05
1.4078e-05
1.40795e-05
1.40811e-05
1.40828e-05
1.40845e-05
1.40863e-05
1.40882e-05
1.40902e-05
1.40922e-05
1.40944e-05
1.40966e-05
1.40989e-05
1.41014e-05
1.41039e-05
1.41067e-05
1.41096e-05
1.41126e-05
1.41159e-05
1.41194e-05
1.41232e-05
1.41272e-05
1.41314e-05
1.4136e-05
1.41408e-05
1.41458e-05
1.41511e-05
1.41566e-05
1.41624e-05
1.41684e-05
1.41747e-05
1.41813e-05
1.41883e-05
1.41956e-05
1.42045e-05
1.42004e-05
2.58136e-05
2.58049e-05
2.57967e-05
2.57903e-05
2.57851e-05
2.57798e-05
2.57734e-05
2.57658e-05
2.57573e-05
2.57483e-05
2.57397e-05
2.57324e-05
2.5727e-05
2.36514e-05
2.36083e-05
2.35696e-05
2.35323e-05
2.34974e-05
2.34582e-05
2.34196e-05
2.33853e-05
2.33537e-05
2.33239e-05
2.32956e-05
2.32688e-05
2.32437e-05
2.3221e-05
2.32007e-05
2.3181e-05
2.3164e-05
2.31503e-05
2.31375e-05
2.31224e-05
2.31113e-05
2.31036e-05
2.30929e-05
2.30812e-05
2.30728e-05
2.30653e-05
2.30549e-05
2.3046e-05
2.3039e-05
2.30299e-05
2.30192e-05
2.30096e-05
2.30001e-05
2.29901e-05
2.29797e-05
2.29687e-05
2.2957e-05
2.2945e-05
2.29326e-05
2.29203e-05
2.29082e-05
2.28965e-05
2.28852e-05
2.28743e-05
2.28638e-05
2.28538e-05
2.28445e-05
2.28357e-05
2.28276e-05
2.28204e-05
2.28143e-05
2.28094e-05
2.28057e-05
2.28038e-05
2.28041e-05
2.28058e-05
2.28097e-05
2.2816e-05
2.28246e-05
2.28358e-05
2.28495e-05
2.2866e-05
2.28851e-05
2.29069e-05
2.29312e-05
2.29581e-05
2.29873e-05
2.30189e-05
2.30528e-05
2.30888e-05
2.31268e-05
2.31671e-05
2.32093e-05
2.32531e-05
2.32995e-05
2.33483e-05
2.33987e-05
2.34519e-05
2.35073e-05
2.3563e-05
2.36225e-05
2.3685e-05
2.37477e-05
2.38153e-05
2.38859e-05
2.39569e-05
2.40332e-05
2.4112e-05
2.4186e-05
2.42618e-05
2.43407e-05
2.44185e-05
2.44965e-05
2.45762e-05
2.46553e-05
2.47312e-05
2.48025e-05
2.48661e-05
2.49182e-05
2.49588e-05
2.4985e-05
2.49951e-05
2.49942e-05
2.49832e-05
2.49516e-05
2.48913e-05
2.47958e-05
2.46574e-05
2.44668e-05
2.42158e-05
2.39018e-05
2.35218e-05
2.30712e-05
2.25444e-05
2.19384e-05
2.12597e-05
2.05196e-05
1.97332e-05
1.89271e-05
1.81435e-05
1.74365e-05
1.68606e-05
1.64257e-05
1.6046e-05
1.56955e-05
1.53828e-05
1.51179e-05
1.49043e-05
1.47384e-05
1.46076e-05
1.44974e-05
1.44039e-05
1.43279e-05
1.42694e-05
1.42258e-05
1.41933e-05
1.41681e-05
1.41484e-05
1.41335e-05
1.41228e-05
1.41155e-05
1.41108e-05
1.4108e-05
1.41066e-05
1.41063e-05
1.41066e-05