/*--------------------------------*- C++ -*----------------------------------*\
| =========                 |                                                 |
| \\      /  F ield         | OpenFOAM: The Open Source CFD Toolbox           |
|  \\    /   O peration     | Version:  v1706                                 |
|   \\  /    A nd           | Web:      www.OpenFOAM.com                      |
|    \\/     M anipulation  |                                                 |
\*---------------------------------------------------------------------------*/
FoamFile
{
    version     2.0;
    format      ascii;
    class       volScalarField;
    location    "3.8e-05";
    object      Mach;
}
// * * * * * * * * * * * * * * * * * * * * * * * * * * * * * * * * * * * * * //

dimensions      [0 0 0 0 0 0 0];


internalField   nonuniform List<scalar> 
30104
(
3.99357
3.99335
3.9931
3.99282
3.99249
3.99211
3.99168
3.99119
3.99062
3.98998
3.98925
3.98841
3.98744
3.98632
3.98503
3.98357
3.98191
3.37057
3.38165
3.3927
3.40372
3.41471
3.42566
3.4366
3.44754
3.45853
3.46959
3.48079
3.49216
3.50376
3.51566
3.52789
3.54048
3.55346
3.56683
3.58061
3.59488
3.60963
3.62432
3.63561
3.64452
3.65301
3.66193
3.67154
3.68191
3.69301
3.70477
3.71714
3.73006
3.74348
3.75735
3.77161
3.78621
3.8011
3.81634
3.83184
3.84718
3.86261
3.8782
3.89207
3.90335
3.91316
3.92223
3.93078
3.93893
3.94665
3.95378
3.96004
3.96524
3.96949
3.97309
3.97627
3.97912
3.98166
3.9839
3.98587
3.98757
3.98897
3.99011
3.99103
3.99179
3.99241
3.99291
3.99329
3.99359
3.99384
3.99405
3.99423
3.99438
3.9945
3.9946
3.99468
3.99475
3.9948
3.99484
3.99487
3.9949
3.99491
3.99492
3.99494
3.99494
3.99495
3.99496
3.99496
3.99497
3.99497
3.99497
3.99497
3.99497
3.99497
3.99498
3.99498
3.99498
3.99498
3.99498
3.99498
3.99498
3.99498
3.99498
3.99498
3.99498
3.99498
3.99498
3.99498
3.99498
3.99498
3.99498
3.99498
3.99498
3.99498
3.99498
3.99498
3.99498
3.99498
3.99498
3.99498
3.99498
3.99498
3.99498
3.99498
3.99498
3.99498
3.99498
3.99498
3.99498
3.99498
3.99498
3.99498
3.99498
3.99498
3.99498
3.99498
3.99498
3.99498
3.99498
3.99498
3.99498
3.99498
3.99498
3.99498
3.99498
3.99498
3.99498
3.99498
3.99498
3.99498
3.99498
3.99498
3.99498
3.99498
3.99498
3.99498
3.99498
3.99498
3.99498
3.99498
3.99498
3.99498
3.99498
3.99498
3.99498
3.99498
3.99498
3.99498
3.99498
3.99498
3.99498
3.99498
3.99498
3.99498
3.99498
3.99498
3.99498
3.99498
3.99498
3.99498
3.99498
3.99498
3.99498
3.99498
3.99498
3.99498
3.99498
3.99498
3.99498
3.99498
3.99498
3.99498
3.99498
3.99498
3.98609
3.98472
3.98316
3.98137
3.9793
3.97693
3.9742
3.97106
3.96749
3.96342
3.95881
3.95357
3.94761
3.94083
3.93312
3.92436
3.91446
2.64421
2.64755
2.6509
2.65427
2.65767
2.66111
2.66462
2.66821
2.67191
2.67576
2.67978
2.68403
2.68852
2.69329
2.69838
2.70381
2.7096
2.71581
2.72251
2.72977
2.73779
2.74672
2.75715
2.76941
2.78359
2.79974
2.81788
2.83802
2.86024
2.88458
2.91107
2.93971
2.97048
3.00342
3.03863
3.07636
3.11695
3.16072
3.20791
3.25855
3.31243
3.3682
3.42132
3.46533
3.50482
3.54357
3.58301
3.62335
3.66415
3.70473
3.74435
3.78108
3.8123
3.83781
3.85957
3.879
3.89667
3.91257
3.9264
3.93798
3.94744
3.95521
3.9618
3.96749
3.97241
3.97666
3.98025
3.98319
3.98553
3.98739
3.98889
3.99011
3.99109
3.99186
3.99247
3.99297
3.99337
3.99369
3.99396
3.99418
3.99436
3.9945
3.99461
3.99469
3.99475
3.9948
3.99484
3.99487
3.99489
3.99491
3.99493
3.99494
3.99495
3.99495
3.99496
3.99496
3.99497
3.99497
3.99497
3.99497
3.99497
3.99497
3.99498
3.99498
3.99498
3.99498
3.99498
3.99498
3.99498
3.99498
3.99498
3.99498
3.99498
3.99498
3.99498
3.99498
3.99498
3.99498
3.99498
3.99498
3.99498
3.99498
3.99498
3.99498
3.99498
3.99498
3.99498
3.99498
3.99498
3.99498
3.99498
3.99498
3.99498
3.99498
3.99498
3.99498
3.99498
3.99498
3.99498
3.99498
3.99498
3.99498
3.99498
3.99498
3.99498
3.99498
3.99498
3.99498
3.99498
3.99498
3.99498
3.99498
3.99498
3.99498
3.99498
3.99498
3.99498
3.99498
3.99498
3.99498
3.99498
3.99498
3.99498
3.99498
3.99498
3.99498
3.99498
3.99498
3.99498
3.99498
3.99498
3.99498
3.99498
3.99498
3.99498
3.99498
3.99498
3.99498
3.99498
3.99498
3.99498
3.99498
3.99498
3.99498
3.99498
3.99498
3.99498
3.99498
3.99498
3.99498
3.99498
3.99498
3.99498
3.96265
3.95772
3.9521
3.94568
3.93836
3.92999
3.92044
3.90959
3.89729
3.88341
3.86777
3.8501
3.83009
3.8075
3.7822
3.75415
2.58179
2.58384
2.58586
2.58784
2.5898
2.59173
2.59363
2.59551
2.59736
2.5992
2.60103
2.60284
2.60462
2.60635
2.608
2.60954
2.61097
2.61226
2.61356
2.61494
2.61645
2.61817
2.62017
2.62242
2.62484
2.62759
2.63096
2.63482
2.63936
2.64452
2.65026
2.6566
2.66361
2.67135
2.67989
2.6894
2.70018
2.71255
2.72692
2.74378
2.76362
2.78698
2.81478
2.84831
2.88725
2.93154
2.98161
3.038
3.10108
3.17065
3.24542
3.32219
3.39462
3.45506
3.50909
3.56115
3.61253
3.66296
3.71156
3.75639
3.79471
3.8258
3.85184
3.87465
3.89493
3.91262
3.9275
3.93965
3.94946
3.9575
3.96425
3.96999
3.97486
3.97895
3.98227
3.9849
3.98695
3.98859
3.9899
3.99095
3.99177
3.99242
3.99294
3.99335
3.99368
3.99396
3.99418
3.99436
3.9945
3.99461
3.99469
3.99475
3.9948
3.99484
3.99487
3.99489
3.99491
3.99493
3.99494
3.99495
3.99495
3.99496
3.99496
3.99497
3.99497
3.99497
3.99497
3.99497
3.99497
3.99498
3.99498
3.99498
3.99498
3.99498
3.99498
3.99498
3.99498
3.99498
3.99498
3.99498
3.99498
3.99498
3.99498
3.99498
3.99498
3.99498
3.99498
3.99498
3.99498
3.99498
3.99498
3.99498
3.99498
3.99498
3.99498
3.99498
3.99498
3.99498
3.99498
3.99498
3.99498
3.99498
3.99498
3.99498
3.99498
3.99498
3.99498
3.99498
3.99498
3.99498
3.99498
3.99498
3.99498
3.99498
3.99498
3.99498
3.99498
3.99498
3.99498
3.99498
3.99498
3.99498
3.99498
3.99498
3.99498
3.99498
3.99498
3.99498
3.99498
3.99498
3.99498
3.99498
3.99498
3.99498
3.99498
3.99498
3.99498
3.99498
3.99498
3.99498
3.99498
3.99498
3.99498
3.99498
3.99498
3.99498
3.99498
3.99498
3.99498
3.99498
3.99498
3.99498
3.99498
3.89007
3.87477
3.85748
3.83792
3.81576
3.79073
3.76267
3.7315
3.6973
3.66005
3.61962
3.57555
3.52704
3.47371
3.41581
3.35413
2.5792
2.58217
2.58503
2.58778
2.59043
2.59299
2.59546
2.59785
2.60015
2.60239
2.60457
2.6067
2.60878
2.61081
2.61276
2.61462
2.61634
2.61779
2.61907
2.62025
2.62128
2.62221
2.62309
2.62391
2.62465
2.62535
2.62616
2.62718
2.62856
2.63046
2.63295
2.63591
2.63906
2.64221
2.64525
2.64823
2.65132
2.65476
2.65851
2.6626
2.6675
2.67344
2.68034
2.688
2.6963
2.70544
2.71593
2.72843
2.74343
2.7613
2.78255
2.80827
2.84034
2.88078
2.92946
2.98645
3.05214
3.12639
3.20782
3.29305
3.3757
3.44602
3.50712
3.56493
3.6213
3.67598
3.72755
3.77326
3.81071
3.84086
3.86639
3.8887
3.90804
3.92429
3.93752
3.94815
3.95672
3.96379
3.96973
3.97475
3.97894
3.98233
3.98497
3.98702
3.98863
3.98992
3.99095
3.99177
3.99242
3.99294
3.99335
3.99369
3.99396
3.99418
3.99436
3.99451
3.99461
3.9947
3.99476
3.99481
3.99484
3.99487
3.99489
3.99491
3.99493
3.99494
3.99495
3.99495
3.99496
3.99496
3.99497
3.99497
3.99497
3.99497
3.99497
3.99497
3.99497
3.99498
3.99498
3.99498
3.99498
3.99498
3.99498
3.99498
3.99498
3.99498
3.99498
3.99498
3.99498
3.99498
3.99498
3.99498
3.99498
3.99498
3.99498
3.99498
3.99498
3.99498
3.99498
3.99498
3.99498
3.99498
3.99498
3.99498
3.99498
3.99498
3.99498
3.99498
3.99498
3.99498
3.99498
3.99498
3.99498
3.99498
3.99498
3.99498
3.99498
3.99498
3.99498
3.99498
3.99498
3.99498
3.99498
3.99498
3.99498
3.99498
3.99498
3.99498
3.99498
3.99498
3.99498
3.99498
3.99498
3.99498
3.99498
3.99498
3.99497
3.99497
3.99497
3.99497
3.99497
3.99497
3.99497
3.99497
3.99497
3.99497
3.99497
3.99497
3.99497
3.99497
3.99497
3.99497
3.99497
3.68738
3.64786
3.60487
3.55806
3.50672
3.45052
3.38967
3.32492
3.25725
3.18787
3.11687
3.04345
2.96592
2.88513
2.80308
2.57177
2.57512
2.57839
2.58157
2.58466
2.58768
2.59062
2.59348
2.59627
2.59899
2.60166
2.60428
2.60688
2.60947
2.61203
2.61456
2.61704
2.61937
2.62144
2.62345
2.62539
2.62726
2.62912
2.63099
2.63286
2.63473
2.63665
2.63871
2.64067
2.6426
2.64452
2.64643
2.64831
2.65019
2.65208
2.65399
2.65591
2.65792
2.65999
2.66213
2.66464
2.66763
2.67092
2.67426
2.67742
2.68034
2.6831
2.68578
2.68846
2.6915
2.69505
2.69905
2.70385
2.70965
2.7167
2.72571
2.73755
2.75301
2.77288
2.79823
2.83087
2.87322
2.92573
2.98825
3.06086
3.14282
3.23169
3.32251
3.40681
3.47652
3.53914
3.59918
3.65739
3.71267
3.76235
3.80352
3.83609
3.86289
3.886
3.90592
3.92262
3.93623
3.94717
3.95592
3.96305
3.96903
3.97411
3.97839
3.98188
3.98463
3.98675
3.98841
3.98973
3.9908
3.99166
3.99234
3.99289
3.99332
3.99367
3.99395
3.99418
3.99436
3.99451
3.99461
3.99469
3.99475
3.9948
3.99484
3.99487
3.99489
3.99491
3.99492
3.99493
3.99494
3.99495
3.99496
3.99496
3.99496
3.99497
3.99497
3.99497
3.99497
3.99497
3.99497
3.99497
3.99497
3.99497
3.99498
3.99498
3.99498
3.99498
3.99498
3.99498
3.99498
3.99498
3.99498
3.99498
3.99498
3.99498
3.99498
3.99498
3.99497
3.99497
3.99497
3.99497
3.99497
3.99497
3.99497
3.99497
3.99497
3.99497
3.99497
3.99497
3.99497
3.99497
3.99497
3.99497
3.99497
3.99497
3.99497
3.99497
3.99497
3.99497
3.99497
3.99497
3.99497
3.99497
3.99497
3.99497
3.99497
3.99497
3.99497
3.99497
3.99497
3.99497
3.99497
3.99497
3.99497
3.99497
3.99497
3.99497
3.99497
3.99496
3.99496
3.99496
3.99496
3.99496
3.99496
3.99496
3.99496
3.99496
3.99496
3.99496
3.32126
3.25167
3.17995
3.10651
3.03081
2.95143
2.86911
2.78566
2.70323
2.62379
2.54899
2.48001
2.41797
2.36378
2.31711
2.27736
2.56637
2.57035
2.57419
2.57792
2.58153
2.58505
2.58846
2.59176
2.59495
2.59804
2.60102
2.60391
2.60672
2.60946
2.61215
2.61478
2.61736
2.61984
2.62207
2.62419
2.62624
2.62815
2.62994
2.63159
2.63311
2.63447
2.63571
2.63689
2.63826
2.63989
2.6418
2.64396
2.64639
2.64909
2.65189
2.6549
2.65813
2.66112
2.66424
2.66811
2.67139
2.67408
2.67647
2.67858
2.68037
2.68184
2.68303
2.68391
2.68452
2.68464
2.68568
2.6869
2.68808
2.68907
2.68976
2.69021
2.69067
2.69159
2.69309
2.69546
2.69902
2.70403
2.71073
2.71969
2.73186
2.74829
2.77016
2.799
2.83717
2.88683
2.94764
3.01932
3.1013
3.19161
3.28593
3.37714
3.45454
3.52045
3.58221
3.64193
3.69885
3.75056
3.79411
3.82855
3.85609
3.87955
3.89992
3.91726
3.93163
3.94338
3.95288
3.96053
3.96689
3.97234
3.97699
3.98084
3.98392
3.98629
3.98811
3.98952
3.99065
3.99155
3.99227
3.99284
3.99329
3.99364
3.99393
3.99415
3.99434
3.99448
3.99458
3.99467
3.99473
3.99478
3.99482
3.99485
3.99487
3.99489
3.99491
3.99492
3.99494
3.99494
3.99495
3.99496
3.99496
3.99496
3.99496
3.99497
3.99497
3.99497
3.99497
3.99497
3.99497
3.99497
3.99497
3.99497
3.99497
3.99497
3.99497
3.99497
3.99497
3.99497
3.99497
3.99497
3.99497
3.99497
3.99497
3.99497
3.99497
3.99497
3.99496
3.99496
3.99496
3.99496
3.99496
3.99496
3.99496
3.99496
3.99496
3.99496
3.99496
3.99496
3.99496
3.99496
3.99496
3.99495
3.99495
3.99495
3.99495
3.99495
3.99495
3.99495
3.99495
3.99495
3.99494
3.99494
3.99494
3.99494
3.99494
3.99494
3.99493
3.99493
3.99493
3.99493
3.99493
3.99492
3.99492
3.99492
3.99492
3.99491
3.99491
3.99491
3.99491
2.71373
2.63201
2.55451
2.48264
2.41762
2.3605
2.31113
2.26899
2.23341
2.20363
2.17885
2.15834
2.14146
2.55497
2.55983
2.56446
2.56891
2.57323
2.5774
2.58143
2.58529
2.589
2.59257
2.59599
2.59929
2.60247
2.60557
2.60859
2.61155
2.61447
2.61733
2.61998
2.62244
2.6248
2.62696
2.62889
2.63057
2.63202
2.63323
2.63421
2.63505
2.63596
2.63713
2.63862
2.64041
2.64279
2.64585
2.64881
2.65212
2.65545
2.65835
2.66178
2.6651
2.66808
2.67102
2.67386
2.67654
2.67901
2.68127
2.68325
2.68494
2.68599
2.68669
2.68726
2.68772
2.68799
2.68797
2.6876
2.68698
2.68635
2.68579
2.6848
2.68435
2.68408
2.68349
2.68243
2.68133
2.68074
2.68097
2.68197
2.68408
2.68773
2.69302
2.7002
2.71013
2.72413
2.74356
2.76985
2.80503
2.85166
2.90994
2.97902
3.05838
3.14664
3.2405
3.33425
3.41918
3.48796
3.54983
3.60974
3.66779
3.72203
3.76979
3.80916
3.84036
3.86588
3.88804
3.90735
3.92379
3.93748
3.94868
3.95765
3.96487
3.97087
3.97595
3.98013
3.98344
3.98597
3.98787
3.98932
3.99046
3.99138
3.99211
3.9927
3.99315
3.99352
3.99381
3.99405
3.99424
3.9944
3.99452
3.99462
3.99469
3.99475
3.99479
3.99483
3.99486
3.99488
3.9949
3.99491
3.99492
3.99493
3.99494
3.99494
3.99494
3.99495
3.99495
3.99495
3.99495
3.99495
3.99495
3.99495
3.99495
3.99495
3.99494
3.99494
3.99494
3.99494
3.99494
3.99494
3.99494
3.99494
3.99493
3.99493
3.99493
3.99493
3.99493
3.99493
3.99492
3.99492
3.99492
3.99492
3.99491
3.99491
3.99491
3.99491
3.9949
3.9949
3.9949
3.99489
3.99489
3.99488
3.99488
3.99488
3.99487
3.99487
3.99486
3.99486
3.99485
3.99484
3.99484
3.99483
3.99483
3.99482
3.99481
3.9948
3.99479
3.99479
3.99478
3.99477
3.99476
3.99475
3.99474
3.99472
3.99471
3.99472
2.23518
2.20184
2.1741
2.15117
2.13233
2.11699
2.10462
2.09471
2.08684
2.08066
2.07588
2.07208
2.06892
2.53735
2.54323
2.54877
2.55408
2.55928
2.56431
2.56913
2.5737
2.57805
2.58219
2.58615
2.58992
2.59353
2.597
2.60037
2.60366
2.60689
2.61009
2.6132
2.6161
2.61887
2.62149
2.62388
2.62596
2.62771
2.6292
2.63041
2.63139
2.63231
2.6334
2.63473
2.63637
2.63899
2.64178
2.64466
2.64794
2.65109
2.65415
2.65751
2.6605
2.66333
2.66606
2.6687
2.67133
2.67374
2.67594
2.67786
2.6795
2.68094
2.68232
2.68365
2.68489
2.68596
2.68678
2.68734
2.68751
2.68732
2.6868
2.686
2.68502
2.68377
2.68214
2.68021
2.67822
2.67634
2.67455
2.67258
2.6709
2.6692
2.66709
2.66491
2.66318
2.66212
2.66189
2.66264
2.66433
2.6672
2.67151
2.67821
2.68881
2.70467
2.72706
2.75751
2.7979
2.8494
2.91107
2.98288
3.06471
3.15492
3.24966
3.34286
3.42588
3.49347
3.55628
3.61844
3.67878
3.73451
3.78281
3.82208
3.85299
3.87826
3.89995
3.91843
3.93377
3.94618
3.95597
3.96365
3.96988
3.97508
3.97934
3.98272
3.98531
3.98727
3.98877
3.98996
3.99093
3.99173
3.99237
3.99289
3.9933
3.99364
3.99391
3.99414
3.99432
3.99446
3.99456
3.99464
3.9947
3.99475
3.99478
3.99481
3.99483
3.99485
3.99486
3.99486
3.99487
3.99487
3.99487
3.99487
3.99487
3.99487
3.99487
3.99486
3.99486
3.99486
3.99485
3.99485
3.99484
3.99484
3.99483
3.99483
3.99482
3.99481
3.99481
3.9948
3.99479
3.99478
3.99477
3.99476
3.99476
3.99475
3.99474
3.99472
3.99471
3.9947
3.99469
3.99468
3.99466
3.99465
3.99463
3.99462
3.9946
3.99458
3.99457
3.99455
3.99453
3.9945
3.99448
3.99446
3.99443
3.99441
3.99438
3.99435
3.99432
3.99429
3.99426
3.99422
3.99418
3.99414
3.9941
3.99406
3.994
3.99403
2.08501
2.0756
2.06816
2.06237
2.05787
2.05424
2.0512
2.04869
2.04668
2.04512
2.04411
2.04381
2.0438
2.04386
2.5141
2.52125
2.52773
2.53379
2.53985
2.54582
2.55155
2.55695
2.56204
2.56687
2.57146
2.57584
2.57998
2.58392
2.58768
2.59133
2.59491
2.59836
2.60177
2.60513
2.60829
2.61126
2.61411
2.6168
2.61908
2.621
2.62268
2.62428
2.62569
2.62701
2.62849
2.63046
2.63312
2.63561
2.63844
2.6416
2.6447
2.64799
2.65116
2.65408
2.65682
2.65958
2.66224
2.66475
2.66711
2.66931
2.67129
2.67311
2.67483
2.6765
2.6781
2.67957
2.68087
2.68195
2.68276
2.68334
2.6837
2.68385
2.68379
2.68351
2.68298
2.68219
2.68114
2.67973
2.67793
2.67585
2.67355
2.67104
2.66826
2.66528
2.66234
2.65947
2.65646
2.65328
2.64964
2.64605
2.64206
2.63808
2.6344
2.63112
2.62848
2.62646
2.62518
2.62437
2.62483
2.62787
2.63469
2.64635
2.66376
2.68798
2.72042
2.76267
2.81596
2.88057
2.95742
3.04649
3.1456
3.24991
3.35187
3.44101
3.5143
3.5835
3.65077
3.71336
3.76785
3.81209
3.84624
3.87306
3.89553
3.91456
3.93033
3.94308
3.95315
3.96105
3.96744
3.97281
3.97733
3.98102
3.98395
3.98621
3.98796
3.98933
3.99045
3.99135
3.99209
3.99267
3.99313
3.99349
3.99378
3.99401
3.99419
3.99432
3.99442
3.99448
3.99453
3.99456
3.99458
3.9946
3.9946
3.9946
3.9946
3.99459
3.99459
3.99458
3.99456
3.99455
3.99453
3.99452
3.9945
3.99448
3.99446
3.99444
3.99442
3.99439
3.99437
3.99434
3.99431
3.99428
3.99425
3.99422
3.99418
3.99415
3.99411
3.99407
3.99403
3.99399
3.99394
3.99389
3.99384
3.99379
3.99373
3.99367
3.99361
3.99354
3.99347
3.9934
3.99332
3.99323
3.99315
3.99305
3.99295
3.99285
3.99274
3.99263
3.99252
3.99239
3.99226
3.99212
3.99198
3.99182
3.99166
3.99147
3.99157
2.03162
2.02971
2.02829
2.02756
2.02737
2.02732
2.02728
2.02719
2.02719
2.02699
2.02703
2.02695
2.02704
2.02759
2.48732
2.49523
2.50248
2.50957
2.51605
2.52266
2.52936
2.53567
2.54147
2.54701
2.55231
2.55733
2.56211
2.56672
2.57094
2.57493
2.57903
2.58288
2.58635
2.58993
2.5938
2.59701
2.6
2.60322
2.60637
2.60867
2.61077
2.61326
2.61563
2.61721
2.61904
2.62159
2.62418
2.62672
2.62958
2.63269
2.63594
2.63925
2.64236
2.64537
2.64836
2.65118
2.65385
2.65641
2.65887
2.66121
2.66343
2.66556
2.66762
2.66962
2.67153
2.67332
2.67496
2.67641
2.67765
2.67867
2.67946
2.68
2.68029
2.68033
2.68008
2.67951
2.6786
2.67741
2.67605
2.6745
2.67278
2.6709
2.66885
2.66661
2.66402
2.66108
2.6578
2.65411
2.65007
2.64584
2.64155
2.63697
2.63215
2.62685
2.62139
2.61563
2.60942
2.60348
2.5976
2.59176
2.58635
2.58131
2.57682
2.57321
2.57089
2.57017
2.57175
2.57715
2.58727
2.60288
2.62498
2.65489
2.69446
2.746
2.81105
2.89001
2.98327
3.089
3.20216
3.31455
3.4152
3.49562
3.56737
3.63598
3.69959
3.75513
3.80058
3.83591
3.86338
3.88626
3.90595
3.92268
3.93659
3.94791
3.95696
3.96423
3.97028
3.9754
3.97961
3.98295
3.9855
3.98743
3.9889
3.99006
3.99098
3.99171
3.99227
3.99269
3.99301
3.99326
3.99343
3.99356
3.99363
3.99367
3.99369
3.99368
3.99366
3.99364
3.9936
3.99356
3.99351
3.99345
3.99339
3.99333
3.99326
3.99319
3.99311
3.99302
3.99294
3.99284
3.99274
3.99263
3.99252
3.9924
3.99228
3.99215
3.99202
3.99188
3.99173
3.99158
3.99142
3.99125
3.99108
3.99089
3.99069
3.99049
3.99027
3.99004
3.98979
3.98953
3.98926
3.98897
3.98866
3.98833
3.98799
3.98763
3.98726
3.98686
3.98644
3.986
3.98554
3.98505
3.98453
3.98398
3.9834
3.98272
3.98301
2.0103
2.01027
2.01015
2.01018
2.01018
2.01046
2.01123
2.01191
2.01279
2.01372
2.01453
2.01485
2.01506
2.01548
2.45868
2.4672
2.47499
2.4825
2.4899
2.49645
2.50381
2.51076
2.51732
2.52356
2.52952
2.53517
2.54061
2.54582
2.55068
2.55508
2.55975
2.56408
2.56774
2.57153
2.57582
2.57951
2.58246
2.58615
2.58999
2.59277
2.59538
2.5988
2.60172
2.60375
2.60612
2.60924
2.61202
2.61484
2.61788
2.62111
2.62443
2.62781
2.63113
2.63435
2.63746
2.64042
2.64326
2.64603
2.64872
2.65134
2.6539
2.65641
2.65888
2.6613
2.66361
2.66583
2.66793
2.66988
2.67163
2.67316
2.67444
2.67546
2.6762
2.67665
2.67679
2.67658
2.67603
2.67517
2.67405
2.67271
2.67114
2.66934
2.66727
2.6649
2.66235
2.65971
2.6569
2.6539
2.65078
2.64747
2.64381
2.6399
2.63531
2.62993
2.62451
2.61887
2.61196
2.6058
2.59984
2.59299
2.58626
2.57954
2.57254
2.56595
2.5591
2.55237
2.54637
2.5411
2.53671
2.53329
2.53105
2.53038
2.53138
2.5352
2.54271
2.55456
2.57159
2.59491
2.62598
2.66666
2.71902
2.78472
2.86398
2.95683
3.06149
3.17325
3.28475
3.38655
3.46912
3.5393
3.60629
3.67008
3.72808
3.77792
3.81835
3.85003
3.87566
3.89761
3.9164
3.93208
3.94481
3.95486
3.96275
3.96914
3.97443
3.9787
3.98202
3.98447
3.98626
3.98757
3.98855
3.98928
3.9898
3.99014
3.99034
3.99045
3.99047
3.99044
3.99037
3.99025
3.99011
3.98994
3.98974
3.98953
3.98931
3.98907
3.98881
3.98853
3.98824
3.98793
3.98759
3.98724
3.98686
3.98647
3.98605
3.98561
3.98515
3.98467
3.98418
3.98366
3.98312
3.98255
3.98196
3.98133
3.98067
3.97997
3.97922
3.97843
3.97758
3.97668
3.97572
3.97469
3.97359
3.97242
3.97118
3.96987
3.9685
3.96707
3.96557
3.96402
3.9624
3.9607
3.95892
3.95703
3.95508
3.95271
3.95357
1.99511
1.9961
1.99707
1.99771
1.99802
1.99841
1.99897
1.99968
2.00051
2.00137
2.00214
2.00284
2.00334
2.42965
2.43854
2.44668
2.45442
2.46246
2.46887
2.47652
2.48391
2.4909
2.49763
2.50411
2.51033
2.51632
2.52205
2.52744
2.53255
2.53774
2.54254
2.54637
2.55062
2.55522
2.55937
2.56219
2.56649
2.57063
2.57387
2.57724
2.58108
2.58457
2.58697
2.59031
2.59372
2.59687
2.60004
2.6034
2.60684
2.61034
2.61387
2.61737
2.6208
2.62412
2.62734
2.63047
2.63354
2.63656
2.63955
2.64252
2.64546
2.64838
2.65126
2.65406
2.65678
2.65941
2.66188
2.66417
2.66628
2.66813
2.66973
2.67104
2.67205
2.67273
2.67304
2.67298
2.67258
2.67187
2.67087
2.66958
2.66798
2.66606
2.66388
2.66152
2.65896
2.6562
2.65331
2.65024
2.64683
2.64326
2.63961
2.63562
2.63136
2.62701
2.62214
2.61705
2.61141
2.60495
2.59868
2.59274
2.58587
2.57823
2.57161
2.56485
2.55796
2.55145
2.54521
2.5393
2.53382
2.52874
2.52396
2.5199
2.51685
2.51437
2.51254
2.51135
2.51101
2.5121
2.51494
2.52005
2.52827
2.54067
2.55827
2.58176
2.61211
2.65074
2.69935
2.75951
2.8317
2.91614
3.01245
3.11823
3.22852
3.33577
3.43028
3.50688
3.57766
3.64605
3.70951
3.76484
3.80995
3.84493
3.87238
3.8953
3.9146
3.93043
3.94302
3.95271
3.96012
3.96594
3.97054
3.97403
3.97649
3.9781
3.97907
3.97959
3.97982
3.97978
3.97959
3.97925
3.97878
3.97822
3.97758
3.97687
3.97609
3.97526
3.97436
3.9734
3.97237
3.97126
3.97008
3.96881
3.96746
3.96602
3.96451
3.96291
3.96125
3.95953
3.95775
3.95591
3.954
3.95202
3.94995
3.94779
3.94553
3.94315
3.94063
3.93797
3.93514
3.93212
3.92888
3.92542
3.92172
3.91778
3.9136
3.90917
3.90451
3.89963
3.89455
3.88927
3.88377
3.87809
3.87209
3.86603
3.8585
3.86016
1.983
1.98393
1.98481
1.98563
1.98629
1.98677
1.98719
1.98764
1.98817
1.98877
1.98942
1.99008
1.99064
2.41829
2.4261
2.43398
2.44155
2.44903
2.45654
2.46366
2.47056
2.47733
2.48391
2.49027
2.4964
2.50222
2.50793
2.51338
2.51863
2.5228
2.52776
2.53238
2.53688
2.54029
2.54483
2.54913
2.55283
2.55693
2.56083
2.56471
2.56809
2.5719
2.57551
2.57913
2.58275
2.58638
2.59007
2.59379
2.59754
2.60126
2.60494
2.60855
2.61208
2.61556
2.61901
2.62243
2.62584
2.62926
2.63267
2.63607
2.63944
2.64276
2.64601
2.64918
2.65223
2.65512
2.65782
2.66024
2.66248
2.66444
2.66609
2.6674
2.66834
2.6689
2.6691
2.66896
2.66848
2.66764
2.66644
2.66491
2.6631
2.66102
2.6587
2.65617
2.65345
2.65048
2.64728
2.64398
2.64045
2.63667
2.63294
2.62882
2.62413
2.61942
2.61431
2.60866
2.60307
2.59709
2.59011
2.58362
2.57708
2.57025
2.56369
2.55733
2.55082
2.54447
2.53864
2.53303
2.52776
2.52327
2.5193
2.5156
2.51221
2.50919
2.5069
2.50506
2.50356
2.50213
2.50114
2.50079
2.50096
2.5018
2.50367
2.50704
2.51239
2.52033
2.53164
2.5473
2.56822
2.5955
2.63052
2.67481
2.73026
2.7986
2.88031
2.97575
3.08331
3.19835
3.31302
3.4165
3.49984
3.57413
3.64482
3.70959
3.76505
3.80924
3.8427
3.86847
3.88944
3.90637
3.91946
3.92905
3.93564
3.93991
3.94254
3.94405
3.94449
3.94411
3.94323
3.94184
3.94007
3.938
3.93569
3.93317
3.93047
3.92757
3.92448
3.92117
3.91763
3.91384
3.90979
3.90546
3.90084
3.89593
3.89077
3.8854
3.87986
3.87419
3.86836
3.86235
3.85613
3.84966
3.84292
3.83587
3.8285
3.82077
3.81263
3.80402
3.79488
3.78512
3.77467
3.76347
3.75151
3.7388
3.72538
3.71144
3.69709
3.68253
3.66768
3.6527
3.63712
3.62221
3.60318
3.60357
1.97166
1.97232
1.97301
1.97365
1.97417
1.97457
1.9749
1.97522
1.97558
1.976
1.97646
1.97693
2.39054
2.39831
2.40611
2.41399
2.42168
2.42917
2.43634
2.4433
2.45015
2.45687
2.46341
2.46978
2.47593
2.48194
2.48754
2.49304
2.49801
2.50315
2.508
2.5127
2.51711
2.52165
2.52609
2.53033
2.53462
2.53893
2.54306
2.54716
2.55126
2.55527
2.55924
2.5632
2.56715
2.57112
2.57511
2.57911
2.58311
2.58707
2.591
2.59489
2.59876
2.6026
2.60646
2.61032
2.6142
2.6181
2.62199
2.62586
2.62969
2.63348
2.63721
2.64083
2.64432
2.64763
2.65073
2.6536
2.65618
2.65853
2.66054
2.66219
2.66347
2.66438
2.66491
2.66506
2.66481
2.66418
2.66318
2.66186
2.66024
2.65833
2.65615
2.65374
2.6511
2.64828
2.64525
2.64195
2.63847
2.63481
2.63076
2.62645
2.62196
2.61709
2.61197
2.60633
2.59965
2.59333
2.58724
2.58056
2.57356
2.56677
2.55985
2.55307
2.54687
2.54102
2.53547
2.53031
2.5255
2.52107
2.517
2.5132
2.50968
2.50648
2.50373
2.50153
2.49987
2.49837
2.49725
2.49619
2.49533
2.49484
2.49476
2.4951
2.49585
2.49705
2.49877
2.50108
2.50415
2.50826
2.51397
2.52182
2.53248
2.54687
2.56605
2.59124
2.62409
2.66692
2.72261
2.79308
2.87817
2.97771
3.08953
3.20798
3.32398
3.42594
3.50665
3.57806
3.64373
3.70085
3.74665
3.78027
3.80318
3.81857
3.82902
3.83532
3.83835
3.83824
3.83626
3.83272
3.82785
3.82196
3.81532
3.80806
3.80025
3.7919
3.783
3.77351
3.7634
3.7526
3.74108
3.72878
3.71568
3.70183
3.68739
3.67261
3.65768
3.64263
3.62744
3.6121
3.59659
3.58087
3.56494
3.54874
3.53224
3.51534
3.49795
3.47994
3.46116
3.44144
3.4206
3.39848
3.37493
3.34997
3.32356
3.29625
3.26915
3.24238
3.21679
3.19025
3.16728
3.13995
3.12745
1.95878
1.95919
1.95965
1.96011
1.96055
1.96092
1.96121
1.96145
1.96167
1.96191
2.36355
2.37125
2.37895
2.38675
2.39448
2.40197
2.40918
2.41616
2.42301
2.42974
2.43634
2.44281
2.44913
2.4552
2.46103
2.46672
2.47219
2.47745
2.48263
2.4876
2.49248
2.49728
2.50192
2.50651
2.51108
2.5156
2.52007
2.52452
2.52892
2.53326
2.53756
2.54184
2.5461
2.55037
2.55464
2.55893
2.56322
2.5675
2.57176
2.57602
2.58027
2.58453
2.58882
2.59313
2.59748
2.60184
2.60621
2.61057
2.61492
2.61924
2.6235
2.62769
2.63176
2.63568
2.63943
2.64297
2.64627
2.64928
2.65197
2.65439
2.65644
2.65811
2.65939
2.66026
2.66071
2.66075
2.66039
2.65967
2.6586
2.65721
2.65552
2.65351
2.65122
2.64868
2.64585
2.64279
2.63967
2.6362
2.63224
2.62815
2.62369
2.61866
2.61335
2.60772
2.60204
2.59622
2.58981
2.583
2.57644
2.56991
2.56325
2.55678
2.55054
2.54458
2.53898
2.53354
2.52835
2.52369
2.51935
2.51502
2.51093
2.50741
2.50425
2.50135
2.49879
2.49654
2.49459
2.4931
2.49205
2.49154
2.49109
2.49101
2.49132
2.49205
2.49317
2.49461
2.49617
2.49761
2.49919
2.50097
2.503
2.50533
2.50801
2.51115
2.51508
2.5204
2.5278
2.53816
2.55261
2.5723
2.59845
2.63275
2.67755
2.73552
2.80916
2.89788
2.99909
3.10832
3.21798
3.3182
3.39885
3.45538
3.49779
3.52994
3.55144
3.56389
3.5678
3.56499
3.55868
3.54879
3.53645
3.52236
3.50706
3.49084
3.47384
3.45609
3.43758
3.41825
3.39796
3.37657
3.35389
3.32973
3.30396
3.27742
3.25125
3.22573
3.20093
3.17686
3.15353
3.13096
3.10915
3.08818
3.06806
3.04888
3.03063
3.01342
2.99725
2.98227
2.96847
2.95592
2.94459
2.93421
2.92506
2.91624
2.90873
2.90082
2.89474
2.888
2.88352
2.877
2.87834
1.94539
1.94565
1.94592
1.94621
1.94647
1.9467
1.94688
1.94703
1.94716
2.34469
2.35228
2.35992
2.36753
2.37496
2.38215
2.38914
2.39597
2.40266
2.40924
2.41573
2.42206
2.42818
2.43418
2.44001
2.44567
2.45119
2.45652
2.46174
2.46686
2.47187
2.47677
2.48161
2.48641
2.49116
2.49589
2.50059
2.50525
2.50988
2.51446
2.51903
2.52358
2.52813
2.53269
2.53727
2.54186
2.54646
2.55106
2.55568
2.56031
2.56497
2.56968
2.57442
2.5792
2.58401
2.58884
2.59368
2.59851
2.60333
2.60811
2.61283
2.61746
2.62197
2.62634
2.63053
2.63451
2.63823
2.64168
2.64478
2.64758
2.65004
2.65211
2.65375
2.65495
2.65571
2.65606
2.656
2.65557
2.65472
2.6535
2.6519
2.64999
2.64779
2.64532
2.64266
2.63959
2.63611
2.6326
2.62881
2.62446
2.61985
2.61497
2.60964
2.60399
2.59801
2.59171
2.58538
2.57907
2.57265
2.56624
2.5599
2.55358
2.54763
2.54206
2.53652
2.53128
2.52668
2.52231
2.51782
2.51358
2.50993
2.50649
2.50317
2.50024
2.49784
2.49586
2.49413
2.49295
2.49226
2.49169
2.49129
2.49119
2.49143
2.49165
2.49171
2.49199
2.49266
2.49359
2.49474
2.49607
2.49754
2.49953
2.50175
2.50417
2.50668
2.50869
2.51024
2.51205
2.5144
2.51747
2.52159
2.52738
2.53563
2.5473
2.56354
2.58549
2.61433
2.65144
2.69833
2.7555
2.82049
2.88876
2.9548
3.01269
3.05746
3.0866
3.10251
3.10674
3.1017
3.09256
3.07933
3.06363
3.04694
3.02998
3.01319
2.99691
2.98133
2.9666
2.95286
2.94027
2.92897
2.91901
2.91004
2.9017
2.89386
2.88652
2.87968
2.87334
2.86747
2.86207
2.85716
2.85283
2.84906
2.84588
2.84315
2.84084
2.8386
2.83666
2.83454
2.83279
2.8309
2.82925
2.82766
2.82628
2.82532
2.82468
2.82412
2.82392
2.82327
2.82459
1.93091
1.93104
2.31833
2.32582
2.33329
2.34072
2.34803
2.35515
2.36209
2.36888
2.37553
2.38205
2.38848
2.39479
2.40097
2.407
2.41291
2.41867
2.4243
2.42979
2.43517
2.44045
2.44564
2.45074
2.45578
2.46077
2.46573
2.47067
2.47558
2.48046
2.48532
2.49016
2.49498
2.4998
2.50462
2.50946
2.51432
2.5192
2.52411
2.52904
2.534
2.539
2.54404
2.54913
2.55428
2.55947
2.56469
2.56995
2.57523
2.58052
2.5858
2.59107
2.59629
2.60145
2.60651
2.61146
2.61626
2.62087
2.62527
2.62941
2.63327
2.63682
2.63998
2.6428
2.64522
2.64718
2.6487
2.64979
2.65039
2.65053
2.65023
2.64953
2.64852
2.64721
2.6456
2.64366
2.6413
2.63855
2.63561
2.63228
2.62843
2.62426
2.61987
2.61506
2.60989
2.60448
2.59881
2.59292
2.58692
2.58076
2.57457
2.56848
2.56225
2.556
2.55025
2.54478
2.53924
2.53406
2.52964
2.52528
2.52066
2.51637
2.5127
2.50923
2.50586
2.50291
2.5006
2.49879
2.49725
2.49607
2.49531
2.49476
2.4944
2.49424
2.49408
2.49404
2.49414
2.49448
2.49504
2.49579
2.49675
2.49788
2.49913
2.50038
2.50146
2.50227
2.50282
2.50346
2.50445
2.50568
2.50726
2.50941
2.51189
2.51478
2.5179
2.52046
2.52253
2.52534
2.52943
2.53526
2.54352
2.55499
2.57057
2.59109
2.61649
2.64618
2.67888
2.71265
2.7448
2.77242
2.79474
2.81156
2.82302
2.83016
2.83434
2.83529
2.83495
2.83389
2.83239
2.83056
2.82871
2.82683
2.82479
2.82266
2.82057
2.81848
2.81646
2.81471
2.81332
2.81223
2.81134
2.81058
2.80988
2.80929
2.80867
2.80819
2.80768
2.80737
2.80702
2.80669
2.80635
2.80599
2.80585
2.80579
2.80599
2.80623
2.8065
2.80658
2.80666
2.80656
2.80646
2.80745
2.29188
2.29923
2.30654
2.31379
2.32093
2.32794
2.33479
2.34149
2.34808
2.35456
2.36093
2.36719
2.37334
2.37938
2.38531
2.39111
2.3968
2.40238
2.40787
2.41327
2.41858
2.42383
2.42903
2.43418
2.43932
2.44443
2.44952
2.45461
2.45967
2.46473
2.46978
2.47484
2.47992
2.48502
2.49015
2.49532
2.50052
2.50576
2.51105
2.51638
2.52178
2.52723
2.53274
2.5383
2.54391
2.54957
2.55525
2.56096
2.56668
2.57239
2.57808
2.58372
2.58929
2.59477
2.60012
2.60532
2.61034
2.61513
2.61966
2.6239
2.62779
2.63133
2.63446
2.63714
2.63938
2.6411
2.64234
2.64311
2.64356
2.64366
2.64336
2.64263
2.64146
2.63985
2.63784
2.63547
2.63268
2.62944
2.62591
2.62217
2.61806
2.61356
2.60876
2.60372
2.59847
2.59303
2.58732
2.58145
2.57572
2.56997
2.56396
2.55802
2.55261
2.54721
2.54175
2.53682
2.53266
2.52835
2.52378
2.51955
2.51603
2.51264
2.50945
2.50657
2.50442
2.5028
2.50146
2.50044
2.49976
2.4993
2.49902
2.49887
2.49884
2.49896
2.49929
2.4998
2.50047
2.5013
2.50228
2.50337
2.50449
2.50555
2.5065
2.50736
2.50823
2.50924
2.51038
2.51163
2.51295
2.51428
2.51552
2.5166
2.51755
2.51874
2.52048
2.52262
2.5254
2.52819
2.53115
2.53377
2.53726
2.5424
2.54955
2.55913
2.57156
2.58725
2.60641
2.62894
2.65412
2.68048
2.70618
2.72946
2.74895
2.76427
2.7758
2.78412
2.78987
2.79373
2.79622
2.79771
2.79858
2.79879
2.79869
2.7987
2.79864
2.79828
2.79789
2.79762
2.79742
2.79728
2.79719
2.79715
2.79712
2.7971
2.79709
2.79708
2.79707
2.79706
2.7971
2.79715
2.79723
2.79727
2.79734
2.79734
2.79734
2.79736
2.79748
2.79762
2.79788
2.79854