/*--------------------------------*- C++ -*----------------------------------*\
| =========                 |                                                 |
| \\      /  F ield         | OpenFOAM: The Open Source CFD Toolbox           |
|  \\    /   O peration     | Version:  v1706                                 |
|   \\  /    A nd           | Web:      www.OpenFOAM.com                      |
|    \\/     M anipulation  |                                                 |
\*---------------------------------------------------------------------------*/
FoamFile
{
    version     2.0;
    format      ascii;
    class       volScalarField;
    location    "3.8e-05";
    object      mu;
}
// * * * * * * * * * * * * * * * * * * * * * * * * * * * * * * * * * * * * * //

dimensions      [1 -1 -1 0 0 0 0];


internalField   nonuniform List<scalar> 
30104
(
1.03551e-05
1.03557e-05
1.03564e-05
1.03572e-05
1.03582e-05
1.03592e-05
1.03605e-05
1.03619e-05
1.03636e-05
1.03654e-05
1.03676e-05
1.037e-05
1.03728e-05
1.0376e-05
1.03796e-05
1.03837e-05
1.03885e-05
1.24669e-05
1.24239e-05
1.2381e-05
1.23382e-05
1.22955e-05
1.22528e-05
1.22103e-05
1.21676e-05
1.21248e-05
1.20818e-05
1.20383e-05
1.19942e-05
1.19493e-05
1.19036e-05
1.18569e-05
1.1809e-05
1.17601e-05
1.17102e-05
1.16592e-05
1.16071e-05
1.15538e-05
1.1501e-05
1.1459e-05
1.14261e-05
1.13963e-05
1.13663e-05
1.13349e-05
1.13014e-05
1.12659e-05
1.12283e-05
1.11889e-05
1.11479e-05
1.11056e-05
1.10621e-05
1.10177e-05
1.09726e-05
1.09269e-05
1.08808e-05
1.08345e-05
1.07883e-05
1.07426e-05
1.06997e-05
1.06623e-05
1.06307e-05
1.06031e-05
1.05773e-05
1.05525e-05
1.05282e-05
1.05047e-05
1.04824e-05
1.04617e-05
1.04434e-05
1.04282e-05
1.04159e-05
1.04059e-05
1.03974e-05
1.03899e-05
1.03832e-05
1.03775e-05
1.03727e-05
1.03689e-05
1.03659e-05
1.03633e-05
1.03611e-05
1.03593e-05
1.03577e-05
1.03564e-05
1.03553e-05
1.03544e-05
1.03537e-05
1.03532e-05
1.03527e-05
1.03524e-05
1.03521e-05
1.03519e-05
1.03517e-05
1.03516e-05
1.03514e-05
1.03514e-05
1.03513e-05
1.03512e-05
1.03512e-05
1.03511e-05
1.03511e-05
1.03511e-05
1.03511e-05
1.0351e-05
1.0351e-05
1.0351e-05
1.0351e-05
1.0351e-05
1.0351e-05
1.0351e-05
1.0351e-05
1.0351e-05
1.0351e-05
1.0351e-05
1.0351e-05
1.0351e-05
1.0351e-05
1.0351e-05
1.0351e-05
1.0351e-05
1.0351e-05
1.0351e-05
1.0351e-05
1.0351e-05
1.0351e-05
1.0351e-05
1.0351e-05
1.0351e-05
1.0351e-05
1.0351e-05
1.0351e-05
1.0351e-05
1.0351e-05
1.0351e-05
1.0351e-05
1.0351e-05
1.0351e-05
1.0351e-05
1.0351e-05
1.0351e-05
1.0351e-05
1.0351e-05
1.0351e-05
1.0351e-05
1.0351e-05
1.0351e-05
1.0351e-05
1.0351e-05
1.0351e-05
1.0351e-05
1.0351e-05
1.0351e-05
1.0351e-05
1.0351e-05
1.0351e-05
1.0351e-05
1.0351e-05
1.0351e-05
1.0351e-05
1.0351e-05
1.0351e-05
1.0351e-05
1.0351e-05
1.0351e-05
1.0351e-05
1.0351e-05
1.0351e-05
1.0351e-05
1.0351e-05
1.0351e-05
1.0351e-05
1.0351e-05
1.0351e-05
1.0351e-05
1.0351e-05
1.0351e-05
1.0351e-05
1.0351e-05
1.0351e-05
1.0351e-05
1.0351e-05
1.0351e-05
1.0351e-05
1.0351e-05
1.0351e-05
1.0351e-05
1.0351e-05
1.0351e-05
1.0351e-05
1.0351e-05
1.0351e-05
1.0351e-05
1.0351e-05
1.0351e-05
1.0351e-05
1.0351e-05
1.0351e-05
1.0351e-05
1.0351e-05
1.0351e-05
1.0351e-05
1.0351e-05
1.0351e-05
1.0351e-05
1.0351e-05
1.0351e-05
1.0351e-05
1.0351e-05
1.0351e-05
1.0351e-05
1.03761e-05
1.038e-05
1.03844e-05
1.03895e-05
1.03954e-05
1.04021e-05
1.04098e-05
1.04186e-05
1.04287e-05
1.04403e-05
1.04534e-05
1.04685e-05
1.04857e-05
1.05055e-05
1.0528e-05
1.05536e-05
1.05825e-05
1.55507e-05
1.55298e-05
1.55094e-05
1.54895e-05
1.54701e-05
1.54511e-05
1.54326e-05
1.54146e-05
1.53969e-05
1.53795e-05
1.53623e-05
1.53452e-05
1.53282e-05
1.5311e-05
1.52937e-05
1.52759e-05
1.52574e-05
1.52379e-05
1.5217e-05
1.51942e-05
1.51693e-05
1.51416e-05
1.51076e-05
1.50652e-05
1.50136e-05
1.49519e-05
1.488e-05
1.47982e-05
1.47066e-05
1.46049e-05
1.44924e-05
1.43685e-05
1.42328e-05
1.40858e-05
1.39283e-05
1.37607e-05
1.3583e-05
1.33953e-05
1.31969e-05
1.29875e-05
1.27679e-05
1.25421e-05
1.23249e-05
1.21445e-05
1.19903e-05
1.18473e-05
1.17075e-05
1.15681e-05
1.14292e-05
1.12925e-05
1.11619e-05
1.10433e-05
1.09418e-05
1.08582e-05
1.07877e-05
1.07256e-05
1.06692e-05
1.0618e-05
1.05722e-05
1.05327e-05
1.05e-05
1.04739e-05
1.04528e-05
1.04351e-05
1.042e-05
1.0407e-05
1.03962e-05
1.03875e-05
1.03805e-05
1.0375e-05
1.03704e-05
1.03667e-05
1.03635e-05
1.03609e-05
1.03588e-05
1.03572e-05
1.03559e-05
1.03549e-05
1.03541e-05
1.03534e-05
1.03529e-05
1.03525e-05
1.03522e-05
1.03519e-05
1.03517e-05
1.03516e-05
1.03514e-05
1.03513e-05
1.03513e-05
1.03512e-05
1.03512e-05
1.03511e-05
1.03511e-05
1.03511e-05
1.03511e-05
1.0351e-05
1.0351e-05
1.0351e-05
1.0351e-05
1.0351e-05
1.0351e-05
1.0351e-05
1.0351e-05
1.0351e-05
1.0351e-05
1.0351e-05
1.0351e-05
1.0351e-05
1.0351e-05
1.0351e-05
1.0351e-05
1.0351e-05
1.0351e-05
1.0351e-05
1.0351e-05
1.0351e-05
1.0351e-05
1.0351e-05
1.0351e-05
1.0351e-05
1.0351e-05
1.0351e-05
1.0351e-05
1.0351e-05
1.0351e-05
1.0351e-05
1.0351e-05
1.0351e-05
1.0351e-05
1.0351e-05
1.0351e-05
1.0351e-05
1.0351e-05
1.0351e-05
1.0351e-05
1.0351e-05
1.0351e-05
1.0351e-05
1.0351e-05
1.0351e-05
1.0351e-05
1.0351e-05
1.0351e-05
1.0351e-05
1.0351e-05
1.0351e-05
1.0351e-05
1.0351e-05
1.0351e-05
1.0351e-05
1.0351e-05
1.0351e-05
1.0351e-05
1.0351e-05
1.0351e-05
1.0351e-05
1.0351e-05
1.0351e-05
1.0351e-05
1.0351e-05
1.0351e-05
1.0351e-05
1.0351e-05
1.0351e-05
1.0351e-05
1.0351e-05
1.0351e-05
1.0351e-05
1.0351e-05
1.0351e-05
1.0351e-05
1.0351e-05
1.0351e-05
1.0351e-05
1.0351e-05
1.0351e-05
1.0351e-05
1.0351e-05
1.0351e-05
1.0351e-05
1.0351e-05
1.0351e-05
1.0351e-05
1.0351e-05
1.0351e-05
1.0351e-05
1.0351e-05
1.0351e-05
1.0351e-05
1.0351e-05
1.0351e-05
1.0351e-05
1.0351e-05
1.04427e-05
1.04567e-05
1.04728e-05
1.04912e-05
1.05124e-05
1.05367e-05
1.05645e-05
1.05963e-05
1.06323e-05
1.06731e-05
1.07191e-05
1.07713e-05
1.08306e-05
1.08981e-05
1.09746e-05
1.10607e-05
1.60385e-05
1.60227e-05
1.60073e-05
1.59922e-05
1.59775e-05
1.5963e-05
1.5949e-05
1.59353e-05
1.59221e-05
1.59094e-05
1.58974e-05
1.58861e-05
1.58759e-05
1.58668e-05
1.58592e-05
1.58534e-05
1.58493e-05
1.58476e-05
1.58478e-05
1.58494e-05
1.58525e-05
1.58568e-05
1.58619e-05
1.58673e-05
1.58729e-05
1.58768e-05
1.58764e-05
1.58736e-05
1.58668e-05
1.58562e-05
1.58428e-05
1.58275e-05
1.58105e-05
1.57913e-05
1.57688e-05
1.57413e-05
1.57074e-05
1.56658e-05
1.56145e-05
1.55506e-05
1.547e-05
1.53683e-05
1.52392e-05
1.5077e-05
1.48836e-05
1.46627e-05
1.44165e-05
1.41457e-05
1.38507e-05
1.35326e-05
1.31963e-05
1.28532e-05
1.25296e-05
1.22645e-05
1.20422e-05
1.18412e-05
1.1651e-05
1.14691e-05
1.12981e-05
1.11444e-05
1.10138e-05
1.09081e-05
1.08212e-05
1.07465e-05
1.06803e-05
1.06217e-05
1.05709e-05
1.05286e-05
1.04949e-05
1.04683e-05
1.04468e-05
1.04288e-05
1.04136e-05
1.0401e-05
1.03908e-05
1.03829e-05
1.03767e-05
1.03716e-05
1.03675e-05
1.03641e-05
1.03613e-05
1.03591e-05
1.03574e-05
1.0356e-05
1.0355e-05
1.03541e-05
1.03535e-05
1.03529e-05
1.03525e-05
1.03522e-05
1.03519e-05
1.03517e-05
1.03516e-05
1.03514e-05
1.03513e-05
1.03513e-05
1.03512e-05
1.03512e-05
1.03511e-05
1.03511e-05
1.03511e-05
1.03511e-05
1.0351e-05
1.0351e-05
1.0351e-05
1.0351e-05
1.0351e-05
1.0351e-05
1.0351e-05
1.0351e-05
1.0351e-05
1.0351e-05
1.0351e-05
1.0351e-05
1.0351e-05
1.0351e-05
1.0351e-05
1.0351e-05
1.0351e-05
1.0351e-05
1.0351e-05
1.0351e-05
1.0351e-05
1.0351e-05
1.0351e-05
1.0351e-05
1.0351e-05
1.0351e-05
1.0351e-05
1.0351e-05
1.0351e-05
1.0351e-05
1.0351e-05
1.0351e-05
1.0351e-05
1.0351e-05
1.0351e-05
1.0351e-05
1.0351e-05
1.0351e-05
1.0351e-05
1.0351e-05
1.0351e-05
1.0351e-05
1.0351e-05
1.0351e-05
1.0351e-05
1.0351e-05
1.0351e-05
1.0351e-05
1.0351e-05
1.0351e-05
1.0351e-05
1.0351e-05
1.0351e-05
1.0351e-05
1.0351e-05
1.0351e-05
1.0351e-05
1.0351e-05
1.0351e-05
1.0351e-05
1.0351e-05
1.0351e-05
1.0351e-05
1.0351e-05
1.0351e-05
1.0351e-05
1.0351e-05
1.0351e-05
1.0351e-05
1.0351e-05
1.0351e-05
1.0351e-05
1.0351e-05
1.0351e-05
1.0351e-05
1.0351e-05
1.0351e-05
1.0351e-05
1.0351e-05
1.0351e-05
1.0351e-05
1.0351e-05
1.0351e-05
1.0351e-05
1.0351e-05
1.0351e-05
1.0351e-05
1.0351e-05
1.0351e-05
1.0351e-05
1.0351e-05
1.06539e-05
1.06991e-05
1.07504e-05
1.08087e-05
1.0875e-05
1.09504e-05
1.10361e-05
1.11327e-05
1.12407e-05
1.13607e-05
1.14938e-05
1.16419e-05
1.18074e-05
1.19911e-05
1.21928e-05
1.24112e-05
1.61421e-05
1.61249e-05
1.61083e-05
1.60924e-05
1.60771e-05
1.60624e-05
1.60483e-05
1.60348e-05
1.60219e-05
1.60097e-05
1.59981e-05
1.59872e-05
1.59771e-05
1.5968e-05
1.59601e-05
1.59536e-05
1.59485e-05
1.59467e-05
1.59473e-05
1.59498e-05
1.59548e-05
1.59624e-05
1.59724e-05
1.59845e-05
1.59986e-05
1.60136e-05
1.60283e-05
1.60422e-05
1.6054e-05
1.60629e-05
1.60685e-05
1.60717e-05
1.60742e-05
1.60768e-05
1.60797e-05
1.60828e-05
1.60852e-05
1.60855e-05
1.60847e-05
1.6082e-05
1.60769e-05
1.60701e-05
1.60619e-05
1.60517e-05
1.60379e-05
1.6018e-05
1.59887e-05
1.59458e-05
1.58844e-05
1.58004e-05
1.56893e-05
1.55461e-05
1.53626e-05
1.51321e-05
1.48594e-05
1.45506e-05
1.42095e-05
1.38388e-05
1.34442e-05
1.30396e-05
1.26534e-05
1.23341e-05
1.20756e-05
1.18479e-05
1.16356e-05
1.14359e-05
1.12535e-05
1.10954e-05
1.09664e-05
1.08636e-05
1.07784e-05
1.07046e-05
1.06398e-05
1.05837e-05
1.0537e-05
1.05001e-05
1.04715e-05
1.04488e-05
1.043e-05
1.04142e-05
1.04013e-05
1.03909e-05
1.03829e-05
1.03766e-05
1.03716e-05
1.03675e-05
1.03641e-05
1.03613e-05
1.03591e-05
1.03573e-05
1.0356e-05
1.0355e-05
1.03541e-05
1.03535e-05
1.03529e-05
1.03525e-05
1.03522e-05
1.03519e-05
1.03517e-05
1.03516e-05
1.03514e-05
1.03513e-05
1.03513e-05
1.03512e-05
1.03512e-05
1.03511e-05
1.03511e-05
1.03511e-05
1.03511e-05
1.0351e-05
1.0351e-05
1.0351e-05
1.0351e-05
1.0351e-05
1.0351e-05
1.0351e-05
1.0351e-05
1.0351e-05
1.0351e-05
1.0351e-05
1.0351e-05
1.0351e-05
1.0351e-05
1.0351e-05
1.0351e-05
1.0351e-05
1.0351e-05
1.0351e-05
1.0351e-05
1.0351e-05
1.0351e-05
1.0351e-05
1.0351e-05
1.0351e-05
1.0351e-05
1.0351e-05
1.0351e-05
1.0351e-05
1.0351e-05
1.0351e-05
1.0351e-05
1.0351e-05
1.0351e-05
1.0351e-05
1.0351e-05
1.0351e-05
1.0351e-05
1.0351e-05
1.0351e-05
1.0351e-05
1.0351e-05
1.0351e-05
1.0351e-05
1.0351e-05
1.0351e-05
1.0351e-05
1.0351e-05
1.0351e-05
1.0351e-05
1.0351e-05
1.0351e-05
1.0351e-05
1.0351e-05
1.0351e-05
1.0351e-05
1.0351e-05
1.0351e-05
1.0351e-05
1.0351e-05
1.0351e-05
1.0351e-05
1.0351e-05
1.0351e-05
1.0351e-05
1.0351e-05
1.0351e-05
1.0351e-05
1.0351e-05
1.0351e-05
1.0351e-05
1.0351e-05
1.0351e-05
1.0351e-05
1.0351e-05
1.0351e-05
1.0351e-05
1.0351e-05
1.0351e-05
1.0351e-05
1.0351e-05
1.0351e-05
1.0351e-05
1.0351e-05
1.12737e-05
1.14014e-05
1.15433e-05
1.17014e-05
1.18779e-05
1.20738e-05
1.22889e-05
1.25218e-05
1.27705e-05
1.30333e-05
1.33095e-05
1.36038e-05
1.39264e-05
1.42747e-05
1.46412e-05
1.62253e-05
1.62062e-05
1.61879e-05
1.61703e-05
1.61536e-05
1.61375e-05
1.61221e-05
1.61074e-05
1.60934e-05
1.60801e-05
1.60674e-05
1.60554e-05
1.60442e-05
1.60338e-05
1.60243e-05
1.60161e-05
1.60092e-05
1.60045e-05
1.60036e-05
1.60046e-05
1.6008e-05
1.60143e-05
1.60235e-05
1.60357e-05
1.60506e-05
1.60677e-05
1.60862e-05
1.61052e-05
1.61236e-05
1.614e-05
1.61535e-05
1.61642e-05
1.61727e-05
1.61802e-05
1.61872e-05
1.61943e-05
1.62015e-05
1.62082e-05
1.62148e-05
1.62208e-05
1.62263e-05
1.62319e-05
1.6238e-05
1.62449e-05
1.62527e-05
1.62609e-05
1.62685e-05
1.62742e-05
1.6278e-05
1.628e-05
1.62798e-05
1.62774e-05
1.627e-05
1.62555e-05
1.62303e-05
1.61883e-05
1.61229e-05
1.60283e-05
1.59006e-05
1.57355e-05
1.5527e-05
1.52681e-05
1.49619e-05
1.4614e-05
1.42276e-05
1.38076e-05
1.33654e-05
1.29246e-05
1.25277e-05
1.22174e-05
1.19605e-05
1.1728e-05
1.15107e-05
1.13115e-05
1.1138e-05
1.09955e-05
1.08835e-05
1.0793e-05
1.07158e-05
1.06483e-05
1.05901e-05
1.05417e-05
1.05034e-05
1.04741e-05
1.04512e-05
1.04322e-05
1.04162e-05
1.0403e-05
1.03924e-05
1.03841e-05
1.03776e-05
1.03724e-05
1.03682e-05
1.03646e-05
1.03617e-05
1.03593e-05
1.03575e-05
1.03561e-05
1.0355e-05
1.03542e-05
1.03535e-05
1.03529e-05
1.03525e-05
1.03522e-05
1.03519e-05
1.03517e-05
1.03516e-05
1.03514e-05
1.03513e-05
1.03513e-05
1.03512e-05
1.03512e-05
1.03511e-05
1.03511e-05
1.03511e-05
1.03511e-05
1.03511e-05
1.0351e-05
1.0351e-05
1.0351e-05
1.0351e-05
1.0351e-05
1.0351e-05
1.0351e-05
1.0351e-05
1.0351e-05
1.0351e-05
1.0351e-05
1.0351e-05
1.0351e-05
1.0351e-05
1.0351e-05
1.0351e-05
1.0351e-05
1.0351e-05
1.0351e-05
1.0351e-05
1.0351e-05
1.0351e-05
1.0351e-05
1.0351e-05
1.0351e-05
1.0351e-05
1.0351e-05
1.0351e-05
1.0351e-05
1.0351e-05
1.0351e-05
1.0351e-05
1.0351e-05
1.0351e-05
1.0351e-05
1.0351e-05
1.0351e-05
1.0351e-05
1.0351e-05
1.0351e-05
1.0351e-05
1.0351e-05
1.0351e-05
1.0351e-05
1.0351e-05
1.0351e-05
1.0351e-05
1.0351e-05
1.0351e-05
1.0351e-05
1.0351e-05
1.0351e-05
1.0351e-05
1.0351e-05
1.0351e-05
1.0351e-05
1.0351e-05
1.0351e-05
1.0351e-05
1.0351e-05
1.0351e-05
1.0351e-05
1.0351e-05
1.0351e-05
1.0351e-05
1.0351e-05
1.0351e-05
1.0351e-05
1.0351e-05
1.0351e-05
1.0351e-05
1.0351e-05
1.0351e-05
1.0351e-05
1.03511e-05
1.0351e-05
1.254e-05
1.27976e-05
1.30707e-05
1.33582e-05
1.36633e-05
1.39955e-05
1.43526e-05
1.47279e-05
1.51119e-05
1.54944e-05
1.58657e-05
1.62176e-05
1.65424e-05
1.68336e-05
1.70901e-05
1.7313e-05
1.63109e-05
1.62893e-05
1.62686e-05
1.62489e-05
1.62302e-05
1.62125e-05
1.61958e-05
1.61801e-05
1.61655e-05
1.61519e-05
1.61394e-05
1.61278e-05
1.61172e-05
1.61077e-05
1.60991e-05
1.60916e-05
1.60852e-05
1.60803e-05
1.60785e-05
1.60789e-05
1.60811e-05
1.6086e-05
1.60937e-05
1.61045e-05
1.61181e-05
1.61341e-05
1.61521e-05
1.61711e-05
1.61902e-05
1.62083e-05
1.62245e-05
1.6238e-05
1.62488e-05
1.62576e-05
1.62651e-05
1.62718e-05
1.62787e-05
1.62857e-05
1.62924e-05
1.63003e-05
1.63088e-05
1.63169e-05
1.63248e-05
1.63334e-05
1.63432e-05
1.63543e-05
1.63663e-05
1.63791e-05
1.6393e-05
1.64044e-05
1.64158e-05
1.64283e-05
1.64414e-05
1.64542e-05
1.64657e-05
1.64742e-05
1.6479e-05
1.64798e-05
1.64784e-05
1.64733e-05
1.64623e-05
1.64427e-05
1.6409e-05
1.63533e-05
1.62683e-05
1.61489e-05
1.59916e-05
1.57923e-05
1.55441e-05
1.52416e-05
1.48893e-05
1.44908e-05
1.40517e-05
1.35844e-05
1.31118e-05
1.26719e-05
1.23189e-05
1.20415e-05
1.17975e-05
1.15709e-05
1.13629e-05
1.11809e-05
1.10303e-05
1.09114e-05
1.08175e-05
1.07384e-05
1.06691e-05
1.06086e-05
1.05574e-05
1.05161e-05
1.0484e-05
1.04592e-05
1.0439e-05
1.04219e-05
1.04075e-05
1.03957e-05
1.03864e-05
1.03791e-05
1.03735e-05
1.03689e-05
1.03651e-05
1.0362e-05
1.03595e-05
1.03576e-05
1.03562e-05
1.03551e-05
1.03542e-05
1.03535e-05
1.0353e-05
1.03526e-05
1.03523e-05
1.0352e-05
1.03518e-05
1.03516e-05
1.03515e-05
1.03514e-05
1.03513e-05
1.03513e-05
1.03512e-05
1.03512e-05
1.03511e-05
1.03511e-05
1.03511e-05
1.03511e-05
1.03511e-05
1.0351e-05
1.0351e-05
1.0351e-05
1.0351e-05
1.0351e-05
1.0351e-05
1.0351e-05
1.0351e-05
1.0351e-05
1.0351e-05
1.0351e-05
1.0351e-05
1.0351e-05
1.0351e-05
1.0351e-05
1.0351e-05
1.0351e-05
1.0351e-05
1.0351e-05
1.0351e-05
1.0351e-05
1.0351e-05
1.0351e-05
1.0351e-05
1.0351e-05
1.0351e-05
1.0351e-05
1.0351e-05
1.0351e-05
1.0351e-05
1.0351e-05
1.0351e-05
1.0351e-05
1.0351e-05
1.03511e-05
1.03511e-05
1.03511e-05
1.03511e-05
1.03511e-05
1.03511e-05
1.03511e-05
1.03511e-05
1.03511e-05
1.03511e-05
1.03511e-05
1.03511e-05
1.03511e-05
1.03511e-05
1.03511e-05
1.03511e-05
1.03511e-05
1.03511e-05
1.03511e-05
1.03511e-05
1.03511e-05
1.03511e-05
1.03511e-05
1.03511e-05
1.03511e-05
1.03511e-05
1.03511e-05
1.03512e-05
1.03512e-05
1.03512e-05
1.03512e-05
1.03512e-05
1.03512e-05
1.03512e-05
1.50704e-05
1.54625e-05
1.58462e-05
1.62124e-05
1.65526e-05
1.68593e-05
1.71305e-05
1.73665e-05
1.75692e-05
1.77414e-05
1.78864e-05
1.80076e-05
1.81081e-05
1.64357e-05
1.64113e-05
1.63881e-05
1.6366e-05
1.6345e-05
1.6325e-05
1.63063e-05
1.62888e-05
1.62726e-05
1.62578e-05
1.62443e-05
1.62321e-05
1.62213e-05
1.62116e-05
1.62032e-05
1.6196e-05
1.61899e-05
1.6185e-05
1.61825e-05
1.61826e-05
1.61839e-05
1.61874e-05
1.61934e-05
1.62022e-05
1.62135e-05
1.6227e-05
1.62424e-05
1.62591e-05
1.6276e-05
1.62922e-05
1.63073e-05
1.63203e-05
1.63308e-05
1.63399e-05
1.6347e-05
1.6353e-05
1.63591e-05
1.63644e-05
1.63699e-05
1.63767e-05
1.63841e-05
1.63915e-05
1.63988e-05
1.64067e-05
1.64153e-05
1.6425e-05
1.64356e-05
1.64476e-05
1.64601e-05
1.64717e-05
1.64832e-05
1.64957e-05
1.65096e-05
1.65246e-05
1.65401e-05
1.65555e-05
1.65705e-05
1.65857e-05
1.66e-05
1.66135e-05
1.6627e-05
1.66402e-05
1.66517e-05
1.66608e-05
1.66672e-05
1.66692e-05
1.66679e-05
1.66622e-05
1.66477e-05
1.6619e-05
1.65683e-05
1.64882e-05
1.63735e-05
1.6221e-05
1.60283e-05
1.57894e-05
1.54946e-05
1.51435e-05
1.47411e-05
1.42949e-05
1.38179e-05
1.33313e-05
1.28672e-05
1.24713e-05
1.21732e-05
1.19228e-05
1.16912e-05
1.14753e-05
1.12815e-05
1.11157e-05
1.09803e-05
1.08732e-05
1.07864e-05
1.07109e-05
1.06436e-05
1.05853e-05
1.05367e-05
1.04983e-05
1.04688e-05
1.04456e-05
1.04267e-05
1.04109e-05
1.03981e-05
1.03879e-05
1.03802e-05
1.03742e-05
1.03694e-05
1.03656e-05
1.03624e-05
1.03599e-05
1.0358e-05
1.03566e-05
1.03555e-05
1.03546e-05
1.03539e-05
1.03533e-05
1.03528e-05
1.03525e-05
1.03522e-05
1.03519e-05
1.03517e-05
1.03516e-05
1.03515e-05
1.03514e-05
1.03513e-05
1.03512e-05
1.03512e-05
1.03512e-05
1.03511e-05
1.03511e-05
1.03511e-05
1.03511e-05
1.03511e-05
1.03511e-05
1.03511e-05
1.03511e-05
1.03511e-05
1.03511e-05
1.03511e-05
1.03511e-05
1.03511e-05
1.03511e-05
1.03511e-05
1.03511e-05
1.03511e-05
1.03511e-05
1.03511e-05
1.03511e-05
1.03511e-05
1.03511e-05
1.03511e-05
1.03511e-05
1.03511e-05
1.03511e-05
1.03511e-05
1.03511e-05
1.03512e-05
1.03512e-05
1.03512e-05
1.03512e-05
1.03512e-05
1.03512e-05
1.03512e-05
1.03512e-05
1.03512e-05
1.03512e-05
1.03512e-05
1.03512e-05
1.03513e-05
1.03513e-05
1.03513e-05
1.03513e-05
1.03513e-05
1.03513e-05
1.03513e-05
1.03513e-05
1.03514e-05
1.03514e-05
1.03514e-05
1.03514e-05
1.03514e-05
1.03515e-05
1.03515e-05
1.03515e-05
1.03515e-05
1.03515e-05
1.03516e-05
1.03516e-05
1.03516e-05
1.03517e-05
1.03517e-05
1.03517e-05
1.03517e-05
1.7567e-05
1.77589e-05
1.79206e-05
1.80557e-05
1.81675e-05
1.82593e-05
1.83339e-05
1.83939e-05
1.84414e-05
1.84781e-05
1.85063e-05
1.85288e-05
1.85475e-05
1.65954e-05
1.65686e-05
1.65432e-05
1.6519e-05
1.64956e-05
1.64734e-05
1.64523e-05
1.64328e-05
1.64147e-05
1.63981e-05
1.63832e-05
1.63698e-05
1.6358e-05
1.63478e-05
1.63389e-05
1.63315e-05
1.63254e-05
1.63205e-05
1.63171e-05
1.63165e-05
1.63171e-05
1.63191e-05
1.6323e-05
1.63293e-05
1.63376e-05
1.63476e-05
1.6359e-05
1.63718e-05
1.6385e-05
1.63976e-05
1.64092e-05
1.64191e-05
1.64277e-05
1.64356e-05
1.64413e-05
1.6446e-05
1.64503e-05
1.64533e-05
1.64568e-05
1.64613e-05
1.64661e-05
1.6471e-05
1.64762e-05
1.6482e-05
1.64884e-05
1.64953e-05
1.6503e-05
1.65118e-05
1.65213e-05
1.65309e-05
1.65408e-05
1.65515e-05
1.65633e-05
1.65762e-05
1.659e-05
1.66041e-05
1.66185e-05
1.66333e-05
1.66487e-05
1.66649e-05
1.66822e-05
1.67008e-05
1.67203e-05
1.674e-05
1.67596e-05
1.67793e-05
1.67981e-05
1.68156e-05
1.68322e-05
1.68475e-05
1.68615e-05
1.68747e-05
1.68858e-05
1.68919e-05
1.68923e-05
1.68871e-05
1.68675e-05
1.6825e-05
1.67538e-05
1.66506e-05
1.65131e-05
1.63385e-05
1.61206e-05
1.58501e-05
1.55208e-05
1.51387e-05
1.47104e-05
1.42447e-05
1.37559e-05
1.32677e-05
1.28144e-05
1.24376e-05
1.21517e-05
1.1901e-05
1.16634e-05
1.14417e-05
1.1244e-05
1.10764e-05
1.09408e-05
1.08339e-05
1.07463e-05
1.06701e-05
1.06042e-05
1.05496e-05
1.05067e-05
1.04742e-05
1.04494e-05
1.04297e-05
1.04135e-05
1.04004e-05
1.03901e-05
1.03821e-05
1.0376e-05
1.03711e-05
1.03671e-05
1.03638e-05
1.03612e-05
1.03591e-05
1.03574e-05
1.03561e-05
1.03551e-05
1.03543e-05
1.03536e-05
1.03531e-05
1.03526e-05
1.03523e-05
1.03521e-05
1.03519e-05
1.03517e-05
1.03516e-05
1.03515e-05
1.03514e-05
1.03514e-05
1.03513e-05
1.03513e-05
1.03513e-05
1.03513e-05
1.03513e-05
1.03513e-05
1.03513e-05
1.03513e-05
1.03513e-05
1.03513e-05
1.03513e-05
1.03513e-05
1.03513e-05
1.03514e-05
1.03514e-05
1.03514e-05
1.03514e-05
1.03514e-05
1.03514e-05
1.03515e-05
1.03515e-05
1.03515e-05
1.03515e-05
1.03515e-05
1.03516e-05
1.03516e-05
1.03516e-05
1.03516e-05
1.03517e-05
1.03517e-05
1.03517e-05
1.03517e-05
1.03518e-05
1.03518e-05
1.03519e-05
1.03519e-05
1.03519e-05
1.0352e-05
1.0352e-05
1.03521e-05
1.03521e-05
1.03522e-05
1.03522e-05
1.03523e-05
1.03523e-05
1.03524e-05
1.03525e-05
1.03525e-05
1.03526e-05
1.03527e-05
1.03528e-05
1.03529e-05
1.0353e-05
1.03531e-05
1.03532e-05
1.03533e-05
1.03534e-05
1.03535e-05
1.03536e-05
1.03535e-05
1.84591e-05
1.85159e-05
1.85604e-05
1.85945e-05
1.8621e-05
1.86424e-05
1.86603e-05
1.86752e-05
1.86875e-05
1.86971e-05
1.87034e-05
1.87066e-05
1.87068e-05
1.87062e-05
1.6783e-05
1.67544e-05
1.67279e-05
1.6702e-05
1.66767e-05
1.66523e-05
1.66292e-05
1.66076e-05
1.65877e-05
1.65693e-05
1.65526e-05
1.65377e-05
1.65244e-05
1.6513e-05
1.65031e-05
1.64947e-05
1.64879e-05
1.64826e-05
1.64783e-05
1.64754e-05
1.64753e-05
1.64758e-05
1.64771e-05
1.64801e-05
1.64852e-05
1.64912e-05
1.64978e-05
1.65056e-05
1.65144e-05
1.65226e-05
1.65295e-05
1.65349e-05
1.65407e-05
1.65457e-05
1.6549e-05
1.65515e-05
1.65527e-05
1.65533e-05
1.65544e-05
1.65557e-05
1.65572e-05
1.6559e-05
1.65615e-05
1.65643e-05
1.65675e-05
1.65712e-05
1.65755e-05
1.65806e-05
1.65864e-05
1.65927e-05
1.65996e-05
1.66073e-05
1.66159e-05
1.66255e-05
1.6636e-05
1.66474e-05
1.66598e-05
1.66732e-05
1.66877e-05
1.67035e-05
1.67206e-05
1.67391e-05
1.67587e-05
1.67792e-05
1.68e-05
1.68216e-05
1.68439e-05
1.68668e-05
1.68906e-05
1.69154e-05
1.69415e-05
1.69684e-05
1.69954e-05
1.70223e-05
1.7047e-05
1.7071e-05
1.70958e-05
1.71224e-05
1.71497e-05
1.7175e-05
1.71963e-05
1.7212e-05
1.72169e-05
1.72121e-05
1.71905e-05
1.71433e-05
1.70669e-05
1.69585e-05
1.68142e-05
1.66278e-05
1.63922e-05
1.61008e-05
1.57486e-05
1.5338e-05
1.48717e-05
1.43578e-05
1.38154e-05
1.32764e-05
1.27841e-05
1.23849e-05
1.20789e-05
1.18055e-05
1.15515e-05
1.13241e-05
1.11317e-05
1.09771e-05
1.08577e-05
1.07637e-05
1.06844e-05
1.06165e-05
1.05604e-05
1.05163e-05
1.04827e-05
1.04572e-05
1.0437e-05
1.04203e-05
1.04064e-05
1.03952e-05
1.03863e-05
1.03793e-05
1.03738e-05
1.03692e-05
1.03655e-05
1.03624e-05
1.036e-05
1.03581e-05
1.03566e-05
1.03555e-05
1.03546e-05
1.0354e-05
1.03534e-05
1.0353e-05
1.03527e-05
1.03525e-05
1.03523e-05
1.03522e-05
1.03521e-05
1.03521e-05
1.0352e-05
1.0352e-05
1.0352e-05
1.03521e-05
1.03521e-05
1.03521e-05
1.03521e-05
1.03522e-05
1.03522e-05
1.03523e-05
1.03523e-05
1.03524e-05
1.03524e-05
1.03525e-05
1.03525e-05
1.03526e-05
1.03527e-05
1.03527e-05
1.03528e-05
1.03529e-05
1.0353e-05
1.03531e-05
1.03532e-05
1.03533e-05
1.03534e-05
1.03535e-05
1.03536e-05
1.03537e-05
1.03538e-05
1.0354e-05
1.03541e-05
1.03542e-05
1.03544e-05
1.03546e-05
1.03547e-05
1.03549e-05
1.03551e-05
1.03553e-05
1.03555e-05
1.03557e-05
1.0356e-05
1.03562e-05
1.03565e-05
1.03568e-05
1.0357e-05
1.03573e-05
1.03577e-05
1.0358e-05
1.03583e-05
1.03587e-05
1.03591e-05
1.03595e-05
1.036e-05
1.03605e-05
1.03602e-05
1.87872e-05
1.87987e-05
1.88071e-05
1.8812e-05
1.88137e-05
1.88134e-05
1.88125e-05
1.88111e-05
1.88098e-05
1.88088e-05
1.88091e-05
1.88097e-05
1.88089e-05
1.88064e-05
1.69901e-05
1.69599e-05
1.69322e-05
1.6906e-05
1.68796e-05
1.68531e-05
1.6828e-05
1.68051e-05
1.67836e-05
1.67635e-05
1.67451e-05
1.67285e-05
1.67134e-05
1.67004e-05
1.66892e-05
1.66791e-05
1.66706e-05
1.66645e-05
1.6659e-05
1.66535e-05
1.6651e-05
1.66501e-05
1.66485e-05
1.66477e-05
1.66491e-05
1.66514e-05
1.6653e-05
1.6655e-05
1.66591e-05
1.66628e-05
1.66642e-05
1.66652e-05
1.66672e-05
1.66683e-05
1.66683e-05
1.66676e-05
1.66658e-05
1.66636e-05
1.66614e-05
1.66592e-05
1.66573e-05
1.66559e-05
1.6655e-05
1.66542e-05
1.66539e-05
1.66541e-05
1.66547e-05
1.66559e-05
1.66578e-05
1.66603e-05
1.66635e-05
1.66676e-05
1.66725e-05
1.66785e-05
1.66855e-05
1.66938e-05
1.67034e-05
1.67144e-05
1.67267e-05
1.67406e-05
1.6756e-05
1.6773e-05
1.67913e-05
1.68108e-05
1.68316e-05
1.68537e-05
1.68768e-05
1.69011e-05
1.69266e-05
1.69535e-05
1.69816e-05
1.70103e-05
1.70398e-05
1.70703e-05
1.71015e-05
1.71342e-05
1.71696e-05
1.72073e-05
1.72467e-05
1.72865e-05
1.73259e-05
1.73656e-05
1.74065e-05
1.74487e-05
1.74915e-05
1.75338e-05
1.75742e-05
1.76123e-05
1.76458e-05
1.7671e-05
1.76833e-05
1.76819e-05
1.76624e-05
1.76099e-05
1.75186e-05
1.73846e-05
1.72024e-05
1.69656e-05
1.66661e-05
1.62941e-05
1.5846e-05
1.53291e-05
1.47539e-05
1.41421e-05
1.353e-05
1.29659e-05
1.25006e-05
1.21561e-05
1.18674e-05
1.16047e-05
1.1371e-05
1.11734e-05
1.10144e-05
1.08912e-05
1.07952e-05
1.07151e-05
1.06455e-05
1.05862e-05
1.05378e-05
1.04997e-05
1.04703e-05
1.04472e-05
1.04283e-05
1.04125e-05
1.03996e-05
1.03894e-05
1.03815e-05
1.03754e-05
1.03705e-05
1.03666e-05
1.03634e-05
1.0361e-05
1.03592e-05
1.03578e-05
1.03568e-05
1.0356e-05
1.03555e-05
1.03551e-05
1.03549e-05
1.03547e-05
1.03547e-05
1.03547e-05
1.03547e-05
1.03547e-05
1.03548e-05
1.03549e-05
1.03551e-05
1.03552e-05
1.03554e-05
1.03556e-05
1.03557e-05
1.03559e-05
1.03561e-05
1.03564e-05
1.03566e-05
1.03569e-05
1.03571e-05
1.03574e-05
1.03577e-05
1.0358e-05
1.03584e-05
1.03587e-05
1.03591e-05
1.03595e-05
1.03599e-05
1.03603e-05
1.03607e-05
1.03611e-05
1.03616e-05
1.03621e-05
1.03626e-05
1.03632e-05
1.03638e-05
1.03644e-05
1.03651e-05
1.03658e-05
1.03666e-05
1.03674e-05
1.03682e-05
1.03691e-05
1.03701e-05
1.03711e-05
1.03722e-05
1.03733e-05
1.03744e-05
1.03756e-05
1.03769e-05
1.03782e-05
1.03796e-05
1.03811e-05
1.03827e-05
1.03845e-05
1.03835e-05
1.89219e-05
1.89205e-05
1.89195e-05
1.89197e-05
1.89194e-05
1.89174e-05
1.8914e-05
1.89089e-05
1.89031e-05
1.88974e-05
1.88929e-05
1.88897e-05
1.88867e-05
1.88833e-05
1.72075e-05
1.71762e-05
1.71478e-05
1.71208e-05
1.70952e-05
1.70668e-05
1.70399e-05
1.70156e-05
1.6993e-05
1.69718e-05
1.6952e-05
1.69338e-05
1.69169e-05
1.69019e-05
1.68892e-05
1.68768e-05
1.68663e-05
1.68584e-05
1.68514e-05
1.68433e-05
1.68377e-05
1.68347e-05
1.68304e-05
1.68251e-05
1.68227e-05
1.68212e-05
1.6818e-05
1.68152e-05
1.68145e-05
1.68133e-05
1.68096e-05
1.68065e-05
1.68039e-05
1.68008e-05
1.67971e-05
1.67927e-05
1.67875e-05
1.6782e-05
1.67765e-05
1.67708e-05
1.67654e-05
1.67604e-05
1.67557e-05
1.67514e-05
1.67473e-05
1.67437e-05
1.67406e-05
1.6738e-05
1.67359e-05
1.67344e-05
1.67339e-05
1.67342e-05
1.67352e-05
1.67375e-05
1.6741e-05
1.67459e-05
1.67522e-05
1.67602e-05
1.67697e-05
1.6781e-05
1.6794e-05
1.68087e-05
1.68252e-05
1.68432e-05
1.6863e-05
1.68843e-05
1.6907e-05
1.69311e-05
1.69568e-05
1.69839e-05
1.70122e-05
1.70417e-05
1.70727e-05
1.71047e-05
1.7138e-05
1.71736e-05
1.7211e-05
1.72499e-05
1.72907e-05
1.73321e-05
1.7375e-05
1.74212e-05
1.74667e-05
1.75143e-05
1.75674e-05
1.76205e-05
1.76739e-05
1.77313e-05
1.77894e-05
1.78468e-05
1.79014e-05
1.79523e-05
1.80006e-05
1.80449e-05
1.80843e-05
1.81171e-05
1.81393e-05
1.81451e-05
1.81373e-05
1.81033e-05
1.80302e-05
1.79126e-05
1.77474e-05
1.75308e-05
1.72571e-05
1.69198e-05
1.65127e-05
1.6034e-05
1.54927e-05
1.49012e-05
1.42808e-05
1.36647e-05
1.3095e-05
1.26156e-05
1.22559e-05
1.19695e-05
1.171e-05
1.14734e-05
1.12661e-05
1.10922e-05
1.09523e-05
1.08423e-05
1.07528e-05
1.06755e-05
1.06088e-05
1.05536e-05
1.05102e-05
1.04771e-05
1.04518e-05
1.04317e-05
1.04153e-05
1.04021e-05
1.0392e-05
1.03843e-05
1.03785e-05
1.0374e-05
1.03706e-05
1.03679e-05
1.03661e-05
1.03648e-05
1.03641e-05
1.03637e-05
1.03636e-05
1.03636e-05
1.03638e-05
1.0364e-05
1.03644e-05
1.03649e-05
1.03654e-05
1.03659e-05
1.03665e-05
1.03672e-05
1.03679e-05
1.03687e-05
1.03695e-05
1.03703e-05
1.03712e-05
1.03722e-05
1.03733e-05
1.03744e-05
1.03755e-05
1.03768e-05
1.03781e-05
1.03794e-05
1.03808e-05
1.03823e-05
1.03838e-05
1.03853e-05
1.0387e-05
1.03887e-05
1.03905e-05
1.03924e-05
1.03944e-05
1.03965e-05
1.03988e-05
1.04012e-05
1.04038e-05
1.04065e-05
1.04095e-05
1.04126e-05
1.0416e-05
1.04195e-05
1.04232e-05
1.04271e-05
1.04312e-05
1.04354e-05
1.04399e-05
1.04445e-05
1.04494e-05
1.04545e-05
1.04599e-05
1.04665e-05
1.04635e-05
1.90205e-05
1.90141e-05
1.90081e-05
1.90034e-05
1.89995e-05
1.89956e-05
1.89909e-05
1.89853e-05
1.8979e-05
1.89724e-05
1.89661e-05
1.89607e-05
1.89567e-05
1.74273e-05
1.73956e-05
1.7367e-05
1.73396e-05
1.73139e-05
1.7285e-05
1.72566e-05
1.72312e-05
1.7208e-05
1.7186e-05
1.71652e-05
1.71455e-05
1.7127e-05
1.71102e-05
1.70953e-05
1.70807e-05
1.70682e-05
1.70581e-05
1.70487e-05
1.70376e-05
1.70294e-05
1.70237e-05
1.70158e-05
1.70072e-05
1.7001e-05
1.69955e-05
1.69878e-05
1.69812e-05
1.69761e-05
1.69694e-05
1.69615e-05
1.69545e-05
1.69475e-05
1.69401e-05
1.69324e-05
1.69243e-05
1.69157e-05
1.69068e-05
1.68977e-05
1.68886e-05
1.68797e-05
1.68711e-05
1.68628e-05
1.68547e-05
1.6847e-05
1.68397e-05
1.68328e-05
1.68263e-05
1.68204e-05
1.6815e-05
1.68106e-05
1.68069e-05
1.68042e-05
1.68028e-05
1.6803e-05
1.68043e-05
1.68072e-05
1.68118e-05
1.68181e-05
1.68264e-05
1.68365e-05
1.68486e-05
1.68627e-05
1.68787e-05
1.68967e-05
1.69165e-05
1.6938e-05
1.69613e-05
1.69863e-05
1.70128e-05
1.70408e-05
1.70705e-05
1.71016e-05
1.71339e-05
1.71681e-05
1.7204e-05
1.72412e-05
1.72804e-05
1.73212e-05
1.73622e-05
1.74061e-05
1.74521e-05
1.74983e-05
1.75481e-05
1.76001e-05
1.76524e-05
1.77086e-05
1.77667e-05
1.78213e-05
1.78771e-05
1.79353e-05
1.79926e-05
1.805e-05
1.81088e-05
1.81671e-05
1.8223e-05
1.82755e-05
1.83224e-05
1.83608e-05
1.83907e-05
1.841e-05
1.84174e-05
1.84168e-05
1.84087e-05
1.83854e-05
1.83409e-05
1.82706e-05
1.81686e-05
1.80282e-05
1.78433e-05
1.76119e-05
1.73319e-05
1.69998e-05
1.66117e-05
1.61651e-05
1.5665e-05
1.51197e-05
1.45403e-05
1.39463e-05
1.33689e-05
1.28479e-05
1.24236e-05
1.21031e-05
1.18233e-05
1.15651e-05
1.13347e-05
1.11395e-05
1.09821e-05
1.08599e-05
1.07635e-05
1.06823e-05
1.06134e-05
1.05574e-05
1.05143e-05
1.04822e-05
1.04582e-05
1.04397e-05
1.04252e-05
1.04142e-05
1.04063e-05
1.04009e-05
1.03975e-05
1.03954e-05
1.03943e-05
1.03941e-05
1.03943e-05
1.03951e-05
1.03963e-05
1.03978e-05
1.03995e-05
1.04014e-05
1.04035e-05
1.04058e-05
1.04082e-05
1.04108e-05
1.04136e-05
1.04166e-05
1.04198e-05
1.04232e-05
1.04269e-05
1.04308e-05
1.04349e-05
1.04393e-05
1.04438e-05
1.04486e-05
1.04535e-05
1.04586e-05
1.04638e-05
1.04693e-05
1.0475e-05
1.0481e-05
1.04872e-05
1.04939e-05
1.05008e-05
1.05083e-05
1.05162e-05
1.05246e-05
1.05337e-05
1.05434e-05
1.05539e-05
1.05652e-05
1.05772e-05
1.05901e-05
1.06037e-05