/*--------------------------------*- C++ -*----------------------------------*\
| =========                 |                                                 |
| \\      /  F ield         | OpenFOAM: The Open Source CFD Toolbox           |
|  \\    /   O peration     | Version:  v1706                                 |
|   \\  /    A nd           | Web:      www.OpenFOAM.com                      |
|    \\/     M anipulation  |                                                 |
\*---------------------------------------------------------------------------*/
FoamFile
{
    version     2.0;
    format      ascii;
    class       volScalarField;
    location    "3.8e-05";
    object      rho;
}
// * * * * * * * * * * * * * * * * * * * * * * * * * * * * * * * * * * * * * //

dimensions      [1 -3 0 0 0 0 0];


internalField   nonuniform List<scalar> 
30104
(
0.00051144
0.00051146
0.000511483
0.000511508
0.000511538
0.000511573
0.000511615
0.000511663
0.00051172
0.000511784
0.000511857
0.000511939
0.000512028
0.000512127
0.000512237
0.000512361
0.000512506
0.000675812
0.000670567
0.000665346
0.000660156
0.000655
0.000649877
0.000644783
0.000639708
0.000634644
0.000629577
0.000624493
0.000619375
0.000614208
0.000608975
0.000603666
0.000598283
0.000592836
0.000587342
0.000581818
0.00057629
0.000570675
0.000564965
0.000560519
0.000557455
0.000555183
0.000553257
0.00055144
0.000549619
0.00054775
0.000545835
0.000543896
0.000541966
0.000540067
0.000538206
0.000536385
0.000534601
0.000532832
0.000531097
0.000529462
0.000527864
0.000526298
0.000525146
0.000524351
0.000523542
0.000522619
0.00052162
0.000520573
0.000519496
0.000518422
0.00051737
0.000516322
0.000515302
0.000514427
0.000513775
0.000513316
0.000512975
0.000512696
0.000512459
0.000512266
0.000512125
0.000512023
0.000511933
0.000511846
0.000511765
0.00051169
0.00051162
0.000511552
0.000511491
0.000511442
0.000511409
0.000511386
0.00051137
0.000511358
0.000511349
0.000511343
0.000511338
0.000511334
0.00051133
0.000511326
0.000511323
0.000511319
0.000511316
0.000511314
0.000511313
0.000511312
0.000511311
0.000511311
0.000511311
0.00051131
0.00051131
0.00051131
0.00051131
0.00051131
0.00051131
0.00051131
0.000511309
0.000511309
0.000511309
0.000511309
0.000511309
0.000511309
0.000511309
0.000511309
0.000511309
0.000511309
0.000511309
0.000511309
0.000511309
0.000511309
0.000511309
0.000511309
0.000511309
0.000511309
0.000511309
0.000511309
0.000511309
0.000511309
0.000511309
0.000511309
0.000511309
0.000511309
0.000511309
0.000511309
0.000511309
0.000511309
0.000511309
0.000511309
0.000511309
0.000511309
0.000511309
0.000511309
0.000511309
0.000511309
0.000511309
0.000511309
0.000511309
0.000511309
0.000511309
0.000511309
0.000511309
0.000511309
0.000511309
0.000511309
0.000511309
0.000511309
0.000511309
0.000511309
0.000511309
0.000511309
0.000511309
0.000511309
0.000511309
0.000511309
0.000511309
0.000511309
0.000511309
0.000511309
0.000511309
0.000511309
0.000511309
0.000511309
0.000511309
0.000511309
0.000511309
0.000511309
0.000511309
0.000511309
0.000511309
0.000511309
0.000511309
0.000511309
0.000511309
0.000511309
0.000511309
0.000511309
0.000511309
0.000511309
0.000511309
0.000511309
0.000511309
0.000511309
0.000511309
0.000511309
0.000511309
0.000511309
0.000511309
0.000511309
0.000511309
0.000511309
0.000511309
0.000511309
0.000511309
0.000511309
0.000511998
0.000512108
0.000512234
0.000512379
0.000512543
0.000512728
0.00051294
0.000513183
0.000513463
0.00051379
0.00051417
0.000514616
0.000515136
0.000515738
0.000516425
0.000517201
0.000518063
0.00136857
0.00135922
0.00134986
0.00134051
0.00133117
0.00132187
0.00131261
0.00130336
0.00129413
0.00128488
0.00127559
0.00126621
0.00125671
0.00124701
0.00123706
0.00122676
0.001216
0.00120467
0.00119266
0.00117985
0.0011661
0.0011513
0.00113455
0.00111603
0.00109626
0.00107546
0.00105361
0.00103071
0.00100674
0.000981654
0.000955361
0.00092779
0.000899013
0.000869305
0.000839074
0.000808688
0.000778432
0.000748592
0.000719373
0.00069082
0.000663119
0.000636911
0.000614571
0.00059911
0.000588188
0.000579352
0.000571402
0.000563927
0.000556851
0.000550213
0.000544303
0.000539497
0.000535642
0.00053232
0.000529333
0.000526641
0.00052424
0.000522103
0.000520176
0.000518449
0.000516992
0.000515856
0.000514997
0.000514326
0.000513774
0.000513313
0.000512943
0.000512651
0.000512415
0.000512218
0.000512052
0.000511913
0.000511794
0.00051169
0.000511601
0.000511531
0.00051148
0.000511443
0.000511414
0.000511392
0.000511375
0.000511362
0.000511351
0.000511343
0.000511337
0.000511331
0.000511326
0.000511322
0.000511318
0.000511316
0.000511314
0.000511313
0.000511312
0.000511312
0.000511311
0.000511311
0.000511311
0.00051131
0.00051131
0.00051131
0.00051131
0.00051131
0.00051131
0.000511309
0.000511309
0.000511309
0.000511309
0.000511309
0.000511309
0.000511309
0.000511309
0.000511309
0.000511309
0.000511309
0.000511309
0.000511309
0.000511309
0.000511309
0.000511309
0.000511309
0.000511309
0.000511309
0.000511309
0.000511309
0.000511309
0.000511309
0.000511309
0.000511309
0.000511309
0.000511309
0.000511309
0.000511309
0.000511309
0.000511309
0.000511309
0.000511309
0.000511309
0.000511309
0.000511309
0.000511309
0.000511309
0.000511309
0.000511309
0.000511309
0.000511309
0.000511309
0.000511309
0.000511309
0.000511309
0.000511309
0.000511309
0.000511309
0.000511309
0.000511309
0.000511309
0.000511309
0.000511309
0.000511309
0.000511309
0.000511309
0.000511309
0.000511309
0.000511309
0.000511309
0.000511309
0.000511309
0.000511309
0.000511309
0.000511309
0.000511309
0.000511309
0.000511309
0.000511309
0.000511309
0.000511309
0.000511309
0.000511309
0.000511309
0.000511309
0.000511309
0.000511309
0.000511309
0.000511309
0.000511309
0.000511309
0.000511309
0.000511309
0.000511309
0.000511309
0.000511309
0.000511309
0.000511309
0.000511309
0.000513693
0.000514064
0.000514497
0.000515003
0.000515595
0.000516284
0.000517078
0.000517983
0.000519002
0.000520144
0.000521422
0.000522859
0.000524503
0.000526424
0.000528698
0.000531393
0.00168111
0.00167454
0.00166769
0.00166054
0.00165309
0.00164534
0.00163729
0.00162897
0.00162038
0.00161156
0.00160253
0.00159331
0.00158396
0.00157452
0.00156507
0.00155567
0.00154633
0.00153702
0.00152763
0.00151803
0.00150809
0.00149761
0.00148634
0.00147432
0.0014618
0.00144919
0.00143658
0.00142355
0.00140984
0.00139559
0.00138099
0.00136616
0.0013511
0.00133556
0.00131901
0.00130091
0.00128087
0.00125868
0.00123404
0.00120641
0.00117523
0.00114011
0.00109989
0.00105258
0.00100044
0.000946425
0.00089255
0.000839941
0.000789214
0.000740917
0.000695822
0.000655198
0.000622478
0.000600773
0.000585916
0.000574323
0.00056443
0.000555714
0.000548227
0.000542239
0.000537548
0.000533597
0.000530086
0.000526973
0.000524256
0.00052187
0.000519741
0.000517898
0.000516442
0.000515368
0.000514568
0.000513936
0.000513423
0.000513016
0.0005127
0.00051245
0.000512241
0.000512066
0.000511918
0.000511791
0.00051168
0.000511588
0.000511519
0.00051147
0.000511435
0.000511408
0.000511386
0.000511371
0.000511359
0.000511349
0.000511342
0.000511335
0.000511329
0.000511324
0.00051132
0.000511317
0.000511315
0.000511314
0.000511313
0.000511312
0.000511312
0.000511311
0.000511311
0.00051131
0.00051131
0.00051131
0.00051131
0.00051131
0.00051131
0.00051131
0.00051131
0.000511309
0.000511309
0.000511309
0.000511309
0.000511309
0.000511309
0.000511309
0.000511309
0.000511309
0.000511309
0.000511309
0.000511309
0.000511309
0.000511309
0.000511309
0.000511309
0.000511309
0.000511309
0.000511309
0.000511309
0.000511309
0.000511309
0.000511309
0.000511309
0.000511309
0.000511309
0.000511309
0.000511309
0.000511309
0.000511309
0.000511309
0.000511309
0.000511309
0.000511309
0.000511309
0.000511309
0.000511309
0.000511309
0.000511309
0.000511309
0.000511309
0.000511309
0.000511309
0.000511309
0.000511309
0.000511309
0.000511309
0.000511309
0.000511309
0.000511309
0.000511309
0.000511309
0.000511309
0.000511309
0.000511309
0.000511309
0.000511309
0.000511309
0.000511309
0.000511309
0.000511309
0.000511309
0.000511309
0.000511309
0.000511309
0.000511309
0.000511309
0.000511309
0.000511309
0.000511309
0.000511309
0.000511309
0.000511309
0.000511309
0.000511309
0.000511309
0.000511309
0.000511309
0.00051131
0.00051131
0.00051131
0.00051131
0.000519316
0.00052056
0.000521962
0.000523545
0.000525351
0.000527451
0.000529927
0.000532855
0.000536307
0.00054032
0.000544962
0.00055031
0.000556364
0.000563088
0.000570465
0.00057856
0.0016908
0.00168628
0.00168181
0.00167736
0.00167295
0.00166855
0.00166415
0.00165975
0.00165532
0.00165085
0.00164631
0.00164169
0.00163695
0.00163208
0.00162707
0.00162195
0.00161674
0.00161137
0.00160583
0.00160013
0.00159427
0.00158815
0.00158161
0.00157461
0.00156729
0.00155984
0.00155242
0.00154524
0.00153814
0.00153074
0.00152277
0.00151423
0.00150532
0.00149631
0.00148731
0.00147832
0.00146921
0.00145972
0.00144959
0.00143875
0.00142719
0.00141512
0.00140221
0.00138762
0.00137057
0.00135055
0.00132713
0.00129966
0.00126732
0.0012296
0.00118643
0.00113778
0.00108244
0.00101904
0.000952223
0.000886589
0.000824332
0.000766243
0.000712908
0.000665392
0.000626745
0.000601019
0.000584324
0.000571802
0.000561343
0.000552365
0.000545032
0.000539414
0.000534966
0.000531127
0.000527738
0.000524797
0.000522237
0.00051996
0.00051798
0.000516422
0.000515302
0.000514487
0.000513851
0.000513337
0.000512936
0.000512634
0.000512396
0.0005122
0.000512033
0.000511892
0.000511768
0.000511659
0.00051157
0.000511505
0.000511459
0.000511426
0.0005114
0.000511381
0.000511366
0.000511356
0.000511347
0.00051134
0.000511334
0.000511328
0.000511323
0.000511319
0.000511317
0.000511315
0.000511314
0.000511313
0.000511312
0.000511312
0.000511311
0.000511311
0.000511311
0.00051131
0.00051131
0.00051131
0.00051131
0.00051131
0.00051131
0.00051131
0.00051131
0.00051131
0.000511309
0.000511309
0.000511309
0.000511309
0.000511309
0.000511309
0.000511309
0.000511309
0.000511309
0.000511309
0.000511309
0.000511309
0.000511309
0.000511309
0.000511309
0.000511309
0.000511309
0.000511309
0.000511309
0.000511309
0.000511309
0.000511309
0.000511309
0.000511309
0.000511309
0.000511309
0.000511309
0.000511309
0.000511309
0.000511309
0.000511309
0.000511309
0.000511309
0.00051131
0.00051131
0.00051131
0.00051131
0.00051131
0.00051131
0.00051131
0.00051131
0.00051131
0.00051131
0.00051131
0.00051131
0.00051131
0.00051131
0.00051131
0.00051131
0.00051131
0.00051131
0.00051131
0.00051131
0.00051131
0.00051131
0.00051131
0.00051131
0.00051131
0.00051131
0.00051131
0.00051131
0.00051131
0.00051131
0.00051131
0.00051131
0.00051131
0.00051131
0.00051131
0.00051131
0.00051131
0.00051131
0.00051131
0.00051131
0.000536656
0.000540791
0.000545608
0.000551205
0.000557599
0.000564769
0.000572692
0.000581423
0.000591085
0.000601954
0.000614201
0.00062857
0.000647286
0.000671623
0.000702233
0.00168569
0.00168138
0.0016771
0.00167282
0.00166854
0.00166425
0.00165994
0.00165559
0.00165119
0.00164671
0.00164215
0.00163748
0.00163268
0.00162773
0.00162264
0.00161743
0.00161213
0.00160672
0.00160118
0.00159556
0.00158989
0.00158407
0.00157796
0.00157153
0.00156488
0.00155817
0.00155154
0.00154519
0.0015395
0.00153446
0.00153006
0.00152618
0.00152275
0.00151966
0.00151675
0.0015139
0.001511
0.00150791
0.00150473
0.00150134
0.00149751
0.00149318
0.00148838
0.00148313
0.00147742
0.00147112
0.00146396
0.00145566
0.00144654
0.0014372
0.00142737
0.00141597
0.0014015
0.00138272
0.00135891
0.00132954
0.00129413
0.0012524
0.00120435
0.00115018
0.00108942
0.00102065
0.000948184
0.000877332
0.00081052
0.000748819
0.000693282
0.000645823
0.000610615
0.000589095
0.000574669
0.000563281
0.000553623
0.000545691
0.000539672
0.000535076
0.000531189
0.000527751
0.000524755
0.00052215
0.000519837
0.000517831
0.000516268
0.000515171
0.000514384
0.000513767
0.000513268
0.000512881
0.000512593
0.00051237
0.000512184
0.000512024
0.000511884
0.000511761
0.000511652
0.000511563
0.000511498
0.000511453
0.000511421
0.000511396
0.000511378
0.000511365
0.000511355
0.000511347
0.00051134
0.000511333
0.000511328
0.000511323
0.00051132
0.000511317
0.000511315
0.000511314
0.000511313
0.000511313
0.000511312
0.000511312
0.000511311
0.000511311
0.000511311
0.00051131
0.00051131
0.00051131
0.00051131
0.00051131
0.00051131
0.00051131
0.00051131
0.00051131
0.00051131
0.00051131
0.00051131
0.00051131
0.00051131
0.00051131
0.00051131
0.00051131
0.00051131
0.00051131
0.00051131
0.00051131
0.00051131
0.00051131
0.00051131
0.00051131
0.00051131
0.00051131
0.00051131
0.00051131
0.00051131
0.00051131
0.00051131
0.00051131
0.00051131
0.00051131
0.00051131
0.00051131
0.00051131
0.00051131
0.00051131
0.00051131
0.00051131
0.00051131
0.00051131
0.00051131
0.00051131
0.00051131
0.00051131
0.00051131
0.00051131
0.00051131
0.000511311
0.000511311
0.000511311
0.000511311
0.000511311
0.000511311
0.000511311
0.000511311
0.000511311
0.000511311
0.000511311
0.000511311
0.000511311
0.000511311
0.000511311
0.000511312
0.000511312
0.000511312
0.000511312
0.000511312
0.000511312
0.000511312
0.000511312
0.000580874
0.000590863
0.000602041
0.000614617
0.000629183
0.000647894
0.000672118
0.000702673
0.000739873
0.000783599
0.000833471
0.000888965
0.000948876
0.00101052
0.00107223
0.00113281
0.00166505
0.00166106
0.00165708
0.00165314
0.00164922
0.00164532
0.00164145
0.00163759
0.00163373
0.00162986
0.00162597
0.00162204
0.00161802
0.00161389
0.00160962
0.00160518
0.00160059
0.00159578
0.00159073
0.00158551
0.0015802
0.00157477
0.00156918
0.00156338
0.00155744
0.00155147
0.00154565
0.00154012
0.00153495
0.00153028
0.00152616
0.0015225
0.00151922
0.00151629
0.00151354
0.00151088
0.00150843
0.00150589
0.00150301
0.00150045
0.00149888
0.00149794
0.00149723
0.00149664
0.00149614
0.00149563
0.00149506
0.00149482
0.00149489
0.00149403
0.00149237
0.00149025
0.00148746
0.00148357
0.00147821
0.0014713
0.00146332
0.00145471
0.00144511
0.00143355
0.00141825
0.0013973
0.00136955
0.00133459
0.00129254
0.00124375
0.00118857
0.00112738
0.00105936
0.000984455
0.000908611
0.000836034
0.000768743
0.000708235
0.000656233
0.000615953
0.000590716
0.000575204
0.000563511
0.000553671
0.000545582
0.000539493
0.000534986
0.000531259
0.000527915
0.00052495
0.000522354
0.000520045
0.000518018
0.000516394
0.000515235
0.000514416
0.000513787
0.000513281
0.000512888
0.000512597
0.000512375
0.000512191
0.000512029
0.000511886
0.000511757
0.000511646
0.000511558
0.000511495
0.000511452
0.00051142
0.000511397
0.000511381
0.000511368
0.000511358
0.00051135
0.000511342
0.000511336
0.00051133
0.000511325
0.000511321
0.000511319
0.000511317
0.000511315
0.000511314
0.000511313
0.000511313
0.000511312
0.000511312
0.000511312
0.000511311
0.000511311
0.000511311
0.000511311
0.00051131
0.00051131
0.00051131
0.00051131
0.00051131
0.00051131
0.000511311
0.000511311
0.000511311
0.000511311
0.000511311
0.000511311
0.000511311
0.000511311
0.000511311
0.000511311
0.000511311
0.000511311
0.000511311
0.000511311
0.000511311
0.000511311
0.000511311
0.000511311
0.000511311
0.000511312
0.000511312
0.000511312
0.000511312
0.000511312
0.000511312
0.000511312
0.000511312
0.000511312
0.000511312
0.000511313
0.000511313
0.000511313
0.000511313
0.000511313
0.000511313
0.000511314
0.000511314
0.000511314
0.000511314
0.000511314
0.000511315
0.000511315
0.000511315
0.000511315
0.000511316
0.000511316
0.000511316
0.000511317
0.000511317
0.000511317
0.000511318
0.000511318
0.000511319
0.000511319
0.000511319
0.00051132
0.00051132
0.000511321
0.00072705
0.000768849
0.00081729
0.000871921
0.00093171
0.000994067
0.00105718
0.00111968
0.0011805
0.00123878
0.00129384
0.00134526
0.0013927
0.00163988
0.0016363
0.00163273
0.00162918
0.00162563
0.00162209
0.00161857
0.0016151
0.00161166
0.00160826
0.00160488
0.00160151
0.00159811
0.00159466
0.00159109
0.0015874
0.00158351
0.00157938
0.00157497
0.00157035
0.00156557
0.00156066
0.00155565
0.00155057
0.00154537
0.00154014
0.00153509
0.00153035
0.0015259
0.00152182
0.00151818
0.00151484
0.00151164
0.00150911
0.0015068
0.00150466
0.00150289
0.00150077
0.00149846
0.00149694
0.00149602
0.0014954
0.00149501
0.00149482
0.00149476
0.00149472
0.00149469
0.00149507
0.00149606
0.00149714
0.00149822
0.00149937
0.00150068
0.00150219
0.00150378
0.00150529
0.00150665
0.00150746
0.00150723
0.00150603
0.00150335
0.00149893
0.00149296
0.0014861
0.00147886
0.0014707
0.0014604
0.00144635
0.00142642
0.00139889
0.00136329
0.00132008
0.00127004
0.00121376
0.00115185
0.00108405
0.00100886
0.000930281
0.000854135
0.000783607
0.000720581
0.000666481
0.000623261
0.000593882
0.00057698
0.000565104
0.000555164
0.000546831
0.000540414
0.000535739
0.000532087
0.000528841
0.000525846
0.000523148
0.000520728
0.000518572
0.000516773
0.000515434
0.000514502
0.000513827
0.000513307
0.000512909
0.000512614
0.00051239
0.000512203
0.00051204
0.000511894
0.000511765
0.000511655
0.000511569
0.000511506
0.000511463
0.000511431
0.000511407
0.000511389
0.000511376
0.000511365
0.000511356
0.000511348
0.000511341
0.000511334
0.000511329
0.000511324
0.000511321
0.000511319
0.000511317
0.000511316
0.000511315
0.000511315
0.000511314
0.000511314
0.000511314
0.000511314
0.000511314
0.000511313
0.000511313
0.000511313
0.000511313
0.000511314
0.000511314
0.000511314
0.000511314
0.000511314
0.000511314
0.000511314
0.000511315
0.000511315
0.000511315
0.000511315
0.000511316
0.000511316
0.000511316
0.000511316
0.000511317
0.000511317
0.000511317
0.000511318
0.000511318
0.000511318
0.000511319
0.000511319
0.00051132
0.00051132
0.000511321
0.000511321
0.000511322
0.000511322
0.000511323
0.000511323
0.000511324
0.000511325
0.000511325
0.000511326
0.000511327
0.000511328
0.000511328
0.000511329
0.00051133
0.000511331
0.000511332
0.000511333
0.000511334
0.000511335
0.000511337
0.000511338
0.000511339
0.000511341
0.000511342
0.000511344
0.000511346
0.000511348
0.00051135
0.000511352
0.00114873
0.00121015
0.00126864
0.00132357
0.00137447
0.00142077
0.00146209
0.00149828
0.00152946
0.00155584
0.00157771
0.00159587
0.00161117
0.0016111
0.00160791
0.00160484
0.0016018
0.00159867
0.00159549
0.00159232
0.00158919
0.00158613
0.00158312
0.00158017
0.00157726
0.00157439
0.00157152
0.00156859
0.00156558
0.00156245
0.00155908
0.0015554
0.00155153
0.00154753
0.00154328
0.00153891
0.00153461
0.00153027
0.00152581
0.00152145
0.00151751
0.00151393
0.0015106
0.00150745
0.00150418
0.00150141
0.00149955
0.00149781
0.00149637
0.00149508
0.0014933
0.00149179
0.00149097
0.00149051
0.00149031
0.0014903
0.00149052
0.00149095
0.00149145
0.00149204
0.0014929
0.00149405
0.00149536
0.00149676
0.00149827
0.00149993
0.00150172
0.00150361
0.00150565
0.00150779
0.00151001
0.00151235
0.0015147
0.00151703
0.00151934
0.0015216
0.00152367
0.00152524
0.00152589
0.00152556
0.00152367
0.00151981
0.00151454
0.00150891
0.00150338
0.00149695
0.00148795
0.0014746
0.00145478
0.00142667
0.00139011
0.00134632
0.00129652
0.00124131
0.00118095
0.00111519
0.0010427
0.000964141
0.000886439
0.000814127
0.00074909
0.000692308
0.000644734
0.000608067
0.000584003
0.000569827
0.000559104
0.000550008
0.000542687
0.000537244
0.000533202
0.000529851
0.000526748
0.000523846
0.00052122
0.000518905
0.000516986
0.000515556
0.000514571
0.000513878
0.000513359
0.000512966
0.000512672
0.000512447
0.00051226
0.000512096
0.000511949
0.000511817
0.000511703
0.00051161
0.000511539
0.000511488
0.00051145
0.000511422
0.000511401
0.000511385
0.000511373
0.000511364
0.000511355
0.000511348
0.000511341
0.000511335
0.000511331
0.000511328
0.000511326
0.000511325
0.000511324
0.000511324
0.000511324
0.000511324
0.000511324
0.000511325
0.000511325
0.000511325
0.000511326
0.000511326
0.000511327
0.000511327
0.000511328
0.000511329
0.000511329
0.00051133
0.000511331
0.000511332
0.000511333
0.000511334
0.000511335
0.000511336
0.000511337
0.000511338
0.000511339
0.000511341
0.000511342
0.000511343
0.000511345
0.000511346
0.000511348
0.00051135
0.000511352
0.000511353
0.000511355
0.000511358
0.00051136
0.000511362
0.000511365
0.000511368
0.000511371
0.000511374
0.000511377
0.00051138
0.000511384
0.000511388
0.000511392
0.000511396
0.0005114
0.000511405
0.00051141
0.000511415
0.00051142
0.000511426
0.000511432
0.000511438
0.000511445
0.000511452
0.00051146
0.000511466
0.00147669
0.00151226
0.00154268
0.0015681
0.00158912
0.0016066
0.00162138
0.00163391
0.00164449
0.0016534
0.00166052
0.00166559
0.00166876
0.00167062
0.00157993
0.00157711
0.00157487
0.00157241
0.00156971
0.00156687
0.00156401
0.00156123
0.00155854
0.00155592
0.00155337
0.00155086
0.00154841
0.00154604
0.00154366
0.00154118
0.00153871
0.00153616
0.00153323
0.00153003
0.00152691
0.00152359
0.00151988
0.00151628
0.00151297
0.00150948
0.00150577
0.00150247
0.00149987
0.00149743
0.00149468
0.00149159
0.00148966
0.0014884
0.00148727
0.00148641
0.00148536
0.00148418
0.00148344
0.00148312
0.00148302
0.00148312
0.00148354
0.00148426
0.00148513
0.00148609
0.00148721
0.00148849
0.00148994
0.00149155
0.0014933
0.00149518
0.00149719
0.0014993
0.0015015
0.00150374
0.00150607
0.00150853
0.0015111
0.00151368
0.00151626
0.0015188
0.00152133
0.00152398
0.00152678
0.00152975
0.00153278
0.00153566
0.00153851
0.00154153
0.00154478
0.00154766
0.00154931
0.00154962
0.00154841
0.00154524
0.00154161
0.00153871
0.00153568
0.00153091
0.00152275
0.00150977
0.00149016
0.00146268
0.00142796
0.00138727
0.00134125
0.00128988
0.00123291
0.00117005
0.00110113
0.00102585
0.00094633
0.000869262
0.000798029
0.000733884
0.000677877
0.000631518
0.000596888
0.000575147
0.000562253
0.000552325
0.000544306
0.000538273
0.000533869
0.000530371
0.000527213
0.000524251
0.00052157
0.00051923
0.000517297
0.00051584
0.00051482
0.000514102
0.000513561
0.000513142
0.000512822
0.000512576
0.000512374
0.000512197
0.000512037
0.000511892
0.000511764
0.000511657
0.000511574
0.000511514
0.000511472
0.000511442
0.00051142
0.000511406
0.000511395
0.000511387
0.00051138
0.000511374
0.000511368
0.000511364
0.000511361
0.00051136
0.00051136
0.00051136
0.000511361
0.000511363
0.000511364
0.000511366
0.000511368
0.00051137
0.000511373
0.000511375
0.000511378
0.000511381
0.000511384
0.000511387
0.00051139
0.000511394
0.000511398
0.000511402
0.000511406
0.000511411
0.000511416
0.000511421
0.000511426
0.000511432
0.000511438
0.000511444
0.000511451
0.000511457
0.000511464
0.000511472
0.00051148
0.000511488
0.000511496
0.000511505
0.000511515
0.000511525
0.000511535
0.000511546
0.000511558
0.00051157
0.000511583
0.000511596
0.00051161
0.000511625
0.00051164
0.000511657
0.000511675
0.000511694
0.000511714
0.000511736
0.000511758
0.000511782
0.000511807
0.000511835
0.000511861
0.00164022
0.00165055
0.00165905
0.00166545
0.00166966
0.00167214
0.00167357
0.00167409
0.00167424
0.00167421
0.00167449
0.00167537
0.00167638
0.00167697
0.00154824
0.00154545
0.00154349
0.00154197
0.00153997
0.00153728
0.00153459
0.00153227
0.00152999
0.00152771
0.00152553
0.00152344
0.00152132
0.00151938
0.0015176
0.00151553
0.00151344
0.00151177
0.00150973
0.00150696
0.00150454
0.00150243
0.00149961
0.00149641
0.00149406
0.00149176
0.00148876
0.00148584
0.00148432
0.00148279
0.00148042
0.00147797
0.00147676
0.00147599
0.00147539
0.00147486
0.00147421
0.00147374
0.00147358
0.00147357
0.00147381
0.0014744
0.0014753
0.00147642
0.00147768
0.00147908
0.00148063
0.00148231
0.00148412
0.00148606
0.00148813
0.00149031
0.00149261
0.001495
0.00149747
0.00149998
0.00150257
0.00150529
0.00150807
0.00151089
0.00151372
0.00151653
0.00151936
0.00152224
0.00152529
0.00152851
0.00153171
0.00153482
0.00153797
0.00154138
0.00154507
0.00154882
0.0015527
0.00155666
0.00156055
0.00156474
0.00156958
0.00157411
0.0015779
0.00158054
0.00158138
0.00158143
0.001581
0.00157976
0.00157793
0.00157525
0.00157064
0.00156324
0.00155188
0.00153522
0.00151239
0.00148284
0.00144675
0.00140438
0.00135539
0.00129918
0.00123546
0.00116448
0.0010867
0.00100259
0.000916147
0.000834691
0.000761325
0.000697457
0.000644568
0.00060449
0.000578497
0.000563948
0.00055374
0.000545589
0.000539396
0.000534873
0.000531357
0.000528252
0.000525326
0.000522639
0.00052025
0.000518198
0.000516551
0.000515337
0.000514475
0.00051384
0.000513351
0.000512977
0.000512694
0.00051247
0.00051228
0.000512112
0.000511961
0.000511829
0.000511719
0.000511636
0.000511579
0.000511542
0.000511519
0.000511505
0.000511497
0.000511494
0.000511492
0.000511492
0.000511493
0.000511495
0.000511498
0.000511503
0.000511509
0.000511516
0.000511524
0.000511532
0.000511541
0.000511551
0.000511561
0.000511572
0.000511584
0.000511596
0.000511609
0.000511622
0.000511637
0.000511652
0.000511667
0.000511684
0.000511701
0.000511719
0.000511738
0.000511758
0.00051178
0.000511802
0.000511826
0.00051185
0.000511877
0.000511905
0.000511935
0.000511967
0.000512001
0.000512037
0.000512076
0.000512117
0.00051216
0.000512207
0.000512256
0.000512308
0.000512364
0.000512423
0.000512485
0.00051255
0.000512617
0.000512686
0.000512759
0.000512836
0.000512918
0.000513006
0.000513097
0.000513203
0.000513298
0.00167666
0.00167667
0.00167666
0.00167714
0.00167806
0.00167892
0.00167906
0.00167863
0.00167765
0.00167618
0.00167456
0.00167348
0.00167283
0.00167227
0.00151724
0.00151427
0.00151228
0.0015112
0.00151046
0.00150814
0.00150543
0.00150323
0.00150134
0.00149951
0.00149777
0.00149608
0.00149428
0.00149269
0.00149147
0.00148971
0.00148793
0.00148689
0.00148581
0.00148351
0.00148153
0.00148053
0.00147876
0.001476
0.00147435
0.00147309
0.00147076
0.00146861
0.00146792
0.00146711
0.00146515
0.0014636
0.00146293
0.00146256
0.00146234
0.00146214
0.001462
0.00146204
0.00146228
0.00146271
0.00146342
0.00146444
0.00146573
0.00146721
0.00146885
0.00147066
0.00147261
0.00147468
0.00147685
0.00147914
0.00148152
0.00148401
0.00148661
0.00148929
0.00149203
0.00149483
0.00149771
0.00150066
0.00150366
0.0015067
0.00150976
0.00151281
0.00151589
0.00151906
0.00152238
0.00152576
0.00152913
0.0015325
0.00153601
0.00153967
0.00154342
0.00154735
0.0015515
0.00155559
0.00155975
0.00156442
0.00156931
0.00157422
0.00157953
0.00158442
0.00158938
0.00159523
0.00159947
0.00160336
0.00160883
0.00161316
0.00161628
0.0016201
0.00162293
0.00162394
0.00162364
0.00162163
0.00161814
0.00161331
0.00160645
0.00159637
0.0015816
0.00156067
0.00153254
0.00149658
0.00145243
0.00139991
0.00133903
0.00127018
0.00119414
0.00111189
0.00102429
0.000934209
0.00084941
0.000773844
0.000708628
0.000654621
0.000612966
0.000584604
0.00056824
0.000557584
0.000549005
0.000542198
0.000537093
0.000533213
0.000529938
0.000526865
0.000523952
0.000521304
0.000518994
0.000517106
0.000515705
0.000514729
0.000514038
0.000513527
0.000513148
0.000512872
0.000512662
0.000512487
0.000512336
0.000512202
0.000512089
0.000512002
0.000511946
0.000511917
0.000511907
0.000511909
0.000511917
0.000511932
0.00051195
0.000511972
0.000511995
0.000512022
0.00051205
0.000512082
0.000512115
0.000512152
0.000512191
0.000512233
0.000512278
0.000512326
0.000512377
0.000512432
0.00051249
0.000512553
0.000512618
0.000512687
0.000512759
0.000512834
0.000512912
0.000512993
0.000513078
0.000513168
0.000513262
0.00051336
0.000513463
0.000513571
0.000513684
0.000513804
0.00051393
0.000514066
0.00051421
0.000514364
0.000514527
0.000514698
0.000514876
0.000515063
0.000515259
0.000515467
0.000515689
0.000515926
0.000516179
0.000516449
0.000516734
0.000517041
0.000517352
0.000517706
0.000518067
0.00168074
0.00167947
0.00167771
0.00167609
0.00167495
0.00167412
0.00167312
0.00167188
0.00167035
0.00166854
0.00166657
0.00166447
0.00166265
0.00148759
0.00148447
0.00148244
0.00148144
0.0014815
0.00148012
0.00147747
0.00147525
0.00147359
0.00147217
0.00147088
0.00146954
0.00146811
0.00146697
0.00146602
0.00146452
0.00146313
0.00146274
0.00146226
0.00146028
0.00145892
0.00145882
0.00145774
0.00145565
0.00145474
0.00145406
0.00145231
0.00145121
0.0014512
0.0014506
0.0014493
0.00144861
0.00144837
0.00144832
0.00144839
0.00144858
0.0014489
0.00144938
0.00145002
0.00145088
0.001452
0.0014534
0.00145503
0.00145686
0.00145887
0.00146104
0.00146336
0.00146579
0.00146832
0.00147094
0.00147366
0.00147648
0.00147939
0.00148237
0.00148541
0.00148852
0.00149169
0.00149492
0.0014982
0.0015015
0.00150481
0.00150814
0.00151151
0.00151498
0.00151852
0.00152209
0.00152566
0.00152928
0.00153301
0.00153681
0.00154074
0.00154488
0.00154909
0.00155333
0.0015579
0.00156274
0.00156748
0.00157269
0.00157813
0.00158302
0.00158853
0.0015943
0.00159945
0.00160571
0.00161197
0.00161738
0.00162409
0.00163087
0.0016348
0.00163893
0.00164448
0.00164993
0.00165517
0.00166061
0.00166532
0.0016687
0.00167058
0.00167059
0.00166829
0.00166315
0.00165525
0.00164436
0.00163017
0.00161197
0.001588
0.00155642
0.00151661
0.0014692
0.0014148
0.00135336
0.00128492
0.00121024
0.00113044
0.00104653
0.000960042
0.000876963
0.00080189
0.00073578
0.000679054
0.000632614
0.000597824
0.000575413
0.000562349
0.000552607
0.000544772
0.00053883
0.000534414
0.000530848
0.000527603
0.000524552
0.000521801
0.000519435
0.000517541
0.000516173
0.000515255
0.000514636
0.00051421
0.000513925
0.000513741
0.000513618
0.00051353
0.000513472
0.000513446
0.00051345
0.000513472
0.000513518
0.000513584
0.000513667
0.000513761
0.000513864
0.000513975
0.000514094
0.00051422
0.000514354
0.000514497
0.000514649
0.000514811
0.000514983
0.000515165
0.000515357
0.00051556
0.000515774
0.000516
0.000516238
0.000516487
0.000516747
0.000517019
0.000517305
0.000517606
0.000517925
0.000518267
0.000518633
0.000519027
0.00051945
0.000519903
0.000520388
0.000520906
0.000521461
0.000522057
0.000522698
0.000523391
0.000524139
0.000524938
0.000525783
0.000526661
0.000527568
0.000528498
0.000529462
0.000530462
0.000531535
0.000532635
0.000533898
0.000535246
0.00167281
0.00167088
0.00166872
0.00166636
0.00166406
0.00166212
0.0016605
0.00165905
0.00165764
0.00165618
0.00165462
0.00165293
0.00165125
0.00145474
0.00145367
0.00145335
0.0014528
0.00145107
0.00144915
0.00144765
0.00144646
0.00144544
0.00144439
0.00144337
0.00144263
0.00144184
0.00144065
0.00143984
0.00143992
0.00143937
0.00143801
0.0014375
0.00143776
0.00143692
0.00143583
0.00143558
0.00143502
0.00143415
0.00143395
0.0014341
0.00143372
0.00143327
0.00143316