/*--------------------------------*- C++ -*----------------------------------*\
| =========                 |                                                 |
| \\      /  F ield         | OpenFOAM: The Open Source CFD Toolbox           |
|  \\    /   O peration     | Version:  v1706                                 |
|   \\  /    A nd           | Web:      www.OpenFOAM.com                      |
|    \\/     M anipulation  |                                                 |
\*---------------------------------------------------------------------------*/
FoamFile
{
    version     2.0;
    format      ascii;
    class       volScalarField;
    location    "3.8e-05";
    object      Tov;
}
// * * * * * * * * * * * * * * * * * * * * * * * * * * * * * * * * * * * * * //

dimensions      [0 0 0 1 0 0 0];


internalField   nonuniform List<scalar> 
30104
(
144.476
144.488
144.502
144.517
144.535
144.555
144.579
144.606
144.637
144.672
144.712
144.758
144.811
144.871
144.939
145.017
145.106
185.666
184.801
183.939
183.08
182.224
181.371
180.52
179.669
178.815
177.958
177.093
176.217
175.328
174.422
173.497
172.552
171.588
170.604
169.602
168.578
167.534
166.499
165.678
165.034
164.452
163.869
163.258
162.607
161.917
161.189
160.426
159.633
158.814
157.974
157.119
156.251
155.373
154.487
153.601
152.716
151.842
151.023
150.308
149.706
149.179
148.69
148.218
147.757
147.311
146.888
146.496
146.15
145.861
145.628
145.439
145.277
145.135
145.01
144.901
144.811
144.739
144.681
144.633
144.592
144.557
144.527
144.502
144.481
144.464
144.451
144.441
144.433
144.426
144.421
144.416
144.413
144.41
144.408
144.407
144.405
144.404
144.403
144.402
144.402
144.401
144.401
144.401
144.401
144.401
144.4
144.4
144.4
144.4
144.4
144.4
144.4
144.4
144.4
144.4
144.4
144.4
144.4
144.4
144.4
144.4
144.4
144.4
144.4
144.4
144.4
144.4
144.4
144.4
144.4
144.4
144.4
144.4
144.4
144.4
144.4
144.4
144.4
144.4
144.4
144.4
144.4
144.4
144.4
144.4
144.4
144.4
144.4
144.4
144.4
144.4
144.4
144.4
144.4
144.4
144.4
144.4
144.4
144.4
144.4
144.4
144.4
144.4
144.4
144.4
144.4
144.4
144.4
144.4
144.4
144.4
144.4
144.4
144.4
144.4
144.4
144.4
144.4
144.4
144.4
144.4
144.4
144.4
144.4
144.4
144.4
144.4
144.4
144.4
144.4
144.4
144.4
144.4
144.4
144.4
144.4
144.4
144.4
144.4
144.4
144.4
144.4
144.4
144.4
144.4
144.4
144.4
144.4
144.4
144.873
144.946
145.03
145.126
145.236
145.363
145.509
145.676
145.866
146.084
146.333
146.617
146.943
147.317
147.744
148.229
148.778
250.291
249.837
249.394
248.961
248.539
248.128
247.727
247.336
246.952
246.575
246.203
245.833
245.464
245.094
244.718
244.333
243.934
243.513
243.062
242.571
242.034
241.437
240.706
239.797
238.689
237.368
235.83
234.082
232.129
229.964
227.578
224.956
222.094
219.004
215.704
212.207
208.518
204.636
200.556
196.272
191.805
187.237
182.864
179.247
176.175
173.342
170.584
167.846
165.127
162.464
159.929
157.633
155.673
154.064
152.711
151.522
150.446
149.47
148.598
147.845
147.225
146.729
146.328
145.993
145.706
145.461
145.256
145.09
144.959
144.854
144.768
144.696
144.637
144.588
144.548
144.517
144.493
144.474
144.458
144.446
144.436
144.428
144.422
144.417
144.414
144.411
144.408
144.406
144.405
144.404
144.403
144.402
144.402
144.401
144.401
144.401
144.401
144.4
144.4
144.4
144.4
144.4
144.4
144.4
144.4
144.4
144.4
144.4
144.4
144.4
144.4
144.4
144.4
144.4
144.4
144.4
144.4
144.4
144.4
144.4
144.4
144.4
144.4
144.4
144.4
144.4
144.4
144.4
144.4
144.4
144.4
144.4
144.4
144.4
144.4
144.4
144.4
144.4
144.4
144.4
144.4
144.4
144.4
144.4
144.4
144.4
144.4
144.4
144.4
144.4
144.4
144.4
144.4
144.4
144.4
144.4
144.4
144.4
144.4
144.4
144.4
144.4
144.4
144.4
144.4
144.4
144.4
144.4
144.4
144.4
144.4
144.4
144.4
144.4
144.4
144.4
144.4
144.4
144.4
144.4
144.4
144.4
144.4
144.4
144.4
144.4
144.4
144.4
144.4
144.4
144.4
144.4
144.4
146.129
146.394
146.698
147.047
147.448
147.909
148.437
149.04
149.724
150.5
151.377
152.373
153.507
154.799
156.268
157.927
260.959
260.611
260.272
259.941
259.617
259.3
258.991
258.691
258.401
258.123
257.859
257.613
257.388
257.189
257.023
256.894
256.805
256.768
256.773
256.807
256.874
256.968
257.078
257.198
257.319
257.406
257.399
257.336
257.189
256.959
256.666
256.33
255.959
255.541
255.05
254.45
253.713
252.808
251.693
250.306
248.56
246.361
243.58
240.092
235.951
231.241
226.017
220.309
214.132
207.524
200.591
193.578
187.012
181.67
177.227
173.239
169.488
165.919
162.584
159.596
157.068
155.027
153.357
151.925
150.66
149.542
148.573
147.768
147.127
146.623
146.215
145.873
145.585
145.346
145.154
145.004
144.885
144.79
144.712
144.647
144.594
144.553
144.52
144.495
144.475
144.459
144.447
144.436
144.428
144.422
144.418
144.414
144.411
144.408
144.406
144.405
144.404
144.403
144.402
144.402
144.401
144.401
144.401
144.401
144.4
144.4
144.4
144.4
144.4
144.4
144.4
144.4
144.4
144.4
144.4
144.4
144.4
144.4
144.4
144.4
144.4
144.4
144.4
144.4
144.4
144.4
144.4
144.4
144.4
144.4
144.4
144.4
144.4
144.4
144.4
144.4
144.4
144.4
144.4
144.4
144.4
144.4
144.4
144.4
144.4
144.4
144.4
144.4
144.4
144.4
144.4
144.4
144.4
144.4
144.4
144.4
144.4
144.4
144.4
144.4
144.4
144.4
144.4
144.4
144.4
144.4
144.4
144.4
144.4
144.4
144.4
144.4
144.4
144.4
144.4
144.4
144.4
144.4
144.4
144.4
144.4
144.4
144.4
144.4
144.4
144.4
144.4
144.4
144.4
144.4
144.4
144.4
144.4
150.135
150.996
151.974
153.087
154.356
155.804
157.452
159.316
161.407
163.739
166.335
169.236
172.492
176.128
180.142
184.514
263.238
262.859
262.494
262.143
261.807
261.484
261.174
260.876
260.593
260.323
260.068
259.829
259.608
259.408
259.233
259.09
258.979
258.937
258.95
259.005
259.114
259.281
259.499
259.765
260.072
260.402
260.727
261.031
261.293
261.488
261.611
261.683
261.738
261.795
261.86
261.928
261.981
261.989
261.971
261.912
261.801
261.653
261.473
261.249
260.948
260.513
259.872
258.934
257.597
255.764
253.348
250.239
246.272
241.307
235.463
228.889
221.681
213.912
205.722
197.404
189.536
183.08
177.903
173.38
169.193
165.278
161.72
158.651
156.154
154.174
152.539
151.127
149.888
148.819
147.931
147.228
146.684
146.253
145.896
145.597
145.352
145.156
145.004
144.885
144.79
144.712
144.647
144.595
144.553
144.52
144.495
144.475
144.459
144.446
144.436
144.428
144.422
144.417
144.414
144.411
144.408
144.406
144.405
144.404
144.403
144.402
144.402
144.401
144.401
144.401
144.401
144.401
144.4
144.4
144.4
144.4
144.4
144.4
144.4
144.4
144.4
144.4
144.4
144.4
144.4
144.4
144.4
144.4
144.4
144.4
144.4
144.4
144.4
144.4
144.4
144.4
144.4
144.4
144.4
144.4
144.4
144.4
144.4
144.4
144.4
144.4
144.4
144.4
144.4
144.4
144.4
144.4
144.4
144.4
144.4
144.4
144.4
144.4
144.4
144.4
144.4
144.4
144.4
144.4
144.4
144.4
144.4
144.4
144.4
144.4
144.4
144.4
144.4
144.4
144.4
144.4
144.4
144.4
144.4
144.4
144.4
144.4
144.4
144.4
144.4
144.4
144.4
144.4
144.4
144.4
144.4
144.4
144.4
162.049
164.531
167.303
170.405
173.885
177.77
182.061
186.738
191.767
197.117
202.781
208.862
215.581
222.896
230.664
265.072
264.651
264.247
263.86
263.49
263.135
262.797
262.473
262.164
261.87
261.591
261.328
261.08
260.851
260.643
260.461
260.31
260.205
260.185
260.207
260.28
260.418
260.621
260.888
261.215
261.59
261.996
262.415
262.821
263.183
263.482
263.718
263.907
264.071
264.226
264.383
264.541
264.691
264.835
264.968
265.091
265.214
265.348
265.5
265.672
265.854
266.022
266.15
266.235
266.279
266.275
266.223
266.063
265.745
265.192
264.273
262.839
260.769
257.977
254.379
249.851
244.256
237.676
230.255
222.082
213.281
204.112
195.067
186.997
180.745
175.62
171.019
166.747
162.854
159.479
156.721
154.559
152.82
151.341
150.052
148.942
148.02
147.292
146.735
146.298
145.939
145.636
145.385
145.184
145.026
144.903
144.805
144.725
144.657
144.602
144.557
144.523
144.497
144.476
144.46
144.447
144.436
144.428
144.422
144.417
144.414
144.411
144.408
144.407
144.405
144.404
144.403
144.403
144.402
144.402
144.401
144.401
144.401
144.401
144.401
144.4
144.4
144.4
144.4
144.4
144.4
144.4
144.4
144.4
144.4
144.4
144.4
144.4
144.4
144.4
144.4
144.4
144.4
144.4
144.4
144.4
144.4
144.4
144.4
144.4
144.4
144.4
144.4
144.4
144.4
144.4
144.4
144.4
144.4
144.4
144.4
144.4
144.4
144.4
144.4
144.4
144.4
144.4
144.4
144.4
144.4
144.4
144.4
144.4
144.4
144.4
144.4
144.4
144.4
144.4
144.4
144.4
144.401
144.401
144.401
144.401
144.401
144.401
144.401
144.401
144.401
144.401
144.401
144.401
144.401
144.401
144.401
144.401
187.104
192.316
197.882
203.785
210.097
217.027
224.542
232.51
240.741
249.014
257.116
264.856
272.053
278.55
284.307
289.333
266.964
266.485
266.028
265.592
265.18
264.789
264.42
264.074
263.752
263.452
263.174
262.92
262.687
262.476
262.287
262.121
261.98
261.87
261.831
261.84
261.888
261.994
262.164
262.4
262.699
263.052
263.447
263.866
264.287
264.688
265.045
265.344
265.584
265.78
265.944
266.093
266.247
266.401
266.55
266.723
266.912
267.091
267.267
267.456
267.673
267.917
268.184
268.468
268.775
269.028
269.281
269.558
269.848
270.133
270.388
270.58
270.688
270.707
270.675
270.564
270.323
269.891
269.15
267.926
266.057
263.434
259.986
255.634
250.24
243.702
236.139
227.659
218.404
208.658
198.91
189.933
182.789
177.236
172.396
167.932
163.862
160.317
157.396
155.098
153.292
151.776
150.451
149.296
148.321
147.534
146.923
146.451
146.067
145.743
145.47
145.247
145.071
144.933
144.825
144.738
144.667
144.608
144.561
144.525
144.498
144.478
144.461
144.448
144.438
144.43
144.424
144.419
144.415
144.412
144.41
144.408
144.406
144.405
144.404
144.403
144.402
144.402
144.402
144.401
144.401
144.401
144.401
144.401
144.401
144.401
144.4
144.4
144.4
144.4
144.4
144.4
144.4
144.4
144.4
144.4
144.4
144.4
144.4
144.401
144.401
144.401
144.401
144.401
144.401
144.401
144.401
144.401
144.401
144.401
144.401
144.401
144.401
144.401
144.401
144.401
144.401
144.401
144.401
144.401
144.401
144.401
144.401
144.401
144.401
144.401
144.401
144.401
144.402
144.402
144.402
144.402
144.402
144.402
144.402
144.402
144.402
144.402
144.402
144.403
144.403
144.403
144.403
144.403
144.403
144.403
144.403
144.404
144.403
239.849
248.32
256.687
264.739
272.279
279.123
285.214
290.542
295.139
299.059
302.37
305.145
307.45
269.726
269.187
268.672
268.182
267.716
267.275
266.86
266.473
266.115
265.787
265.488
265.219
264.979
264.767
264.581
264.42
264.286
264.177
264.121
264.122
264.151
264.227
264.359
264.552
264.801
265.099
265.44
265.808
266.182
266.542
266.874
267.164
267.397
267.598
267.757
267.89
268.024
268.143
268.263
268.414
268.579
268.742
268.906
269.079
269.27
269.485
269.72
269.987
270.263
270.52
270.777
271.054
271.361
271.694
272.04
272.383
272.715
273.054
273.371
273.672
273.975
274.267
274.524
274.729
274.873
274.919
274.891
274.767
274.448
273.814
272.696
270.927
268.397
265.041
260.811
255.59
249.188
241.609
232.996
223.537
213.532
203.439
193.92
185.872
179.871
174.883
170.306
166.065
162.278
159.054
156.432
154.366
152.698
151.251
149.968
148.854
147.929
147.197
146.634
146.194
145.835
145.536
145.292
145.1
144.953
144.839
144.749
144.676
144.616
144.569
144.533
144.506
144.485
144.468
144.454
144.443
144.434
144.427
144.422
144.418
144.414
144.411
144.409
144.407
144.406
144.405
144.404
144.403
144.403
144.402
144.402
144.402
144.402
144.402
144.402
144.402
144.402
144.402
144.402
144.402
144.402
144.402
144.402
144.402
144.402
144.402
144.402
144.402
144.402
144.402
144.402
144.402
144.402
144.403
144.403
144.403
144.403
144.403
144.403
144.403
144.403
144.404
144.404
144.404
144.404
144.404
144.404
144.405
144.405
144.405
144.405
144.405
144.406
144.406
144.406
144.406
144.407
144.407
144.407
144.408
144.408
144.408
144.409
144.409
144.41
144.41
144.411
144.411
144.412
144.412
144.413
144.414
144.413
295.085
299.454
303.15
306.245
308.814
310.926
312.647
314.033
315.13
315.98
316.633
317.152
317.585
273.274
272.678
272.114
271.574
271.056
270.561
270.094
269.66
269.259
268.892
268.56
268.263
268.002
267.774
267.578
267.413
267.278
267.169
267.094
267.079
267.093
267.136
267.222
267.36
267.545
267.765
268.018
268.302
268.595
268.875
269.132
269.352
269.543
269.718
269.847
269.951
270.045
270.112
270.191
270.289
270.396
270.507
270.621
270.75
270.891
271.045
271.217
271.412
271.621
271.835
272.056
272.294
272.556
272.843
273.148
273.463
273.783
274.113
274.456
274.816
275.203
275.618
276.051
276.491
276.929
277.368
277.789
278.18
278.553
278.895
279.209
279.506
279.756
279.895
279.905
279.792
279.363
278.42
276.841
274.554
271.509
267.652
262.861
256.944
249.783
241.532
232.369
222.502
212.261
202.147
192.857
185.201
179.449
174.461
169.768
165.416
161.557
158.3
155.675
153.614
151.932
150.476
149.217
148.175
147.357
146.738
146.266
145.892
145.585
145.337
145.141
144.99
144.873
144.781
144.705
144.643
144.593
144.553
144.521
144.497
144.477
144.462
144.449
144.439
144.431
144.425
144.42
144.416
144.413
144.411
144.409
144.408
144.407
144.406
144.406
144.406
144.406
144.406
144.406
144.406
144.406
144.406
144.406
144.406
144.406
144.407
144.407
144.407
144.407
144.408
144.408
144.408
144.409
144.409
144.409
144.41
144.41
144.41
144.411
144.411
144.412
144.412
144.413
144.413
144.414
144.415
144.415
144.416
144.417
144.418
144.418
144.419
144.42
144.421
144.422
144.423
144.424
144.425
144.427
144.428
144.429
144.431
144.432
144.434
144.435
144.437
144.439
144.441
144.443
144.445
144.447
144.45
144.448
315.535
316.851
317.882
318.673
319.287
319.783
320.198
320.545
320.831
321.053
321.2
321.275
321.279
321.265
277.457
276.817
276.226
275.648
275.084
274.54
274.024
273.544
273.099
272.691
272.32
271.987
271.692
271.437
271.218
271.03
270.879
270.762
270.664
270.601
270.598
270.609
270.637
270.703
270.815
270.95
271.096
271.269
271.464
271.647
271.801
271.922
272.051
272.164
272.238
272.294
272.322
272.335
272.358
272.388
272.421
272.462
272.516
272.58
272.651
272.732
272.829
272.941
273.07
273.211
273.365
273.535
273.726
273.939
274.174
274.428
274.703
275.002
275.326
275.677
276.058
276.471
276.909
277.366
277.832
278.313
278.811
279.324
279.857
280.413
280.996
281.599
282.205
282.81
283.366
283.905
284.462
285.061
285.676
286.246
286.73
287.087
287.201
287.098
286.621
285.569
283.864
281.447
278.232
274.093
268.884
262.473
254.776
245.87
235.852
224.932
213.54
202.359
192.264
184.155
178.011
172.584
167.578
163.126
159.377
156.381
154.075
152.268
150.749
149.451
148.381
147.539
146.9
146.415
146.031
145.714
145.451
145.238
145.069
144.937
144.831
144.745
144.674
144.616
144.57
144.534
144.507
144.486
144.469
144.456
144.446
144.438
144.433
144.428
144.425
144.423
144.421
144.42
144.42
144.42
144.42
144.42
144.42
144.421
144.421
144.422
144.423
144.424
144.425
144.426
144.427
144.428
144.429
144.43
144.431
144.433
144.434
144.436
144.437
144.439
144.441
144.443
144.445
144.447
144.449
144.451
144.453
144.456
144.458
144.461
144.464
144.467
144.47
144.474
144.477
144.481
144.485
144.489
144.494
144.498
144.503
144.508
144.514
144.519
144.525
144.531
144.538
144.545
144.552
144.56
144.569
144.578
144.572
323.145
323.412
323.608
323.722
323.762
323.755
323.734
323.702
323.672
323.649
323.655
323.669
323.651
323.593
282.094
281.416
280.794
280.206
279.616
279.022
278.461
277.948
277.467
277.018
276.607
276.236
275.9
275.608
275.358
275.132
274.942
274.807
274.683
274.561
274.504
274.485
274.448
274.431
274.463
274.513
274.549
274.594
274.686
274.768
274.802
274.824
274.868
274.894
274.894
274.88
274.84
274.791
274.742
274.692
274.651
274.62
274.598
274.582
274.574
274.578
274.592
274.62
274.661
274.717
274.789
274.879
274.989
275.121
275.279
275.463
275.676
275.921
276.196
276.505
276.849
277.228
277.637
278.073
278.537
279.03
279.548
280.091
280.662
281.266
281.896
282.539
283.202
283.887
284.587
285.322
286.12
286.968
287.856
288.756
289.644
290.543
291.467
292.422
293.393
294.353
295.272
296.139
296.902
297.48
297.768
297.74
297.309
296.132
294.077
291.063
286.973
281.675
275.008
266.783
256.956
245.729
233.382
220.418
207.627
195.995
186.509
179.561
173.812
168.625
164.041
160.188
157.101
154.718
152.871
151.335
150.005
148.873
147.95
147.224
146.664
146.224
145.865
145.566
145.321
145.128
144.978
144.862
144.77
144.696
144.636
144.589
144.554
144.529
144.51
144.495
144.485
144.478
144.473
144.47
144.469
144.469
144.469
144.47
144.472
144.474
144.477
144.48
144.483
144.486
144.489
144.493
144.497
144.501
144.506
144.51
144.515
144.521
144.527
144.532
144.539
144.545
144.552
144.559
144.567
144.574
144.583
144.591
144.6
144.609
144.619
144.63
144.641
144.653
144.666
144.679
144.693
144.708
144.725
144.742
144.76
144.779
144.799
144.82
144.841
144.864
144.888
144.913
144.939
144.967
144.997
145.032
145.013
326.281
326.249
326.225
326.231
326.224
326.178
326.098
325.98
325.845
325.712
325.607
325.531
325.463
325.384
286.983
286.277
285.636
285.029
284.452
283.815
283.21
282.663
282.157
281.68
281.236
280.827
280.449
280.113
279.826
279.55
279.314
279.136
278.981
278.798
278.672
278.606
278.51
278.391
278.339
278.306
278.233
278.171
278.156
278.129
278.048
277.978
277.921
277.853
277.769
277.671
277.556
277.433
277.309
277.183
277.063
276.951
276.847
276.749
276.659
276.579
276.509
276.45
276.404
276.37
276.358
276.365
276.389
276.438
276.516
276.625
276.767
276.944
277.156
277.407
277.698
278.027
278.394
278.798
279.239
279.715
280.223
280.764
281.34
281.947
282.581
283.244
283.94
284.659
285.408
286.208
287.052
287.929
288.849
289.783
290.753
291.797
292.828
293.906
295.109
296.317
297.528
298.835
300.161
301.469
302.72
303.885
304.99
306.008
306.913
307.669
308.184
308.323
308.151
307.386
305.73
303.059
299.312
294.41
288.246
280.692
271.64
261.092
249.284
236.538
223.345
210.425
198.641
188.839
181.556
175.835
170.696
166.044
161.99
158.608
155.897
153.776
152.058
150.578
149.304
148.251
147.423
146.793
146.312
145.929
145.618
145.369
145.176
145.03
144.92
144.836
144.77
144.72
144.685
144.661
144.647
144.64
144.637
144.638
144.64
144.646
144.653
144.661
144.671
144.681
144.693
144.705
144.718
144.733
144.748
144.764
144.781
144.8
144.819
144.84
144.862
144.886
144.91
144.935
144.962
144.989
145.017
145.047
145.078
145.11
145.144
145.18
145.218
145.258
145.301
145.346
145.395
145.447
145.503
145.562
145.625
145.692
145.762
145.835
145.912
145.992
146.076
146.164
146.256
146.353
146.455
146.579
146.522
328.583
328.433
328.292
328.183
328.092
328.002
327.892
327.762
327.615
327.46
327.312
327.188
327.094
291.949
291.228
290.583
289.962
289.38
288.73
288.087
287.516
286.991
286.495
286.026
285.582
285.165
284.788
284.451
284.124
283.843
283.614
283.404
283.155
282.97
282.843
282.666
282.472
282.333
282.21
282.038
281.891
281.776
281.627
281.45
281.291
281.135
280.97
280.799
280.617
280.425
280.226
280.023
279.819
279.619
279.426
279.24
279.06
278.888
278.724
278.569
278.424
278.292
278.173
278.072
277.991
277.93
277.899
277.903
277.93
277.995
278.097
278.239
278.423
278.649
278.92
279.234
279.593
279.994
280.437
280.919
281.44
282
282.595
283.224
283.89
284.589
285.316
286.084
286.894
287.731
288.615
289.536
290.464
291.455
292.497
293.543
294.671
295.853
297.041
298.319
299.643
300.888
302.162
303.491
304.802
306.117
307.464
308.803
310.089
311.299
312.381
313.269
313.963
314.412
314.588
314.574
314.393
313.862
312.848
311.24
308.911
305.709
301.502
296.254
289.933
282.48
273.831
263.963
253.017
241.216
228.829
216.299
204.28
193.573
184.942
178.498
172.937
167.846
163.332
159.528
156.476
154.116
152.263
150.708
149.392
148.323
147.5
146.888
146.432
146.08
145.804
145.595
145.445
145.343
145.277
145.238
145.217
145.213
145.217
145.231
145.253
145.281
145.314
145.351
145.39
145.433
145.479
145.528
145.581
145.637
145.697
145.762
145.831
145.904
145.982
146.065
146.151
146.241
146.334
146.43
146.529
146.633
146.741
146.854
146.972
147.097
147.229
147.37
147.52
147.68
147.851
148.036
148.234
148.448
148.677
148.921
149.179
149.448
149.727
150.015
150.312
150.62
150.943
151.276
151.695
151.557
330.359
330.189
330.018
329.861
329.734
329.633
329.544
329.455
329.357
329.249
329.135
329.024
328.928
295.498
294.864
294.241
293.613
292.969
292.378
291.835
291.322
290.829
290.355
289.906
289.49
289.1
288.729
288.399
288.119
287.824
287.532
287.284
287.084
286.825
286.573
286.358
286.129
285.887
285.655
285.442
285.192
284.938
284.687
284.438
284.188
283.931
283.667
283.396
283.12
282.839
282.56
282.283
282.012
281.746
281.487
281.234
280.989
280.752
280.525
280.31
280.108
279.922
279.756
279.613
279.499
279.414
279.364
279.361
279.384
279.449
279.558
279.712
279.915
280.166
280.467
280.815
281.21
281.651
282.137
282.666
283.235
283.844
284.493
285.176
285.896
286.658
287.446
288.269
289.141
290.027
290.939
291.913
292.903
293.93
295.039
296.166
297.336
298.579
299.772
300.936
302.184
303.47
304.763
306.086
307.41
308.691
309.928
311.095
312.149
313.105
314.006
314.854
315.619
316.279
316.804
317.136
317.243
317.194
316.956
316.485
315.824
314.971
313.879
312.479
310.692
308.429
305.573
302.001
297.603
292.24
285.751
278.024
268.93
258.411
246.649
233.92
220.7
207.724
195.924
186.241
179.098
173.191
167.887
163.252
159.416
156.402
154.12
152.356
150.909
149.73
148.821
148.168
147.727
147.441
147.258
147.151
147.107
147.109
147.14
147.203
147.291
147.397
147.516
147.648
147.79
147.944
148.108
148.285
148.474
148.678
148.898
149.135
149.389
149.66
149.947
150.246
150.556
150.875
151.202
151.539
151.886
152.245
152.615
152.999
153.399
153.818
154.259
154.727
155.227
155.762
156.338
156.957
157.623
158.337
159.098
159.903
160.742
161.606
162.492
163.397
164.338
165.272
166.472
166.337
331.942
331.817
331.689
331.571
331.471
331.387
331.314
331.243
331.17
331.09
331.006
330.924
300.298
299.655
299.012
298.374
297.741
297.141
296.583
296.052
295.54
295.042
294.564
294.112
293.676
293.265
292.885
292.543
292.182
291.844
291.536
291.249
290.932
290.624
290.33
290.019
289.703
289.4
289.092
288.765
288.436
288.106
287.775
287.442
287.106
286.765
286.418
286.067
285.715
285.362
285.013
284.668
284.327
283.993
283.664
283.342
283.028
282.723
282.428
282.147
281.881
281.635
281.411
281.215
281.049
280.918
280.825
280.771
280.77
280.798
280.874
281
281.177
281.407
281.689
282.023
282.407
282.84
283.319
283.843
284.412
285.022
285.668
286.357
287.08
287.828
288.616
289.44
290.287
291.181
292.109
293.048
294.053
295.112
296.183
297.314
298.454
299.56
300.73
301.957
303.172
304.405
305.654
306.858
308.015
309.136
310.199
311.219
312.212
313.155
314.02
314.795
315.434
315.902
316.209
316.39
316.447
316.415
316.351
316.322
316.278
316.173
315.979
315.691
315.311
314.826
314.226
313.494
312.605
311.516
310.134
308.34
305.98
302.883
298.884
293.834
287.563
279.852
270.453
259.337
246.866
233.443
219.64
206.298
194.428
184.957
178.074
172.39
167.429
163.274
160.003
157.591
155.917
154.776
153.98
153.458
153.179
153.107
153.153
153.307
153.556
153.872
154.236
154.636
155.069
155.53
156.023
156.548
157.109
157.71
158.356
159.052
159.802
160.606
161.458
162.342
163.244
164.161
165.091
166.038
167.003
167.989
168.996
170.029
171.089
172.181
173.309
174.48
175.704
176.992
178.361
179.825
181.404
183.105
184.935
186.883
188.829
190.788
192.648
194.568
196.331
198.396
199.222
333.832
333.743
333.649
333.555
333.466
333.387
333.319
333.259
333.203
333.147
304.925
304.276
303.628
302.983
302.349
301.742
301.168
300.62
300.089
299.571
299.069
298.583
298.111
297.661
297.235
296.829
296.422
296.031
295.668
295.303
294.931
294.568
294.202
293.823
293.445
293.069
292.683
292.288
291.889
291.488
291.084
290.678
290.269
289.856
289.44
289.02
288.599
288.179
287.761
287.347
286.937
286.532
286.133
285.739
285.352
284.973
284.604
284.248
283.906
283.583
283.282
283.006
282.76
282.548
282.371
282.235
282.141
282.095
282.099
282.141
282.235
282.382
282.585
282.842
283.151
283.512
283.922
284.379
284.882
285.425
286.007
286.63
287.29
287.987
288.724
289.489
290.298
291.161
292.039
292.947
293.922
294.917
295.918
296.942
297.978
299.055
300.181
301.294
302.398
303.529
304.646
305.721
306.762
307.753
308.705
309.66
310.606
311.481
312.269
312.953
313.473
313.842
314.123
314.345
314.506
314.623
314.702
314.707
314.671
314.578
314.383
314.088
313.736
313.363
312.991
312.655
312.434
312.362
312.33
312.295
312.217
312.051
311.738
311.193
310.307
308.953
307.011
304.388
300.951
296.555
291.053
284.289
276.072
266.229
254.67
241.803
228.355
215.098
202.92
192.701
185.061
179.947
176.204
173.367
171.387
170.202
169.659
169.6
169.816
170.335
171.063
171.936
172.908
173.955
175.067
176.241
177.478
178.781
180.157
181.616
183.17
184.838
186.646
188.555
190.484
192.403
194.302
196.172
198.003
199.778
201.487
203.118
204.67
206.147
207.557
208.912
210.214
211.47
212.66
213.784
214.804
215.732
216.528
217.24
217.854
218.443
219.003
219.544
220.102
220.735
220.535
335.771
335.702
335.633
335.564
335.499
335.441
335.389
335.343
335.301
308.684
308.039
307.394
306.759
306.143
305.553
304.986
304.436
303.898
303.373
302.859
302.356
301.869
301.402
300.945
300.493
300.058
299.636
299.21
298.785
298.363
297.934
297.498
297.06
296.618
296.167
295.709
295.247
294.781
294.312
293.84
293.365
292.887
292.406
291.923
291.439
290.956
290.474
289.996
289.521
289.05
288.583
288.122
287.666
287.218
286.779
286.352
285.938
285.541
285.165
284.813
284.489
284.195
283.936
283.715
283.534
283.399
283.307
283.274
283.285
283.34
283.45
283.615
283.833
284.102
284.421
284.786
285.194
285.645
286.144
286.689
287.281
287.924
288.607
289.326
290.086
290.862
291.66
292.518
293.41
294.302
295.224
296.166
297.111
298.088
299.087
300.079
301.081
302.076
303.029
303.966
304.884
305.748
306.593
307.463
308.302
309.038
309.697
310.264
310.665
310.94
311.168
311.372
311.532
311.623
311.637
311.594
311.475
311.287
311.02
310.686
310.35
310.068
309.862
309.719
309.638
309.555
309.468
309.37
309.239
309.039
308.774
308.424
307.995
307.561
307.276
307.091
306.823
306.385
305.689
304.606
302.976
300.617
297.354
293.106
287.814
281.407
273.813
264.988
255.054
244.593
234.358
225.06
217.287
211.387
207.344
204.894
203.696
203.432
203.707
204.517
205.656
206.936
208.262
209.587
210.874
212.103
213.274
214.392
215.465
216.493
217.458
218.346
219.146
219.847
220.453
220.99
221.478
221.937
222.376
222.801
223.21
223.603
223.969
224.299
224.573
224.781
224.923
225.009
225.069
225.114
225.172
225.239
225.351
225.464
225.632
225.706
225.777
225.766
225.505
337.895
337.843
312.85
312.207
311.566
310.931
310.309
309.705
309.119
308.549
307.991
307.443
306.904
306.373
305.856
305.351
304.852
304.36
303.879
303.404
302.927
302.451
301.973
301.489
300.999
300.505
300.004
299.495
298.98
298.46
297.935
297.407
296.875
296.34
295.802
295.261
294.718
294.175
293.632
293.09
292.55
292.014
291.48
290.95
290.424
289.903
289.389
288.883
288.387
287.904
287.436
286.987
286.56
286.158
285.784
285.442
285.135
284.867
284.64
284.457
284.323
284.233
284.204
284.218
284.274
284.385
284.546
284.75
285.003
285.306
285.662
286.08
286.552
287.067
287.622
288.216
288.847
289.504
290.187
290.911
291.668
292.435
293.222
294.036
294.859
295.697
296.559
297.421
298.286
299.156
299.987
300.787
301.599
302.385
303.11
303.837
304.591
305.27
305.836
306.363
306.826
307.118
307.295
307.446
307.586
307.649
307.635
307.569
307.434
307.219
306.937
306.606
306.257
305.934
305.64
305.38
305.143
304.9
304.637
304.357
304.067
303.774
303.49
303.23
303.016
302.878
302.82
302.75
302.548
302.22
301.761
301.161
300.392
299.474
298.482
297.598
296.767
295.68
294.166
292.078
289.268
285.651
281.169
275.758
269.565
262.859
255.967
249.278
243.215
238.084
233.962
230.835
228.618
227.123
226.194
225.639
225.394
225.365
225.446
225.63
225.857
226.081
226.272
226.424
226.555
226.687
226.827
226.971
227.115
227.25
227.363
227.447
227.498
227.522
227.523
227.511
227.475
227.427
227.373
227.327
227.288
227.274
227.276
227.305
227.342
227.389
227.395
227.375
227.29
227.154
227.01
226.773
316.744
316.102
315.463
314.828
314.201
313.586
312.985
312.395
311.817
311.249
310.686
310.131
309.584
309.045
308.51
307.98
307.457
306.935
306.411
305.887
305.358
304.823
304.283
303.736
303.182
302.62
302.051
301.477
300.897
300.314
299.726
299.135
298.541
297.944
297.345
296.744
296.144
295.544
294.945
294.348
293.753
293.161
292.573
291.989
291.41
290.838
290.275
289.724
289.186
288.665
288.163
287.683
287.23
286.805
286.412
286.054
285.734
285.456
285.221
285.03
284.887
284.788
284.736
284.738
284.776
284.866
285.01
285.218
285.484
285.799
286.158
286.558
286.998
287.474
287.984
288.524
289.099
289.706
290.334
290.98
291.651
292.34
293.042
293.76
294.484
295.203
295.935
296.655
297.327
297.992
298.681
299.321
299.9
300.497
301.103
301.593
301.992
302.401
302.773
302.936
303.002
303.062
303.088
303.049
302.934
302.764
302.541
302.259
301.929
301.572
301.206
300.84
300.475
300.104
299.718
299.309
298.885
298.459
298.05
297.68
297.366
297.114
296.918
296.748
296.553
296.275
295.899
295.454
294.972
294.485
294.03
293.649
293.35
293.012
292.456
291.703
290.797
289.743
288.669
287.632
286.323
284.576
282.314
279.447
275.932
271.757
266.974
261.714
256.221
250.821
245.838
241.522
237.995
235.238
233.154
231.615
230.508
229.734
229.205
228.85
228.624
228.49
228.426
228.42
228.426
228.416
228.383
228.34
228.304
228.278
228.26
228.249
228.238
228.225
228.207
228.186
228.166
228.151
228.142
228.141
228.139
228.134
228.115
228.075
228.009
227.923
227.816
227.704
227.621
227.508
320.33
319.686
319.047
318.412
317.782
317.157
316.543
315.939
315.343
314.754
314.17
313.591
313.017
312.447
311.88
311.315
310.752
310.188
309.622
309.052
308.476
307.894
307.305
306.709
306.105
305.493
304.874
304.249
303.618
302.982
302.341
301.697
301.048
300.397
299.743
299.087
298.43
297.772
297.115
296.458
295.803
295.15
294.499
293.851
293.208
292.571
291.941
291.321
290.713
290.12
289.543
288.986
288.452
287.944
287.464
287.016
286.602
286.225
285.887
285.591
285.333
285.117
284.95
284.828
284.767
284.772
284.814
284.906
285.048
285.233
285.458
285.724
286.031
286.374
286.752
287.165
287.612
288.087
288.586
289.107
289.648
290.205
290.779
291.364
291.943
292.526
293.122
293.69
294.217
294.762
295.323
295.809
296.248
296.717
297.163
297.475
297.74
298.061
298.345
298.366
298.34
298.304
298.229
298.076
297.87
297.634
297.363
297.051
296.705
296.331
295.931
295.51