/*--------------------------------*- C++ -*----------------------------------*\
| =========                 |                                                 |
| \\      /  F ield         | OpenFOAM: The Open Source CFD Toolbox           |
|  \\    /   O peration     | Version:  v1706                                 |
|   \\  /    A nd           | Web:      www.OpenFOAM.com                      |
|    \\/     M anipulation  |                                                 |
\*---------------------------------------------------------------------------*/
FoamFile
{
    version     2.0;
    format      ascii;
    class       volScalarField;
    location    "3.8e-05";
    object      wallHeatFlux;
}
// * * * * * * * * * * * * * * * * * * * * * * * * * * * * * * * * * * * * * //

dimensions      [1 0 -3 0 0 0 0];


internalField   uniform 0;

boundaryField
{
    cone
    {
        type            calculated;
        value           nonuniform List<scalar> 
119
(
-642.438
-602.995
-563.609
-524.735
-486.979
-451.1
-417.978
-388.612
-363.896
-344.768
-331.101
-323.429
-322.548
-328.664
-341.452
-360.292
-384.865
-414.321
-447.499
-483.144
-520.037
-557.053
-593.197
-627.648
-659.776
-689.155
-715.557
-738.925
-759.342
-776.967
-792.134
-805.215
-816.587
-826.681
-835.907
-844.633
-853.189
-861.866
-870.901
-880.474
-890.714
-901.712
-913.514
-926.141
-939.586
-953.827
-968.832
-984.562
-1000.97
-1018.02
-1035.66
-1053.83
-1072.48
-1091.54
-1110.94
-1130.61
-1150.46
-1170.4
-1190.33
-1210.15
-1229.75
-1249.02
-1267.87
-1286.18
-1303.87
-1320.84
-1337.03
-1352.35
-1366.76
-1380.21
-1392.67
-1404.11
-1414.52
-1423.9
-1432.27
-1439.63
-1446.03
-1451.49
-1456.06
-1459.8
-1462.75
-1464.95
-1466.51
-1467.56
-1468.24
-1468.74
-1469.26
-1469.93
-1470.8
-1471.73
-1472.43
-1472.5
-1471.47
-1468.91
-1464.53
-1458.21
-1449.99
-1440.07
-1428.72
-1416.25
-1402.9
-1388.89
-1374.34
-1359.33
-1343.85
-1327.88
-1311.3
-1293.97
-1275.74
-1256.46
-1236.09
-1214.74
-1192.62
-1169.71
-1145.27
-1117.99
-1086.18
-1063.29
-1041.53
)
;
    }
    inlet
    {
        type            calculated;
        value           uniform 0;
    }
    rWedge
    {
        type            wedge;
    }
    lWedge
    {
        type            wedge;
    }
    outlet
    {
        type            calculated;
        value           uniform 0;
    }
    procBoundary0to1
    {
        type            processor;
        value           uniform 0;
    }
    procBoundary0to2
    {
        type            processor;
        value           uniform 0;
    }
}


// ************************************************************************* //
