/*--------------------------------*- C++ -*----------------------------------*\
| =========                 |                                                 |
| \\      /  F ield         | OpenFOAM: The Open Source CFD Toolbox           |
|  \\    /   O peration     | Version:  v1706                                 |
|   \\  /    A nd           | Web:      www.OpenFOAM.com                      |
|    \\/     M anipulation  |                                                 |
\*---------------------------------------------------------------------------*/
FoamFile
{
    version     2.0;
    format      ascii;
    class       volScalarField;
    location    "1.3e-05";
    object      wallHeatFlux;
}
// * * * * * * * * * * * * * * * * * * * * * * * * * * * * * * * * * * * * * //

dimensions      [1 0 -3 0 0 0 0];


internalField   uniform 0;

boundaryField
{
    cone
    {
        type            calculated;
        value           nonuniform List<scalar> 
119
(
80795.5
82769.5
84955.5
87350.9
89941.7
92699.5
95577.7
98504.6
101377
104059
106394
108211
109345
109654
109029
107417
104843
101419
97360.7
92963.7
88539.9
84351.6
80575.1
77295.1
74519.8
72205.6
70281.9
68670.9
67300
66108.7
65049.8
64088.5
63200.1
62367.7
61580.5
60832
60119.1
59440.5
58796.4
58187.3
57614.6
57079.6
56583.6
56128
55713.9
55341.8
55012.5
54726.7
54484.6
54286
54130.8
54018
53946.6
53915.3
53922.5
53966.7
54046.3
54159.6
54305.3
54482
54688.7
54924.5
55188.6
55480.7
55800.5
56147.8
56522.6
56925
57355.2
57813.3
58299.8
58814.9
59358.9
59932.4
60535.6
61169
61833.2
62528.6
63255.7
64015.2
64807.5
65633.5
66493.7
67388.9
68319.8
69287.2
70291.9
71334.8
72416.8
73538.7
74701.5
75906
77153.1
78443.8
79778.9
81159.4
82586.3
84061.1
85586.2
87165.1
88803.3
90508
92288.4
94153.9
96111.1
98162.1
100295
102486
104688
106860
108987
111129
113355
115639
117818
119781
122076
125630
131834
)
;
    }
    inlet
    {
        type            calculated;
        value           uniform 0;
    }
    rWedge
    {
        type            wedge;
    }
    lWedge
    {
        type            wedge;
    }
    outlet
    {
        type            calculated;
        value           uniform 0;
    }
    procBoundary0to1
    {
        type            processor;
        value           uniform 0;
    }
    procBoundary0to2
    {
        type            processor;
        value           uniform 0;
    }
}


// ************************************************************************* //
