/*--------------------------------*- C++ -*----------------------------------*\
| =========                 |                                                 |
| \\      /  F ield         | OpenFOAM: The Open Source CFD Toolbox           |
|  \\    /   O peration     | Version:  v1706                                 |
|   \\  /    A nd           | Web:      www.OpenFOAM.com                      |
|    \\/     M anipulation  |                                                 |
\*---------------------------------------------------------------------------*/
FoamFile
{
    version     2.0;
    format      ascii;
    class       volScalarField;
    location    "1.5e-05";
    object      wallHeatFlux;
}
// * * * * * * * * * * * * * * * * * * * * * * * * * * * * * * * * * * * * * //

dimensions      [1 0 -3 0 0 0 0];


internalField   uniform 0;

boundaryField
{
    cone
    {
        type            calculated;
        value           nonuniform List<scalar> 
147
(
1.11711e+06
1.1168e+06
1.11646e+06
1.1161e+06
1.11567e+06
1.11519e+06
1.11464e+06
1.11402e+06
1.11332e+06
1.11256e+06
1.11172e+06
1.11082e+06
1.10985e+06
1.10881e+06
1.1077e+06
1.10652e+06
1.10527e+06
1.10395e+06
1.10256e+06
1.1011e+06
1.09958e+06
1.09798e+06
1.09632e+06
1.09458e+06
1.09278e+06
1.0909e+06
1.08895e+06
1.08694e+06
1.08485e+06
1.0827e+06
1.08047e+06
1.07818e+06
1.07582e+06
1.07339e+06
1.07089e+06
1.06833e+06
1.0657e+06
1.063e+06
1.06024e+06
1.05742e+06
1.05453e+06
1.05158e+06
1.04856e+06
1.04548e+06
1.04233e+06
1.03913e+06
1.03586e+06
1.03253e+06
1.02915e+06
1.0257e+06
1.02219e+06
1.01863e+06
1.015e+06
1.01132e+06
1.00759e+06
1.00379e+06
999947
996046
992091
988083
984023
979910
975747
971533
967269
962957
958596
954188
949734
945233
940687
936097
931464
926787
922069
917309
912509
907669
902791
897875
892920
887930
882905
877844
872749
867622
862463
857272
852050
846798
841518
836209
830873
825511
820124
814712
809276
803817
798337
792835
787312
781770
776211
770636
765042
759433
753809
748173
742523
736859
731185
725502
719810
714107
708398
702683
696962
691235
685504
679773
674041
668309
662577
656846
651116
645388
639662
633941
628224
622512
616807
611108
605416
599733
594058
588393
582739
577096
571465
565847
560244
554663
549110
543583
538070
532561
1.1183e+06
)
;
    }
    inlet
    {
        type            calculated;
        value           uniform 0;
    }
    rWedge
    {
        type            wedge;
    }
    lWedge
    {
        type            wedge;
    }
    outlet
    {
        type            calculated;
        value           nonuniform 0();
    }
    procBoundary3to2
    {
        type            processor;
        value           uniform 0;
    }
}


// ************************************************************************* //
