/*--------------------------------*- C++ -*----------------------------------*\
| =========                 |                                                 |
| \\      /  F ield         | OpenFOAM: The Open Source CFD Toolbox           |
|  \\    /   O peration     | Version:  v1706                                 |
|   \\  /    A nd           | Web:      www.OpenFOAM.com                      |
|    \\/     M anipulation  |                                                 |
\*---------------------------------------------------------------------------*/
FoamFile
{
    version     2.0;
    format      ascii;
    class       volScalarField;
    location    "3.5e-05";
    object      alpha;
}
// * * * * * * * * * * * * * * * * * * * * * * * * * * * * * * * * * * * * * //

dimensions      [1 -1 -1 0 0 0 0];


internalField   nonuniform List<scalar> 
29871
(
1.42528e-05
1.42786e-05
1.43074e-05
1.43399e-05
1.43768e-05
1.44184e-05
1.44648e-05
1.4516e-05
1.45717e-05
1.46315e-05
1.46954e-05
1.47643e-05
1.48402e-05
1.49244e-05
1.50168e-05
1.51163e-05
1.52214e-05
1.53309e-05
1.54438e-05
1.55589e-05
1.56752e-05
1.57913e-05
1.59063e-05
1.60192e-05
1.61308e-05
1.62469e-05
1.63939e-05
1.65654e-05
1.67513e-05
1.69427e-05
1.7133e-05
1.73175e-05
1.74929e-05
1.76572e-05
1.78093e-05
1.7949e-05
1.80766e-05
1.81928e-05
1.82983e-05
1.83936e-05
1.84791e-05
1.85549e-05
1.8621e-05
1.86778e-05
1.87255e-05
1.87645e-05
1.87951e-05
1.88178e-05
1.88333e-05
1.88428e-05
1.8844e-05
1.88407e-05
1.88338e-05
1.88243e-05
1.88111e-05
1.87939e-05
1.87753e-05
1.87545e-05
1.87313e-05
1.87062e-05
1.86796e-05
1.86521e-05
1.86226e-05
1.85916e-05
1.85599e-05
1.8527e-05
1.84923e-05
1.84569e-05
1.84212e-05
1.83843e-05
1.83463e-05
1.8308e-05
1.82692e-05
1.82297e-05
1.81895e-05
1.81483e-05
1.81058e-05
1.80618e-05
1.80161e-05
1.79689e-05
1.79201e-05
1.78698e-05
1.78181e-05
1.77652e-05
1.77112e-05
1.76562e-05
1.76e-05
1.75428e-05
1.74844e-05
1.74248e-05
1.73638e-05
1.73015e-05
1.72376e-05
1.7172e-05
1.71046e-05
1.7035e-05
1.69632e-05
1.68888e-05
1.68114e-05
1.67308e-05
1.66463e-05
1.6557e-05
1.64619e-05
1.63603e-05
1.62525e-05
1.52446e-05
1.53866e-05
1.55434e-05
1.57173e-05
1.59086e-05
1.61164e-05
1.63387e-05
1.6573e-05
1.68167e-05
1.70673e-05
1.73235e-05
1.75869e-05
1.78728e-05
1.81926e-05
1.85408e-05
1.89078e-05
1.92833e-05
1.96575e-05
2.00223e-05
2.03709e-05
2.06985e-05
2.10017e-05
2.12786e-05
2.15289e-05
2.17528e-05
2.19506e-05
2.21188e-05
2.22593e-05
2.23742e-05
2.24663e-05
2.25381e-05
2.25921e-05
2.26305e-05
2.26559e-05
2.26716e-05
2.26811e-05
2.26871e-05
2.26912e-05
2.26945e-05
2.26971e-05
2.26995e-05
2.27007e-05
2.27e-05
2.26979e-05
2.26942e-05
2.26887e-05
2.26805e-05
2.26694e-05
2.26551e-05
2.26379e-05
2.26176e-05
2.25944e-05
2.25688e-05
2.25413e-05
2.25114e-05
2.24814e-05
2.24508e-05
2.24178e-05
2.23841e-05
2.23503e-05
2.23162e-05
2.22828e-05
2.2249e-05
2.22151e-05
2.21814e-05
2.2148e-05
2.21147e-05
2.20825e-05
2.20503e-05
2.20182e-05
2.19869e-05
2.19561e-05
2.19248e-05
2.18939e-05
2.18634e-05
2.1833e-05
2.18022e-05
2.1771e-05
2.17395e-05
2.1708e-05
2.16766e-05
2.16453e-05
2.16143e-05
2.15835e-05
2.15529e-05
2.15223e-05
2.14917e-05
2.1461e-05
2.14302e-05
2.13993e-05
2.13682e-05
2.1337e-05
2.13055e-05
2.12737e-05
2.12415e-05
2.12088e-05
2.11755e-05
2.11414e-05
2.11065e-05
2.10704e-05
2.10328e-05
2.09938e-05
2.09546e-05
2.09167e-05
2.08805e-05
1.73207e-05
1.76381e-05
1.79686e-05
1.83253e-05
1.87185e-05
1.91424e-05
1.95867e-05
2.00391e-05
2.04877e-05
2.09222e-05
2.13342e-05
2.17183e-05
2.20701e-05
2.23845e-05
2.26596e-05
2.28981e-05
2.31033e-05
2.32796e-05
2.34308e-05
2.35604e-05
2.36707e-05
2.37635e-05
2.38393e-05
2.38984e-05
2.39417e-05
2.39719e-05
2.39921e-05
2.40048e-05
2.40119e-05
2.40117e-05
2.40082e-05
2.40004e-05
2.39871e-05
2.39675e-05
2.39414e-05
2.391e-05
2.38749e-05
2.38377e-05
2.37994e-05
2.3761e-05
2.3723e-05
2.36861e-05
2.36506e-05
2.36166e-05
2.35841e-05
2.35533e-05
2.35239e-05
2.34957e-05
2.34681e-05
2.34407e-05
2.34131e-05
2.33849e-05
2.33558e-05
2.33256e-05
2.32942e-05
2.32616e-05
2.32279e-05
2.31931e-05
2.31574e-05
2.3121e-05
2.30837e-05
2.30458e-05
2.30067e-05
2.29704e-05
2.29325e-05
2.2891e-05
2.28536e-05
2.2819e-05
2.27801e-05
2.27416e-05
2.27074e-05
2.26728e-05
2.26369e-05
2.2603e-05
2.25713e-05
2.25394e-05
2.25073e-05
2.24758e-05
2.24451e-05
2.24149e-05
2.23851e-05
2.23555e-05
2.23265e-05
2.22981e-05
2.22703e-05
2.22431e-05
2.22165e-05
2.21905e-05
2.21653e-05
2.21407e-05
2.2117e-05
2.2094e-05
2.2072e-05
2.20509e-05
2.20308e-05
2.20118e-05
2.19939e-05
2.19772e-05
2.19616e-05
2.19474e-05
2.19344e-05
2.19234e-05
2.19146e-05
2.19081e-05
2.19053e-05
2.1906e-05
2.13041e-05
2.17532e-05
2.21706e-05
2.25488e-05
2.28837e-05
2.31764e-05
2.34295e-05
2.36466e-05
2.38313e-05
2.39875e-05
2.41184e-05
2.42271e-05
2.43157e-05
2.43859e-05
2.44393e-05
2.44777e-05
2.45037e-05
2.4521e-05
2.45331e-05
2.45428e-05
2.45514e-05
2.45593e-05
2.4566e-05
2.45682e-05
2.45656e-05
2.45583e-05
2.45467e-05
2.45321e-05
2.45151e-05
2.44962e-05
2.44762e-05
2.4456e-05
2.44365e-05
2.44179e-05
2.43997e-05
2.43793e-05
2.43553e-05
2.43272e-05
2.42953e-05
2.42606e-05
2.42239e-05
2.41861e-05
2.41478e-05
2.41098e-05
2.40723e-05
2.40358e-05
2.40006e-05
2.39666e-05
2.39338e-05
2.39021e-05
2.38711e-05
2.38405e-05
2.38098e-05
2.37787e-05
2.37467e-05
2.37136e-05
2.36791e-05
2.36433e-05
2.36061e-05
2.35677e-05
2.35277e-05
2.34867e-05
2.34439e-05
2.34033e-05
2.33613e-05
2.33146e-05
2.32717e-05
2.32319e-05
2.31876e-05
2.31433e-05
2.31033e-05
2.3063e-05
2.30211e-05
2.29813e-05
2.29441e-05
2.29068e-05
2.28691e-05
2.28323e-05
2.27967e-05
2.27619e-05
2.27273e-05
2.26928e-05
2.26589e-05
2.26258e-05
2.25935e-05
2.2562e-05
2.25313e-05
2.25014e-05
2.24725e-05
2.24444e-05
2.24174e-05
2.23914e-05
2.23667e-05
2.23433e-05
2.23212e-05
2.23007e-05
2.22818e-05
2.22646e-05
2.22492e-05
2.22358e-05
2.22248e-05
2.22166e-05
2.22128e-05
2.22128e-05
2.22144e-05
2.22177e-05
2.40322e-05
2.42072e-05
2.43541e-05
2.44762e-05
2.45765e-05
2.46576e-05
2.47221e-05
2.47719e-05
2.48089e-05
2.4836e-05
2.48565e-05
2.48729e-05
2.48865e-05
2.48976e-05
2.49061e-05
2.49112e-05
2.49103e-05
2.49054e-05
2.4896e-05
2.48834e-05
2.48693e-05
2.4855e-05
2.48419e-05
2.48313e-05
2.48243e-05
2.48207e-05
2.48175e-05
2.48119e-05
2.48024e-05
2.47888e-05
2.47716e-05
2.47518e-05
2.47305e-05
2.47088e-05
2.46883e-05
2.46699e-05
2.46518e-05
2.46326e-05
2.46109e-05
2.45863e-05
2.45584e-05
2.45275e-05
2.44943e-05
2.44592e-05
2.44228e-05
2.43858e-05
2.43484e-05
2.43114e-05
2.42748e-05
2.42387e-05
2.42035e-05
2.41691e-05
2.41351e-05
2.41015e-05
2.40682e-05
2.40346e-05
2.40004e-05
2.39658e-05
2.39303e-05
2.38935e-05
2.38558e-05
2.38171e-05
2.37769e-05
2.3735e-05
2.36934e-05
2.36526e-05
2.36072e-05
2.35633e-05
2.35224e-05
2.34757e-05
2.34315e-05
2.33903e-05
2.33473e-05
2.33008e-05
2.32588e-05
2.322e-05
2.318e-05
2.31383e-05
2.30977e-05
2.30593e-05
2.30216e-05
2.29839e-05
2.29466e-05
2.29105e-05
2.28755e-05
2.28414e-05
2.28082e-05
2.2776e-05
2.27448e-05
2.27145e-05
2.26853e-05
2.26572e-05
2.26302e-05
2.26045e-05
2.25802e-05
2.25574e-05
2.25361e-05
2.25163e-05
2.24983e-05
2.24822e-05
2.24681e-05
2.24564e-05
2.24473e-05
2.24413e-05
2.24386e-05
2.24387e-05
2.24398e-05
2.5027e-05
2.50548e-05
2.50769e-05
2.50955e-05
2.51112e-05
2.51241e-05
2.51341e-05
2.51409e-05
2.51416e-05
2.51392e-05
2.51341e-05
2.51268e-05
2.51187e-05
2.51106e-05
2.51031e-05
2.50961e-05
2.50905e-05
2.50859e-05
2.50798e-05
2.50707e-05
2.5058e-05
2.5043e-05
2.50269e-05
2.50109e-05
2.49972e-05
2.4987e-05
2.49802e-05
2.49742e-05
2.49669e-05
2.49571e-05
2.49443e-05
2.49287e-05
2.49105e-05
2.48906e-05
2.48695e-05
2.4849e-05
2.48305e-05
2.48133e-05
2.47964e-05
2.47789e-05
2.47598e-05
2.47385e-05
2.4715e-05
2.46892e-05
2.46615e-05
2.46323e-05
2.46015e-05
2.457e-05
2.45381e-05
2.45056e-05
2.4473e-05
2.44409e-05
2.44088e-05
2.43765e-05
2.43447e-05
2.43128e-05
2.42801e-05
2.42473e-05
2.42143e-05
2.41798e-05
2.41443e-05
2.41085e-05
2.40712e-05
2.4032e-05
2.39917e-05
2.39517e-05
2.39105e-05
2.3867e-05
2.38238e-05
2.378e-05
2.37373e-05
2.36977e-05
2.36512e-05
2.36012e-05
2.35578e-05
2.35173e-05
2.34765e-05
2.34303e-05
2.33854e-05
2.3345e-05
2.33048e-05
2.32631e-05
2.32219e-05
2.3183e-05
2.31452e-05
2.3108e-05
2.30718e-05
2.30368e-05
2.30029e-05
2.29698e-05
2.29378e-05
2.29068e-05
2.28771e-05
2.28487e-05
2.28217e-05
2.27961e-05
2.27719e-05
2.27494e-05
2.27285e-05
2.27095e-05
2.26924e-05
2.26776e-05
2.26649e-05
2.26546e-05
2.26464e-05
2.26402e-05
2.26354e-05
2.53082e-05
2.53189e-05
2.53257e-05
2.53268e-05
2.5325e-05
2.53209e-05
2.53158e-05
2.531e-05
2.53045e-05
2.52994e-05
2.52954e-05
2.52924e-05
2.52896e-05
2.52851e-05
2.52776e-05
2.52678e-05
2.52564e-05
2.52445e-05
2.52323e-05
2.52219e-05
2.52139e-05
2.52063e-05
2.51981e-05
2.51881e-05
2.5176e-05
2.51621e-05
2.51464e-05
2.51308e-05
2.51163e-05
2.51051e-05
2.5096e-05
2.5089e-05
2.50825e-05
2.5075e-05
2.50657e-05
2.50544e-05
2.50407e-05
2.50252e-05
2.50084e-05
2.4992e-05
2.49764e-05
2.49611e-05
2.49468e-05
2.49326e-05
2.49176e-05
2.49014e-05
2.48834e-05
2.48636e-05
2.48421e-05
2.48188e-05
2.47937e-05
2.4768e-05
2.47412e-05
2.47128e-05
2.46848e-05
2.46568e-05
2.46274e-05
2.45981e-05
2.45696e-05
2.45396e-05
2.45092e-05
2.44796e-05
2.44486e-05
2.4416e-05
2.43836e-05
2.43504e-05
2.43152e-05
2.42781e-05
2.42411e-05
2.42043e-05
2.41648e-05
2.41223e-05
2.40811e-05
2.40403e-05
2.40046e-05
2.3958e-05
2.39083e-05
2.38654e-05
2.38246e-05
2.37855e-05
2.37367e-05
2.36896e-05
2.36476e-05
2.36069e-05
2.35622e-05
2.35178e-05
2.34773e-05
2.34374e-05
2.33972e-05
2.33588e-05
2.33219e-05
2.32856e-05
2.32499e-05
2.32151e-05
2.31815e-05
2.31492e-05
2.31181e-05
2.30882e-05
2.30596e-05
2.30324e-05
2.30065e-05
2.29822e-05
2.29595e-05
2.29385e-05
2.29192e-05
2.29018e-05
2.28859e-05
2.28716e-05
2.28584e-05
2.28463e-05
2.54805e-05
2.54766e-05
2.54738e-05
2.5472e-05
2.54691e-05
2.54639e-05
2.54569e-05
2.54474e-05
2.54368e-05
2.54262e-05
2.54165e-05
2.54085e-05
2.54026e-05
2.53966e-05
2.53895e-05
2.53807e-05
2.53704e-05
2.53587e-05
2.53462e-05
2.53336e-05
2.53222e-05
2.53123e-05
2.53037e-05
2.52954e-05
2.52865e-05
2.52767e-05
2.52652e-05
2.52528e-05
2.52401e-05
2.5228e-05
2.52177e-05
2.52095e-05
2.52029e-05
2.51971e-05
2.51913e-05
2.51846e-05
2.51766e-05
2.51669e-05
2.5155e-05
2.51425e-05
2.51302e-05
2.51161e-05
2.51028e-05
2.50906e-05
2.50785e-05
2.5066e-05
2.50529e-05
2.50384e-05
2.50232e-05
2.50069e-05
2.49874e-05
2.49676e-05
2.49477e-05
2.49236e-05
2.49e-05
2.48772e-05
2.48515e-05
2.48253e-05
2.48003e-05
2.47739e-05
2.47462e-05
2.47193e-05
2.46929e-05
2.46631e-05
2.46334e-05
2.46048e-05
2.45745e-05
2.45407e-05
2.45073e-05
2.44751e-05
2.44409e-05
2.44011e-05
2.43633e-05
2.43258e-05
2.42934e-05
2.42493e-05
2.42029e-05
2.41622e-05
2.41225e-05
2.4086e-05
2.4038e-05
2.39908e-05
2.39488e-05
2.39086e-05
2.38622e-05
2.38154e-05
2.37735e-05
2.37327e-05
2.36903e-05
2.36505e-05
2.36129e-05
2.35749e-05
2.35367e-05
2.34993e-05
2.34634e-05
2.34288e-05
2.33952e-05
2.33625e-05
2.33307e-05
2.33001e-05
2.32707e-05
2.32425e-05
2.32157e-05
2.31903e-05
2.31663e-05
2.31435e-05
2.3122e-05
2.31015e-05
2.30819e-05
2.30629e-05
2.56103e-05
2.56003e-05
2.55915e-05
2.55847e-05
2.55788e-05
2.55726e-05
2.55654e-05
2.55563e-05
2.55459e-05
2.55348e-05
2.55234e-05
2.55127e-05
2.55034e-05
2.54956e-05
2.54887e-05
2.54816e-05
2.54741e-05
2.54656e-05
2.54559e-05
2.54455e-05
2.54349e-05
2.54248e-05
2.54158e-05
2.54076e-05
2.54e-05
2.53924e-05
2.53841e-05
2.53749e-05
2.5365e-05
2.53546e-05
2.53444e-05
2.53353e-05
2.53276e-05
2.53213e-05
2.53159e-05
2.5311e-05
2.53058e-05
2.53003e-05
2.52925e-05
2.52843e-05
2.52765e-05
2.52651e-05
2.52531e-05
2.52429e-05
2.52326e-05
2.52215e-05
2.52112e-05
2.52e-05
2.51883e-05
2.51769e-05
2.51621e-05
2.51469e-05
2.51327e-05
2.51134e-05
2.50935e-05
2.50752e-05
2.50549e-05
2.50306e-05
2.50084e-05
2.4987e-05
2.4961e-05
2.49365e-05
2.49139e-05
2.48863e-05
2.48595e-05
2.48344e-05
2.48078e-05
2.47761e-05
2.47467e-05
2.47185e-05
2.46888e-05
2.46519e-05
2.46182e-05
2.45845e-05
2.45551e-05
2.4514e-05
2.44722e-05
2.4435e-05
2.43975e-05
2.43639e-05
2.43172e-05
2.42727e-05
2.42324e-05
2.41936e-05
2.41462e-05
2.40982e-05
2.40557e-05
2.40153e-05
2.3972e-05
2.39311e-05
2.38925e-05
2.38545e-05
2.38146e-05
2.37745e-05
2.3737e-05
2.37009e-05
2.36651e-05
2.36297e-05
2.35949e-05
2.3561e-05
2.35283e-05
2.34966e-05
2.3466e-05
2.34364e-05
2.34079e-05
2.33804e-05
2.33539e-05
2.33281e-05
2.33031e-05
2.32786e-05
2.57178e-05
2.57068e-05
2.56959e-05
2.56859e-05
2.56776e-05
2.56706e-05
2.56641e-05
2.56573e-05
2.56498e-05
2.56414e-05
2.56323e-05
2.56228e-05
2.56136e-05
2.56053e-05
2.5598e-05
2.55914e-05
2.55852e-05
2.55787e-05
2.55715e-05
2.55636e-05
2.5555e-05
2.55461e-05
2.55374e-05
2.55292e-05
2.55217e-05
2.55146e-05
2.55077e-05
2.55005e-05
2.5493e-05
2.54849e-05
2.54763e-05
2.54678e-05
2.54599e-05
2.54529e-05
2.54472e-05
2.54422e-05
2.54378e-05
2.5434e-05
2.54292e-05
2.54239e-05
2.54192e-05
2.54119e-05
2.54025e-05
2.53945e-05
2.53866e-05
2.53763e-05
2.53674e-05
2.53585e-05
2.53484e-05
2.53395e-05
2.53285e-05
2.53162e-05
2.53052e-05
2.52914e-05
2.52745e-05
2.52591e-05
2.52441e-05
2.52223e-05
2.52024e-05
2.51847e-05
2.51612e-05
2.51381e-05
2.51177e-05
2.50932e-05
2.50677e-05
2.50445e-05
2.50209e-05
2.49907e-05
2.4964e-05
2.49394e-05
2.49116e-05
2.4877e-05
2.4847e-05
2.48169e-05
2.47901e-05
2.47505e-05
2.47138e-05
2.46801e-05
2.46458e-05
2.46139e-05
2.45681e-05
2.4528e-05
2.44904e-05
2.44536e-05
2.44052e-05
2.43579e-05
2.43161e-05
2.42766e-05
2.4233e-05
2.41916e-05
2.41525e-05
2.41149e-05
2.40741e-05
2.4032e-05
2.39929e-05
2.39554e-05
2.39186e-05
2.38811e-05
2.38434e-05
2.38068e-05
2.37714e-05
2.37369e-05
2.37032e-05
2.36704e-05
2.36384e-05
2.36071e-05
2.35766e-05
2.35468e-05
2.35177e-05
2.3489e-05
2.5822e-05
2.58138e-05
2.58049e-05
2.5796e-05
2.57876e-05
2.57802e-05
2.57738e-05
2.57679e-05
2.5762e-05
2.57557e-05
2.57489e-05
2.57415e-05
2.57337e-05
2.57259e-05
2.57186e-05
2.57119e-05
2.57059e-05
2.57001e-05
2.56944e-05
2.56883e-05
2.56818e-05
2.56747e-05
2.56674e-05
2.56601e-05
2.5653e-05
2.56464e-05
2.56401e-05
2.5634e-05
2.5628e-05
2.56217e-05
2.56151e-05
2.56082e-05
2.56012e-05
2.55946e-05
2.55888e-05
2.55836e-05
2.5579e-05
2.55757e-05
2.55722e-05
2.55682e-05
2.55653e-05
2.55613e-05
2.55549e-05
2.55492e-05
2.55438e-05
2.55351e-05
2.55274e-05
2.55204e-05
2.55112e-05
2.55031e-05
2.5495e-05
2.54842e-05
2.54746e-05
2.54649e-05
2.54506e-05
2.54374e-05
2.54255e-05
2.54072e-05
2.53892e-05
2.53738e-05
2.53534e-05
2.53312e-05
2.53119e-05
2.52906e-05
2.52654e-05
2.52427e-05
2.52213e-05
2.51928e-05
2.51674e-05
2.51447e-05
2.51166e-05
2.50843e-05
2.50569e-05
2.50302e-05
2.50026e-05
2.49646e-05
2.49324e-05
2.4901e-05
2.48714e-05
2.48359e-05
2.47938e-05
2.47582e-05
2.47224e-05
2.46872e-05
2.46388e-05
2.45942e-05
2.45538e-05
2.45152e-05
2.4471e-05
2.44297e-05
2.43909e-05
2.43535e-05
2.43126e-05
2.42689e-05
2.42286e-05
2.41903e-05
2.41522e-05
2.41139e-05
2.4074e-05
2.40353e-05
2.39981e-05
2.39618e-05
2.39261e-05
2.3891e-05
2.38565e-05
2.38226e-05
2.37893e-05
2.37567e-05
2.37247e-05
2.36932e-05
2.59406e-05
2.59347e-05
2.59286e-05
2.59219e-05
2.59149e-05
2.59076e-05
2.59007e-05
2.58943e-05
2.58885e-05
2.58831e-05
2.5878e-05
2.58727e-05
2.58671e-05
2.58611e-05
2.58548e-05
2.58485e-05
2.58424e-05
2.58367e-05
2.58315e-05
2.58265e-05
2.58217e-05
2.58167e-05
2.58115e-05
2.5806e-05
2.58002e-05
2.57943e-05
2.57886e-05
2.57832e-05
2.5778e-05
2.5773e-05
2.57681e-05
2.57632e-05
2.5758e-05
2.57526e-05
2.57472e-05
2.5742e-05
2.57371e-05
2.57327e-05
2.57294e-05
2.57263e-05
2.57229e-05
2.57209e-05
2.57185e-05
2.57142e-05
2.57106e-05
2.57071e-05
2.57006e-05
2.56943e-05
2.5689e-05
2.56808e-05
2.56731e-05
2.56666e-05
2.5657e-05
2.56478e-05
2.564e-05
2.5628e-05
2.56158e-05
2.56056e-05
2.55906e-05
2.55739e-05
2.55597e-05
2.55424e-05
2.55211e-05
2.55023e-05
2.54835e-05
2.54588e-05
2.5436e-05
2.54156e-05
2.53887e-05
2.53628e-05
2.53401e-05
2.53132e-05
2.52822e-05
2.52556e-05
2.52313e-05
2.52001e-05
2.51649e-05
2.51355e-05
2.51054e-05
2.50781e-05
2.50383e-05
2.50013e-05
2.49684e-05
2.49345e-05
2.48984e-05
2.48513e-05
2.48104e-05
2.4772e-05
2.47338e-05
2.46887e-05
2.46479e-05
2.46099e-05
2.45728e-05
2.45318e-05
2.44867e-05
2.44459e-05
2.44071e-05
2.4368e-05
2.43287e-05
2.42883e-05
2.42486e-05
2.42104e-05
2.41731e-05
2.41362e-05
2.40997e-05
2.40636e-05
2.4028e-05
2.3993e-05
2.39586e-05
2.39248e-05
2.38916e-05
2.6061e-05
2.60557e-05
2.60507e-05
2.60456e-05
2.60403e-05
2.60347e-05
2.6029e-05
2.60235e-05
2.60183e-05
2.60134e-05
2.6009e-05
2.60047e-05
2.60005e-05
2.59961e-05
2.59915e-05
2.59868e-05
2.5982e-05
2.59773e-05
2.59729e-05
2.59688e-05
2.5965e-05
2.59613e-05
2.59577e-05
2.59539e-05
2.59499e-05
2.59458e-05
2.59415e-05
2.59374e-05
2.59334e-05
2.59296e-05
2.5926e-05
2.59224e-05
2.59188e-05
2.5915e-05
2.59112e-05
2.59072e-05
2.59033e-05
2.58996e-05
2.58965e-05
2.58936e-05
2.58906e-05
2.58889e-05
2.5887e-05
2.5884e-05
2.58817e-05
2.58794e-05
2.58747e-05
2.58699e-05
2.58658e-05
2.58589e-05
2.58516e-05
2.58459e-05
2.58374e-05
2.5828e-05
2.58207e-05
2.58104e-05
2.57983e-05
2.57886e-05
2.57759e-05
2.576e-05
2.57462e-05
2.57312e-05
2.57109e-05
2.56922e-05
2.56748e-05
2.56513e-05
2.5628e-05
2.56077e-05
2.55824e-05
2.55554e-05
2.55316e-05
2.55062e-05
2.54756e-05
2.54481e-05
2.54239e-05
2.53917e-05
2.53582e-05
2.53295e-05
2.53012e-05
2.52705e-05
2.52304e-05
2.5197e-05
2.51646e-05
2.51334e-05
2.50928e-05
2.50495e-05
2.50121e-05
2.49754e-05
2.49364e-05
2.48905e-05
2.48506e-05
2.48135e-05
2.47771e-05
2.4735e-05
2.46892e-05
2.46483e-05
2.46094e-05
2.45699e-05
2.45299e-05
2.44896e-05
2.44498e-05
2.44112e-05
2.43734e-05
2.4336e-05
2.42987e-05
2.42618e-05
2.42252e-05
2.41892e-05
2.41537e-05
2.41188e-05
2.40844e-05
2.40506e-05
2.40171e-05
2.61894e-05
2.61848e-05
2.61805e-05
2.61765e-05
2.61725e-05
2.61685e-05
2.61643e-05
2.61601e-05
2.61561e-05
2.61522e-05
2.61487e-05
2.61454e-05
2.61424e-05
2.61394e-05
2.61364e-05
2.61334e-05
2.61302e-05
2.61271e-05
2.61241e-05
2.61213e-05
2.61187e-05
2.61163e-05
2.61141e-05
2.6112e-05
2.61098e-05
2.61075e-05
2.61051e-05
2.61027e-05
2.61002e-05
2.60979e-05
2.60956e-05
2.60934e-05
2.60913e-05
2.60891e-05
2.60868e-05
2.60843e-05
2.60817e-05
2.60791e-05
2.60766e-05
2.60741e-05
2.60717e-05
2.60699e-05
2.60681e-05
2.60656e-05
2.6064e-05
2.60621e-05
2.60584e-05
2.60548e-05
2.60514e-05
2.60456e-05
2.60388e-05
2.60335e-05
2.60257e-05
2.60161e-05
2.60087e-05
2.59991e-05
2.59867e-05
2.59765e-05
2.59649e-05
2.59493e-05
2.59351e-05
2.59212e-05
2.5902e-05
2.58828e-05
2.58658e-05
2.58438e-05
2.58198e-05
2.57987e-05
2.57752e-05
2.57472e-05
2.57217e-05
2.56974e-05
2.56669e-05
2.56378e-05
2.56122e-05
2.55809e-05
2.55475e-05
2.55179e-05
2.54906e-05
2.54554e-05
2.54175e-05
2.53855e-05
2.53528e-05
2.53217e-05
2.52781e-05
2.52385e-05
2.52029e-05
2.51677e-05
2.51266e-05
2.50809e-05
2.5042e-05
2.50047e-05
2.49689e-05
2.4926e-05
2.48806e-05
2.48399e-05
2.4801e-05
2.47616e-05
2.47214e-05
2.46811e-05
2.46414e-05
2.46026e-05
2.45646e-05
2.45269e-05
2.44894e-05
2.44521e-05
2.44151e-05
2.43785e-05
2.43424e-05
2.43066e-05
2.42713e-05
2.42367e-05
2.42024e-05
2.63326e-05
2.63285e-05
2.63246e-05
2.63209e-05
2.63176e-05
2.63146e-05
2.63118e-05
2.63091e-05
2.63065e-05
2.63039e-05
2.63013e-05
2.62988e-05
2.62966e-05
2.62946e-05
2.62928e-05
2.62913e-05
2.62899e-05
2.62885e-05
2.62872e-05
2.62859e-05
2.62846e-05
2.62834e-05
2.62824e-05
2.62816e-05
2.6281e-05
2.62805e-05
2.62801e-05
2.62796e-05
2.62791e-05
2.62786e-05
2.62779e-05
2.62773e-05
2.62766e-05
2.62759e-05
2.62752e-05
2.62745e-05
2.62736e-05
2.62726e-05
2.62713e-05
2.62699e-05
2.62683e-05
2.62664e-05
2.62646e-05
2.62629e-05
2.6261e-05
2.62588e-05
2.62571e-05
2.6255e-05
2.62516e-05
2.62485e-05
2.62452e-05
2.62398e-05
2.62335e-05
2.62282e-05
2.62205e-05
2.62106e-05
2.62028e-05
2.61931e-05
2.61802e-05
2.6169e-05
2.61575e-05
2.61417e-05
2.61263e-05
2.61124e-05
2.60939e-05
2.60737e-05
2.60561e-05
2.60353e-05
2.60105e-05
2.5988e-05
2.59656e-05
2.59375e-05
2.59102e-05
2.58856e-05
2.5856e-05
2.58249e-05
2.5797e-05
2.57673e-05
2.57332e-05
2.57017e-05
2.56734e-05
2.56373e-05
2.56002e-05
2.55679e-05
2.55354e-05
2.55015e-05
2.54574e-05
2.54201e-05
2.53846e-05
2.53505e-05
2.53076e-05
2.52626e-05
2.52239e-05
2.51861e-05
2.51499e-05
2.51072e-05
2.50632e-05
2.50227e-05
2.49837e-05
2.49444e-05
2.49044e-05
2.48643e-05
2.48246e-05
2.47856e-05
2.47473e-05
2.47095e-05
2.46718e-05
2.46344e-05
2.45971e-05
2.456e-05
2.45234e-05
2.44872e-05
2.44513e-05
2.44158e-05
2.43806e-05
2.64711e-05
2.64684e-05
2.64659e-05
2.64635e-05
2.64614e-05
2.64596e-05
2.64581e-05
2.64567e-05
2.64556e-05
2.64546e-05
2.64536e-05
2.64528e-05
2.64522e-05
2.64518e-05
2.64516e-05
2.64516e-05
2.64518e-05
2.64522e-05
2.64528e-05
2.64533e-05
2.6454e-05
2.64548e-05
2.64556e-05
2.64566e-05
2.64577e-05
2.6459e-05
2.64603e-05
2.64617e-05
2.64631e-05
2.64645e-05
2.64657e-05
2.64668e-05
2.64678e-05
2.64687e-05
2.64695e-05
2.64701e-05
2.64706e-05
2.64708e-05
2.64707e-05
2.64703e-05
2.64696e-05
2.64685e-05
2.64671e-05
2.64655e-05
2.64636e-05
2.64613e-05
2.64591e-05
2.64564e-05
2.64529e-05
2.64495e-05
2.64455e-05
2.64398e-05
2.64336e-05
2.64277e-05
2.64195e-05
2.64093e-05
2.64006e-05
2.63902e-05
2.63765e-05
2.63639e-05
2.63516e-05
2.63353e-05
2.63181e-05
2.63031e-05
2.62847e-05
2.62631e-05
2.62438e-05
2.62236e-05
2.61983e-05
2.61738e-05
2.61513e-05
2.61239e-05
2.60946e-05
2.60681e-05
2.60401e-05
2.60074e-05
2.59767e-05
2.59478e-05
2.59137e-05
2.58799e-05
2.58492e-05
2.58142e-05
2.57768e-05
2.5743e-05
2.57106e-05
2.56732e-05
2.56304e-05
2.55938e-05
2.55576e-05
2.55236e-05
2.54791e-05
2.54353e-05
2.53964e-05
2.5358e-05
2.53198e-05
2.52793e-05
2.5237e-05
2.51965e-05
2.5157e-05
2.51175e-05
2.50778e-05
2.50379e-05
2.49983e-05
2.49592e-05
2.49206e-05
2.48824e-05
2.48445e-05
2.48068e-05
2.47693e-05
2.47321e-05
2.4695e-05
2.46582e-05
2.46216e-05
2.45853e-05
2.45492e-05
2.45133e-05
2.66305e-05
2.66275e-05
2.66248e-05
2.66223e-05
2.66201e-05
2.66182e-05
2.66166e-05
2.66152e-05
2.6614e-05
2.66129e-05
2.66121e-05
2.66114e-05
2.6611e-05
2.6611e-05
2.66111e-05
2.66115e-05
2.66122e-05
2.6613e-05
2.6614e-05
2.66151e-05
2.66165e-05
2.66181e-05
2.66199e-05
2.6622e-05
2.66242e-05
2.66266e-05
2.66292e-05
2.66319e-05
2.66346e-05
2.66375e-05
2.66404e-05
2.66434e-05
2.66465e-05
2.66497e-05
2.66529e-05
2.6656e-05
2.66592e-05
2.66621e-05
2.6665e-05
2.66676e-05
2.667e-05
2.66721e-05
2.6674e-05
2.66756e-05
2.66769e-05
2.66778e-05
2.66782e-05
2.6678e-05
2.66774e-05
2.66764e-05
2.66748e-05
2.66727e-05
2.66701e-05
2.66671e-05
2.66635e-05
2.66593e-05
2.66548e-05
2.66497e-05
2.66431e-05
2.66361e-05
2.66289e-05
2.66196e-05
2.66086e-05
2.65987e-05
2.65869e-05
2.65721e-05
2.65578e-05
2.6544e-05
2.65267e-05
2.65074e-05
2.64906e-05
2.64714e-05
2.64483e-05
2.64266e-05
2.64058e-05
2.63802e-05
2.63533e-05
2.63291e-05
2.63023e-05
2.62714e-05
2.62423e-05
2.62148e-05
2.6182e-05
2.61486e-05
2.61178e-05
2.60855e-05
2.60494e-05
2.60151e-05
2.59816e-05
2.5944e-05
2.59077e-05
2.58736e-05
2.58359e-05
2.57944e-05
2.57568e-05
2.57197e-05
2.56844e-05
2.56401e-05
2.55975e-05
2.55579e-05
2.55189e-05
2.54796e-05
2.54396e-05
2.53987e-05
2.53582e-05
2.53183e-05
2.52786e-05
2.5239e-05
2.51992e-05
2.51597e-05
2.51204e-05
2.50815e-05
2.5043e-05
2.50049e-05
2.49669e-05
2.4929e-05
2.48914e-05
2.48538e-05
2.48164e-05
2.47791e-05
2.4742e-05
2.4705e-05
2.46681e-05
2.67705e-05
2.67689e-05
2.67675e-05
2.67664e-05
2.67655e-05
2.6765e-05
2.67647e-05
2.67647e-05
2.6765e-05
2.67655e-05
2.67662e-05
2.67672e-05
2.67685e-05
2.677e-05
2.67719e-05
2.6774e-05
2.67763e-05
2.6779e-05
2.67819e-05
2.67849e-05
2.67883e-05
2.67918e-05
2.67955e-05
2.67995e-05
2.68037e-05
2.68081e-05
2.68126e-05
2.68173e-05
2.68221e-05
2.68269e-05
2.68318e-05
2.68367e-05
2.68417e-05
2.68466e-05
2.68515e-05
2.68563e-05
2.6861e-05
2.68656e-05
2.68699e-05
2.68739e-05
2.68775e-05
2.68808e-05
2.68837e-05
2.68862e-05
2.68881e-05
2.68896e-05
2.68905e-05
2.68905e-05
2.68901e-05
2.6889e-05
2.68872e-05
2.68846e-05
2.68813e-05
2.68773e-05
2.68725e-05
2.68671e-05
2.6861e-05
2.68541e-05
2.68461e-05
2.68375e-05
2.68283e-05
2.68174e-05
2.6805e-05
2.67931e-05
2.67794e-05
2.6763e-05
2.67467e-05
2.67308e-05
2.67118e-05
2.66903e-05
2.6671e-05
2.66503e-05
2.66256e-05
2.66009e-05
2.65783e-05
2.6552e-05
2.65227e-05
2.64957e-05
2.64689e-05
2.6437e-05
2.64051e-05
2.63759e-05
2.63439e-05
2.63082e-05
2.62746e-05
2.62429e-05
2.62064e-05
2.6169e-05
2.61337e-05
2.60975e-05
2.6059e-05
2.60219e-05
2.59846e-05
2.59448e-05
2.59056e-05
2.5867e-05
2.5829e-05
2.57879e-05
2.5746e-05
2.57054e-05
2.56655e-05
2.56256e-05
2.55854e-05
2.55449e-05
2.55044e-05
2.54643e-05
2.54244e-05
2.53846e-05
2.53449e-05
2.53052e-05
2.52659e-05
2.52268e-05
2.51881e-05
2.51495e-05
2.51111e-05
2.50728e-05
2.50346e-05
2.49964e-05
2.49584e-05
2.49204e-05
2.48824e-05
2.48446e-05
2.48069e-05
2.69148e-05
2.69146e-05
2.69147e-05
2.6915e-05
2.69156e-05
2.69165e-05
2.69177e-05
2.69193e-05
2.69211e-05
2.69233e-05
2.69257e-05
2.69285e-05
2.69315e-05
2.69348e-05
2.69384e-05
2.69424e-05
2.69466e-05
2.69511e-05
2.69559e-05
2.6961e-05
2.69663e-05
2.69718e-05
2.69776e-05
2.69836e-05
2.69897e-05
2.69961e-05
2.70026e-05
2.70092e-05
2.70159e-05
2.70226e-05
2.70294e-05
2.70361e-05
2.70427e-05
2.70492e-05
2.70557e-05
2.70619e-05
2.70679e-05
2.70737e-05
2.70791e-05
2.70842e-05
2.70887e-05
2.70928e-05
2.70963e-05
2.70992e-05
2.71015e-05
2.71031e-05
2.71038e-05
2.71037e-05
2.7103e-05
2.71013e-05
2.70988e-05
2.70953e-05
2.70909e-05
2.70855e-05
2.70792e-05
2.7072e-05
2.70639e-05
2.70549e-05
2.70447e-05
2.70339e-05
2.70221e-05
2.70088e-05
2.69944e-05
2.69798e-05
2.69636e-05
2.69451e-05
2.69263e-05
2.69077e-05
2.68864e-05
2.68625e-05
2.68403e-05
2.68173e-05
2.67907e-05
2.67628e-05
2.67375e-05
2.67099e-05
2.66784e-05
2.66481e-05
2.66198e-05
2.65872e-05
2.65525e-05
2.65203e-05
2.64886e-05
2.64517e-05
2.64153e-05
2.63813e-05
2.63463e-05
2.63066e-05
2.62684e-05
2.62317e-05
2.61932e-05
2.61538e-05
2.61152e-05
2.60761e-05
2.60364e-05
2.59966e-05
2.5957e-05
2.59167e-05
2.58754e-05
2.58344e-05
2.57938e-05
2.57534e-05
2.5713e-05
2.56724e-05
2.56319e-05
2.55916e-05
2.55515e-05
2.55115e-05
2.54716e-05
2.5432e-05
2.53925e-05
2.53533e-05
2.53142e-05
2.52752e-05
2.52363e-05
2.51975e-05
2.51587e-05
2.512e-05
2.50813e-05
2.50426e-05
2.50039e-05
2.49653e-05
2.49267e-05
2.70631e-05
2.70643e-05
2.70659e-05
2.70678e-05
2.707e-05
2.70725e-05
2.70753e-05
2.70785e-05
2.7082e-05
2.70859e-05
2.70901e-05
2.70946e-05
2.70995e-05
2.71047e-05
2.71102e-05
2.7116e-05
2.71222e-05
2.71287e-05
2.71354e-05
2.71425e-05
2.71498e-05
2.71573e-05
2.7165e-05
2.71729e-05
2.7181e-05
2.71892e-05
2.71976e-05
2.7206e-05
2.72144e-05
2.72228e-05
2.72312e-05
2.72394e-05
2.72475e-05
2.72554e-05
2.7263e-05
2.72703e-05
2.72773e-05
2.72839e-05
2.729e-05
2.72956e-05
2.73006e-05
2.7305e-05
2.73086e-05
2.73114e-05
2.73135e-05
2.73146e-05
2.73147e-05
2.7314e-05
2.73123e-05
2.73096e-05
2.73058e-05
2.73008e-05
2.72948e-05
2.72876e-05
2.72792e-05
2.72698e-05
2.72593e-05
2.72476e-05
2.72348e-05
2.7221e-05
2.72062e-05
2.719e-05
2.71727e-05
2.71549e-05
2.71356e-05
2.71143e-05
2.70925e-05
2.70707e-05
2.70465e-05
2.702e-05
2.69943e-05
2.69686e-05
2.69395e-05
2.69085e-05
2.68798e-05
2.68502e-05
2.68167e-05
2.67829e-05
2.67517e-05
2.67182e-05
2.66811e-05
2.66457e-05
2.66124e-05
2.65752e-05
2.65359e-05
2.64992e-05
2.64641e-05
2.64239e-05
2.6383e-05
2.63442e-05
2.63058e-05
2.62655e-05
2.62253e-05
2.61855e-05
2.61455e-05
2.61051e-05
2.60646e-05
2.60239e-05
2.59829e-05
2.59417e-05
2.59008e-05
2.586e-05
2.58193e-05
2.57787e-05
2.57381e-05
2.56976e-05
2.56571e-05
2.56171e-05
2.55772e-05
2.55375e-05
2.54978e-05
2.54583e-05
2.54189e-05
2.53795e-05
2.53402e-05
2.53009e-05
2.52616e-05
2.52224e-05
2.5183e-05
2.51437e-05
2.51043e-05
2.50649e-05
2.50255e-05
2.49861e-05
2.49468e-05
2.7215e-05
2.72178e-05
2.72209e-05
2.72243e-05
2.72282e-05
2.72323e-05
2.72369e-05
2.72418e-05
2.72471e-05
2.72527e-05
2.72588e-05
2.72651e-05
2.72719e-05
2.7279e-05
2.72864e-05
2.72941e-05
2.73022e-05
2.73106e-05
2.73193e-05
2.73282e-05
2.73374e-05
2.73468e-05
2.73564e-05
2.73661e-05
2.73759e-05
2.73858e-05
2.73958e-05
2.74057e-05
2.74156e-05
2.74254e-05
2.7435e-05
2.74445e-05
2.74536e-05
2.74624e-05
2.74708e-05
2.74788e-05
2.74863e-05
2.74932e-05
2.74995e-05
2.75051e-05
2.751e-05
2.7514e-05
2.75171e-05
2.75193e-05
2.75205e-05
2.75205e-05
2.75196e-05
2.75176e-05
2.75143e-05
2.75099e-05
2.75042e-05
2.74972e-05
2.74889e-05
2.74793e-05
2.74684e-05
2.74562e-05
2.74428e-05
2.7428e-05
2.74121e-05
2.7395e-05
2.73766e-05
2.7357e-05
2.73363e-05
2.73147e-05
2.72917e-05
2.72671e-05
2.72419e-05
2.72163e-05
2.71887e-05
2.71591e-05
2.71298e-05
2.71006e-05
2.70687e-05
2.70345e-05
2.70021e-05
2.69698e-05
2.6934e-05
2.68968e-05
2.68621e-05
2.68271e-05
2.6788e-05
2.67492e-05
2.67131e-05
2.66757e-05
2.66342e-05
2.65948e-05
2.65574e-05
2.65181e-05
2.64749e-05
2.64338e-05
2.63942e-05
2.63538e-05
2.63125e-05
2.62716e-05
2.62309e-05
2.61901e-05
2.61491e-05
2.6108e-05
2.60668e-05
2.60256e-05
2.59845e-05
2.59436e-05
2.59027e-05
2.58619e-05
2.58212e-05
2.57804e-05
2.57401e-05
2.57001e-05
2.56602e-05
2.56203e-05
2.55806e-05
2.55408e-05
2.55012e-05
2.54615e-05
2.54219e-05
2.53822e-05
2.53425e-05
2.53028e-05
2.52629e-05
2.5223e-05
2.5183e-05
2.51429e-05
2.51027e-05
2.50624e-05
2.5022e-05
2.737e-05
2.73744e-05
2.73791e-05
2.73842e-05
2.73897e-05
2.73956e-05
2.74019e-05
2.74086e-05
2.74156e-05
2.74231e-05
2.74309e-05
2.74392e-05
2.74477e-05
2.74567e-05
2.7466e-05
2.74756e-05
2.74855e-05
2.74957e-05
2.75062e-05
2.75169e-05
2.75278e-05
2.75388e-05
2.755e-05
2.75613e-05
2.75726e-05
2.75839e-05
2.75952e-05
2.76063e-05
2.76173e-05
2.76281e-05
2.76386e-05
2.76487e-05
2.76584e-05
2.76677e-05
2.76764e-05
2.76844e-05
2.76919e-05
2.76985e-05
2.77044e-05
2.77094e-05
2.77135e-05
2.77166e-05
2.77186e-05
2.77194e-05
2.7719e-05
2.77176e-05
2.77148e-05
2.77107e-05
2.77053e-05
2.76985e-05
2.76903e-05
2.76807e-05
2.76696e-05
2.7657e-05
2.7643e-05
2.76276e-05
2.76107e-05
2.75925e-05
2.75729e-05
2.7552e-05
2.75297e-05
2.75062e-05
2.74815e-05
2.74558e-05
2.74288e-05
2.74004e-05
2.73712e-05
2.73414e-05
2.73101e-05
2.7277e-05
2.72437e-05
2.72107e-05
2.71755e-05
2.71382e-05
2.71018e-05
2.70664e-05
2.7028e-05