/*--------------------------------*- C++ -*----------------------------------*\
| =========                 |                                                 |
| \\      /  F ield         | OpenFOAM: The Open Source CFD Toolbox           |
|  \\    /   O peration     | Version:  v1706                                 |
|   \\  /    A nd           | Web:      www.OpenFOAM.com                      |
|    \\/     M anipulation  |                                                 |
\*---------------------------------------------------------------------------*/
FoamFile
{
    version     2.0;
    format      ascii;
    class       volScalarField;
    location    "3.5e-05";
    object      kappatr;
}
// * * * * * * * * * * * * * * * * * * * * * * * * * * * * * * * * * * * * * //

dimensions      [1 1 -3 -1 0 0 0];


internalField   nonuniform List<scalar> 
29871
(
0.014806
0.0148328
0.0148627
0.0148965
0.0149348
0.014978
0.0150262
0.0150794
0.0151372
0.0151994
0.0152658
0.0153374
0.0154161
0.0155036
0.0155997
0.015703
0.0158122
0.0159259
0.0160431
0.0161628
0.0162835
0.0164042
0.0165236
0.0166409
0.0167568
0.0168775
0.0170301
0.0172083
0.0174014
0.0176003
0.017798
0.0179896
0.0181718
0.0183425
0.0185005
0.0186456
0.0187782
0.0188989
0.0190085
0.0191075
0.0191963
0.019275
0.0193437
0.0194027
0.0194523
0.0194928
0.0195246
0.0195482
0.0195642
0.0195741
0.0195754
0.0195719
0.0195648
0.0195549
0.0195412
0.0195234
0.019504
0.0194824
0.0194583
0.0194322
0.0194046
0.019376
0.0193454
0.0193132
0.0192803
0.0192461
0.01921
0.0191733
0.0191361
0.0190978
0.0190584
0.0190186
0.0189782
0.0189372
0.0188954
0.0188526
0.0188085
0.0187628
0.0187154
0.0186663
0.0186156
0.0185633
0.0185096
0.0184547
0.0183986
0.0183414
0.0182831
0.0182237
0.018163
0.018101
0.0180378
0.017973
0.0179066
0.0178385
0.0177684
0.0176962
0.0176216
0.0175442
0.0174639
0.0173801
0.0172924
0.0171996
0.0171008
0.0169953
0.0168833
0.0158362
0.0159838
0.0161467
0.0163273
0.0165261
0.0167419
0.0169728
0.0172162
0.0174694
0.0177297
0.0179959
0.0182695
0.0185665
0.0188987
0.0192604
0.0196416
0.0200317
0.0204205
0.0207994
0.0211615
0.0215018
0.0218168
0.0221045
0.0223644
0.022597
0.0228025
0.0229773
0.0231233
0.0232426
0.0233383
0.0234129
0.0234689
0.0235088
0.0235352
0.0235515
0.0235614
0.0235676
0.0235719
0.0235753
0.023578
0.0235805
0.0235818
0.0235811
0.0235789
0.023575
0.0235693
0.0235608
0.0235492
0.0235344
0.0235165
0.0234954
0.0234713
0.0234447
0.0234162
0.0233852
0.023354
0.0233222
0.0232878
0.0232529
0.0232177
0.0231824
0.0231476
0.0231125
0.0230773
0.0230423
0.0230076
0.022973
0.0229395
0.0229061
0.0228727
0.0228403
0.0228083
0.0227758
0.0227436
0.022712
0.0226804
0.0226484
0.0226159
0.0225832
0.0225505
0.0225179
0.0224854
0.0224532
0.0224212
0.0223894
0.0223576
0.0223258
0.0222939
0.0222619
0.0222298
0.0221976
0.0221651
0.0221324
0.0220994
0.0220659
0.0220319
0.0219973
0.0219619
0.0219256
0.0218882
0.0218491
0.0218086
0.0217679
0.0217285
0.0216909
0.0179929
0.0183227
0.018666
0.0190365
0.0194449
0.0198854
0.0203469
0.0208168
0.0212829
0.0217342
0.0221622
0.0225612
0.0229266
0.0232533
0.0235391
0.0237868
0.024
0.0241831
0.0243402
0.0244748
0.0245894
0.0246858
0.0247645
0.0248259
0.0248709
0.0249023
0.0249232
0.0249364
0.0249438
0.0249436
0.02494
0.0249319
0.0249181
0.0248978
0.0248706
0.024838
0.0248016
0.0247629
0.0247231
0.0246832
0.0246437
0.0246054
0.0245685
0.0245331
0.0244995
0.0244675
0.024437
0.0244076
0.0243789
0.0243505
0.0243218
0.0242925
0.0242622
0.0242309
0.0241983
0.0241644
0.0241294
0.0240932
0.0240562
0.0240184
0.0239796
0.0239402
0.0238996
0.0238619
0.0238226
0.0237795
0.0237405
0.0237047
0.0236642
0.0236242
0.0235887
0.0235528
0.0235155
0.0234803
0.0234473
0.0234142
0.0233809
0.0233481
0.0233163
0.0232849
0.0232539
0.0232232
0.0231931
0.0231635
0.0231346
0.0231063
0.0230787
0.0230518
0.0230255
0.0230001
0.0229754
0.0229515
0.0229286
0.0229067
0.0228859
0.0228661
0.0228475
0.0228301
0.022814
0.0227992
0.0227858
0.0227743
0.0227651
0.0227584
0.0227555
0.0227562
0.0221309
0.0225974
0.0230311
0.0234239
0.0237718
0.0240759
0.0243389
0.0245644
0.0247563
0.0249185
0.0250545
0.0251674
0.0252595
0.0253324
0.0253878
0.0254277
0.0254547
0.0254727
0.0254853
0.0254954
0.0255043
0.0255124
0.0255194
0.0255217
0.025519
0.0255114
0.0254994
0.0254842
0.0254666
0.0254469
0.0254262
0.0254052
0.0253849
0.0253656
0.0253467
0.0253255
0.0253006
0.0252714
0.0252383
0.0252022
0.0251641
0.0251248
0.0250851
0.0250455
0.0250066
0.0249687
0.0249321
0.0248967
0.0248627
0.0248298
0.0247976
0.0247658
0.0247339
0.0247016
0.0246683
0.0246339
0.0245982
0.0245609
0.0245223
0.0244824
0.0244409
0.0243983
0.0243537
0.0243116
0.024268
0.0242195
0.0241749
0.0241335
0.0240875
0.0240416
0.024
0.0239581
0.0239146
0.0238733
0.0238346
0.0237958
0.0237567
0.0237184
0.0236815
0.0236453
0.0236093
0.0235736
0.0235384
0.023504
0.0234704
0.0234376
0.0234057
0.0233747
0.0233446
0.0233155
0.0232874
0.0232605
0.0232348
0.0232104
0.0231875
0.0231662
0.0231466
0.0231287
0.0231127
0.0230988
0.0230874
0.0230789
0.0230749
0.0230749
0.0230766
0.02308
0.024965
0.0251468
0.0252993
0.0254262
0.0255303
0.0256146
0.0256816
0.0257333
0.0257718
0.0258
0.0258212
0.0258383
0.0258523
0.0258639
0.0258728
0.0258781
0.0258771
0.025872
0.0258622
0.0258492
0.0258345
0.0258196
0.025806
0.025795
0.0257878
0.025784
0.0257807
0.0257749
0.0257651
0.0257509
0.025733
0.0257124
0.0256903
0.0256678
0.0256465
0.0256273
0.0256086
0.0255886
0.0255661
0.0255405
0.0255115
0.0254795
0.0254449
0.0254085
0.0253707
0.0253322
0.0252935
0.025255
0.0252169
0.0251794
0.0251429
0.0251071
0.0250719
0.025037
0.0250024
0.0249674
0.0249319
0.024896
0.024859
0.0248208
0.0247817
0.0247415
0.0246997
0.0246562
0.024613
0.0245705
0.0245234
0.0244779
0.0244353
0.0243869
0.0243409
0.0242981
0.0242535
0.0242052
0.0241615
0.0241212
0.0240797
0.0240364
0.0239941
0.0239543
0.0239151
0.0238759
0.0238372
0.0237997
0.0237633
0.0237279
0.0236934
0.02366
0.0236276
0.0235961
0.0235658
0.0235365
0.0235085
0.0234819
0.0234566
0.0234329
0.0234107
0.0233902
0.0233715
0.0233547
0.0233401
0.0233279
0.0233185
0.0233123
0.0233094
0.0233096
0.0233107
0.0259983
0.0260272
0.0260502
0.0260695
0.0260858
0.0260992
0.0261096
0.0261166
0.0261174
0.0261149
0.0261096
0.026102
0.0260935
0.0260851
0.0260774
0.0260701
0.0260643
0.0260595
0.0260532
0.0260438
0.0260305
0.026015
0.0259983
0.0259817
0.0259674
0.0259568
0.0259497
0.0259435
0.0259359
0.0259257
0.0259125
0.0258962
0.0258774
0.0258566
0.0258347
0.0258134
0.0257942
0.0257763
0.0257588
0.0257406
0.0257208
0.0256987
0.0256742
0.0256474
0.0256187
0.0255883
0.0255564
0.0255236
0.0254904
0.0254567
0.0254228
0.0253895
0.0253562
0.0253226
0.0252895
0.0252564
0.0252224
0.0251884
0.0251541
0.0251182
0.0250814
0.0250442
0.0250054
0.0249647
0.0249228
0.0248814
0.0248385
0.0247933
0.0247485
0.0247029
0.0246586
0.0246175
0.0245691
0.0245172
0.0244721
0.02443
0.0243876
0.0243397
0.0242931
0.0242511
0.0242093
0.024166
0.0241232
0.0240827
0.0240435
0.0240048
0.0239672
0.0239309
0.0238957
0.0238613
0.023828
0.0237959
0.023765
0.0237355
0.0237074
0.0236808
0.0236557
0.0236323
0.0236106
0.0235909
0.0235732
0.0235577
0.0235446
0.0235339
0.0235254
0.0235189
0.0235139
0.0262905
0.0263015
0.0263087
0.0263098
0.0263079
0.0263037
0.0262983
0.0262924
0.0262866
0.0262813
0.0262771
0.026274
0.0262712
0.0262664
0.0262586
0.0262485
0.0262367
0.0262243
0.0262116
0.0262008
0.0261925
0.0261846
0.0261761
0.0261656
0.0261531
0.0261387
0.0261224
0.0261061
0.0260911
0.0260794
0.02607
0.0260627
0.026056
0.0260482
0.0260386
0.0260268
0.0260126
0.0259964
0.025979
0.025962
0.0259458
0.0259299
0.025915
0.0259003
0.0258847
0.0258678
0.0258491
0.0258285
0.0258063
0.025782
0.025756
0.0257292
0.0257014
0.025672
0.0256428
0.0256138
0.0255832
0.0255528
0.0255232
0.0254921
0.0254604
0.0254297
0.0253975
0.0253636
0.0253299
0.0252955
0.0252589
0.0252204
0.0251819
0.0251437
0.0251026
0.0250585
0.0250157
0.0249734
0.0249363
0.0248879
0.0248362
0.0247916
0.0247492
0.0247087
0.024658
0.024609
0.0245654
0.0245231
0.0244767
0.0244305
0.0243885
0.024347
0.0243053
0.0242654
0.0242271
0.0241894
0.0241523
0.0241161
0.0240812
0.0240477
0.0240154
0.0239843
0.0239546
0.0239263
0.0238994
0.0238742
0.0238506
0.0238288
0.0238088
0.0237906
0.0237742
0.0237593
0.0237456
0.023733
0.0264695
0.0264653
0.0264625
0.0264606
0.0264576
0.0264522
0.026445
0.0264351
0.0264241
0.026413
0.026403
0.0263947
0.0263885
0.0263823
0.0263749
0.0263658
0.0263551
0.0263429
0.0263299
0.0263169
0.026305
0.0262947
0.0262857
0.0262772
0.0262679
0.0262577
0.0262458
0.0262329
0.0262197
0.0262072
0.0261964
0.0261879
0.0261811
0.026175
0.026169
0.0261621
0.0261537
0.0261436
0.0261313
0.0261184
0.0261056
0.0260909
0.0260771
0.0260645
0.0260518
0.0260388
0.0260253
0.0260102
0.0259944
0.0259775
0.0259572
0.0259366
0.025916
0.0258909
0.0258664
0.0258428
0.0258161
0.0257888
0.0257628
0.0257355
0.0257066
0.0256787
0.0256512
0.0256203
0.0255895
0.0255598
0.0255283
0.0254932
0.0254585
0.025425
0.0253895
0.0253481
0.0253089
0.0252699
0.0252362
0.0251905
0.0251423
0.0251
0.0250587
0.0250208
0.0249709
0.0249219
0.0248783
0.0248365
0.0247883
0.0247398
0.0246961
0.0246538
0.0246098
0.0245684
0.0245294
0.0244899
0.0244502
0.0244114
0.0243741
0.0243381
0.0243032
0.0242692
0.0242362
0.0242044
0.0241738
0.0241446
0.0241168
0.0240904
0.0240654
0.0240418
0.0240194
0.0239981
0.0239777
0.0239581
0.0266043
0.0265939
0.0265848
0.0265777
0.0265715
0.0265651
0.0265576
0.0265482
0.0265374
0.0265258
0.026514
0.0265029
0.0264932
0.0264852
0.0264779
0.0264706
0.0264628
0.0264539
0.0264439
0.026433
0.026422
0.0264116
0.0264022
0.0263938
0.0263858
0.0263779
0.0263693
0.0263597
0.0263495
0.0263387
0.0263281
0.0263186
0.0263106
0.0263041
0.0262985
0.0262933
0.026288
0.0262822
0.0262742
0.0262657
0.0262575
0.0262456
0.0262333
0.0262226
0.0262119
0.0262004
0.0261897
0.026178
0.0261659
0.0261541
0.0261386
0.0261229
0.0261082
0.0260881
0.0260675
0.0260484
0.0260273
0.026002
0.025979
0.0259568
0.0259298
0.0259044
0.0258809
0.0258522
0.0258244
0.0257982
0.0257706
0.0257377
0.0257071
0.0256779
0.0256471
0.0256087
0.0255736
0.0255386
0.0255081
0.0254655
0.025422
0.0253833
0.0253444
0.0253095
0.025261
0.0252147
0.0251729
0.0251326
0.0250833
0.0250335
0.0249893
0.0249473
0.0249024
0.0248599
0.0248198
0.0247804
0.0247389
0.0246972
0.0246583
0.0246207
0.0245835
0.0245468
0.0245107
0.0244755
0.0244414
0.0244085
0.0243767
0.024346
0.0243164
0.0242879
0.0242603
0.0242335
0.0242075
0.0241821
0.026716
0.0267046
0.0266932
0.0266829
0.0266742
0.0266669
0.0266602
0.0266531
0.0266453
0.0266366
0.0266271
0.0266173
0.0266077
0.0265991
0.0265915
0.0265847
0.0265782
0.0265714
0.026564
0.0265558
0.0265469
0.0265376
0.0265286
0.02652
0.0265122
0.0265049
0.0264977
0.0264902
0.0264824
0.026474
0.0264651
0.0264563
0.026448
0.0264408
0.0264349
0.0264296
0.026425
0.0264212
0.0264161
0.0264106
0.0264057
0.0263982
0.0263884
0.0263801
0.0263719
0.0263611
0.026352
0.0263427
0.0263322
0.026323
0.0263116
0.0262987
0.0262873
0.026273
0.0262554
0.0262395
0.0262238
0.0262012
0.0261805
0.0261622
0.0261377
0.0261137
0.0260926
0.0260671
0.0260406
0.0260165
0.025992
0.0259606
0.0259329
0.0259073
0.0258785
0.0258425
0.0258114
0.0257801
0.0257522
0.0257112
0.0256729
0.025638
0.0256024
0.0255692
0.0255216
0.02548
0.0254409
0.0254026
0.0253524
0.0253033
0.0252598
0.0252188
0.0251735
0.0251305
0.0250899
0.0250508
0.0250084
0.0249647
0.0249241
0.0248852
0.0248469
0.0248079
0.0247688
0.0247308
0.024694
0.0246581
0.0246232
0.0245891
0.0245558
0.0245234
0.0244917
0.0244607
0.0244304
0.0244007
0.0268242
0.0268156
0.0268065
0.0267972
0.0267885
0.0267808
0.0267741
0.026768
0.0267618
0.0267553
0.0267482
0.0267406
0.0267325
0.0267244
0.0267168
0.0267099
0.0267035
0.0266976
0.0266916
0.0266853
0.0266785
0.0266712
0.0266636
0.026656
0.0266486
0.0266417
0.0266352
0.0266289
0.0266226
0.0266161
0.0266092
0.0266021
0.0265948
0.026588
0.0265819
0.0265765
0.0265717
0.0265684
0.0265647
0.0265606
0.0265575
0.0265534
0.0265467
0.0265408
0.0265352
0.0265261
0.0265181
0.0265109
0.0265013
0.0264929
0.0264845
0.0264733
0.0264633
0.0264533
0.0264384
0.0264246
0.0264123
0.0263933
0.0263746
0.0263586
0.0263374
0.0263143
0.0262943
0.0262722
0.0262459
0.0262224
0.0262002
0.0261705
0.0261442
0.0261206
0.0260914
0.0260579
0.0260294
0.0260017
0.025973
0.0259336
0.0259001
0.0258674
0.0258367
0.0257998
0.0257561
0.0257191
0.0256819
0.0256453
0.0255951
0.0255487
0.0255068
0.0254666
0.0254208
0.0253778
0.0253375
0.0252987
0.0252563
0.0252108
0.0251689
0.0251291
0.0250896
0.0250498
0.0250084
0.0249682
0.0249295
0.0248918
0.0248547
0.0248182
0.0247824
0.0247472
0.0247126
0.0246787
0.0246455
0.0246128
0.0269474
0.0269413
0.0269349
0.026928
0.0269207
0.0269132
0.0269059
0.0268993
0.0268933
0.0268877
0.0268823
0.0268768
0.026871
0.0268648
0.0268583
0.0268517
0.0268454
0.0268395
0.026834
0.0268289
0.0268239
0.0268187
0.0268133
0.0268075
0.0268015
0.0267955
0.0267895
0.0267839
0.0267785
0.0267733
0.0267683
0.0267631
0.0267577
0.0267521
0.0267465
0.0267411
0.026736
0.0267314
0.026728
0.0267248
0.0267213
0.0267192
0.0267167
0.0267122
0.0267085
0.0267049
0.0266981
0.0266916
0.026686
0.0266775
0.0266695
0.0266627
0.0266528
0.0266432
0.0266351
0.0266227
0.02661
0.0265994
0.0265838
0.0265665
0.0265518
0.0265338
0.0265116
0.0264921
0.0264726
0.0264469
0.0264232
0.026402
0.0263741
0.0263471
0.0263236
0.0262956
0.0262635
0.0262358
0.0262106
0.0261782
0.0261416
0.0261111
0.0260798
0.0260515
0.02601
0.0259716
0.0259374
0.0259022
0.0258647
0.0258158
0.0257734
0.0257334
0.0256937
0.0256469
0.0256045
0.025565
0.0255265
0.025484
0.0254371
0.0253946
0.0253543
0.0253138
0.0252729
0.025231
0.0251898
0.0251501
0.0251113
0.025073
0.025035
0.0249975
0.0249606
0.0249242
0.0248885
0.0248534
0.0248189
0.0270725
0.027067
0.0270618
0.0270565
0.0270509
0.0270452
0.0270393
0.0270335
0.0270281
0.0270231
0.0270184
0.027014
0.0270096
0.0270051
0.0270003
0.0269954
0.0269904
0.0269855
0.026981
0.0269767
0.0269728
0.026969
0.0269651
0.0269612
0.026957
0.0269527
0.0269484
0.0269441
0.0269399
0.026936
0.0269322
0.0269285
0.0269247
0.0269208
0.0269168
0.0269127
0.0269087
0.0269048
0.0269016
0.0268986
0.0268955
0.0268937
0.0268918
0.0268886
0.0268862
0.0268839
0.0268789
0.0268739
0.0268697
0.0268626
0.026855
0.026849
0.0268402
0.0268305
0.0268229
0.0268122
0.0267996
0.0267895
0.0267763
0.0267598
0.0267455
0.0267299
0.0267088
0.0266894
0.0266713
0.0266469
0.0266227
0.0266015
0.0265753
0.0265473
0.0265226
0.0264962
0.0264643
0.0264358
0.0264106
0.0263772
0.0263424
0.0263126
0.0262831
0.0262513
0.0262096
0.026175
0.0261413
0.0261088
0.0260667
0.0260217
0.0259828
0.0259447
0.0259042
0.0258565
0.0258151
0.0257766
0.0257387
0.025695
0.0256474
0.025605
0.0255646
0.0255235
0.0254819
0.0254401
0.0253987
0.0253586
0.0253194
0.0252805
0.0252418
0.0252034
0.0251655
0.0251281
0.0250912
0.0250549
0.0250192
0.024984
0.0249493
0.0272058
0.027201
0.0271966
0.0271924
0.0271883
0.0271841
0.0271798
0.0271755
0.0271712
0.0271672
0.0271636
0.0271602
0.027157
0.0271539
0.0271508
0.0271476
0.0271444
0.0271411
0.027138
0.0271351
0.0271324
0.0271299
0.0271277
0.0271254
0.0271231
0.0271208
0.0271183
0.0271157
0.0271132
0.0271108
0.0271084
0.0271062
0.0271039
0.0271017
0.0270992
0.0270967
0.027094
0.0270912
0.0270886
0.027086
0.0270835
0.0270817
0.0270799
0.0270773
0.0270756
0.0270736
0.0270698
0.027066
0.0270625
0.0270564
0.0270494
0.0270439
0.0270358
0.0270258
0.0270181
0.0270081
0.0269952
0.0269847
0.0269727
0.0269564
0.0269416
0.0269273
0.0269073
0.0268874
0.0268697
0.0268469
0.0268219
0.0268
0.0267755
0.0267465
0.0267201
0.0266947
0.0266631
0.0266329
0.0266063
0.0265737
0.026539
0.0265083
0.0264799
0.0264434
0.0264039
0.0263708
0.0263368
0.0263045
0.0262592
0.026218
0.0261811
0.0261445
0.0261018
0.0260543
0.0260139
0.0259752
0.025938
0.0258934
0.0258462
0.025804
0.0257636
0.0257226
0.0256809
0.025639
0.0255977
0.0255575
0.025518
0.0254789
0.0254399
0.0254011
0.0253627
0.0253247
0.0252871
0.02525
0.0252133
0.0251773
0.0251417
0.0273546
0.0273504
0.0273463
0.0273425
0.027339
0.0273359
0.027333
0.0273302
0.0273275
0.0273247
0.0273221
0.0273195
0.0273172
0.0273151
0.0273133
0.0273117
0.0273102
0.0273088
0.0273074
0.0273061
0.0273047
0.0273035
0.0273025
0.0273016
0.027301
0.0273005
0.0273
0.0272996
0.0272991
0.0272985
0.0272978
0.0272971
0.0272964
0.0272957
0.027295
0.0272943
0.0272934
0.0272923
0.027291
0.0272895
0.0272878
0.0272859
0.027284
0.0272822
0.0272802
0.027278
0.0272762
0.027274
0.0272705
0.0272673
0.0272638
0.0272582
0.0272517
0.0272462
0.0272381
0.0272279
0.0272198
0.0272097
0.0271963
0.0271846
0.0271727
0.0271563
0.0271403
0.0271258
0.0271067
0.0270856
0.0270673
0.0270458
0.02702
0.0269966
0.0269734
0.0269442
0.0269158
0.0268902
0.0268595
0.0268272
0.0267982
0.0267673
0.0267319
0.0266993
0.0266698
0.0266324
0.0265938
0.0265602
0.0265265
0.0264913
0.0264455
0.0264067
0.0263699
0.0263344
0.0262898
0.0262431
0.0262029
0.0261636
0.026126
0.0260816
0.0260359
0.0259939
0.0259533
0.0259125
0.025871
0.0258293
0.0257881
0.0257476
0.0257078
0.0256685
0.0256294
0.0255905
0.0255518
0.0255132
0.0254752
0.0254376
0.0254003
0.0253634
0.0253269
0.0274984
0.0274957
0.0274931
0.0274906
0.0274884
0.0274865
0.0274849
0.0274836
0.0274824
0.0274813
0.0274803
0.0274795
0.0274789
0.0274784
0.0274782
0.0274783
0.0274785
0.0274789
0.0274794
0.02748
0.0274807
0.0274815
0.0274824
0.0274834
0.0274846
0.0274859
0.0274873
0.0274888
0.0274902
0.0274916
0.0274929
0.027494
0.0274951
0.027496
0.0274968
0.0274975
0.027498
0.0274982
0.0274981
0.0274977
0.0274969
0.0274958
0.0274944
0.0274927
0.0274907
0.0274883
0.027486
0.0274832
0.0274796
0.027476
0.0274719
0.027466
0.0274595
0.0274534
0.0274449
0.0274342
0.0274253
0.0274144
0.0274002
0.0273871
0.0273743
0.0273574
0.0273395
0.027324
0.0273049
0.0272824
0.0272624
0.0272414
0.0272151
0.0271897
0.0271663
0.0271378
0.0271073
0.0270798
0.0270508
0.0270168
0.0269849
0.0269549
0.0269195
0.0268844
0.0268524
0.0268161
0.0267772
0.0267421
0.0267085
0.0266696
0.0266251
0.0265871
0.0265495
0.0265142
0.026468
0.0264225
0.0263821
0.0263422
0.0263025
0.0262604
0.0262165
0.0261744
0.0261333
0.0260924
0.0260511
0.0260097
0.0259685
0.0259279
0.0258878
0.0258482
0.0258088
0.0257696
0.0257307
0.025692
0.0256535
0.0256152
0.0255772
0.0255395
0.025502
0.0254647
0.027664
0.027661
0.0276581
0.0276556
0.0276533
0.0276513
0.0276496
0.0276482
0.0276469
0.0276458
0.0276449
0.0276443
0.0276438
0.0276438
0.0276439
0.0276444
0.027645
0.0276459
0.0276469
0.0276481
0.0276495
0.0276512
0.0276531
0.0276552
0.0276575
0.02766
0.0276627
0.0276655
0.0276684
0.0276713
0.0276743
0.0276775
0.0276807
0.027684
0.0276873
0.0276906
0.0276938
0.0276969
0.0276999
0.0277026
0.0277051
0.0277073
0.0277093
0.0277109
0.0277123
0.0277132
0.0277136
0.0277134
0.0277128
0.0277117
0.0277101
0.0277079
0.0277052
0.0277021
0.0276984
0.027694
0.0276894
0.027684
0.0276772
0.0276699
0.0276624
0.0276528
0.0276413
0.027631
0.0276188
0.0276034
0.0275886
0.0275743
0.0275562
0.0275362
0.0275187
0.0274988
0.0274748
0.0274522
0.0274306
0.027404
0.0273761
0.0273509
0.0273231
0.027291
0.0272608
0.0272322
0.0271982
0.0271634
0.0271315
0.027098
0.0270604
0.0270248
0.02699
0.026951
0.0269133
0.0268778
0.0268387
0.0267955
0.0267565
0.0267179
0.0266813
0.0266352
0.026591
0.0265499
0.0265094
0.0264685
0.026427
0.0263845
0.0263423
0.0263009
0.0262597
0.0262185
0.0261773
0.0261362
0.0260954
0.0260549
0.026015
0.0259754
0.0259359
0.0258966
0.0258574
0.0258184
0.0257795
0.0257408
0.0257022
0.0256638
0.0256255
0.0278095
0.0278078
0.0278064
0.0278052
0.0278043
0.0278037
0.0278035
0.0278035
0.0278038
0.0278043
0.0278051
0.0278061
0.0278074
0.027809
0.0278109
0.0278131
0.0278156
0.0278183
0.0278213
0.0278245
0.027828
0.0278316
0.0278355
0.0278396
0.027844
0.0278486
0.0278533
0.0278581
0.0278631
0.0278681
0.0278732
0.0278783
0.0278834
0.0278885
0.0278936
0.0278987
0.0279036
0.0279083
0.0279127
0.0279169
0.0279207
0.0279241
0.0279271
0.0279296
0.0279317
0.0279332
0.0279341
0.0279342
0.0279337
0.0279326
0.0279307
0.027928
0.0279246
0.0279205
0.0279155
0.0279098
0.0279036
0.0278964
0.027888
0.0278791
0.0278696
0.0278582
0.0278453
0.0278329
0.0278187
0.0278017
0.0277848
0.0277683
0.0277485
0.0277262
0.0277061
0.0276846
0.027659
0.0276333
0.0276099
0.0275825
0.0275521
0.0275241
0.0274962
0.0274631
0.02743
0.0273996
0.0273664
0.0273292
0.0272944
0.0272614
0.0272235
0.0271847
0.027148
0.0271104
0.0270704
0.0270318
0.0269931
0.0269518
0.026911
0.0268709
0.0268314
0.0267888
0.0267452
0.026703
0.0266616
0.0266201
0.0265784
0.0265363
0.0264943
0.0264526
0.0264112
0.0263699
0.0263286
0.0262874
0.0262465
0.0262059
0.0261657
0.0261256
0.0260857
0.0260459
0.0260062
0.0259666
0.0259271
0.0258876
0.0258482
0.0258089
0.0257697
0.0279594
0.0279592
0.0279593
0.0279596
0.0279602
0.0279612
0.0279625
0.0279641
0.027966
0.0279682
0.0279708
0.0279736
0.0279767
0.0279802
0.0279839
0.027988
0.0279924
0.0279971
0.0280021
0.0280074
0.0280129
0.0280187
0.0280246
0.0280308
0.0280373
0.0280438
0.0280506
0.0280575
0.0280644
0.0280714
0.0280784
0.0280854
0.0280923
0.0280991
0.0281057
0.0281122
0.0281185
0.0281245
0.0281301
0.0281353
0.0281401
0.0281443
0.0281479
0.028151
0.0281533
0.028155
0.0281558
0.0281557
0.0281549
0.0281532
0.0281505
0.0281469
0.0281423
0.0281368
0.0281302
0.0281227
0.0281143
0.0281049
0.0280944
0.0280831
0.0280709
0.0280571
0.0280421
0.0280269
0.0280101
0.0279908
0.0279713
0.0279521
0.0279299
0.0279051
0.027882
0.0278582
0.0278305
0.0278015
0.0277752
0.0277465
0.0277138
0.0276824
0.0276529
0.0276191
0.0275831
0.0275496
0.0275167
0.0274784
0.0274405
0.0274052
0.0273688
0.0273276
0.0272879
0.0272498
0.0272099
0.0271689
0.0271287
0.0270882
0.0270469
0.0270056
0.0269644
0.0269225
0.0268797
0.0268371
0.0267949
0.0267529
0.0267109
0.0266688
0.0266268
0.0265849
0.0265432
0.0265016
0.0264602
0.0264191
0.0263781
0.0263373
0.0262966
0.0262561
0.0262157
0.0261754
0.0261352
0.0260949
0.0260547
0.0260145
0.0259743
0.0259342
0.0258941
0.0281135
0.0281148
0.0281164
0.0281183
0.0281206
0.0281232
0.0281261
0.0281294
0.0281331
0.0281371
0.0281415
0.0281462
0.0281513
0.0281567
0.0281624
0.0281685
0.0281749
0.0281816
0.0281886
0.0281959
0.0282035
0.0282113
0.0282193
0.0282275
0.0282359
0.0282445
0.0282531
0.0282619
0.0282706
0.0282794
0.0282881
0.0282966
0.028305
0.0283132
0.0283211
0.0283287
0.028336
0.0283428
0.0283492
0.028355
0.0283602
0.0283647
0.0283685
0.0283714
0.0283735
0.0283747
0.0283748
0.0283741
0.0283724
0.0283695
0.0283656
0.0283604
0.0283541
0.0283467
0.028338
0.0283282
0.0283172
0.0283051
0.0282918
0.0282775
0.0282621
0.0282453
0.0282274
0.0282088
0.0281888
0.0281667
0.028144
0.0281214
0.0280963
0.0280687
0.028042
0.0280153
0.0279851
0.0279529
0.027923
0.0278923
0.0278575
0.0278223
0.0277899
0.0277552
0.0277166
0.0276799
0.0276453
0.0276066
0.0275659
0.0275277
0.0274912
0.0274495
0.027407
0.0273667
0.0273268
0.0272849
0.0272432
0.0272018
0.0271602
0.0271183
0.0270762
0.027034
0.0269913
0.0269486
0.026906
0.0268637
0.0268214
0.0267792
0.026737
0.0266949
0.0266529
0.0266113
0.0265699
0.0265286
0.0264874
0.0264464
0.0264054
0.0263645
0.0263237
0.0262829
0.0262421
0.0262013
0.0261604
0.0261196
0.0260787
0.0260377
0.0259968
0.0259559
0.025915
0.0282712
0.0282741
0.0282774
0.028281
0.0282849
0.0282893
0.028294
0.0282991
0.0283046
0.0283104
0.0283167
0.0283233
0.0283303
0.0283377
0.0283454
0.0283535
0.0283619
0.0283706
0.0283796
0.0283889
0.0283984
0.0284082
0.0284181
0.0284282
0.0284384
0.0284487
0.0284591
0.0284694
0.0284797
0.0284898
0.0284998
0.0285096
0.0285191
0.0285283
0.028537
0.0285453
0.0285531
0.0285603
0.0285668
0.0285726
0.0285777
0.0285819
0.0285851
0.0285874
0.0285886
0.0285886
0.0285877
0.0285856
0.0285822
0.0285776
0.0285717
0.0285644
0.0285558
0.0285458
0.0285345
0.0285219
0.0285079
0.0284926
0.028476
0.0284582
0.0284392
0.0284188
0.0283972
0.0283748
0.028351
0.0283254
0.0282992
0.0282726
0.028244
0.0282132
0.0281827
0.0281524
0.0281193
0.0280838
0.0280501
0.0280166
0.0279793
0.0279407
0.0279047
0.0278683
0.0278277
0.0277874
0.0277499
0.027711
0.0276679
0.027627
0.0275881
0.0275473
0.0275024
0.0274597
0.0274186
0.0273766
0.0273338
0.0272913
0.027249
0.0272065
0.027164
0.0271213
0.0270785
0.0270357
0.026993
0.0269505
0.026908
0.0268657
0.0268233
0.026781
0.0267391
0.0266975
0.0266561
0.0266147
0.0265734
0.0265321
0.0264909
0.0264497
0.0264086
0.0263674
0.0263261
0.0262848
0.0262434
0.0262019
0.0261604
0.0261187
0.026077
0.0260351
0.0259932
0.0284323
0.0284368
0.0284417
0.028447
0.0284527
0.0284589
0.0284654
0.0284723
0.0284797
0.0284874
0.0284956
0.0285041
0.028513
0.0285223
0.028532
0.028542
0.0285523
0.0285629
0.0285737
0.0285848
0.0285962
0.0286077
0.0286193
0.028631
0.0286428
0.0286545
0.0286662
0.0286778
0.0286892
0.0287004
0.0287113
0.0287218
0.0287319
0.0287415
0.0287505
0.0287589
0.0287666
0.0287736
0.0287797
0.0287849
0.0287891
0.0287923
0.0287944
0.0287952
0.0287949
0.0287933
0.0287905
0.0287863
0.0287806
0.0287735
0.028765
0.028755
0.0287435
0.0287304
0.0287159
0.0286999
0.0286824
0.0286634
0.028643
0.0286213
0.0285982
0.0285738
0.0285481
0.0285214
0.0284934
0.0284638
0.0284335
0.0284026
0.02837
0.0283356
0.0283011
0.0282668
0.0282303
0.0281915
0.0281537
0.0281169
0.028077
0.028035
0.0279952
0.0279565
0.0279139
0.0278703
0.0278295
0.0277895
0.027745
0.0277011
0.0276596
0.0276188
0.0275728
0.0275279
0.0274851
0.0274426
0.0273992
0.0273557
0.0273126
0.0272697
0.0272267
0.0271838
0.0271409
0.0270981
0.0270554
0.0270129
0.0269704
0.026928
0.0268856
0.0268435
0.0268018
0.0267603
0.0267189
0.0266775
0.0266362
0.0265949
0.0265536
0.0265122
0.0264709
0.0264294
0.0263878
0.0263461
0.0263043
0.0262623
0.0262201
0.0261777
0.0261352
0.0260924
0.0260493
0.0285903
0.028596
0.0286022
0.0286089
0.0286159
0.0286234
0.0286313
0.0286396
0.0286484
0.0286576
0.0286671
0.0286771
0.0286875
0.0286983
0.0287094
0.0287208
0.0287326
0.0287446
0.0287569
0.0287694
0.0287821
0.028795
0.0288079
0.0288209
0.0288339
0.0288468
0.0288596
0.0288722
0.0288846
0.0288966
0.0289083
0.0289196
0.0289303
0.0289404
0.0289498
0.0289586
0.0289664
0.0289734
0.0289795
0.0289845
0.0289884
0.0289911
0.0289926
0.0289926
0.0289916
0.0289891
0.0289851
0.0289797
0.0289727
0.0289641
0.0289539
0.0289421
0.0289287
0.0289137
0.028897
0.0288787
0.0288587
0.0288372
0.0288142
0.0287896
0.0287635
0.0287361
0.0287072
0.0286771
0.0286458
0.0286132
0.0285793
0.0285445
0.028509
0.0284722
0.0284338
0.0283951
0.0283565
0.0283162
0.0282739
0.0282321
0.0281918
0.0281489
0.0281038
0.0280603
0.0280186
0.0279739
0.0279275
0.0278836
0.0278416
0.0277959
0.0277494
0.0277058
0.0276637
0.0276176
0.027571
0.0275268
0.0274834
0.0274396
0.0273956
0.0273519
0.0273086
0.0272654
0.0272224
0.0271795
0.0271368
0.0270943
0.027052
0.0270098
0.0269675
0.0269253
0.0268837
0.0268424
0.0268012
0.0267601
0.0267189
0.0266778
0.0266366
0.0265954
0.0265541
0.0265126
0.0264711
0.0264293
0.0263874
0.0263452
0.0263028
0.0262601
0.0262171
0.0261737
0.02613
0.0260859
0.0287545
0.0287619
0.0287698
0.0287781
0.0287869
0.0287961
0.0288057
0.0288158
0.0288263
0.0288372
0.0288485
0.0288602
0.0288723
0.0288847
0.0288975
0.0289105
0.0289238
0.0289373
0.028951
0.0289649
0.0289788
0.0289928
0.0290068
0.0290207
0.0290345
0.0290482
0.0290615
0.0290745
0.0290872
0.0290993
0.0291109
0.0291219
0.0291322
0.0291417
0.0291504
0.0291581
0.0291648
0.0291704
0.0291748
0.029178
0.02918
0.0291803
0.0291795
0.0291772
0.0291733
0.0291679
0.0291608
0.0291521
0.0291417
0.0291295
0.0291156
0.0291
0.0290826
0.0290635
0.0290426
0.02902
0.0289957
0.0289698
0.0289422
0.028913
0.0288823
0.0288502
0.0288166
0.0287818
0.0287457
0.0287084
0.0286698
0.0286304
0.0285902
0.0285489
0.0285064
0.0284633
0.0284203
0.028376
0.0283302
0.0282845
0.0282404
0.0281944
0.0281466
0.0280996
0.0280549
0.0280081
0.0279593
0.0279125
0.0278682
0.0278215
0.0277731
0.0277274
0.0276837
0.0276377
0.0275903
0.027545
0.0275009
0.0274568
0.0274126
0.0273687
0.0273252
0.0272821
0.0272392
0.0271967
0.0271544
0.0271124
0.0270706
0.0270289
0.0269871
0.0269456
0.0269046
0.026864
0.0268233
0.0267827
0.026742
0.0267013
0.0266605
0.0266196
0.0265785
0.0265372
0.0264958
0.026454
0.026412
0.0263697
0.026327
0.0262839
0.0262403
0.0261964
0.0261519
0.0261068
0.0260611
0.0260147
0.0289201
0.0289291
0.0289386
0.0289486
0.028959
0.0289698
0.0289811
0.0289928
0.0290049
0.0290174
0.0290303
0.0290435
0.0290571
0.0290709
0.029085
0.0290993
0.0291139
0.0291285
0.0291433
0.0291581
0.0291729
0.0291876
0.0292022
0.0292166
0.0292307
0.0292445
0.0292578
0.0292707
0.029283
0.0292946
0.0293055
0.0293156
0.0293248
0.0293331
0.0293402
0.0293462
0.0293511
0.0293545
0.0293567
0.0293573
0.0293566
0.0293543
0.0293504
0.0293448
0.0293376
0.0293285
0.0293177
0.0293051
0.0292907
0.0292744
0.0292562
0.0292362
0.0292143
0.0291906
0.0291651
0.0291378
0.0291088
0.029078
0.0290456
0.0290115
0.0289759
0.0289388
0.0289004
0.0288607
0.0288197
0.0287775
0.0287341
0.0286899
0.028645
0.0285992
0.0285525
0.0285052
0.0284579
0.0284097
0.0283603
0.0283111
0.0282631
0.0282143
0.0281643
0.0281147
0.0280675
0.028019
0.0279687
0.0279197
0.0278735
0.027826
0.0277766
0.0277292
0.0276843
0.0276382
0.0275907
0.0275449
0.0275004
0.0274562
0.0274121
0.0273683
0.0273251
0.0272822
0.0272398
0.0271978
0.0271561
0.0271149
0.0270738
0.0270328
0.0269917
0.026951
0.0269108
0.0268709
0.026831
0.026791
0.026751
0.0267109
0.0266707
0.0266304
0.0265899
0.0265491
0.0265079
0.0264665
0.0264246
0.0263823
0.0263395
0.0262963
0.0262525
0.0262081
0.0261631
0.0261173
0.0260709
0.0260236
0.0290863
0.0290968
0.0291079
0.0291193
0.0291312
0.0291436
0.0291563
0.0291694
0.0291829
0.0291968
0.029211
0.0292255
0.0292402
0.0292551
0.0292703
0.0292856
0.0293009
0.0293163
0.0293317
0.029347
0.0293621
0.0293771
0.0293917
0.029406
0.0294199
0.0294333
0.029446
0.0294581
0.0294694
0.0294799
0.0294895
0.029498
0.0295054
0.0295117
0.0295167
0.0295203
0.0295226
0.0295232
0.0295225
0.0295201
0.029516
0.0295102
0.0295026
0.0294932
0.0294819
0.0294687
0.0294536
0.0294366
0.0294176
0.0293966
0.0293737
0.0293488
0.0293221
0.0292934
0.0292629
0.0292305
0.0291963
0.0291605
0.029123
0.0290838
0.0290431
0.0290009
0.0289574