/*--------------------------------*- C++ -*----------------------------------*\
| =========                 |                                                 |
| \\      /  F ield         | OpenFOAM: The Open Source CFD Toolbox           |
|  \\    /   O peration     | Version:  v1706                                 |
|   \\  /    A nd           | Web:      www.OpenFOAM.com                      |
|    \\/     M anipulation  |                                                 |
\*---------------------------------------------------------------------------*/
FoamFile
{
    version     2.0;
    format      ascii;
    class       volScalarField;
    location    "3.5e-05";
    object      Mach;
}
// * * * * * * * * * * * * * * * * * * * * * * * * * * * * * * * * * * * * * //

dimensions      [0 0 0 0 0 0 0];


internalField   nonuniform List<scalar> 
29871
(
3.94329
3.93664
3.92916
3.92072
3.91127
3.90077
3.8893
3.87699
3.86397
3.85033
3.83599
3.82072
3.80385
3.78468
3.76297
3.73898
3.71326
3.6865
3.65935
3.63228
3.60559
3.57952
3.55427
3.53004
3.5066
3.48253
3.45276
3.41861
3.38252
3.34637
3.31141
3.27841
3.2478
3.21977
3.19431
3.17128
3.15044
3.13153
3.11435
3.09872
3.08456
3.07182
3.06051
3.0506
3.04208
3.03492
3.02911
3.02459
3.02129
3.01907
3.0181
3.01805
3.01866
3.02003
3.02186
3.02458
3.02765
3.03107
3.03495
3.03924
3.04382
3.04861
3.05374
3.05918
3.06476
3.0706
3.07677
3.08301
3.08934
3.09593
3.10266
3.10942
3.11632
3.1234
3.13063
3.13804
3.14573
3.15375
3.16211
3.17079
3.17978
3.18908
3.19865
3.20846
3.2185
3.22877
3.23928
3.25005
3.26107
3.27238
3.28399
3.29592
3.3082
3.32087
3.33395
3.3475
3.36156
3.37618
3.39142
3.40735
3.42411
3.44192
3.46095
3.48123
3.50265
3.70082
3.66919
3.63478
3.59676
3.5548
3.5092
3.46067
3.41015
3.35859
3.30674
3.25536
3.20346
3.14893
3.09004
3.02824
2.96556
2.90377
2.84418
2.78779
2.73528
2.68709
2.64345
2.60443
2.56996
2.53981
2.51396
2.49278
2.4756
2.46183
2.45095
2.44262
2.43656
2.43253
2.43036
2.42971
2.43015
2.43132
2.43299
2.43501
2.43732
2.43987
2.44269
2.4458
2.44913
2.45266
2.45637
2.46028
2.46439
2.46866
2.47308
2.47763
2.48227
2.48696
2.49172
2.49596
2.50174
2.50638
2.51008
2.51438
2.51876
2.52302
2.52703
2.53094
2.53473
2.5384
2.5419
2.54517
2.54835
2.55151
2.55453
2.55735
2.56016
2.56294
2.56554
2.56805
2.57065
2.57337
2.57616
2.57902
2.582
2.58515
2.58846
2.59188
2.59537
2.59891
2.60249
2.60611
2.60978
2.6135
2.6173
2.62118
2.62515
2.62924
2.63345
2.63779
2.64228
2.64693
2.65175
2.65675
2.66195
2.6674
2.67327
2.67983
2.68728
2.69576
3.25782
3.1961
3.13329
3.06775
2.998
2.92533
2.8518
2.77939
2.70973
2.64407
2.58327
2.52787
2.4782
2.43494
2.39818
2.36726
2.34147
2.32007
2.30239
2.28781
2.27586
2.26622
2.25869
2.25318
2.2496
2.24775
2.24728
2.24794
2.24952
2.25199
2.25499
2.25853
2.26255
2.26701
2.27226
2.27805
2.28407
2.29011
2.29609
2.30196
2.30768
2.31323
2.31863
2.32388
2.32902
2.33408
2.33909
2.34412
2.34921
2.35439
2.35971
2.36516
2.37079
2.37655
2.38248
2.38846
2.39465
2.40096
2.4072
2.4134
2.41965
2.42608
2.4324
2.43931
2.44464
2.45047
2.45653
2.46196
2.46686
2.47251
2.47778
2.48235
2.48711
2.49194
2.49618
2.50022
2.50437
2.50848
2.51243
2.5163
2.52023
2.52424
2.52824
2.53219
2.53609
2.53993
2.54372
2.54746
2.55115
2.5548
2.55841
2.56198
2.56552
2.56901
2.57246
2.57586
2.57918
2.58243
2.58557
2.58859
2.59144
2.59409
2.5965
2.59907
2.60206
2.60551
2.5846
2.5195
2.46049
2.40846
2.36365
2.32547
2.29321
2.2662
2.24371
2.22511
2.20978
2.19723
2.18709
2.17915
2.17327
2.16925
2.16684
2.16564
2.16521
2.16519
2.16539
2.16578
2.16644
2.16758
2.16945
2.17203
2.17501
2.17819
2.18155
2.18509
2.18878
2.19255
2.19631
2.20001
2.20368
2.20769
2.21223
2.21731
2.22286
2.22877
2.23493
2.24127
2.24772
2.25423
2.26077
2.26731
2.27382
2.2803
2.28675
2.29317
2.29957
2.30596
2.31237
2.31879
2.32526
2.33176
2.33833
2.34495
2.35163
2.35839
2.36503
2.37211
2.37914
2.38699
2.39319
2.39991
2.40739
2.41414
2.41996
2.42696
2.43391
2.43988
2.44597
2.45248
2.45848
2.46419
2.47007
2.47592
2.48153
2.48693
2.49215
2.49722
2.50217
2.50702
2.5118
2.51652
2.52119
2.52581
2.5304
2.53495
2.53949
2.54401
2.54853
2.55305
2.55758
2.56212
2.56668
2.57127
2.57592
2.58065
2.58551
2.59051
2.59551
2.59983
2.60336
2.60618
2.21401
2.19267
2.17502
2.1605
2.14872
2.13937
2.13213
2.12668
2.12277
2.1201
2.1183
2.11704
2.11615
2.11556
2.11529
2.11549
2.1163
2.1178
2.11989
2.12225
2.12467
2.12709
2.12934
2.13137
2.13304
2.13436
2.13577
2.13766
2.14019
2.14332
2.14695
2.15097
2.15527
2.15978
2.16434
2.16823
2.17173
2.17531
2.17926
2.18372
2.18868
2.19407
2.1998
2.20576
2.21188
2.21809
2.22433
2.23057
2.23679
2.243
2.24921
2.25544
2.26174
2.26815
2.27468
2.28137
2.28825
2.29529
2.30252
2.30993
2.31749
2.32508
2.33282
2.34089
2.34924
2.35715
2.36474
2.37316
2.38116
2.38786
2.39595
2.40383
2.41057
2.41761
2.42507
2.43209
2.43844
2.44508
2.45199
2.45855
2.46479
2.47105
2.47727
2.48327
2.48905
2.49471
2.50026
2.5057
2.51103
2.51627
2.52141
2.52645
2.53139
2.53623
2.54097
2.54562
2.55018
2.55467
2.55911
2.56351
2.56788
2.57221
2.57655
2.58078
2.58494
2.58886
2.59252
2.09241
2.08944
2.08718
2.08535
2.08391
2.08284
2.08217
2.08198
2.08244
2.0835
2.08487
2.08636
2.08787
2.08937
2.09078
2.09215
2.0935
2.09472
2.09612
2.09796
2.10026
2.10317
2.10613
2.10904
2.11183
2.11395
2.11545
2.11669
2.11817
2.12016
2.12269
2.12569
2.12903
2.13259
2.13631
2.14025
2.14405
2.14767
2.15121
2.15488
2.15881
2.16311
2.1678
2.17282
2.17814
2.18368
2.18941
2.19526
2.20118
2.20716
2.21318
2.21923
2.22529
2.23147
2.23775
2.24411
2.25065
2.25739
2.26429
2.27142
2.27878
2.28629
2.29398
2.30204
2.31022
2.31856
2.32688
2.33541
2.34382
2.3522
2.36095
2.36984
2.37643
2.38477
2.39333
2.4012
2.4085
2.41571
2.4238
2.43171
2.43884
2.44601
2.45343
2.4606
2.46742
2.47415
2.48077
2.48721
2.49354
2.49976
2.50587
2.51184
2.51765
2.52331
2.52884
2.53421
2.53943
2.54451
2.54944
2.55424
2.5589
2.56342
2.56782
2.57204
2.57616
2.58019
2.58412
2.05747
2.05661
2.05623
2.05657
2.05737
2.05835
2.05936
2.06032
2.06135
2.06219
2.06306
2.06395
2.0648
2.06584
2.06739
2.06938
2.07148
2.07367
2.0757
2.07803
2.07972
2.08098
2.08242
2.08421
2.08641
2.08888
2.09137
2.09395
2.09637
2.09868
2.10026
2.10187
2.10343
2.10516
2.10721
2.10966
2.11237
2.11562
2.11905
2.12259
2.1261
2.12944
2.13287
2.13628
2.13986
2.14368
2.14776
2.15217
2.15688
2.16186
2.16709
2.17252
2.17808
2.18371
2.18954
2.19535
2.2012
2.20732
2.21342
2.21952
2.22592
2.23247
2.23905
2.24591
2.25303
2.26021
2.26781
2.27553
2.28354
2.29189
2.29999
2.30826
2.31704
2.32579
2.33533
2.34184
2.35093
2.36013
2.36858
2.377
2.38409
2.39319
2.4018
2.40991
2.41756
2.42597
2.43428
2.44179
2.44936
2.45699
2.46426
2.47142
2.47856
2.48558
2.4924
2.49904
2.50552
2.51186
2.51805
2.52406
2.52989
2.53554
2.541
2.54627
2.55136
2.55624
2.5609
2.56537
2.56969
2.57391
2.03718
2.03769
2.03831
2.03895
2.03965
2.04067
2.04239
2.0438
2.04549
2.04728
2.04907
2.0506
2.05185
2.0528
2.05396
2.05551
2.05728
2.05919
2.06121
2.06325
2.06519
2.06692
2.06859
2.07025
2.07201
2.07403
2.0761
2.07849
2.0809
2.08329
2.08551
2.08752
2.0892
2.09084
2.09255
2.09445
2.09657
2.09915
2.1019
2.10506
2.10829
2.11128
2.11464
2.1179
2.12122
2.12463
2.12819
2.13192
2.13609
2.14041
2.14484
2.14984
2.15496
2.15977
2.16546
2.17112
2.17627
2.18233
2.1883
2.19395
2.20018
2.20648
2.21281
2.2191
2.2258
2.23283
2.23972
2.24684
2.25435
2.26235
2.26992
2.27759
2.28615
2.29455
2.30388
2.31029
2.31948
2.32871
2.33742
2.34666
2.35364
2.36315
2.37205
2.38082
2.3886
2.39769
2.40666
2.41474
2.42271
2.43111
2.43921
2.44683
2.45457
2.46232
2.46984
2.47712
2.48426
2.4913
2.49821
2.50494
2.51147
2.5178
2.52391
2.52982
2.53551
2.54096
2.54616
2.55114
2.55594
2.56059
2.02194
2.02353
2.02507
2.0262
2.02707
2.02803
2.02926
2.03061
2.03218
2.03385
2.03553
2.03714
2.03869
2.04005
2.04125
2.04252
2.04399
2.04556
2.04731
2.04919
2.05115
2.05307
2.0549
2.05661
2.05833
2.06015
2.06199
2.06405
2.06627
2.06854
2.07084
2.07308
2.07517
2.07711
2.07895
2.08079
2.08274
2.08491
2.08712
2.08992
2.09298
2.09531
2.09861
2.10196
2.10504
2.10836
2.11183
2.11521
2.11904
2.12305
2.12677
2.13144
2.13632
2.14021
2.14568
2.15118
2.15586
2.16138
2.16738
2.17302
2.17859
2.185
2.19128
2.19685
2.20375
2.21056
2.21665
2.22335
2.23071
2.23833
2.2451
2.25222
2.26051
2.2685
2.27715
2.28331
2.29229
2.30118
2.30985
2.31908
2.32604
2.33574
2.34461
2.3536
2.3612
2.3707
2.37996
2.38845
2.39658
2.40534
2.41377
2.42202
2.42982
2.43796
2.44616
2.45383
2.4614
2.46894
2.47639
2.48366
2.49072
2.49757
2.50421
2.51063
2.51682
2.52278
2.5285
2.534
2.53931
2.54445
2.00892
2.01041
2.01187
2.01327
2.01451
2.0156
2.01666
2.01779
2.01905
2.02044
2.02195
2.02353
2.02513
2.02665
2.02803
2.02933
2.03063
2.03201
2.0335
2.03513
2.0369
2.03876
2.04063
2.04246
2.04425
2.04603
2.04783
2.04972
2.05176
2.05389
2.05613
2.05841
2.06067
2.06288
2.06503
2.06704
2.06914
2.07131
2.07333
2.07585
2.07866
2.08089
2.08386
2.08721
2.09023
2.09329
2.09696
2.10021
2.10381
2.1078
2.11121
2.11547
2.1201
2.12387
2.12866
2.13391
2.13873
2.1434
2.14935
2.15515
2.15994
2.16636
2.17274
2.1779
2.18471
2.19144
2.1973
2.20361
2.21098
2.21837
2.22416
2.23121
2.23921
2.24691
2.25462
2.26063
2.26943
2.27778
2.2864
2.29465
2.3018
2.31151
2.32015
2.32904
2.33631
2.34607
2.35532
2.36398
2.37206
2.38098
2.38948
2.39808
2.40582
2.41416
2.42257
2.43056
2.43852
2.44616
2.45392
2.46153
2.46892
2.47609
2.48307
2.48985
2.49643
2.50278
2.50892
2.51488
2.52064
2.52623
1.99595
1.99718
1.99849
1.99985
2.00117
2.00238
2.00348
2.00453
2.0056
2.00675
2.00801
2.00938
2.01083
2.01232
2.01377
2.01515
2.01649
2.01782
2.0192
2.02066
2.02223
2.02393
2.02571
2.02755
2.0294
2.03125
2.0331
2.03498
2.03693
2.03898
2.04114
2.04339
2.0457
2.04804
2.05038
2.05261
2.0549
2.05728
2.0594
2.0618
2.0645
2.06686
2.06955
2.0728
2.07583
2.07871
2.08244
2.08585
2.08915
2.09319
2.09679
2.10053
2.10502
2.10908
2.11313
2.11821
2.12314
2.12731
2.13304
2.1388
2.14336
2.14943
2.15577
2.16105
2.16722
2.17396
2.18013
2.18598
2.19339
2.20056
2.20579
2.21308
2.22075
2.22836
2.23466
2.24135
2.24982
2.25758
2.26625
2.27265
2.28092
2.29005
2.29842
2.30686
2.31413
2.3239
2.33292
2.34145
2.34938
2.35837
2.36683
2.37547
2.38314
2.39145
2.39998
2.40803
2.41604
2.42395
2.43157
2.43933
2.44684
2.45415
2.46131
2.46831
2.47514
2.48179
2.48824
2.49452
2.50062
2.50657
1.98159
1.98252
1.9835
1.98457
1.98572
1.98692
1.9881
1.98923
1.9903
1.99133
1.99237
1.99346
1.99463
1.99589
1.99723
1.99861
2.00001
2.00139
2.00275
2.00411
2.00551
2.00698
2.00855
2.01021
2.01197
2.0138
2.01568
2.01758
2.01951
2.02148
2.02351
2.02563
2.02784
2.03015
2.03253
2.03497
2.0374
2.03983
2.04235
2.04472
2.04714
2.04992
2.05241
2.05499
2.05819
2.06119
2.06404
2.06772
2.07123
2.07441
2.07845
2.08232
2.08577
2.09018
2.09449
2.0982
2.10307
2.10806
2.11209
2.11742
2.12311
2.12775
2.13328
2.13954
2.14511
2.15061
2.15733
2.16377
2.16923
2.17641
2.18351
2.18905
2.19615
2.20362
2.21109
2.21644
2.22403
2.23204
2.23949
2.24731
2.25329
2.26219
2.27055
2.2789
2.28628
2.29406
2.30355
2.31229
2.32044
2.32827
2.33727
2.3456
2.35414
2.36156
2.36977
2.37834
2.38633
2.39419
2.4021
2.40979
2.41747
2.42493
2.4322
2.43939
2.44648
2.45345
2.46027
2.46691
2.47339
2.4797
2.48586
1.96742
1.96828
1.96913
1.97001
1.97096
1.97196
1.97302
1.97408
1.97513
1.97615
1.97715
1.97817
1.97922
1.98033
1.98152
1.98278
1.98409
1.98544
1.98681
1.98818
1.98957
1.99101
1.9925
1.99408
1.99576
1.99752
1.99937
2.00127
2.00323
2.00524
2.0073
2.00942
2.01163
2.01393
2.01631
2.01879
2.02132
2.02389
2.0265
2.02909
2.03167
2.03448
2.03713
2.03978
2.04297
2.04596
2.04885
2.05246
2.05598
2.0592
2.06316
2.06717
2.07066
2.07492
2.07941
2.08315
2.08772
2.09277
2.09692
2.10179
2.1074
2.11228
2.11729
2.12343
2.12924
2.13433
2.14088
2.14746
2.15282
2.15957
2.16663
2.17265
2.1792
2.18661
2.19393
2.19943
2.20717
2.21481
2.22234
2.22865
2.2357
2.24433
2.25206
2.26044
2.26665
2.27539
2.28428
2.29277
2.30023
2.30819
2.31715
2.32528
2.3337
2.34057
2.34879
2.35724
2.36508
2.37276
2.38054
2.38829
2.39589
2.40326
2.41044
2.41754
2.42459
2.43156
2.43842
2.44514
2.45171
2.45813
2.46441
2.47054
2.47655
1.95238
1.95319
1.95398
1.95476
1.95556
1.95641
1.95731
1.95824
1.9592
1.96017
1.96113
1.9621
1.96309
1.96411
1.96519
1.96633
1.96754
1.96881
1.97012
1.97148
1.97286
1.97428
1.97575
1.97728
1.97889
1.98059
1.98238
1.98425
1.9862
1.98822
1.9903
1.99245
1.99467
1.99697
1.99936
2.00184
2.00441
2.00705
2.00975
2.01249
2.01525
2.01809
2.02092
2.02374
2.02689
2.02992
2.03291
2.03648
2.03996
2.04325
2.04714
2.05119
2.05479
2.05891
2.06352
2.06742
2.07174
2.07684
2.08122
2.08571
2.09126
2.09639
2.10105
2.107
2.11298
2.11794
2.12412
2.13073
2.13632
2.14246
2.14947
2.15599
2.16192
2.16926
2.17657
2.18238
2.18982
2.19733
2.20486
2.2105
2.21838
2.22651
2.23397
2.24167
2.24799
2.25701
2.26526
2.27361
2.2803
2.28857
2.29731
2.30507
2.31349
2.31999
2.32816
2.33632
2.34393
2.35145
2.35908
2.36677
2.37432
2.38163
2.38873
2.39571
2.40265
2.40952
2.41632
2.42301
2.42958
2.436
2.44233
2.44857
2.45467
1.93518
1.93591
1.93665
1.93739
1.93811
1.93882
1.93953
1.94026
1.94103
1.94183
1.94268
1.94355
1.94445
1.94536
1.94629
1.94725
1.94824
1.94929
1.95041
1.95158
1.95282
1.95412
1.95547
1.95686
1.95831
1.95981
1.96138
1.96303
1.96476
1.96659
1.96851
1.97051
1.97259
1.97474
1.97697
1.97927
1.98167
1.98415
1.98673
1.9894
1.99215
1.99497
1.99784
2.00077
2.00375
2.00674
2.00987
2.01301
2.01614
2.01964
2.02311
2.02649
2.03034
2.03435
2.03805
2.04209
2.04673
2.05077
2.05496
2.06007
2.06465
2.06899
2.0744
2.07974
2.08433
2.08994
2.09601
2.10112
2.10679
2.11334
2.11936
2.12492
2.13181
2.13864
2.14433
2.15129
2.15857
2.16489
2.17164
2.17915
2.18666
2.19251
2.20039
2.20817
2.21568
2.22239
2.22943
2.23818
2.24587
2.25415
2.26043
2.2688
2.2772
2.28473
2.29287
2.29939
2.30745
2.3153
2.32271
2.33005
2.33751
2.34504
2.35249
2.35973
2.36677
2.37365
2.38046
2.3872
2.39387
2.40044
2.40699
2.41342
2.41974
2.42597
2.43211
1.91917
1.91977
1.92039
1.92101
1.92164
1.92227
1.92291
1.92355
1.92421
1.92491
1.92564
1.92641
1.92721
1.92805
1.92891
1.9298
1.93073
1.93171
1.93274
1.93384
1.93499
1.93622
1.93751
1.93886
1.94027
1.94174
1.94327
1.94488
1.94657
1.94835
1.95022
1.95219
1.95424
1.95638
1.9586
1.96091
1.9633
1.96578
1.96836
1.97103
1.97379
1.97664
1.97957
1.98258
1.98565
1.98876
1.99195
1.9952
1.99846
2.00193
2.00543
2.00891
2.01273
2.01668
2.02046
2.02448
2.02907
2.03321
2.03737
2.04242
2.04714
2.05151
2.05669
2.0622
2.0669
2.07213
2.0782
2.08364
2.08886
2.09525
2.1016
2.10698
2.11345
2.12033
2.12642
2.1326
2.1398
2.14674
2.1528
2.16016
2.16767
2.17396
2.18135
2.18904
2.19665
2.20273
2.21029
2.21863
2.22599
2.23406
2.24011
2.24846
2.25642
2.26379
2.27131
2.27869
2.28639
2.29397
2.30121
2.30837
2.31561
2.32293
2.3302
2.33733
2.34428
2.35109
2.35776
2.36438
2.37096
2.37745
2.38389
2.39025
2.39653
2.40273
2.40886
2.41491
1.89929
1.89979
1.90029
1.90079
1.90127
1.90175
1.90222
1.90269
1.90317
1.90367
1.90418
1.90471
1.90524
1.90579
1.90635
1.90692
1.90752
1.90815
1.90882
1.90953
1.91027
1.91106
1.91188
1.91274
1.91365
1.91461
1.91563
1.91671
1.91786
1.91908
1.92037
1.92173
1.92316
1.92465
1.92622
1.92787
1.92961
1.93143
1.93335
1.93536
1.93747
1.93967
1.94195
1.94433
1.9468
1.94937
1.95203
1.95479
1.95764
1.96059
1.96363
1.96674
1.96993
1.97319
1.97652
1.97989
1.98338
1.98694
1.99052
1.99432
1.99823
2.00209
2.00611
2.01061
2.01481
2.019
2.02395
2.02875
2.0332
2.03817
2.04376
2.04863
2.05359
2.05957
2.0653
2.07038
2.07642
2.08288
2.08849
2.09436
2.10116
2.10776
2.11346
2.12035
2.12741
2.13373
2.14027
2.14764
2.1547
2.16134
2.16887
2.17644
2.18287
2.19019
2.19816
2.20543
2.21304
2.21927
2.2274
2.23503
2.24226
2.24952
2.25698
2.26452
2.27191
2.27905
2.28608
2.29312
2.3002
2.30727
2.31423
2.32105
2.32779
2.3344
2.34091
2.34736
2.35376
2.36009
2.36637
2.37258
2.37874
2.38483
2.39088
1.88316
1.88354
1.88392
1.8843
1.88468
1.88505
1.88542
1.8858
1.88618
1.88657
1.88697
1.88739
1.88783
1.88828
1.88875
1.88924
1.88975
1.89029
1.89086
1.89148
1.89214
1.89283
1.89358
1.89437
1.89521
1.8961
1.89704
1.89805
1.89913
1.90028
1.9015
1.9028
1.90417
1.90562
1.90715
1.90875
1.91044
1.91222
1.91409
1.91605
1.91812
1.92027
1.92253
1.92488
1.92732
1.92987
1.93251
1.93525
1.93809
1.94102
1.94406
1.94719
1.9504
1.95371
1.95709
1.96053
1.96406
1.96768
1.97134
1.97514
1.97906
1.98298
1.98702
1.99141
1.99567
1.99989
2.00472
2.00955
2.01409
2.01889
2.02448
2.0295
2.03438
2.04012
2.04605
2.0512
2.05682
2.06323
2.06924
2.07472
2.08127
2.088
2.0939
2.10012
2.10712
2.11398
2.11991
2.12692
2.1341
2.14086
2.14775
2.15507
2.16217
2.1692
2.17657
2.18377
2.19095
2.19804
2.20555
2.21291
2.22002
2.22712
2.23436
2.24167
2.24889
2.25594
2.26287
2.26976
2.27664
2.28346
2.29028
2.297
2.3036
2.31011
2.31654
2.32289
2.32918
2.33542
2.34161
2.34775
2.35385
2.35991
2.36593
1.86668
1.86695
1.86722
1.86749
1.86776
1.86803
1.8683
1.86858
1.86886
1.86915
1.86945
1.86977
1.87011
1.87047
1.87084
1.87125
1.87167
1.87213
1.87262
1.87314
1.87371
1.87433
1.87499
1.8757
1.87647
1.87729
1.87816
1.8791
1.88011
1.88119
1.88235
1.88358
1.88489
1.88628
1.88775
1.8893
1.89094
1.89267
1.89449
1.8964
1.89841
1.90052
1.90273
1.90504
1.90744
1.90995
1.91256
1.91527
1.91808
1.92099
1.924
1.92712
1.93033
1.93364
1.93703
1.94051
1.94407
1.94773
1.95144
1.95526
1.95919
1.96317
1.96723
1.97154
1.97584
1.98011
1.98481
1.98962
1.99422
1.99892
2.00442
2.00955
2.01445
2.0199
2.02589
2.03121
2.03654
2.04278
2.04903
2.05446
2.06055
2.0672
2.07357
2.07928
2.08608
2.09289
2.09922
2.10542
2.11254
2.1195
2.1261
2.13303
2.14013
2.14715
2.15416
2.16118
2.16823
2.17538
2.1826
2.18976
2.19677
2.20373
2.21074
2.21779
2.22481
2.23173
2.23854
2.24527
2.25197
2.25867
2.2653
2.27186
2.27834
2.28474
2.29106
2.29732
2.30352
2.30967
2.31578
2.32185
2.32789
2.33391
2.3399
1.84992
1.85009
1.85025
1.85042
1.85059
1.85076
1.85093
1.85111
1.8513
1.85149
1.8517
1.85193
1.85217
1.85244
1.85272
1.85304
1.85338
1.85375
1.85415
1.8546
1.85508
1.85562
1.8562
1.85683
1.85752
1.85827
1.85908
1.85995
1.86088
1.86189
1.86298
1.86414
1.86538
1.86671
1.86812
1.86961
1.87119
1.87286
1.87463
1.87648
1.87843
1.88049
1.88264
1.8849
1.88725
1.88971
1.89227
1.89494
1.8977
1.90057
1.90355
1.90663
1.90981
1.91309
1.91647
1.91995
1.92352
1.92718
1.93091
1.93475
1.93868
1.94268
1.94677
1.95102
1.95534
1.95964
1.96423
1.96899
1.97364
1.97828
1.98362
1.9888
1.99373
1.99893
2.00487
2.01034
2.01556
2.02148
2.02777
2.03338
2.03905
2.04557
2.0521
2.05776
2.06406
2.0708
2.07749
2.08327
2.09003
2.09694
2.10363
2.1102
2.11708
2.12396
2.13079
2.13762
2.14451
2.15145
2.15844
2.16539
2.17227
2.17909
2.18591
2.19273
2.19953
2.20626
2.21289
2.21951
2.22608
2.23259
2.23905
2.24546
2.2518
2.25808
2.26429
2.27045
2.27656
2.28263
2.28866
2.29467
2.30065
2.30662
2.31258
2.31854
2.32449
1.83297
1.83304
1.83311
1.83317
1.83324
1.83332
1.8334
1.83348
1.83358
1.83368
1.8338
1.83393
1.83409
1.83426
1.83446
1.83469
1.83495
1.83524
1.83556
1.83593
1.83633
1.83678
1.83729
1.83784
1.83846
1.83913
1.83986
1.84066
1.84153
1.84246
1.84348
1.84457
1.84574
1.84699
1.84834
1.84976
1.85128
1.85288
1.85458
1.85637
1.85826
1.86025
1.86234
1.86453
1.86682
1.86922
1.87172
1.87432
1.87703
1.87984
1.88276
1.88579
1.88892
1.89216
1.8955
1.89894
1.90248
1.90611
1.90983
1.91365
1.91757
1.92157
1.92565
1.92986
1.93417
1.93848
1.94299
1.94767
1.95232
1.95694
1.96207
1.96724
1.97219
1.9772
1.98298
1.98853
1.99373
1.99931
2.00551
2.01131
2.01675
2.02296
2.0294
2.03532
2.0411
2.04774
2.05431
2.06032
2.06644
2.07324
2.07986
2.08633
2.0929
2.09958
2.10623
2.11287
2.11954
2.12625
2.13298
2.1397
2.14639
2.15304
2.15966
2.16628
2.17285
2.17935
2.18585
2.1923
2.19868
2.20502
2.21132
2.21757
2.22377
2.22992
2.23602
2.24207
2.24809
2.25408
2.26004
2.26598
2.27191
2.27784
2.28377
2.28971
2.29566
1.8159
1.81587
1.81585
1.81582
1.8158
1.81578
1.81577
1.81576
1.81577
1.81578
1.81582
1.81586
1.81593
1.81602
1.81614
1.81628
1.81646
1.81667
1.81691
1.8172
1.81752
1.8179
1.81832
1.8188
1.81934
1.81993
1.82059
1.82131
1.82211
1.82297
1.82391
1.82492
1.82602
1.8272
1.82846
1.82982
1.83126
1.83279
1.83442
1.83613
1.83795
1.83986
1.84187
1.84399
1.84621
1.84853
1.85095
1.85348
1.85611
1.85885
1.8617
1.86465
1.86771
1.87087
1.87415
1.87752
1.881
1.88458
1.88825
1.89202
1.89589
1.89985
1.90389
1.90805
1.91231
1.91661
1.92103
1.92561
1.93024
1.93483
1.93974
1.94483
1.94976
1.95466
1.96019
1.96573
1.97089
1.9762
1.98222
1.98808
1.99342
1.99926
2.00555
2.01162
2.01711
2.02342
2.0298
2.03606
2.04171
2.04824
2.05471
2.06105
2.06738
2.07382
2.08026
2.08668
2.09312
2.09958
2.10605
2.11252
2.11896
2.12539
2.13181
2.13819
2.14451
2.15085
2.15715
2.16339
2.16959
2.17575
2.18187
2.18796
2.19401
2.20003
2.20601
2.21195
2.21788
2.22378
2.22967
2.23555
2.24144
2.24733
2.25324
2.25917
2.26513
1.79889
1.79877
1.79866
1.79854
1.79843
1.79831
1.79821
1.79811
1.79802
1.79794
1.79787
1.79782
1.79778
1.79777
1.79778
1.79781
1.79788
1.79797
1.7981
1.79827
1.79847
1.79872
1.79902
1.79937
1.79977
1.80022
1.80074
1.80132
1.80196
1.80268
1.80346
1.80432
1.80526
1.80627
1.80737
1.80855
1.80982
1.81118
1.81263
1.81417
1.8158
1.81753
1.81935
1.82128
1.8233
1.82543
1.82766
1.82999
1.83242
1.83497
1.83761
1.84036
1.84322
1.84619
1.84926
1.85243
1.85571
1.8591
1.86259
1.86618
1.86986
1.87365
1.87753
1.8815
1.88557
1.88974
1.89397
1.8983
1.90277
1.90731
1.91184
1.91657
1.92151
1.92638
1.93117
1.93641
1.94185
1.94695
1.95206
1.9578
1.96361
1.96887
1.97436
1.98044
1.98649
1.99185
1.99772
2.00396
2.01017
2.01563
2.02176
2.02804
2.03417
2.04027
2.04644
2.05264
2.05882
2.06501
2.07121
2.07741
2.0836
2.08979
2.09596
2.10212
2.10824
2.11436
2.12048
2.12654
2.13256
2.13856
2.14453
2.15047
2.1564
2.16229
2.16816
2.17402
2.17985
2.18568
2.19149
2.19731
2.20314
2.20899
2.21485
2.22075
2.22668
2.23265
1.78185
1.78165
1.78145
1.78125
1.78105
1.78085
1.78066
1.78048
1.78031
1.78015
1.78
1.77987
1.77975
1.77966
1.77959
1.77954
1.77953
1.77954
1.77959
1.77968
1.77981
1.77998
1.7802
1.78046
1.78078
1.78116
1.78159
1.78209
1.78265
1.78328
1.78398
1.78475
1.7856
1.78652
1.78753
1.78862
1.7898
1.79106
1.79241
1.79385
1.79539
1.79702
1.79874
1.80056
1.80248
1.8045
1.80662
1.80884
1.81116
1.81359
1.81612
1.81876
1.8215
1.82434
1.82729
1.83034
1.8335
1.83676
1.84013
1.84359
1.84716
1.85082
1.85457
1.85842
1.86237
1.86642
1.87054
1.87475
1.87907
1.88347
1.8879
1.89244
1.89719
1.90194
1.90662
1.91157
1.9168
1.92179
1.92672
1.93212
1.93777
1.94294
1.94813
1.95392
1.95981
1.96507
1.97053
1.97654
1.98254
1.98792
1.99363
1.99963
2.00551
2.01134
2.01722
2.02314
2.02906
2.03498
2.04089
2.0468
2.05271
2.0586
2.06449
2.07036
2.07621
2.0821
2.08797
2.09379
2.09958
2.10535
2.11112
2.11688
2.12262
2.12836
2.13408
2.1398
2.14552
2.15124
2.15698
2.16273
2.1685
2.17431
2.18015
2.18604
2.19197
2.19796
2.20401
2.21012
1.76488
1.76459
1.76431
1.76403
1.76375
1.76347
1.7632
1.76294
1.76269
1.76245
1.76222
1.76201
1.76182
1.76165
1.7615
1.76138
1.76128
1.76122
1.76119
1.7612
1.76124
1.76133
1.76147
1.76165
1.76189
1.76218
1.76252
1.76293
1.7634
1.76394
1.76454
1.76522
1.76597
1.7668
1.7677
1.76869
1.76976
1.77091
1.77215
1.77348
1.7749
1.77641
1.77802
1.77972
1.78151
1.7834
1.78539
1.78748
1.78967
1.79196
1.79435
1.79684
1.79944
1.80214
1.80493
1.80783
1.81084
1.81394
1.81715
1.82045
1.82385
1.82735
1.83094
1.83462
1.8384
1.84228
1.84624
1.85028
1.85442
1.85865
1.86291
1.86727
1.87178
1.87635
1.88088
1.88557
1.8905
1.89531
1.90005
1.90507
1.91043
1.91542
1.92036
1.92574
1.93138
1.93649
1.9416
1.94723
1.95295
1.95817
1.96353
1.96917
1.97474
1.98027
1.98584
1.99145
1.99707
2.00268
2.00829
2.0139
2.01951
2.0251
2.03068
2.03624
2.04182
2.04746
2.05306
2.05863
2.06417
2.06973
2.07528
2.08084
2.0864
2.09196
2.09752
2.1031
2.1087
2.11432
2.11996
2.12564
2.13137
2.13713
2.14296
2.14884
2.15478
2.1608
2.16689
2.17306
1.748
1.74764
1.74728
1.74692
1.74657
1.74622
1.74587
1.74553
1.7452
1.74489
1.74458
1.7443
1.74403
1.74378
1.74355
1.74335
1.74317
1.74303
1.74292
1.74284
1.7428
1.74281
1.74285
1.74295
1.74309
1.74329
1.74354
1.74385
1.74422
1.74465
1.74515
1.74572
1.74636
1.74708
1.74787
1.74874
1.74968
1.75072
1.75183
1.75303
1.75432
1.75569
1.75716
1.75872
1.76037
1.76211
1.76395
1.76588
1.76791
1.77003
1.77226
1.77458
1.777
1.77952
1.78214
1.78485
1.78766
1.79057
1.79358
1.79669
1.7999
1.80319
1.80657
1.81003
1.8136
1.81726
1.821
1.82483
1.82876
1.83276
1.83681
1.84092
1.84515
1.84945
1.85375
1.85814
1.86272
1.86728
1.87177
1.8764
1.88135
1.88609
1.89075
1.89568
1.90096
1.90582
1.91062
1.9158
1.92116
1.92613
1.93116
1.93641
1.94163
1.94683
1.95205
1.95732
1.9626
1.96788
1.97317
1.97845
1.98373
1.98901
1.99427
1.99952
2.00481
2.01016
2.01549
2.0208
2.0261
2.03141
2.03675
2.0421
2.04746
2.05285
2.05825
2.06368
2.06915
2.07466
2.08021
2.08582
2.09148
2.09721
2.10301
2.10888
2.11484
2.12089
2.12702
2.13326
1.73128
1.73084
1.73041
1.72997
1.72954
1.72912
1.7287
1.72828
1.72788
1.72749
1.72711
1.72674
1.72639
1.72606
1.72576
1.72547
1.72521
1.72498
1.72478
1.72462
1.72449
1.7244
1.72435
1.72435
1.72439
1.72449
1.72463
1.72484
1.7251
1.72542
1.7258
1.72625
1.72677
1.72735
1.72801
1.72875
1.72956
1.73045
1.73142
1.73247
1.7336
1.73482
1.73613
1.73752
1.739
1.74057
1.74223
1.74398
1.74582
1.74776
1.74978
1.75191
1.75412
1.75643
1.75883
1.76132
1.76391
1.76659
1.76936
1.77223
1.77521
1.77826
1.78139
1.78461
1.7879
1.79127
1.79472
1.79826
1.80189
1.8056
1.80935
1.81315
1.81704
1.821
1.82499
1.82903
1.83321
1.83744
1.84164
1.84592
1.85042
1.85486
1.85922
1.86374
1.86855
1.8731
1.87758
1.88231
1.8872
1.89185
1.89654
1.90136
1.90619
1.91101
1.91586
1.92075
1.92565
1.93057
1.9355
1.94043
1.94536
1.95029
1.95522
1.96014
1.96509
1.97012
1.97516
1.98018
1.98521
1.99027
1.99536
2.00049
2.00565
2.01084
2.01608
2.02136
2.02669
2.03208
2.03753
2.04305
2.04865
2.05433
2.0601
2.06597
2.07194
2.07801
2.08419
2.09049
2.0969
1.71422
1.71371
1.71321
1.7127
1.7122
1.71171
1.71122
1.71074
1.71027
1.70981
1.70936
1.70893
1.70852
1.70813
1.70776
1.70741
1.70709
1.7068
1.70654
1.70631
1.70612
1.70597
1.70585
1.70579
1.70577
1.7058
1.70588
1.70601
1.7062
1.70645
1.70677
1.70714
1.70759
1.7081
1.70868
1.70933
1.71006
1.71087
1.71175
1.71271
1.71375
1.71487
1.71607
1.71736
1.71873
1.72018
1.72173
1.72336
1.72506
1.72686
1.72875
1.73073
1.73279
1.73495
1.73719
1.73951
1.74192
1.74442
1.74701
1.74968
1.75244
1.75526
1.75816
1.76112
1.76414
1.76724
1.7704
1.77365
1.77696
1.78035
1.78381
1.78734
1.79093
1.79456
1.79824
1.80203
1.80588
1.80972
1.81362
1.81766
1.82173
1.82573
1.82982
1.83409
1.83827
1.8424
1.84665
1.851
1.85526
1.85956
1.86392
1.86831
1.8727
1.87714
1.88161
1.8861
1.89062
1.89516
1.89971
1.90427
1.90883
1.9134
1.91798
1.92258
1.92724
1.93197
1.9367
1.94144
1.94622
1.95106
1.95594
1.96088
1.96587
1.97092
1.97603
1.98121
1.98647
1.99181
1.99723
2.00276
2.00838
2.01411
2.01995
2.02591
2.032
2.03821
2.04456
2.05104
1.6978
1.69722
1.69664
1.69606
1.69548
1.69491
1.69435
1.69379
1.69324
1.6927
1.69217
1.69165
1.69115
1.69066
1.6902
1.68975
1.68933
1.68894
1.68857
1.68824
1.68793
1.68766
1.68743
1.68724
1.68709
1.68699
1.68693
1.68693
1.68698
1.68708
1.68724
1.68746
1.68774
1.68808
1.68849
1.68897
1.68951
1.69013
1.69082
1.69158
1.69241
1.69333
1.69432
1.69538
1.69652
1.69774
1.69904
1.70043
1.70189
1.70342
1.70504
1.70674
1.70854
1.71042
1.71236
1.71437
1.71645
1.71862
1.72084
1.72315
1.72555
1.72804
1.73061
1.73324
1.73595
1.73871
1.74152
1.7444
1.74734
1.75034
1.7534
1.75652
1.75969
1.7629
1.76615
1.76947
1.77285
1.77623
1.77965
1.78315
1.7867
1.79024
1.79382
1.79753
1.80127
1.80497
1.8087
1.81249
1.81629
1.82013
1.824
1.8279
1.83183
1.8358
1.83981
1.84385
1.84794
1.85206
1.8562
1.86036
1.86454
1.86873
1.87295
1.87719
1.88148
1.88585
1.89027
1.89471
1.89921
1.90377
1.9084
1.91311
1.91788
1.92273
1.92766
1.93267
1.93778
1.94298
1.9483
1.95372
1.95926
1.96492
1.97072
1.97665
1.98272
1.98894
1.9953
2.00181
1.68093
1.68027
1.67962
1.67897
1.67832
1.67767
1.67703
1.67639
1.67576
1.67514
1.67453
1.67393
1.67335
1.67278
1.67223
1.6717
1.67119
1.6707
1.67024
1.66981
1.66941
1.66905
1.66872
1.66843
1.66818
1.66797
1.66781
1.66769
1.66762
1.66761
1.66765
1.66775
1.66791
1.66812
1.6684
1.66874
1.66915
1.66962
1.67015
1.67076
1.67143
1.67218
1.673
1.67387
1.67483
1.67586
1.67698
1.67817
1.67941
1.68072
1.68209
1.68355
1.68508
1.68672
1.68842
1.6902
1.69204
1.69395
1.69592
1.69798
1.70012
1.70233
1.70461
1.70694
1.70932
1.71175
1.71423
1.71675
1.71931
1.72191
1.72456
1.72724
1.72995
1.73269
1.73547
1.7383
1.74114
1.744
1.7469
1.74986
1.75283
1.75583
1.75891
1.76206
1.76524
1.76843
1.77165
1.77491
1.77822
1.78156
1.78494
1.78836
1.79183
1.79534
1.79891
1.80252
1.80618
1.80989
1.81363
1.81741
1.82121
1.82505
1.82892
1.83285
1.83683
1.84093
1.84507
1.84928
1.85356
1.85793
1.86239
1.86692
1.87155
1.87627
1.88109
1.88602
1.89107
1.89624
1.90154
1.90697
1.91254
1.91825
1.92412
1.93014
1.93631
1.94265
1.94916
1.66411
1.66338
1.66264
1.66191
1.66117
1.66044
1.65971
1.65898
1.65826
1.65755
1.65684
1.65615
1.65546
1.65479
1.65414
1.6535
1.65289
1.65229
1.65172
1.65118
1.65066
1.65018
1.64972
1.64931
1.64893
1.64859
1.64829
1.64804
1.64784
1.64768
1.64757
1.64752
1.64752
1.64757
1.64768
1.64785
1.64809
1.64837
1.64871
1.64911
1.6496
1.65016
1.65076
1.65141
1.65212
1.65291
1.65379
1.65475
1.65578
1.65686
1.658
1.65922
1.66053
1.66192
1.66337
1.66488
1.66645
1.66807
1.66974
1.67145
1.6732
1.67501
1.67687
1.67877
1.68071
1.68269
1.6847
1.68674
1.68881
1.69091
1.69304
1.69519
1.69737
1.69958
1.70182
1.70407
1.70634
1.70866
1.71101
1.71338
1.71578
1.71821
1.7207
1.72325
1.72584
1.72846
1.73114
1.73387
1.73664
1.73947
1.74234
1.74528
1.74827
1.75132
1.75444
1.75762
1.76087
1.76417
1.76752
1.77093
1.77438
1.77789
1.78146
1.78509
1.78883
1.79267
1.79658
1.80057
1.80465
1.80883
1.81311
1.8175
1.82199
1.8266
1.83133
1.83619
1.84118
1.84632
1.85161
1.85705
1.86265
1.86841
1.87433
1.88043
1.8867
1.89315
1.89978
1.90659
1.64814
1.64732
1.64649
1.64566
1.64483
1.644
1.64316
1.64233
1.6415
1.64067
1.63985
1.63903
1.63822
1.63742
1.63663
1.63585
1.63509
1.63434
1.63361
1.63291
1.63222
1.63156
1.63093
1.63033
1.62976
1.62923
1.62873
1.62827
1.62785
1.62747
1.62714
1.62685
1.62662
1.62642
1.62626
1.62617
1.62614
1.62617
1.62623