/*--------------------------------*- C++ -*----------------------------------*\
| =========                 |                                                 |
| \\      /  F ield         | OpenFOAM: The Open Source CFD Toolbox           |
|  \\    /   O peration     | Version:  v1706                                 |
|   \\  /    A nd           | Web:      www.OpenFOAM.com                      |
|    \\/     M anipulation  |                                                 |
\*---------------------------------------------------------------------------*/
FoamFile
{
    version     2.0;
    format      ascii;
    class       volScalarField;
    location    "3.5e-05";
    object      mu;
}
// * * * * * * * * * * * * * * * * * * * * * * * * * * * * * * * * * * * * * //

dimensions      [1 -1 -1 0 0 0 0];


internalField   nonuniform List<scalar> 
29871
(
1.05021e-05
1.05211e-05
1.05423e-05
1.05663e-05
1.05934e-05
1.06241e-05
1.06583e-05
1.0696e-05
1.0737e-05
1.07811e-05
1.08282e-05
1.0879e-05
1.09349e-05
1.09969e-05
1.1065e-05
1.11383e-05
1.12158e-05
1.12965e-05
1.13796e-05
1.14644e-05
1.15501e-05
1.16357e-05
1.17204e-05
1.18036e-05
1.18858e-05
1.19714e-05
1.20797e-05
1.22061e-05
1.23431e-05
1.24841e-05
1.26243e-05
1.27603e-05
1.28895e-05
1.30106e-05
1.31227e-05
1.32256e-05
1.33196e-05
1.34052e-05
1.3483e-05
1.35532e-05
1.36162e-05
1.3672e-05
1.37207e-05
1.37626e-05
1.37977e-05
1.38265e-05
1.3849e-05
1.38658e-05
1.38771e-05
1.38842e-05
1.38851e-05
1.38826e-05
1.38776e-05
1.38706e-05
1.38608e-05
1.38482e-05
1.38344e-05
1.38191e-05
1.3802e-05
1.37835e-05
1.37639e-05
1.37436e-05
1.37219e-05
1.36991e-05
1.36757e-05
1.36515e-05
1.36259e-05
1.35998e-05
1.35735e-05
1.35463e-05
1.35184e-05
1.34901e-05
1.34615e-05
1.34324e-05
1.34028e-05
1.33724e-05
1.33411e-05
1.33087e-05
1.32751e-05
1.32403e-05
1.32043e-05
1.31672e-05
1.31291e-05
1.30901e-05
1.30504e-05
1.30098e-05
1.29685e-05
1.29263e-05
1.28832e-05
1.28393e-05
1.27944e-05
1.27485e-05
1.27014e-05
1.26531e-05
1.26034e-05
1.25521e-05
1.24992e-05
1.24443e-05
1.23873e-05
1.23279e-05
1.22657e-05
1.21999e-05
1.21298e-05
1.2055e-05
1.19755e-05
1.12328e-05
1.13375e-05
1.1453e-05
1.15811e-05
1.17221e-05
1.18752e-05
1.2039e-05
1.22117e-05
1.23912e-05
1.25759e-05
1.27647e-05
1.29588e-05
1.31695e-05
1.34051e-05
1.36617e-05
1.39321e-05
1.42087e-05
1.44845e-05
1.47533e-05
1.50101e-05
1.52515e-05
1.54749e-05
1.5679e-05
1.58634e-05
1.60284e-05
1.61741e-05
1.62981e-05
1.64016e-05
1.64863e-05
1.65541e-05
1.6607e-05
1.66468e-05
1.66751e-05
1.66938e-05
1.67054e-05
1.67124e-05
1.67168e-05
1.67198e-05
1.67223e-05
1.67242e-05
1.6726e-05
1.67268e-05
1.67263e-05
1.67248e-05
1.67221e-05
1.6718e-05
1.6712e-05
1.67038e-05
1.66932e-05
1.66806e-05
1.66656e-05
1.66485e-05
1.66296e-05
1.66094e-05
1.65874e-05
1.65653e-05
1.65427e-05
1.65184e-05
1.64935e-05
1.64686e-05
1.64435e-05
1.64189e-05
1.6394e-05
1.6369e-05
1.63442e-05
1.63196e-05
1.6295e-05
1.62713e-05
1.62476e-05
1.62239e-05
1.62009e-05
1.61782e-05
1.61552e-05
1.61323e-05
1.61099e-05
1.60875e-05
1.60648e-05
1.60418e-05
1.60186e-05
1.59954e-05
1.59722e-05
1.59492e-05
1.59263e-05
1.59037e-05
1.58811e-05
1.58585e-05
1.5836e-05
1.58134e-05
1.57907e-05
1.57679e-05
1.5745e-05
1.5722e-05
1.56988e-05
1.56754e-05
1.56516e-05
1.56275e-05
1.5603e-05
1.55779e-05
1.55521e-05
1.55255e-05
1.54978e-05
1.54691e-05
1.54403e-05
1.54123e-05
1.53856e-05
1.27626e-05
1.29965e-05
1.324e-05
1.35028e-05
1.37925e-05
1.41049e-05
1.44323e-05
1.47656e-05
1.50962e-05
1.54163e-05
1.572e-05
1.60029e-05
1.62621e-05
1.64938e-05
1.66966e-05
1.68723e-05
1.70235e-05
1.71534e-05
1.72648e-05
1.73603e-05
1.74416e-05
1.75099e-05
1.75658e-05
1.76093e-05
1.76413e-05
1.76635e-05
1.76784e-05
1.76877e-05
1.7693e-05
1.76928e-05
1.76903e-05
1.76845e-05
1.76747e-05
1.76603e-05
1.76411e-05
1.76179e-05
1.75921e-05
1.75646e-05
1.75364e-05
1.75081e-05
1.74801e-05
1.74529e-05
1.74267e-05
1.74017e-05
1.73778e-05
1.73551e-05
1.73334e-05
1.73126e-05
1.72923e-05
1.72721e-05
1.72517e-05
1.7231e-05
1.72095e-05
1.71873e-05
1.71641e-05
1.71401e-05
1.71153e-05
1.70896e-05
1.70634e-05
1.70366e-05
1.70091e-05
1.69811e-05
1.69523e-05
1.69255e-05
1.68977e-05
1.68671e-05
1.68395e-05
1.6814e-05
1.67853e-05
1.6757e-05
1.67318e-05
1.67063e-05
1.66798e-05
1.66548e-05
1.66315e-05
1.6608e-05
1.65843e-05
1.65611e-05
1.65385e-05
1.65163e-05
1.64942e-05
1.64725e-05
1.64511e-05
1.64302e-05
1.64097e-05
1.63896e-05
1.637e-05
1.63509e-05
1.63323e-05
1.63142e-05
1.62967e-05
1.62798e-05
1.62636e-05
1.6248e-05
1.62332e-05
1.62192e-05
1.6206e-05
1.61937e-05
1.61823e-05
1.61717e-05
1.61622e-05
1.61541e-05
1.61476e-05
1.61428e-05
1.61408e-05
1.61413e-05
1.56977e-05
1.60286e-05
1.63362e-05
1.66149e-05
1.68616e-05
1.70773e-05
1.72639e-05
1.74238e-05
1.75599e-05
1.7675e-05
1.77715e-05
1.78516e-05
1.79168e-05
1.79686e-05
1.80079e-05
1.80362e-05
1.80554e-05
1.80681e-05
1.8077e-05
1.80842e-05
1.80905e-05
1.80963e-05
1.81012e-05
1.81029e-05
1.81009e-05
1.80956e-05
1.80871e-05
1.80763e-05
1.80638e-05
1.80498e-05
1.80351e-05
1.80202e-05
1.80058e-05
1.79922e-05
1.79787e-05
1.79637e-05
1.7946e-05
1.79253e-05
1.79018e-05
1.78762e-05
1.78492e-05
1.78213e-05
1.77931e-05
1.77651e-05
1.77375e-05
1.77106e-05
1.76846e-05
1.76596e-05
1.76354e-05
1.76121e-05
1.75893e-05
1.75667e-05
1.75441e-05
1.75211e-05
1.74975e-05
1.74732e-05
1.74478e-05
1.74214e-05
1.7394e-05
1.73657e-05
1.73362e-05
1.7306e-05
1.72744e-05
1.72445e-05
1.72136e-05
1.71792e-05
1.71476e-05
1.71182e-05
1.70856e-05
1.7053e-05
1.70235e-05
1.69938e-05
1.69629e-05
1.69336e-05
1.69062e-05
1.68787e-05
1.68509e-05
1.68238e-05
1.67976e-05
1.67719e-05
1.67464e-05
1.6721e-05
1.66961e-05
1.66716e-05
1.66478e-05
1.66246e-05
1.6602e-05
1.658e-05
1.65586e-05
1.6538e-05
1.65181e-05
1.64989e-05
1.64807e-05
1.64634e-05
1.64472e-05
1.64321e-05
1.64181e-05
1.64055e-05
1.63942e-05
1.63843e-05
1.63762e-05
1.63701e-05
1.63673e-05
1.63673e-05
1.63685e-05
1.63709e-05
1.7708e-05
1.78369e-05
1.79451e-05
1.80351e-05
1.8109e-05
1.81688e-05
1.82163e-05
1.8253e-05
1.82802e-05
1.83002e-05
1.83153e-05
1.83274e-05
1.83374e-05
1.83456e-05
1.83519e-05
1.83557e-05
1.8355e-05
1.83513e-05
1.83444e-05
1.83351e-05
1.83247e-05
1.83142e-05
1.83045e-05
1.82968e-05
1.82916e-05
1.82889e-05
1.82866e-05
1.82825e-05
1.82755e-05
1.82654e-05
1.82527e-05
1.82382e-05
1.82224e-05
1.82065e-05
1.81914e-05
1.81778e-05
1.81645e-05
1.81503e-05
1.81344e-05
1.81162e-05
1.80956e-05
1.80729e-05
1.80484e-05
1.80225e-05
1.79958e-05
1.79685e-05
1.7941e-05
1.79137e-05
1.78867e-05
1.78601e-05
1.78342e-05
1.78088e-05
1.77838e-05
1.7759e-05
1.77345e-05
1.77097e-05
1.76845e-05
1.7659e-05
1.76328e-05
1.76057e-05
1.75779e-05
1.75495e-05
1.75198e-05
1.74889e-05
1.74583e-05
1.74282e-05
1.73948e-05
1.73625e-05
1.73323e-05
1.72979e-05
1.72653e-05
1.72349e-05
1.72033e-05
1.7169e-05
1.7138e-05
1.71094e-05
1.708e-05
1.70493e-05
1.70193e-05
1.69911e-05
1.69633e-05
1.69355e-05
1.6908e-05
1.68814e-05
1.68556e-05
1.68305e-05
1.6806e-05
1.67823e-05
1.67593e-05
1.6737e-05
1.67155e-05
1.66947e-05
1.66749e-05
1.6656e-05
1.66381e-05
1.66212e-05
1.66055e-05
1.6591e-05
1.65777e-05
1.65658e-05
1.65554e-05
1.65468e-05
1.65401e-05
1.65357e-05
1.65337e-05
1.65338e-05
1.65346e-05
1.84409e-05
1.84614e-05
1.84778e-05
1.84914e-05
1.8503e-05
1.85125e-05
1.85199e-05
1.85249e-05
1.85254e-05
1.85237e-05
1.85198e-05
1.85145e-05
1.85085e-05
1.85025e-05
1.8497e-05
1.84918e-05
1.84877e-05
1.84843e-05
1.84799e-05
1.84732e-05
1.84638e-05
1.84527e-05
1.84409e-05
1.84291e-05
1.8419e-05
1.84115e-05
1.84065e-05
1.8402e-05
1.83967e-05
1.83894e-05
1.838e-05
1.83685e-05
1.83551e-05
1.83404e-05
1.83249e-05
1.83098e-05
1.82961e-05
1.82835e-05
1.8271e-05
1.82581e-05
1.82441e-05
1.82284e-05
1.8211e-05
1.8192e-05
1.81717e-05
1.81501e-05
1.81274e-05
1.81042e-05
1.80807e-05
1.80567e-05
1.80327e-05
1.80091e-05
1.79855e-05
1.79616e-05
1.79382e-05
1.79147e-05
1.78906e-05
1.78665e-05
1.78421e-05
1.78167e-05
1.77906e-05
1.77642e-05
1.77366e-05
1.77078e-05
1.76781e-05
1.76487e-05
1.76183e-05
1.75862e-05
1.75544e-05
1.75221e-05
1.74907e-05
1.74615e-05
1.74272e-05
1.73903e-05
1.73583e-05
1.73285e-05
1.72984e-05
1.72645e-05
1.72314e-05
1.72016e-05
1.7172e-05
1.71412e-05
1.71109e-05
1.70822e-05
1.70544e-05
1.70269e-05
1.70003e-05
1.69745e-05
1.69495e-05
1.69251e-05
1.69015e-05
1.68787e-05
1.68568e-05
1.68359e-05
1.6816e-05
1.67971e-05
1.67793e-05
1.67627e-05
1.67473e-05
1.67333e-05
1.67207e-05
1.67098e-05
1.67005e-05
1.66929e-05
1.66869e-05
1.66823e-05
1.66787e-05
1.86482e-05
1.8656e-05
1.86611e-05
1.86618e-05
1.86605e-05
1.86575e-05
1.86537e-05
1.86495e-05
1.86454e-05
1.86416e-05
1.86387e-05
1.86365e-05
1.86345e-05
1.86311e-05
1.86256e-05
1.86184e-05
1.861e-05
1.86012e-05
1.85922e-05
1.85846e-05
1.85787e-05
1.85731e-05
1.8567e-05
1.85596e-05
1.85507e-05
1.85405e-05
1.8529e-05
1.85174e-05
1.85067e-05
1.84985e-05
1.84918e-05
1.84866e-05
1.84818e-05
1.84763e-05
1.84695e-05
1.84611e-05
1.8451e-05
1.84396e-05
1.84273e-05
1.84152e-05
1.84037e-05
1.83924e-05
1.83818e-05
1.83714e-05
1.83604e-05
1.83484e-05
1.83351e-05
1.83205e-05
1.83047e-05
1.82875e-05
1.8269e-05
1.82501e-05
1.82304e-05
1.82095e-05
1.81888e-05
1.81682e-05
1.81465e-05
1.81249e-05
1.81039e-05
1.80818e-05
1.80594e-05
1.80376e-05
1.80148e-05
1.79907e-05
1.79668e-05
1.79424e-05
1.79164e-05
1.78892e-05
1.78618e-05
1.78348e-05
1.78056e-05
1.77743e-05
1.77439e-05
1.77139e-05
1.76876e-05
1.76533e-05
1.76166e-05
1.7585e-05
1.75549e-05
1.75262e-05
1.74902e-05
1.74555e-05
1.74246e-05
1.73945e-05
1.73616e-05
1.73289e-05
1.7299e-05
1.72697e-05
1.724e-05
1.72118e-05
1.71846e-05
1.71578e-05
1.71315e-05
1.71059e-05
1.70811e-05
1.70573e-05
1.70344e-05
1.70124e-05
1.69913e-05
1.69712e-05
1.69522e-05
1.69343e-05
1.69175e-05
1.6902e-05
1.68879e-05
1.6875e-05
1.68633e-05
1.68527e-05
1.68431e-05
1.68341e-05
1.87751e-05
1.87722e-05
1.87702e-05
1.87688e-05
1.87667e-05
1.87629e-05
1.87577e-05
1.87507e-05
1.87429e-05
1.87351e-05
1.8728e-05
1.87221e-05
1.87177e-05
1.87133e-05
1.87081e-05
1.87016e-05
1.8694e-05
1.86853e-05
1.86761e-05
1.86669e-05
1.86585e-05
1.86511e-05
1.86448e-05
1.86387e-05
1.86322e-05
1.86249e-05
1.86165e-05
1.86073e-05
1.8598e-05
1.85891e-05
1.85815e-05
1.85754e-05
1.85706e-05
1.85663e-05
1.8562e-05
1.85571e-05
1.85512e-05
1.8544e-05
1.85353e-05
1.85261e-05
1.8517e-05
1.85066e-05
1.84968e-05
1.84878e-05
1.84789e-05
1.84697e-05
1.84601e-05
1.84494e-05
1.84381e-05
1.84261e-05
1.84118e-05
1.83972e-05
1.83825e-05
1.83648e-05
1.83473e-05
1.83306e-05
1.83117e-05
1.82923e-05
1.82739e-05
1.82545e-05
1.8234e-05
1.82142e-05
1.81947e-05
1.81728e-05
1.81509e-05
1.81299e-05
1.81075e-05
1.80826e-05
1.8058e-05
1.80343e-05
1.80091e-05
1.79797e-05
1.79519e-05
1.79243e-05
1.79004e-05
1.78679e-05
1.78337e-05
1.78037e-05
1.77745e-05
1.77476e-05
1.77122e-05
1.76774e-05
1.76465e-05
1.76168e-05
1.75827e-05
1.75482e-05
1.75173e-05
1.74873e-05
1.7456e-05
1.74267e-05
1.7399e-05
1.7371e-05
1.73429e-05
1.73153e-05
1.72888e-05
1.72634e-05
1.72386e-05
1.72145e-05
1.71911e-05
1.71685e-05
1.71468e-05
1.71261e-05
1.71063e-05
1.70876e-05
1.70699e-05
1.70531e-05
1.70373e-05
1.70222e-05
1.70077e-05
1.69938e-05
1.88708e-05
1.88634e-05
1.88569e-05
1.88519e-05
1.88475e-05
1.8843e-05
1.88376e-05
1.8831e-05
1.88233e-05
1.88151e-05
1.88067e-05
1.87988e-05
1.8792e-05
1.87863e-05
1.87811e-05
1.87759e-05
1.87704e-05
1.87641e-05
1.8757e-05
1.87493e-05
1.87415e-05
1.87341e-05
1.87274e-05
1.87214e-05
1.87158e-05
1.87102e-05
1.87041e-05
1.86973e-05
1.869e-05
1.86824e-05
1.86748e-05
1.86681e-05
1.86625e-05
1.86578e-05
1.86539e-05
1.86502e-05
1.86464e-05
1.86423e-05
1.86366e-05
1.86306e-05
1.86248e-05
1.86164e-05
1.86076e-05
1.86e-05
1.85924e-05
1.85843e-05
1.85767e-05
1.85684e-05
1.85598e-05
1.85514e-05
1.85405e-05
1.85293e-05
1.85188e-05
1.85046e-05
1.849e-05
1.84765e-05
1.84615e-05
1.84436e-05
1.84273e-05
1.84115e-05
1.83923e-05
1.83743e-05
1.83576e-05
1.83373e-05
1.83176e-05
1.8299e-05
1.82794e-05
1.82561e-05
1.82344e-05
1.82136e-05
1.81918e-05
1.81645e-05
1.81397e-05
1.81149e-05
1.80932e-05
1.8063e-05
1.80322e-05
1.80047e-05
1.79771e-05
1.79524e-05
1.79179e-05
1.78851e-05
1.78555e-05
1.78268e-05
1.77919e-05
1.77565e-05
1.77252e-05
1.76955e-05
1.76636e-05
1.76334e-05
1.7605e-05
1.7577e-05
1.75476e-05
1.7518e-05
1.74904e-05
1.74638e-05
1.74374e-05
1.74113e-05
1.73857e-05
1.73608e-05
1.73366e-05
1.73133e-05
1.72907e-05
1.72689e-05
1.72479e-05
1.72277e-05
1.72081e-05
1.71891e-05
1.71707e-05
1.71527e-05
1.895e-05
1.89419e-05
1.89338e-05
1.89265e-05
1.89204e-05
1.89152e-05
1.89104e-05
1.89054e-05
1.88998e-05
1.88937e-05
1.8887e-05
1.888e-05
1.88732e-05
1.88671e-05
1.88617e-05
1.88568e-05
1.88522e-05
1.88474e-05
1.88422e-05
1.88364e-05
1.883e-05
1.88235e-05
1.8817e-05
1.8811e-05
1.88054e-05
1.88002e-05
1.87952e-05
1.87898e-05
1.87843e-05
1.87783e-05
1.8772e-05
1.87658e-05
1.87599e-05
1.87548e-05
1.87506e-05
1.87469e-05
1.87436e-05
1.87409e-05
1.87373e-05
1.87334e-05
1.87299e-05
1.87246e-05
1.87177e-05
1.87117e-05
1.87059e-05
1.86983e-05
1.86918e-05
1.86852e-05
1.86778e-05
1.86712e-05
1.86631e-05
1.8654e-05
1.86459e-05
1.86358e-05
1.86233e-05
1.8612e-05
1.86009e-05
1.85848e-05
1.85702e-05
1.85572e-05
1.85398e-05
1.85228e-05
1.85078e-05
1.84897e-05
1.84709e-05
1.84538e-05
1.84365e-05
1.84142e-05
1.83945e-05
1.83764e-05
1.83559e-05
1.83304e-05
1.83083e-05
1.82861e-05
1.82664e-05
1.82372e-05
1.82101e-05
1.81853e-05
1.81601e-05
1.81366e-05
1.81028e-05
1.80733e-05
1.80456e-05
1.80184e-05
1.79828e-05
1.79479e-05
1.79171e-05
1.7888e-05
1.78559e-05
1.78254e-05
1.77966e-05
1.77689e-05
1.77388e-05
1.77078e-05
1.7679e-05
1.76514e-05
1.76242e-05
1.75966e-05
1.75689e-05
1.75419e-05
1.75157e-05
1.74903e-05
1.74655e-05
1.74414e-05
1.74178e-05
1.73947e-05
1.73722e-05
1.73503e-05
1.73288e-05
1.73077e-05
1.90268e-05
1.90207e-05
1.90142e-05
1.90076e-05
1.90014e-05
1.8996e-05
1.89912e-05
1.89868e-05
1.89825e-05
1.89779e-05
1.89729e-05
1.89674e-05
1.89617e-05
1.8956e-05
1.89506e-05
1.89456e-05
1.89412e-05
1.89369e-05
1.89327e-05
1.89282e-05
1.89234e-05
1.89182e-05
1.89128e-05
1.89074e-05
1.89022e-05
1.88973e-05
1.88927e-05
1.88882e-05
1.88838e-05
1.88792e-05
1.88743e-05
1.88692e-05
1.88641e-05
1.88592e-05
1.88549e-05
1.8851e-05
1.88477e-05
1.88453e-05
1.88427e-05
1.88398e-05
1.88376e-05
1.88346e-05
1.88299e-05
1.88257e-05
1.88217e-05
1.88153e-05
1.88096e-05
1.88045e-05
1.87977e-05
1.87917e-05
1.87858e-05
1.87778e-05
1.87708e-05
1.87636e-05
1.87531e-05
1.87433e-05
1.87346e-05
1.87211e-05
1.87078e-05
1.86965e-05
1.86815e-05
1.86651e-05
1.86509e-05
1.86352e-05
1.86166e-05
1.85999e-05
1.85841e-05
1.85631e-05
1.85444e-05
1.85276e-05
1.8507e-05
1.84832e-05
1.8463e-05
1.84433e-05
1.8423e-05
1.8395e-05
1.83712e-05
1.83481e-05
1.83263e-05
1.83001e-05
1.82691e-05
1.82429e-05
1.82165e-05
1.81906e-05
1.81549e-05
1.8122e-05
1.80923e-05
1.80638e-05
1.80313e-05
1.80008e-05
1.79722e-05
1.79447e-05
1.79146e-05
1.78823e-05
1.78527e-05
1.78244e-05
1.77964e-05
1.77682e-05
1.77388e-05
1.77102e-05
1.76828e-05
1.7656e-05
1.76298e-05
1.76039e-05
1.75785e-05
1.75535e-05
1.7529e-05
1.75049e-05
1.74814e-05
1.74582e-05
1.91142e-05
1.91098e-05
1.91053e-05
1.91004e-05
1.90952e-05
1.90898e-05
1.90847e-05
1.908e-05
1.90757e-05
1.90718e-05
1.9068e-05
1.90641e-05
1.906e-05
1.90555e-05
1.90509e-05
1.90463e-05
1.90418e-05
1.90376e-05
1.90337e-05
1.90301e-05
1.90265e-05
1.90229e-05
1.9019e-05
1.90149e-05
1.90107e-05
1.90064e-05
1.90021e-05
1.89981e-05
1.89943e-05
1.89907e-05
1.89871e-05
1.89834e-05
1.89796e-05
1.89756e-05
1.89716e-05
1.89678e-05
1.89642e-05
1.89609e-05
1.89585e-05
1.89562e-05
1.89537e-05
1.89522e-05
1.89505e-05
1.89473e-05
1.89447e-05
1.89421e-05
1.89373e-05
1.89327e-05
1.89287e-05
1.89227e-05
1.8917e-05
1.89122e-05
1.89052e-05
1.88984e-05
1.88926e-05
1.88838e-05
1.88748e-05
1.88673e-05
1.88562e-05
1.88439e-05
1.88335e-05
1.88207e-05
1.8805e-05
1.87912e-05
1.87773e-05
1.87591e-05
1.87423e-05
1.87273e-05
1.87075e-05
1.86884e-05
1.86717e-05
1.86518e-05
1.8629e-05
1.86094e-05
1.85915e-05
1.85685e-05
1.85426e-05
1.85209e-05
1.84987e-05
1.84786e-05
1.84492e-05
1.8422e-05
1.83978e-05
1.83728e-05
1.83462e-05
1.83114e-05
1.82814e-05
1.8253e-05
1.82249e-05
1.81917e-05
1.81616e-05
1.81336e-05
1.81063e-05
1.80761e-05
1.80428e-05
1.80127e-05
1.79842e-05
1.79554e-05
1.79264e-05
1.78967e-05
1.78674e-05
1.78393e-05
1.78118e-05
1.77846e-05
1.77577e-05
1.77311e-05
1.77049e-05
1.76791e-05
1.76537e-05
1.76288e-05
1.76043e-05
1.92028e-05
1.9199e-05
1.91953e-05
1.91915e-05
1.91876e-05
1.91835e-05
1.91793e-05
1.91752e-05
1.91713e-05
1.91678e-05
1.91645e-05
1.91614e-05
1.91583e-05
1.9155e-05
1.91517e-05
1.91481e-05
1.91446e-05
1.91412e-05
1.91379e-05
1.91349e-05
1.91321e-05
1.91294e-05
1.91267e-05
1.91239e-05
1.9121e-05
1.91179e-05
1.91148e-05
1.91118e-05
1.91088e-05
1.9106e-05
1.91033e-05
1.91007e-05
1.9098e-05
1.90953e-05
1.90924e-05
1.90895e-05
1.90866e-05
1.90839e-05
1.90816e-05
1.90795e-05
1.90773e-05
1.9076e-05
1.90747e-05
1.90724e-05
1.90707e-05
1.90691e-05
1.90655e-05
1.9062e-05
1.9059e-05
1.9054e-05
1.90486e-05
1.90443e-05
1.90381e-05
1.90312e-05
1.90258e-05
1.90182e-05
1.90093e-05
1.90021e-05
1.89928e-05
1.8981e-05
1.89709e-05
1.89598e-05
1.89449e-05
1.89311e-05
1.89183e-05
1.8901e-05
1.88838e-05
1.88688e-05
1.88502e-05
1.88303e-05
1.88128e-05
1.87941e-05
1.87715e-05
1.87513e-05
1.87334e-05
1.87097e-05
1.8685e-05
1.86638e-05
1.8643e-05
1.86204e-05
1.85908e-05
1.85662e-05
1.85424e-05
1.85193e-05
1.84894e-05
1.84575e-05
1.84299e-05
1.84029e-05
1.83742e-05
1.83404e-05
1.8311e-05
1.82837e-05
1.82568e-05
1.82258e-05
1.8192e-05
1.81619e-05
1.81333e-05
1.81042e-05
1.80746e-05
1.8045e-05
1.80156e-05
1.79872e-05
1.79594e-05
1.79318e-05
1.79043e-05
1.78771e-05
1.78502e-05
1.78236e-05
1.77975e-05
1.77717e-05
1.77464e-05
1.77215e-05
1.76968e-05
1.92974e-05
1.9294e-05
1.92909e-05
1.92879e-05
1.9285e-05
1.9282e-05
1.9279e-05
1.92759e-05
1.92729e-05
1.92701e-05
1.92675e-05
1.92651e-05
1.92628e-05
1.92606e-05
1.92584e-05
1.92562e-05
1.92539e-05
1.92516e-05
1.92493e-05
1.92472e-05
1.92453e-05
1.92436e-05
1.9242e-05
1.92404e-05
1.92388e-05
1.92371e-05
1.92353e-05
1.92335e-05
1.92318e-05
1.923e-05
1.92283e-05
1.92267e-05
1.92252e-05
1.92235e-05
1.92218e-05
1.922e-05
1.92181e-05
1.92162e-05
1.92143e-05
1.92125e-05
1.92107e-05
1.92094e-05
1.92081e-05
1.92063e-05
1.9205e-05
1.92037e-05
1.92009e-05
1.91982e-05
1.91958e-05
1.91915e-05
1.91865e-05
1.91826e-05
1.91768e-05
1.91697e-05
1.91643e-05
1.91572e-05
1.91481e-05
1.91406e-05
1.91321e-05
1.91205e-05
1.911e-05
1.90998e-05
1.90857e-05
1.90715e-05
1.9059e-05
1.90428e-05
1.90251e-05
1.90096e-05
1.89922e-05
1.89716e-05
1.89529e-05
1.89349e-05
1.89125e-05
1.8891e-05
1.88722e-05
1.88491e-05
1.88245e-05
1.88027e-05
1.87825e-05
1.87566e-05
1.87287e-05
1.87051e-05
1.8681e-05
1.86581e-05
1.8626e-05
1.85968e-05
1.85706e-05
1.85446e-05
1.85143e-05
1.84807e-05
1.8452e-05
1.84245e-05
1.83981e-05
1.83665e-05
1.8333e-05
1.83031e-05
1.82744e-05
1.82454e-05
1.82158e-05
1.81861e-05
1.81568e-05
1.81282e-05
1.81002e-05
1.80725e-05
1.80448e-05
1.80174e-05
1.79901e-05
1.79631e-05
1.79365e-05
1.79101e-05
1.78841e-05
1.78586e-05
1.78333e-05
1.9403e-05
1.93999e-05
1.93971e-05
1.93944e-05
1.93919e-05
1.93897e-05
1.93876e-05
1.93857e-05
1.93837e-05
1.93818e-05
1.93799e-05
1.93781e-05
1.93764e-05
1.9375e-05
1.93737e-05
1.93725e-05
1.93715e-05
1.93705e-05
1.93695e-05
1.93685e-05
1.93676e-05
1.93667e-05
1.9366e-05
1.93654e-05
1.93649e-05
1.93646e-05
1.93643e-05
1.93639e-05
1.93636e-05
1.93632e-05
1.93627e-05
1.93622e-05
1.93617e-05
1.93612e-05
1.93607e-05
1.93602e-05
1.93595e-05
1.93588e-05
1.93578e-05
1.93568e-05
1.93556e-05
1.93542e-05
1.93529e-05
1.93516e-05
1.93502e-05
1.93486e-05
1.93473e-05
1.93458e-05
1.93433e-05
1.9341e-05
1.93386e-05
1.93346e-05
1.933e-05
1.93261e-05
1.93204e-05
1.93131e-05
1.93073e-05
1.93002e-05
1.92906e-05
1.92824e-05
1.92739e-05
1.92623e-05
1.92509e-05
1.92407e-05
1.92271e-05
1.92122e-05
1.91992e-05
1.91839e-05
1.91656e-05
1.91491e-05
1.91326e-05
1.91119e-05
1.90917e-05
1.90736e-05
1.90518e-05
1.90289e-05
1.90083e-05
1.89864e-05
1.89613e-05
1.89381e-05
1.89172e-05
1.88907e-05
1.88633e-05
1.88395e-05
1.88155e-05
1.87906e-05
1.87581e-05
1.87306e-05
1.87045e-05
1.86793e-05
1.86477e-05
1.86145e-05
1.8586e-05
1.85582e-05
1.85315e-05
1.85e-05
1.84676e-05
1.84378e-05
1.8409e-05
1.83801e-05
1.83506e-05
1.83211e-05
1.82918e-05
1.82631e-05
1.82349e-05
1.8207e-05
1.81793e-05
1.81516e-05
1.81242e-05
1.80969e-05
1.80699e-05
1.80432e-05
1.80168e-05
1.79906e-05
1.79647e-05
1.9505e-05
1.9503e-05
1.95012e-05
1.94994e-05
1.94979e-05
1.94965e-05
1.94954e-05
1.94944e-05
1.94936e-05
1.94928e-05
1.94922e-05
1.94916e-05
1.94911e-05
1.94908e-05
1.94906e-05
1.94907e-05
1.94908e-05
1.94911e-05
1.94915e-05
1.94919e-05
1.94924e-05
1.9493e-05
1.94936e-05
1.94943e-05
1.94952e-05
1.94961e-05
1.94971e-05
1.94981e-05
1.94991e-05
1.95001e-05
1.9501e-05
1.95018e-05
1.95026e-05
1.95032e-05
1.95038e-05
1.95043e-05
1.95046e-05
1.95048e-05
1.95047e-05
1.95045e-05
1.95039e-05
1.95031e-05
1.95021e-05
1.95009e-05
1.94995e-05
1.94978e-05
1.94962e-05
1.94942e-05
1.94916e-05
1.94891e-05
1.94862e-05
1.9482e-05
1.94774e-05
1.9473e-05
1.9467e-05
1.94595e-05
1.94531e-05
1.94454e-05
1.94353e-05
1.9426e-05
1.94169e-05
1.9405e-05
1.93923e-05
1.93813e-05
1.93677e-05
1.93518e-05
1.93376e-05
1.93227e-05
1.9304e-05
1.9286e-05
1.92694e-05
1.92492e-05
1.92276e-05
1.92081e-05
1.91874e-05
1.91634e-05
1.91407e-05
1.91194e-05
1.90943e-05
1.90694e-05
1.90467e-05
1.9021e-05
1.89934e-05
1.89685e-05
1.89447e-05
1.89171e-05
1.88855e-05
1.88586e-05
1.88319e-05
1.88069e-05
1.87741e-05
1.87418e-05
1.87131e-05
1.86849e-05
1.86567e-05
1.86268e-05
1.85957e-05
1.85658e-05
1.85367e-05
1.85077e-05
1.84784e-05
1.8449e-05
1.84198e-05
1.8391e-05
1.83625e-05
1.83344e-05
1.83065e-05
1.82787e-05
1.82511e-05
1.82236e-05
1.81963e-05
1.81692e-05
1.81423e-05
1.81155e-05
1.80889e-05
1.80624e-05
1.96225e-05
1.96203e-05
1.96183e-05
1.96164e-05
1.96148e-05
1.96134e-05
1.96122e-05
1.96112e-05
1.96103e-05
1.96095e-05
1.96089e-05
1.96084e-05
1.96081e-05
1.96081e-05
1.96082e-05
1.96085e-05
1.9609e-05
1.96096e-05
1.96103e-05
1.96112e-05
1.96122e-05
1.96133e-05
1.96147e-05
1.96162e-05
1.96178e-05
1.96196e-05
1.96215e-05
1.96235e-05
1.96255e-05
1.96276e-05
1.96298e-05
1.9632e-05
1.96343e-05
1.96366e-05
1.9639e-05
1.96413e-05
1.96436e-05
1.96458e-05
1.96479e-05
1.96498e-05
1.96515e-05
1.96531e-05
1.96545e-05
1.96557e-05
1.96566e-05
1.96573e-05
1.96576e-05
1.96575e-05
1.96571e-05
1.96563e-05
1.96551e-05
1.96535e-05
1.96516e-05
1.96494e-05
1.96468e-05
1.96437e-05
1.96404e-05
1.96366e-05
1.96318e-05
1.96266e-05
1.96213e-05
1.96145e-05
1.96064e-05
1.9599e-05
1.95904e-05
1.95795e-05
1.95689e-05
1.95588e-05
1.9546e-05
1.95318e-05
1.95194e-05
1.95053e-05
1.94882e-05
1.94722e-05
1.94569e-05
1.9438e-05
1.94182e-05
1.94004e-05
1.93806e-05
1.93578e-05
1.93365e-05
1.93162e-05
1.9292e-05
1.92674e-05
1.92447e-05
1.92209e-05
1.91943e-05
1.9169e-05
1.91443e-05
1.91167e-05
1.90899e-05
1.90648e-05
1.9037e-05
1.90064e-05
1.89787e-05
1.89513e-05
1.89254e-05
1.88927e-05
1.88613e-05
1.88322e-05
1.88034e-05
1.87745e-05
1.8745e-05
1.87148e-05
1.8685e-05
1.86556e-05
1.86264e-05
1.85971e-05
1.85679e-05
1.85387e-05
1.85098e-05
1.84811e-05
1.84528e-05
1.84247e-05
1.83967e-05
1.83688e-05
1.8341e-05
1.83133e-05
1.82858e-05
1.82583e-05
1.82309e-05
1.82037e-05
1.81765e-05
1.97256e-05
1.97244e-05
1.97234e-05
1.97226e-05
1.9722e-05
1.97215e-05
1.97213e-05
1.97214e-05
1.97216e-05
1.97219e-05
1.97225e-05
1.97232e-05
1.97241e-05
1.97253e-05
1.97266e-05
1.97282e-05
1.97299e-05
1.97319e-05
1.9734e-05
1.97363e-05
1.97387e-05
1.97413e-05
1.97441e-05
1.9747e-05
1.97501e-05
1.97533e-05
1.97567e-05
1.97601e-05
1.97636e-05
1.97672e-05
1.97708e-05
1.97744e-05
1.97781e-05
1.97817e-05
1.97853e-05
1.97889e-05
1.97923e-05
1.97957e-05
1.97988e-05
1.98018e-05
1.98045e-05
1.98069e-05
1.9809e-05
1.98109e-05
1.98123e-05
1.98134e-05
1.9814e-05
1.98141e-05
1.98138e-05
1.98129e-05
1.98116e-05
1.98097e-05
1.98073e-05
1.98043e-05
1.98008e-05
1.97968e-05
1.97923e-05
1.97873e-05
1.97813e-05
1.9775e-05
1.97682e-05
1.97602e-05
1.9751e-05
1.97423e-05
1.97322e-05
1.97201e-05
1.97081e-05
1.96964e-05
1.96824e-05
1.96665e-05
1.96523e-05
1.96371e-05
1.96189e-05
1.96006e-05
1.9584e-05
1.95646e-05
1.9543e-05
1.95232e-05
1.95034e-05
1.94799e-05
1.94564e-05
1.94349e-05
1.94113e-05
1.9385e-05
1.93603e-05
1.93369e-05
1.931e-05
1.92824e-05
1.92564e-05
1.92297e-05
1.92014e-05
1.9174e-05
1.91465e-05
1.91173e-05
1.90883e-05
1.90599e-05
1.90319e-05
1.90016e-05
1.89707e-05
1.89408e-05
1.89114e-05
1.8882e-05
1.88524e-05
1.88225e-05
1.87927e-05
1.87632e-05
1.87338e-05
1.87045e-05
1.86752e-05
1.8646e-05
1.8617e-05
1.85882e-05
1.85596e-05
1.85312e-05
1.85029e-05
1.84747e-05
1.84465e-05
1.84184e-05
1.83904e-05
1.83624e-05
1.83344e-05
1.83065e-05
1.82787e-05
1.9832e-05
1.98318e-05
1.98319e-05
1.98321e-05
1.98326e-05
1.98332e-05
1.98341e-05
1.98353e-05
1.98366e-05
1.98382e-05
1.984e-05
1.9842e-05
1.98442e-05
1.98467e-05
1.98494e-05
1.98523e-05
1.98554e-05
1.98587e-05
1.98623e-05
1.9866e-05
1.98699e-05
1.9874e-05
1.98782e-05
1.98826e-05
1.98872e-05
1.98919e-05
1.98966e-05
1.99015e-05
1.99065e-05
1.99114e-05
1.99164e-05
1.99213e-05
1.99262e-05
1.9931e-05
1.99357e-05
1.99404e-05
1.99448e-05
1.9949e-05
1.9953e-05
1.99567e-05
1.99601e-05
1.99631e-05
1.99657e-05
1.99678e-05
1.99695e-05
1.99707e-05
1.99712e-05
1.99712e-05
1.99706e-05
1.99694e-05
1.99675e-05
1.9965e-05
1.99617e-05
1.99578e-05
1.99531e-05
1.99478e-05
1.99419e-05
1.99352e-05
1.99277e-05
1.99197e-05
1.9911e-05
1.99012e-05
1.98906e-05
1.98798e-05
1.98679e-05
1.98543e-05
1.98404e-05
1.98267e-05
1.9811e-05
1.97934e-05
1.9777e-05
1.97601e-05
1.97405e-05
1.972e-05
1.97013e-05
1.96809e-05
1.96578e-05
1.96355e-05
1.96146e-05
1.95906e-05
1.9565e-05
1.95413e-05
1.95179e-05
1.94907e-05
1.94639e-05
1.94388e-05
1.9413e-05
1.93838e-05
1.93557e-05
1.93286e-05
1.93003e-05
1.92712e-05
1.92428e-05
1.9214e-05
1.91847e-05
1.91554e-05
1.91262e-05
1.90965e-05
1.90661e-05
1.90359e-05
1.9006e-05
1.89762e-05
1.89464e-05
1.89165e-05
1.88867e-05
1.8857e-05
1.88274e-05
1.8798e-05
1.87686e-05
1.87394e-05
1.87103e-05
1.86814e-05
1.86525e-05
1.86238e-05
1.85952e-05
1.85666e-05
1.8538e-05
1.85095e-05
1.84809e-05
1.84524e-05
1.84239e-05
1.83954e-05
1.8367e-05
1.99412e-05
1.99422e-05
1.99433e-05
1.99447e-05
1.99463e-05
1.99481e-05
1.99502e-05
1.99526e-05
1.99552e-05
1.9958e-05
1.99611e-05
1.99645e-05
1.99681e-05
1.99719e-05
1.99759e-05
1.99802e-05
1.99848e-05
1.99895e-05
1.99945e-05
1.99997e-05
2.00051e-05
2.00106e-05
2.00163e-05
2.00222e-05
2.00281e-05
2.00342e-05
2.00403e-05
2.00465e-05
2.00527e-05
2.00589e-05
2.00651e-05
2.00711e-05
2.00771e-05
2.00829e-05
2.00885e-05
2.00939e-05
2.00991e-05
2.01039e-05
2.01084e-05
2.01126e-05
2.01162e-05
2.01194e-05
2.01221e-05
2.01242e-05
2.01257e-05
2.01266e-05
2.01266e-05
2.01261e-05
2.01249e-05
2.01229e-05
2.012e-05
2.01164e-05
2.01119e-05
2.01066e-05
2.01005e-05
2.00935e-05
2.00858e-05
2.00772e-05
2.00677e-05
2.00576e-05
2.00467e-05
2.00347e-05
2.0022e-05
2.00089e-05
1.99946e-05
1.9979e-05
1.99629e-05
1.99469e-05
1.9929e-05
1.99094e-05
1.98906e-05
1.98716e-05
1.98502e-05
1.98273e-05
1.98062e-05
1.97843e-05
1.97596e-05
1.97347e-05
1.97118e-05
1.96871e-05
1.96598e-05
1.96337e-05
1.96092e-05
1.95817e-05
1.95528e-05
1.95257e-05
1.94998e-05
1.94703e-05
1.94401e-05
1.94115e-05
1.93832e-05
1.93535e-05
1.93239e-05
1.92946e-05
1.92651e-05
1.92353e-05
1.92055e-05
1.91755e-05
1.91453e-05
1.9115e-05
1.90848e-05
1.90548e-05
1.90248e-05
1.89948e-05
1.89649e-05
1.8935e-05
1.89053e-05
1.88757e-05
1.88464e-05
1.88171e-05
1.87879e-05
1.87588e-05
1.87297e-05
1.87007e-05
1.86717e-05
1.86428e-05
1.86138e-05
1.85849e-05
1.85559e-05
1.85269e-05
1.84979e-05
1.84689e-05
1.84399e-05
1.84108e-05
1.83818e-05
2.00532e-05
2.00552e-05
2.00575e-05
2.006e-05
2.00629e-05
2.00659e-05
2.00693e-05
2.00729e-05
2.00768e-05
2.0081e-05
2.00854e-05
2.00901e-05
2.00951e-05
2.01003e-05
2.01058e-05
2.01115e-05
2.01174e-05
2.01236e-05
2.013e-05
2.01366e-05
2.01434e-05
2.01503e-05
2.01573e-05
2.01645e-05
2.01717e-05
2.0179e-05
2.01864e-05
2.01937e-05
2.0201e-05
2.02082e-05
2.02153e-05
2.02222e-05
2.0229e-05
2.02355e-05
2.02417e-05
2.02475e-05
2.02531e-05
2.02582e-05
2.02628e-05
2.02669e-05
2.02705e-05
2.02735e-05
2.02758e-05
2.02774e-05
2.02783e-05
2.02783e-05
2.02776e-05
2.02761e-05
2.02737e-05
2.02704e-05
2.02662e-05
2.02611e-05
2.0255e-05
2.02479e-05
2.02399e-05
2.02309e-05
2.0221e-05
2.02101e-05
2.01984e-05
2.01858e-05
2.01723e-05
2.01578e-05
2.01425e-05
2.01266e-05
2.01097e-05
2.00916e-05
2.0073e-05
2.00541e-05
2.00338e-05
2.0012e-05
1.99904e-05
1.99689e-05
1.99453e-05
1.99202e-05
1.98963e-05
1.98725e-05
1.98461e-05
1.98187e-05
1.97931e-05
1.97674e-05
1.97385e-05
1.971e-05
1.96833e-05
1.96558e-05
1.96252e-05
1.95962e-05
1.95686e-05
1.95396e-05
1.95078e-05
1.94775e-05
1.94483e-05
1.94186e-05
1.93882e-05
1.9358e-05
1.9328e-05
1.92979e-05
1.92677e-05
1.92375e-05
1.92071e-05
1.91768e-05
1.91465e-05
1.91163e-05
1.90862e-05
1.90562e-05
1.90261e-05
1.89961e-05
1.89664e-05
1.89369e-05
1.89075e-05
1.88781e-05
1.88488e-05
1.88196e-05
1.87903e-05
1.87611e-05
1.87319e-05
1.87027e-05
1.86734e-05
1.86441e-05
1.86148e-05
1.85854e-05
1.85559e-05
1.85263e-05
1.84967e-05
1.8467e-05
1.84373e-05
2.01674e-05
2.01706e-05
2.01741e-05
2.01778e-05
2.01819e-05
2.01862e-05
2.01909e-05
2.01958e-05
2.0201e-05
2.02065e-05
2.02123e-05
2.02183e-05
2.02247e-05
2.02312e-05
2.02381e-05
2.02452e-05
2.02525e-05
2.026e-05
2.02677e-05
2.02756e-05
2.02836e-05
2.02918e-05
2.03e-05
2.03083e-05
2.03167e-05
2.0325e-05
2.03333e-05
2.03415e-05
2.03496e-05
2.03575e-05
2.03653e-05
2.03727e-05
2.03799e-05
2.03867e-05
2.03931e-05
2.03991e-05
2.04045e-05
2.04095e-05
2.04138e-05
2.04175e-05
2.04205e-05
2.04227e-05
2.04242e-05
2.04248e-05
2.04246e-05
2.04235e-05
2.04214e-05
2.04184e-05
2.04145e-05
2.04094e-05
2.04034e-05
2.03963e-05
2.03881e-05
2.03789e-05
2.03685e-05
2.03572e-05
2.03448e-05
2.03313e-05
2.03168e-05
2.03014e-05
2.02851e-05
2.02677e-05
2.02496e-05
2.02306e-05
2.02107e-05
2.01898e-05
2.01683e-05
2.01463e-05
2.01232e-05
2.00988e-05
2.00743e-05
2.005e-05
2.00241e-05
1.99966e-05
1.99698e-05
1.99437e-05
1.99153e-05
1.98856e-05
1.98574e-05