/*--------------------------------*- C++ -*----------------------------------*\
| =========                 |                                                 |
| \\      /  F ield         | OpenFOAM: The Open Source CFD Toolbox           |
|  \\    /   O peration     | Version:  v1706                                 |
|   \\  /    A nd           | Web:      www.OpenFOAM.com                      |
|    \\/     M anipulation  |                                                 |
\*---------------------------------------------------------------------------*/
FoamFile
{
    version     2.0;
    format      ascii;
    class       volScalarField;
    location    "3.5e-05";
    object      p;
}
// * * * * * * * * * * * * * * * * * * * * * * * * * * * * * * * * * * * * * //

dimensions      [1 -1 -2 0 0 0 0];


internalField   nonuniform List<scalar> 
29871
(
22.5687
22.648
22.7355
22.8348
22.95
23.0845
23.2407
23.4196
23.6209
23.8435
24.0854
24.3497
24.6401
24.9554
25.2896
25.636
25.9907
26.3541
26.7304
27.124
27.5368
27.9678
28.414
28.8723
29.3415
29.8383
30.5295
31.4259
32.4969
33.7033
35.0071
36.3743
37.7755
39.1857
40.5835
41.9517
43.2769
44.5487
45.7585
46.8985
47.9618
48.9407
49.8291
50.6225
51.3182
51.9151
52.4142
52.8188
53.134
53.3698
53.5215
53.6126
53.6445
53.6406
53.5856
53.4833
53.3633
53.2202
53.0483
52.8513
52.6372
52.4114
52.1628
51.8943
51.6199
51.3309
51.0186
50.6966
50.371
50.0325
49.6815
49.3258
48.9662
48.601
48.2295
47.8498
47.4592
47.0562
46.6397
46.2091
45.7639
45.3046
44.8334
44.3525
43.8638
43.3681
42.8658
42.3573
41.8424
41.3212
40.7933
40.258
39.7147
39.1625
38.6007
38.0281
37.4436
36.8457
36.2326
35.6031
34.9543
34.2797
33.5706
32.8223
32.0372
25.7955
26.3175
26.903
27.5565
28.2781
29.0664
29.9223
30.849
31.8527
32.9382
34.1178
35.3942
36.8922
38.7633
41.0537
43.763
46.8645
50.3157
54.0661
58.0638
62.2574
66.5984
71.0393
75.5376
80.055
84.552
88.7894
92.7161
96.3377
99.6772
102.754
105.578
108.161
110.508
112.656
114.652
116.54
118.35
120.099
121.789
123.421
124.98
126.454
127.834
129.109
130.264
131.283
132.156
132.876
133.441
133.85
134.115
134.228
134.239
134.112
133.866
133.564
133.174
132.715
132.206
131.655
131.091
130.486
129.856
129.213
128.549
127.864
127.199
126.523
125.821
125.131
124.443
123.726
123.001
122.283
121.559
120.813
120.044
119.257
118.455
117.64
116.813
115.977
115.134
114.281
113.416
112.536
111.639
110.726
109.793
108.841
107.866
106.868
105.842
104.785
103.694
102.562
101.385
100.159
98.8747
97.515
96.065
94.5224
92.8984
91.2084
33.7231
35.1559
36.7291
38.5695
40.8455
43.6274
46.9368
50.7631
55.0739
59.8237
64.9578
70.4185
76.1526
81.9834
87.7029
93.2259
98.5171
103.563
108.354
112.882
117.133
121.089
124.724
128.015
130.94
133.522
135.827
137.895
139.758
141.425
142.943
144.315
145.537
146.59
147.413
148.027
148.479
148.817
149.08
149.294
149.48
149.654
149.83
150.016
150.218
150.44
150.681
150.932
151.185
151.431
151.656
151.848
151.999
152.1
152.144
152.136
152.067
151.933
151.748
151.524
151.256
150.908
150.495
150.174
149.789
149.201
148.737
148.392
147.867
147.271
146.826
146.354
145.782
145.248
144.788
144.308
143.785
143.248
142.716
142.182
141.628
141.056
140.474
139.888
139.299
138.706
138.108
137.505
136.897
136.284
135.665
135.04
134.411
133.775
133.132
132.481
131.82
131.145
130.456
129.745
129.004
128.24
127.447
126.571
125.581
124.466
62.0979
67.839
73.9982
80.392
86.7853
93.0484
99.0986
104.877
110.339
115.45
120.19
124.545
128.516
132.085
135.223
137.92
140.189
142.097
143.74
145.21
146.572
147.859
149.078
150.185
151.111
151.816
152.339
152.733
153.037
153.273
153.471
153.663
153.892
154.193
154.579
154.986
155.349
155.634
155.832
155.955
156.02
156.046
156.049
156.04
156.032
156.034
156.054
156.094
156.157
156.241
156.339
156.441
156.54
156.622
156.672
156.687
156.652
156.562
156.412
156.209
155.963
155.61
155.173
154.814
154.398
153.734
153.183
152.763
152.155
151.451
150.89
150.315
149.628
148.969
148.388
147.786
147.136
146.473
145.826
145.186
144.543
143.892
143.238
142.582
141.926
141.269
140.61
139.948
139.283
138.616
137.947
137.277
136.605
135.933
135.26
134.587
133.912
133.234
132.551
131.859
131.162
130.463
129.77
129.121
128.501
127.9
110.98
116.573
121.755
126.515
130.83
134.674
138.035
140.916
143.338
145.347
147.026
148.466
149.727
150.849
151.852
152.734
153.456
153.985
154.311
154.484
154.555
154.569
154.579
154.635
154.8
155.108
155.514
155.923
156.258
156.488
156.614
156.655
156.634
156.58
156.535
156.605
156.764
156.956
157.133
157.263
157.327
157.326
157.267
157.166
157.037
156.891
156.74
156.602
156.477
156.365
156.282
156.225
156.177
156.142
156.12
156.084
156.031
155.967
155.867
155.717
155.535
155.33
155.049
154.672
154.317
153.97
153.434
152.926
152.543
151.928
151.307
150.826
150.29
149.549
148.908
148.395
147.838
147.181
146.511
145.894
145.281
144.643
143.989
143.344
142.711
142.082
141.451
140.819
140.187
139.555
138.922
138.289
137.656
137.025
136.393
135.761
135.129
134.494
133.856
133.215
132.57
131.928
131.289
130.657
130.041
129.457
128.891
146.57
148.51
150.13
151.519
152.73
153.787
154.702
155.474
156.06
156.447
156.671
156.764
156.773
156.753
156.726
156.695
156.713
156.805
156.926
157.005
156.998
156.887
156.736
156.557
156.406
156.362
156.453
156.641
156.848
157.016
157.117
157.139
157.092
156.993
156.843
156.673
156.555
156.5
156.5
156.532
156.563
156.566
156.532
156.454
156.344
156.204
156.031
155.851
155.679
155.493
155.314
155.171
155.035
154.897
154.79
154.694
154.573
154.465
154.363
154.21
154.03
153.858
153.644
153.34
153.004
152.689
152.315
151.857
151.397
150.873
150.378
150.053
149.5
148.671
148.02
147.556
147.101
146.415
145.678
145.093
144.51
143.844
143.155
142.515
141.895
141.262
140.624
139.994
139.367
138.738
138.109
137.481
136.855
136.232
135.611
134.99
134.37
133.75
133.131
132.511
131.895
131.285
130.682
130.091
129.511
128.95
128.415
156.097
157.003
157.738
158.256
158.573
158.726
158.796
158.774
158.72
158.666
158.638
158.652
158.717
158.787
158.776
158.679
158.534
158.359
158.137
157.91
157.781
157.725
157.685
157.615
157.495
157.335
157.111
156.876
156.638
156.455
156.38
156.37
156.42
156.486
156.528
156.533
156.497
156.38
156.222
156.066
155.923
155.799
155.714
155.668
155.629
155.587
155.521
155.427
155.316
155.154
154.955
154.77
154.562
154.311
154.092
153.904
153.669
153.455
153.298
153.098
152.891
152.749
152.574
152.343
152.149
151.969
151.699
151.376
151.071
150.799
150.437
149.957
149.472
149.066
148.866
148.304
147.489
146.861
146.437
146.112
145.432
144.642
144.046
143.523
142.844
142.117
141.516
140.911
140.252
139.621
139.012
138.4
137.778
137.152
136.532
135.918
135.308
134.7
134.093
133.488
132.886
132.286
131.689
131.098
130.513
129.939
129.378
128.831
128.302
127.795
160.669
160.611
160.59
160.62
160.672
160.681
160.624
160.494
160.297
160.07
159.84
159.621
159.5
159.423
159.332
159.202
159.035
158.824
158.578
158.307
158.042
157.804
157.623
157.475
157.331
157.186
156.996
156.783
156.552
156.315
156.116
155.967
155.888
155.855
155.844
155.836
155.825
155.764
155.638
155.505
155.388
155.201
155.019
154.891
154.77
154.667
154.567
154.44
154.323
154.197
153.977
153.777
153.618
153.322
153.03
152.842
152.563
152.235
152.023
151.776
151.458
151.238
151.048
150.746
150.472
150.282
150.043
149.691
149.373
149.142
148.863
148.386
147.925
147.569
147.416
146.883
146.151
145.577
145.176
144.934
144.294
143.493
142.899
142.446
141.786
141.031
140.429
139.845
139.158
138.53
137.979
137.397
136.779
136.153
135.541
134.945
134.355
133.762
133.17
132.58
131.995
131.415
130.841
130.274
129.717
129.171
128.641
128.129
127.635
127.161
162.171
161.929
161.681
161.482
161.347
161.236
161.113
160.939
160.717
160.462
160.189
159.908
159.639
159.416
159.23
159.057
158.901
158.724
158.517
158.285
158.032
157.776
157.544
157.336
157.151
156.988
156.815
156.62
156.417
156.193
155.96
155.738
155.553
155.412
155.306
155.219
155.159
155.108
154.983
154.853
154.791
154.606
154.355
154.188
154.023
153.832
153.68
153.497
153.329
153.212
152.973
152.733
152.616
152.331
151.966
151.772
151.533
151.103
150.81
150.585
150.177
149.849
149.653
149.278
148.898
148.698
148.469
148.024
147.667
147.467
147.232
146.724
146.275
145.959
145.824
145.311
144.655
144.147
143.788
143.598
142.949
142.18
141.635
141.267
140.634
139.854
139.245
138.7
138.02
137.384
136.847
136.343
135.747
135.097
134.509
133.951
133.385
132.812
132.237
131.664
131.1
130.544
129.997
129.46
128.935
128.424
127.929
127.454
126.999
126.564
162.489
162.214
161.92
161.62
161.346
161.119
160.928
160.746
160.555
160.346
160.118
159.873
159.616
159.369
159.145
158.945
158.769
158.599
158.419
158.222
158.003
157.767
157.525
157.289
157.066
156.86
156.662
156.458
156.255
156.039
155.804
155.562
155.322
155.102
154.916
154.742
154.594
154.493
154.345
154.186
154.111
153.952
153.679
153.494
153.333
153.059
152.846
152.634
152.383
152.223
151.991
151.695
151.542
151.31
150.911
150.668
150.481
150.021
149.645
149.44
149.013
148.574
148.341
147.96
147.482
147.225
146.988
146.459
146.053
145.882
145.619
145.045
144.603
144.338
144.206
143.642
143.044
142.609
142.329
142.131
141.416
140.723
140.268
139.984
139.344
138.564
137.975
137.48
136.819
136.186
135.659
135.221
134.668
134.012
133.422
132.891
132.386
131.846
131.282
130.726
130.186
129.661
129.15
128.65
128.163
127.691
127.235
126.799
126.384
125.985
162.238
162.011
161.768
161.509
161.247
161.002
160.784
160.589
160.406
160.223
160.031
159.824
159.602
159.371
159.14
158.921
158.717
158.526
158.341
158.151
157.95
157.734
157.503
157.263
157.021
156.785
156.554
156.327
156.103
155.875
155.635
155.383
155.121
154.859
154.616
154.374
154.141
153.97
153.78
153.564
153.43
153.267
152.992
152.79
152.626
152.313
152.044
151.828
151.509
151.266
151.044
150.7
150.464
150.261
149.863
149.557
149.374
148.944
148.516
148.291
147.896
147.385
147.09
146.745
146.205
145.852
145.597
145.047
144.588
144.405
144.056
143.437
143.011
142.813
142.588
141.946
141.413
141.048
140.884
140.513
139.78
139.21
138.847
138.601
137.919
137.183
136.652
136.213
135.562
134.938
134.433
134.045
133.551
132.894
132.304
131.791
131.327
130.863
130.317
129.774
129.263
128.776
128.306
127.847
127.402
126.971
126.558
126.164
125.789
125.433
162.218
162.018
161.821
161.617
161.402
161.176
160.948
160.727
160.52
160.327
160.144
159.962
159.774
159.577
159.368
159.15
158.93
158.714
158.504
158.302
158.102
157.899
157.688
157.465
157.228
156.982
156.73
156.477
156.224
155.973
155.721
155.463
155.198
154.921
154.637
154.354
154.067
153.779
153.536
153.289
153.011
152.81
152.609
152.317
152.088
151.897
151.569
151.266
151.037
150.688
150.366
150.128
149.762
149.435
149.215
148.833
148.46
148.246
147.859
147.395
147.132
146.778
146.239
145.88
145.569
145.014
144.57
144.293
143.77
143.25
142.994
142.603
141.977
141.552
141.386
140.995
140.328
139.856
139.566
139.425
138.836
138.172
137.711
137.443
137.146
136.408
135.763
135.321
134.93
134.27
133.659
133.186
132.851
132.412
131.756
131.172
130.679
130.24
129.822
129.344
128.838
128.359
127.91
127.479
127.062
126.659
126.272
125.902
125.551
125.219
124.907
162.078
161.876
161.685
161.498
161.308
161.111
160.908
160.702
160.498
160.301
160.111
159.927
159.743
159.556
159.36
159.156
158.944
158.727
158.509
158.293
158.078
157.863
157.644
157.418
157.181
156.933
156.674
156.408
156.136
155.861
155.583
155.303
155.016
154.721
154.418
154.109
153.789
153.468
153.166
152.859
152.536
152.27
152.008
151.68
151.415
151.18
150.832
150.508
150.257
149.89
149.513
149.247
148.872
148.468
148.206
147.838
147.399
147.132
146.781
146.289
145.97
145.651
145.113
144.695
144.398
143.87
143.353
143.046
142.575
141.998
141.652
141.278
140.664
140.206
139.992
139.513
138.86
138.426
138.211
137.931
137.228
136.66
136.283
136.101
135.633
134.917
134.375
134.031
133.652
132.97
132.38
131.953
131.683
131.266
130.614
130.052
129.585
129.166
128.77
128.356
127.915
127.484
127.075
126.684
126.306
125.944
125.599
125.271
124.961
124.67
124.399
124.148
123.912
161.99
161.793
161.604
161.421
161.241
161.06
160.875
160.685
160.493
160.3
160.109
159.921
159.734
159.547
159.356
159.158
158.952
158.739
158.519
158.295
158.069
157.841
157.61
157.373
157.129
156.875
156.61
156.334
156.049
155.757
155.458
155.154
154.844
154.528
154.204
153.871
153.528
153.181
152.835
152.481
152.124
151.797
151.468
151.103
150.796
150.502
150.122
149.78
149.496
149.106
148.697
148.402
148.014
147.556
147.248
146.88
146.392
146.062
145.725
145.216
144.829
144.523
144.01
143.529
143.225
142.748
142.178
141.825
141.417
140.813
140.375
140.035
139.459
138.936
138.652
138.178
137.542
137.112
136.915
136.467
135.774
135.279
134.971
134.783
134.17
133.512
133.06
132.802
132.392
131.701
131.146
130.761
130.539
130.114
129.494
128.97
128.537
128.144
127.768
127.392
127.008
126.63
126.267
125.916
125.579
125.256
124.949
124.66
124.389
124.135
123.895
123.676
123.474
162.311
162.12
161.929
161.741
161.557
161.378
161.203
161.029
160.853
160.675
160.492
160.307
160.119
159.93
159.741
159.551
159.359
159.161
158.957
158.745
158.526
158.298
158.065
157.826
157.582
157.333
157.078
156.813
156.539
156.254
155.958
155.652
155.336
155.012
154.681
154.342
153.996
153.641
153.277
152.906
152.528
152.14
151.753
151.375
150.989
150.593
150.235
149.876
149.464
149.098
148.766
148.345
147.919
147.591
147.181
146.689
146.343
145.961
145.441
145.049
144.706
144.194
143.733
143.415
142.938
142.396
142.056
141.636
141.044
140.619
140.263
139.686
139.157
138.822
138.32
137.733
137.362
136.955
136.347
135.877
135.632
135.133
134.475
134.017
133.766
133.492
132.803
132.216
131.831
131.626
131.171
130.5
129.98
129.614
129.395
128.982
128.427
127.95
127.551
127.184
126.83
126.482
126.138
125.804
125.482
125.172
124.873
124.588
124.318
124.061
123.819
123.597
123.391
123.2
123.024
162.237
162.06
161.883
161.707
161.531
161.357
161.186
161.015
160.845
160.672
160.497
160.317
160.134
159.947
159.757
159.564
159.368
159.168
158.962
158.748
158.527
158.296
158.058
157.811
157.557
157.296
157.028
156.752
156.466
156.169
155.862
155.543
155.213
154.873
154.523
154.164
153.796
153.42
153.034
152.64
152.237
151.825
151.409
150.991
150.564
150.137
149.728
149.311
148.87
148.469
148.081
147.626
147.186
146.819
146.378
145.866
145.486
145.082
144.54
144.096
143.735
143.225
142.696
142.347
141.9
141.317
140.912
140.535
139.957
139.447
139.106
138.597
138
137.609
137.205
136.605
136.12
135.773
135.239
134.702
134.376
133.923
133.305
132.845
132.615
132.236
131.556
131.024
130.682
130.499
129.996
129.372
128.891
128.522
128.229
127.881
127.433
127.004
126.627
126.279
125.945
125.622
125.309
125.008
124.72
124.445
124.182
123.928
123.688
123.463
123.252
123.057
122.876
122.709
122.557
122.419
163.431
163.243
163.058
162.876
162.698
162.523
162.353
162.185
162.018
161.851
161.684
161.517
161.349
161.182
161.015
160.847
160.678
160.506
160.33
160.149
159.964
159.774
159.58
159.381
159.176
158.966
158.749
158.523
158.289
158.045
157.792
157.529
157.258
156.978
156.689
156.391
156.082
155.762
155.431
155.087
154.732
154.366
153.99
153.603
153.207
152.801
152.385
151.96
151.526
151.085
150.637
150.18
149.722
149.269
148.807
148.339
147.895
147.451
146.966
146.507
146.092
145.616
145.091
144.679
144.245
143.686
143.202
142.815
142.306
141.725
141.332
140.901
140.305
139.82
139.455
138.921
138.334
137.954
137.522
136.909
136.424
136.077
135.542
134.96
134.576
134.169
133.603
133.148
132.77
132.235
131.74
131.44
131.038
130.436
129.93
129.588
129.37
128.87
128.321
127.876
127.502
127.166
126.831
126.461
126.088
125.738
125.41
125.097
124.797
124.51
124.237
123.976
123.727
123.494
123.271
123.059
122.861
122.676
122.505
122.347
122.203
122.073
121.957
163.324
163.15
162.977
162.807
162.64
162.474
162.311
162.151
161.991
161.832
161.672
161.511
161.349
161.186
161.022
160.856
160.689
160.518
160.344
160.165
159.98
159.79
159.594
159.392
159.184
158.969
158.746
158.516
158.276
158.027
157.767
157.497
157.217
156.926
156.626
156.315
155.993
155.66
155.316
154.96
154.591
154.21
153.818
153.414
153
152.575
152.14
151.695
151.241
150.777
150.305
149.824
149.339
148.852
148.356
147.859
147.373
146.882
146.371
145.884
145.418
144.907
144.373
143.924
143.455
142.882
142.367
141.95
141.433
140.82
140.378
139.949
139.359
138.797
138.414
137.924
137.298
136.839
136.457
135.886
135.308
134.937
134.499
133.89
133.404
133.069
132.574
132.019
131.605
131.191
130.692
130.268
129.876
129.399
128.922
128.529
128.207
127.803
127.343
126.919
126.541
126.191
125.855
125.519
125.187
124.867
124.562
124.272
123.995
123.73
123.477
123.241
123.019
122.81
122.612
122.426
122.252
122.09
121.942
121.806
121.684
121.576
121.482
163.241
163.077
162.915
162.755
162.597
162.439
162.284
162.129
161.975
161.821
161.667
161.512
161.354
161.195
161.034
160.87
160.703
160.533
160.358
160.179
159.994
159.803
159.605
159.401
159.188
158.969
158.741
158.504
158.259
158.003
157.736
157.459
157.17
156.87
156.559
156.237
155.903
155.557
155.2
154.831
154.449
154.055
153.648
153.229
152.798
152.357
151.904
151.44
150.968
150.485
149.992
149.49
148.982
148.467
147.945
147.422
146.9
146.372
145.836
145.316
144.804
144.261
143.714
143.224
142.717
142.132
141.593
141.14
140.611
139.98
139.49
139.051
138.473
137.852
137.425
136.966
136.34
135.795
135.415
134.905
134.277
133.825
133.456
132.894
132.318
131.94
131.561
130.996
130.492
130.108
129.674
129.196
128.77
128.359
127.931
127.518
127.139
126.766
126.371
125.98
125.611
125.264
124.933
124.614
124.306
124.011
123.729
123.461
123.203
122.959
122.73
122.515
122.315
122.128
121.953
121.789
121.637
121.498
121.372
121.259
121.159
121.073
121.002
163.176
163.021
162.868
162.716
162.565
162.415
162.266
162.117
161.968
161.818
161.668
161.516
161.362
161.206
161.046
160.884
160.717
160.547
160.372
160.192
160.005
159.813
159.612
159.405
159.189
158.964
158.731
158.489
158.236
157.974
157.7
157.415
157.118
156.809
156.489
156.156
155.811
155.454
155.084
154.702
154.307
153.9
153.48
153.047
152.602
152.145
151.676
151.197
150.707
150.206
149.695
149.175
148.647
148.111
147.567
147.02
146.469
145.912
145.352
144.8
144.249
143.68
143.115
142.584
142.039
141.443
140.882
140.39
139.841
139.202
138.67
138.21
137.64
136.984
136.503
136.055
135.453
134.835
134.416
133.957
133.33
132.789
132.424
131.937
131.323
130.857
130.53
130.037
129.475
129.036
128.648
128.197
127.747
127.336
126.937
126.538
126.15
125.778
125.411
125.049
124.699
124.365
124.046
123.741
123.45
123.174
122.91
122.659
122.423
122.201
121.993
121.799
121.619
121.451
121.297
121.154
121.024
120.907
120.803
120.712
120.634
120.57
120.522
120.487
120.468
163.126
162.979
162.832
162.687
162.543
162.399
162.255
162.11
161.965
161.819
161.672
161.523
161.371
161.217
161.059
160.897
160.731
160.56
160.384
160.202
160.013
159.818
159.615
159.404
159.184
158.955
158.717
158.468
158.21
157.94
157.659
157.367
157.062
156.745
156.415
156.072
155.717
155.349
154.968
154.574
154.167
153.747
153.315
152.869
152.411
151.94
151.457
150.963
150.457
149.941
149.414
148.878
148.332
147.778
147.216
146.648
146.074
145.495
144.913
144.333
143.75
143.158
142.571
142.003
141.425
140.817
140.235
139.7
139.13
138.488
137.919
137.43
136.86
136.19
135.654
135.201
134.621
133.961
133.483
133.051
132.453
131.843
131.43
131.007
130.405
129.862
129.504
129.103
128.537
128.036
127.634
127.226
126.786
126.365
125.969
125.584
125.206
124.839
124.484
124.14
123.808
123.49
123.186
122.895
122.62
122.357
122.108
121.877
121.661
121.459
121.27
121.094
120.933
120.785
120.65
120.528
120.419
120.323
120.24
120.17
120.114
120.071
120.043
120.028
120.026
163.087
162.946
162.806
162.667
162.527
162.388
162.248
162.108
161.966
161.823
161.678
161.531
161.381
161.227
161.07
160.908
160.742
160.57
160.392
160.208
160.018
159.82
159.613
159.398
159.175
158.941
158.697
158.443
158.178
157.902
157.614
157.314
157.002
156.676
156.338
155.986
155.621
155.243
154.852
154.447
154.029
153.598
153.153
152.696
152.225
151.742
151.246
150.738
150.219
149.689
149.148
148.596
148.036
147.466
146.888
146.302
145.711
145.113
144.511
143.908
143.301
142.688
142.08
141.48
140.873
140.251
139.648
139.075
138.48
137.837
137.238
136.714
136.137
135.465
134.881
134.409
133.843
133.166
132.628
132.196
131.631
130.983
130.507
130.112
129.549
128.955
128.534
128.183
127.655
127.116
126.68
126.284
125.868
125.448
125.049
124.669
124.3
123.942
123.596
123.263
122.945
122.642
122.353
122.077
121.814
121.563
121.331
121.118
120.92
120.735
120.564
120.407
120.263
120.134
120.018
119.915
119.825
119.749
119.686
119.635
119.598
119.575
119.564
119.566
119.579
163.193
163.057
162.921
162.786
162.651
162.516
162.381
162.245
162.107
161.968
161.827
161.684
161.538
161.389
161.236
161.079
160.917
160.75
160.577
160.397
160.211
160.018
159.817
159.607
159.388
159.16
158.922
158.673
158.414
158.143
157.86
157.565
157.258
156.938
156.605
156.259
155.899
155.525
155.138
154.736
154.322
153.893
153.452
152.996
152.527
152.046
151.551
151.044
150.524
149.992
149.449
148.896
148.331
147.757
147.174
146.581
145.982
145.374
144.761
144.142
143.52
142.894
142.264
141.636
141.01
140.38
139.743
139.118
138.512
137.894
137.246
136.625
136.065
135.474
134.802
134.183
133.684
133.12
132.442
131.854
131.405
130.861
130.201
129.668
129.268
128.743
128.127
127.65
127.297
126.814
126.266
125.801
125.396
124.992
124.582
124.183
123.802
123.439
123.088
122.75
122.426
122.119
121.828
121.552
121.289
121.036
120.799
120.583
120.386
120.204
120.035
119.88
119.74
119.613
119.501
119.402
119.317
119.245
119.186
119.14
119.107
119.087
119.079
119.083
119.098
119.124
163.164
163.032
162.902
162.771
162.64
162.508
162.376
162.243
162.108
161.971
161.832
161.69
161.544
161.396
161.243
161.085
160.922
160.754
160.58
160.398
160.21
160.014
159.809
159.596
159.374
159.141
158.899
158.645
158.38
158.103
157.815
157.514
157.2
156.873
156.532
156.178
155.81
155.428
155.033
154.623
154.199
153.76
153.309
152.844
152.366
151.873
151.368
150.85
150.32
149.777
149.223
148.658
148.082
147.496
146.901
146.296
145.684
145.063
144.436
143.804
143.166
142.525
141.88
141.234
140.588
139.939
139.287
138.643
138.009
137.37
136.714
136.075
135.482
134.873
134.201
133.561
133.028
132.457
131.784
131.161
130.686
130.152
129.496
128.918
128.495
127.998
127.38
126.858
126.475
126.02
125.481
124.999
124.577
124.172
123.767
123.371
122.99
122.628
122.282
121.95
121.634
121.336
121.057
120.794
120.539
120.295
120.072
119.871
119.687
119.518
119.363
119.222
119.096
118.984
118.887
118.803
118.734
118.677
118.634
118.603
118.584
118.578
118.583
118.599
118.625
118.66
118.704
118.755
163.14
163.012
162.885
162.758
162.63
162.502
162.372
162.241
162.108
161.972
161.834
161.693
161.549
161.4
161.247
161.088
160.925
160.755
160.579
160.396
160.205
160.006
159.798
159.582
159.355
159.119
158.871
158.613
158.343
158.061
157.766
157.459
157.139
156.805
156.458
156.097
155.722
155.332
154.929
154.511
154.079
153.632
153.172
152.698
152.21
151.709
151.194
150.667
150.127
149.574
149.01
148.435
147.849
147.252
146.646
146.031
145.407
144.776
144.137
143.493
142.843
142.188
141.53
140.87
140.208
139.544
138.879
138.217
137.561
136.904
136.239
135.586
134.966
134.336
133.664
133.016
132.449
131.859
131.191
130.547
130.039
129.498
128.85
128.239
127.787
127.297
126.688
126.134
125.718
125.269
124.745
124.257
123.821
123.407
123.002
122.607
122.227
121.864
121.52
121.193
120.882
120.59
120.321
120.067
119.821
119.587
119.375
119.185
119.013
118.856
118.714
118.586
118.473
118.375
118.291
118.221
118.164
118.12
118.09
118.071
118.065
118.07
118.085
118.111
118.146
118.19
118.241
118.299
163.119
162.995
162.872
162.747
162.622
162.496
162.368
162.239
162.107
161.973
161.836
161.695
161.55
161.401
161.248
161.088
160.924
160.752
160.574
160.389
160.196
159.994
159.783
159.563
159.333
159.093
158.841
158.578
158.303
158.016
157.716
157.403
157.077
156.738
156.384
156.016
155.635
155.238
154.827
154.402
153.963
153.509
153.04
152.558
152.062
151.552
151.029
150.493
149.945
149.384
148.811
148.226
147.631
147.025
146.41
145.785
145.152
144.511
143.862
143.207
142.547
141.882
141.213
140.542
139.868
139.193
138.516
137.842
137.172
136.5
135.823
135.155
134.509
133.856
133.18
132.526
131.926
131.313
130.646
129.997
129.455
128.897
128.253
127.626
127.145
126.643
126.044
125.477
125.032
124.575
124.064
123.576
123.13
122.706
122.297
121.9
121.519
121.156
120.812
120.486
120.177
119.889
119.624
119.377
119.139
118.912
118.709
118.528
118.366
118.219
118.087
117.97
117.868
117.781
117.709
117.651
117.605
117.573
117.553
117.545
117.549
117.563
117.589
117.623
117.667
117.719
117.778
117.844
163.101
162.98
162.859
162.737
162.614
162.49
162.364
162.236
162.105
161.971
161.834
161.694
161.549
161.4
161.245
161.085
160.919
160.746
160.567
160.379
160.183
159.979
159.765
159.542
159.308
159.064
158.808
158.541
158.262
157.97
157.665
157.347
157.016
156.67
156.311
155.937
155.549
155.146
154.729
154.297
153.851
153.39
152.915
152.425
151.922
151.405
150.874
150.33
149.774
149.205
148.625
148.032
147.429
146.815
146.191
145.559
144.919
144.27
143.613
142.949
142.28
141.608
140.933
140.254
139.57
138.883
138.194
137.507
136.821
136.135
135.447
134.768
134.1
133.428
132.747
132.085
131.457
130.823
130.156
129.51
128.936
128.354
127.713
127.088
126.577
126.055
125.464
124.898
124.425
123.95
123.446
122.96
122.505
122.072
121.656
121.256
120.872
120.507
120.161
119.835
119.528
119.241
118.977
118.736
118.506
118.285
118.086
117.912
117.756
117.617
117.493
117.384
117.29
117.211
117.147
117.097
117.061
117.038
117.028
117.029
117.043
117.067
117.101
117.144
117.197
117.258
117.326
117.402
117.484
162.966
162.847
162.727
162.606
162.483
162.358
162.231
162.101
161.968
161.831
161.69
161.545
161.396
161.24
161.079
160.912
160.737
160.556
160.366
160.168
159.961
159.744
159.518
159.281
159.033
158.774
158.502
158.219
157.923
157.613
157.291
156.955
156.603
156.239
155.86
155.466
155.058
154.635
154.197
153.745
153.278
152.796
152.3
151.79
151.267
150.729
150.179
149.615
149.04
148.453
147.855
147.244
146.622
145.992
145.355
144.71
144.057
143.395
142.724
142.045
141.362
140.677
139.989
139.297
138.601
137.904
137.206
136.508
135.811
135.116
134.427
133.745
133.062
132.377
131.707
131.056
130.402
129.733
129.085
128.481
127.874
127.234
126.617
126.074
125.525
124.941
124.382
123.883
123.389
122.888
122.401
121.939
121.497
121.075
120.67
120.282
119.913
119.565
119.237
118.929
118.642
118.378
118.138
117.915
117.702
117.506
117.334
117.184
117.05
116.932
116.828
116.74
116.668
116.611
116.568
116.54
116.526
116.524
116.534
116.556
116.589
116.632
116.684
116.745
116.815
116.893
116.979
117.072
162.952
162.835
162.716
162.596
162.475
162.351
162.224
162.095
161.962
161.825
161.684
161.539
161.388
161.232
161.07
160.901
160.725
160.542
160.35
160.15
159.94
159.721
159.492
159.252
159.001
158.738
158.463
158.176
157.876
157.563
157.234
156.894
156.539
156.17
155.786
155.387
154.974
154.545
154.102
153.644
153.172
152.685
152.182
151.667
151.138
150.596
150.04
149.469
148.888
148.297
147.696
147.083
146.458
145.82
145.175
144.523
143.863
143.195
142.519
141.835
141.141
140.442
139.743
139.042
138.341
137.637
136.934
136.23
135.525
134.822
134.123
133.43
132.736
132.045
131.367
130.7
130.032
129.362
128.711
128.086
127.46
126.822
126.21
125.634
125.058
124.476
123.919
123.399
122.89
122.386
121.897
121.429
120.979
120.55
120.139
119.747
119.374
119.022
118.691
118.38
118.092
117.827
117.585
117.366
117.161
116.968
116.796
116.647
116.516
116.402
116.305
116.223
116.156
116.106
116.071
116.05
116.042
116.047
116.065
116.094
116.135
116.186
116.246
116.317
116.396
116.483
116.579
116.683
162.821
162.705
162.586
162.465
162.342
162.216
162.087
161.954
161.817
161.676
161.53
161.379
161.222
161.058
160.888
160.711
160.526
160.332
160.13
159.918
159.697
159.465
159.222
158.968
158.702
158.424
158.133
157.829
157.512
157.181
156.837
156.477
156.103
155.715
155.312
154.894
154.461
154.013
153.55
153.074
152.582
152.075
151.554
151.022
150.477
149.918
149.346
148.759
148.164
147.557
146.939
146.309
145.667
145.01
144.344
143.673
142.997
142.316
141.629
140.933
140.23
139.524
138.817
138.107
137.397
136.685
135.974
135.262
134.552
133.846
133.143
132.441
131.745
131.058
130.38
129.702
129.029
128.374
127.735
127.097
126.458
125.844
125.25
124.659
124.07
123.507
122.97
122.448
121.939
121.445
120.97
120.514
120.078
119.662
119.264
118.887
118.531
118.196
117.882
117.59
117.323
117.079
116.859
116.658
116.47
116.297
116.149
116.022
115.912
115.819
115.742
115.681
115.635
115.605
115.589
115.588
115.599
115.623
115.659
115.707
115.765
115.834
115.913
116.001
116.098
116.204
116.318
162.692
162.574
162.454
162.331
162.205
162.076
161.944
161.807
161.665
161.519
161.367
161.209
161.045
160.873
160.695
160.508
160.313
160.108
159.895
159.671
159.437
159.192
158.935
158.666
158.385
158.092
157.785
157.464
157.13
156.782
156.419
156.041
155.649
155.242
154.821
154.384
153.931
153.465
152.986
152.493
151.984
151.46
150.925
150.377
149.815
149.239
148.646
148.037
147.418
146.789
146.153
145.507
144.847
144.178
143.502
142.82
142.132
141.439
140.74
140.037
139.329
138.617
137.903
137.187
136.47
135.753
135.036
134.32
133.607
132.896
132.188
131.485
130.79
130.1
129.415
128.737
128.073
127.421
126.771
126.131
125.509
124.905
124.307
123.715
123.142
122.592
122.059
121.542
121.042
120.56
120.098
119.656
119.233
118.831
118.449
118.088
117.75
117.432
117.135
116.863
116.617
116.394
116.195
116.014
115.845
115.696
115.57
115.462
115.372
115.297
115.24
115.198
115.172
115.161
115.164
115.181
115.211
115.254
115.308
115.373
115.45
115.536
115.632
115.738
115.852
115.975
116.105
116.244
162.677
162.56
162.441
162.318
162.193
162.064
161.931
161.794
161.652
161.506
161.353
161.194
161.029
160.857
160.677
160.489
160.292
160.086
159.871
159.645
159.409
159.161
158.903
158.632
158.348
158.052
157.742
157.419
157.081
156.73
156.365
155.984
155.588
155.179
154.756
154.318
153.863
153.396
152.916
152.421
151.91
151.381
150.833
150.274
149.702
149.118
148.521
147.908