/*--------------------------------*- C++ -*----------------------------------*\
| =========                 |                                                 |
| \\      /  F ield         | OpenFOAM: The Open Source CFD Toolbox           |
|  \\    /   O peration     | Version:  v1706                                 |
|   \\  /    A nd           | Web:      www.OpenFOAM.com                      |
|    \\/     M anipulation  |                                                 |
\*---------------------------------------------------------------------------*/
FoamFile
{
    version     2.0;
    format      ascii;
    class       volScalarField;
    location    "3.5e-05";
    object      rho;
}
// * * * * * * * * * * * * * * * * * * * * * * * * * * * * * * * * * * * * * //

dimensions      [1 -3 0 0 0 0 0];


internalField   nonuniform List<scalar> 
29871
(
0.000516384
0.000516936
0.000517524
0.000518192
0.000519002
0.000520011
0.000521261
0.000522774
0.000524548
0.000526568
0.000528785
0.000531222
0.00053385
0.000536564
0.000539233
0.000541766
0.000544144
0.000546434
0.000548771
0.00055129
0.000554077
0.000557161
0.000560528
0.000564149
0.000567965
0.000572012
0.000578193
0.000586857
0.000597776
0.00061052
0.000624636
0.000639703
0.000655356
0.000671282
0.000687212
0.000702918
0.00071821
0.000732939
0.000746981
0.000760233
0.000772609
0.000784029
0.000794429
0.000803761
0.000812
0.000819137
0.000825192
0.000830204
0.000834232
0.000837361
0.000839665
0.000841297
0.000842209
0.000842721
0.000842654
0.000842086
0.000841325
0.000840325
0.000839011
0.000837415
0.000835623
0.000833701
0.000831519
0.000829103
0.00082662
0.000823969
0.000821032
0.000817964
0.000814842
0.000811562
0.000808119
0.000804605
0.000801035
0.000797391
0.000793661
0.000789826
0.000785864
0.000781757
0.000777489
0.000773047
0.000768418
0.000763603
0.000758624
0.000753508
0.000748274
0.000742935
0.000737497
0.000731962
0.00072633
0.0007206
0.000714767
0.000708823
0.00070276
0.000696568
0.000690234
0.000683746
0.00067709
0.000670246
0.000663192
0.000655913
0.000648376
0.000640493
0.000632142
0.000623235
0.000613783
0.000538959
0.00054302
0.000547551
0.000552489
0.000557764
0.00056335
0.000569305
0.000575754
0.000582872
0.000590806
0.000599768
0.000609646
0.000621756
0.000637827
0.000658431
0.000683539
0.000712786
0.000745648
0.00078156
0.000819989
0.000860454
0.000902529
0.000945806
0.000989922
0.00103455
0.00107937
0.00112181
0.00116143
0.00119843
0.0012331
0.00126568
0.00129627
0.00132493
0.00135163
0.0013766
0.0014002
0.00142275
0.00144449
0.00146555
0.00148594
0.00150563
0.00152455
0.00154259
0.00155962
0.00157552
0.00159014
0.00160336
0.00161509
0.00162526
0.00163385
0.00164085
0.00164638
0.0016503
0.00165315
0.00165455
0.00165449
0.0016538
0.00165225
0.00164991
0.00164694
0.00164346
0.00163975
0.00163553
0.00163098
0.00162624
0.00162118
0.00161582
0.0016106
0.00160519
0.00159943
0.00159372
0.00158796
0.00158185
0.0015756
0.00156935
0.001563
0.00155638
0.00154947
0.00154232
0.00153495
0.00152737
0.00151959
0.00151165
0.00150355
0.00149529
0.00148682
0.00147812
0.00146918
0.00145998
0.00145051
0.00144075
0.00143068
0.00142027
0.00140948
0.00139826
0.00138658
0.00137436
0.00136155
0.0013481
0.00133389
0.00131872
0.00130237
0.00128469
0.00126572
0.00124561
0.000592977
0.000603188
0.000614568
0.000628454
0.000646725
0.000670181
0.000699009
0.000733017
0.000771818
0.000814933
0.000861842
0.000912024
0.000965093
0.0010193
0.00107254
0.00112406
0.0011736
0.00122109
0.00126645
0.00130957
0.00135032
0.00138856
0.0014241
0.00145678
0.00148642
0.00151315
0.00153751
0.00155981
0.00158025
0.00159911
0.00161658
0.00163281
0.00164787
0.00166162
0.00167342
0.00168337
0.00169185
0.00169929
0.001706
0.00171218
0.00171802
0.00172365
0.00172918
0.00173469
0.00174026
0.00174592
0.00175166
0.00175743
0.00176319
0.00176884
0.00177429
0.00177943
0.0017842
0.00178851
0.00179229
0.00179559
0.0017983
0.00180035
0.0018019
0.00180307
0.00180381
0.00180366
0.00180287
0.00180287
0.00180225
0.00179958
0.00179797
0.00179746
0.00179524
0.0017921
0.00179033
0.00178825
0.00178507
0.00178214
0.00177988
0.00177737
0.00177434
0.00177106
0.00176775
0.00176433
0.00176064
0.00175665
0.00175248
0.00174818
0.00174376
0.00173921
0.00173451
0.00172967
0.00172467
0.00171951
0.00171419
0.0017087
0.00170302
0.00169716
0.00169109
0.00168478
0.00167822
0.00167135
0.00166415
0.00165654
0.0016484
0.00163976
0.00163051
0.00161995
0.00160755
0.00159323
0.000825501
0.000876739
0.000932074
0.00098971
0.00104733
0.00110377
0.00115839
0.00121074
0.00126045
0.00130725
0.00135093
0.00139139
0.00142868
0.00146264
0.00149297
0.00151951
0.00154229
0.00156178
0.00157879
0.00159408
0.00160826
0.00162169
0.00163445
0.00164638
0.00165678
0.00166517
0.00167196
0.00167764
0.00168255
0.00168691
0.00169095
0.00169496
0.00169931
0.00170438
0.00171038
0.00171681
0.00172313
0.00172898
0.00173425
0.00173898
0.00174327
0.00174725
0.00175101
0.00175466
0.00175825
0.00176188
0.00176561
0.00176945
0.00177344
0.00177758
0.00178181
0.00178607
0.00179031
0.00179442
0.00179827
0.00180183
0.00180497
0.00180763
0.00180975
0.00181137
0.00181268
0.00181284
0.00181222
0.00181227
0.00181178
0.00180888
0.00180689
0.00180612
0.00180357
0.00179987
0.00179741
0.00179479
0.00179098
0.00178727
0.0017842
0.00178087
0.00177698
0.00177284
0.00176873
0.00176461
0.00176041
0.00175608
0.00175163
0.00174707
0.0017424
0.0017376
0.00173268
0.00172761
0.0017224
0.00171705
0.00171155
0.0017059
0.00170009
0.00169413
0.001688
0.00168168
0.00167517
0.00166843
0.00166143
0.00165411
0.00164646
0.00163851
0.0016302
0.00162204
0.0016141
0.00160624
0.00125349
0.0013038
0.00135067
0.001394
0.0014336
0.00146916
0.0015005
0.00152765
0.00155077
0.00157018
0.00158655
0.00160066
0.00161307
0.00162417
0.00163422
0.00164325
0.00165109
0.00165723
0.00166159
0.00166458
0.00166662
0.00166807
0.00166937
0.00167094
0.00167335
0.00167702
0.00168171
0.00168663
0.00169113
0.00169488
0.00169784
0.00170011
0.00170187
0.00170329
0.00170472
0.0017072
0.00171063
0.00171453
0.0017185
0.00172225
0.0017256
0.00172852
0.00173105
0.00173328
0.00173535
0.00173729
0.00173922
0.00174126
0.00174342
0.00174569
0.00174818
0.00175091
0.00175371
0.00175662
0.00175965
0.00176258
0.00176536
0.00176809
0.00177051
0.00177249
0.0017742
0.00177574
0.00177659
0.00177649
0.00177662
0.00177677
0.00177518
0.00177376
0.00177349
0.00177108
0.00176834
0.00176693
0.00176501
0.00176105
0.0017578
0.0017557
0.00175319
0.00174964
0.00174583
0.00174239
0.00173891
0.00173511
0.00173106
0.00172698
0.00172291
0.00171877
0.00171451
0.00171011
0.0017056
0.00170096
0.00169619
0.0016913
0.00168628
0.00168112
0.00167581
0.00167033
0.00166468
0.00165882
0.00165275
0.00164642
0.00163984
0.00163306
0.00162603
0.0016188
0.00161143
0.00160418
0.00159706
0.0015671
0.00158545
0.00160083
0.00161403
0.00162555
0.00163566
0.00164452
0.00165211
0.00165827
0.0016626
0.00166544
0.00166708
0.0016679
0.00166842
0.0016688
0.0016691
0.0016698
0.0016712
0.00167303
0.00167469
0.00167576
0.00167594
0.00167577
0.0016753
0.00167493
0.00167539
0.00167698
0.00167954
0.00168242
0.00168512
0.00168736
0.00168903
0.00169019
0.00169096
0.00169128
0.00169133
0.00169175
0.00169274
0.0016943
0.00169627
0.00169837
0.00170038
0.00170219
0.00170375
0.00170513
0.00170634
0.00170733
0.00170833
0.00170943
0.00171046
0.00171157
0.00171302
0.00171456
0.0017161
0.00171795
0.00171993
0.00172171
0.00172365
0.00172569
0.00172731
0.00172871
0.00173025
0.00173146
0.00173185
0.00173198
0.00173231
0.00173209
0.00173114
0.00173013
0.00172844
0.00172696
0.00172712
0.00172532
0.00172068
0.00171742
0.00171602
0.00171474
0.00171128
0.00170709
0.00170422
0.00170133
0.0016976
0.00169351
0.00168978
0.00168614
0.00168227
0.00167823
0.00167414
0.00166996
0.00166566
0.00166124
0.00165671
0.00165207
0.00164731
0.00164242
0.00163739
0.00163221
0.00162686
0.00162133
0.00161561
0.00160973
0.00160371
0.00159755
0.00159131
0.00158499
0.00157871
0.00157262
0.00164393
0.00165254
0.00165967
0.00166502
0.00166851
0.00167049
0.00167168
0.00167196
0.00167189
0.00167177
0.00167183
0.00167225
0.00167319
0.00167433
0.00167488
0.00167473
0.00167422
0.00167343
0.00167218
0.00167071
0.00167007
0.00167015
0.00167046
0.00167062
0.00167044
0.00166997
0.001669
0.00166791
0.00166668
0.00166574
0.00166576
0.00166628
0.00166739
0.00166877
0.00167005
0.00167113
0.00167197
0.00167213
0.00167195
0.00167176
0.00167164
0.00167169
0.00167208
0.00167287
0.00167381
0.00167484
0.00167576
0.00167655
0.00167731
0.00167768
0.00167782
0.00167818
0.00167837
0.00167825
0.00167844
0.00167896
0.00167911
0.00167946
0.00168038
0.00168096
0.00168151
0.00168268
0.00168364
0.00168412
0.001685
0.0016861
0.00168641
0.00168628
0.00168637
0.00168678
0.00168646
0.00168508
0.00168352
0.00168279
0.00168393
0.00168195
0.00167743
0.00167435
0.00167339
0.00167337
0.00167021
0.00166562
0.00166274
0.00166057
0.00165693
0.00165272
0.00164957
0.0016463
0.0016424
0.00163864
0.00163499
0.00163122
0.00162726
0.00162315
0.00161898
0.00161474
0.00161042
0.00160599
0.00160143
0.00159676
0.00159197
0.00158705
0.00158201
0.00157686
0.00157161
0.0015663
0.00156099
0.00155572
0.00155054
0.00154551
0.00167663
0.00167638
0.00167641
0.00167689
0.00167768
0.00167824
0.00167827
0.00167775
0.00167663
0.0016752
0.00167366
0.00167208
0.00167134
0.00167106
0.00167074
0.00167016
0.00166932
0.00166815
0.00166668
0.00166494
0.00166316
0.00166155
0.0016604
0.00165958
0.00165885
0.00165818
0.00165719
0.00165604
0.00165473
0.00165329
0.0016521
0.00165126
0.00165101
0.00165117
0.00165157
0.00165207
0.00165267
0.00165288
0.0016526
0.00165229
0.00165215
0.0016514
0.00165065
0.00165037
0.00165016
0.00165017
0.00165027
0.0016502
0.00165031
0.00165042
0.00164979
0.00164943
0.00164949
0.00164846
0.00164744
0.00164744
0.00164673
0.00164554
0.00164549
0.00164517
0.00164422
0.00164425
0.00164455
0.00164394
0.00164362
0.00164413
0.00164425
0.00164345
0.00164298
0.00164337
0.00164338
0.00164173
0.00164007
0.00163953
0.00164079
0.00163886
0.00163493
0.00163222
0.00163135
0.00163196
0.00162913
0.0016244
0.00162152
0.00162006
0.00161677
0.00161245
0.0016094
0.00160643
0.0016024
0.0015988
0.00159587
0.0015926
0.00158891
0.00158504
0.00158119
0.00157738
0.00157352
0.00156956
0.00156548
0.00156132
0.00155708
0.00155278
0.00154841
0.00154399
0.00153954
0.0015351
0.00153073
0.00152645
0.00152232
0.00151835
0.00168073
0.00167911
0.00167732
0.00167586
0.00167498
0.00167438
0.00167373
0.00167273
0.00167133
0.00166966
0.00166783
0.00166585
0.00166387
0.00166223
0.0016609
0.00165972
0.00165875
0.00165765
0.00165634
0.00165483
0.00165312
0.00165133
0.00164968
0.00164822
0.00164695
0.00164591
0.00164482
0.00164358
0.00164231
0.00164087
0.00163931
0.00163778
0.00163651
0.00163557
0.00163493
0.00163445
0.00163426
0.0016342
0.00163356
0.00163291
0.00163294
0.00163198
0.00163037
0.0016295
0.00162866
0.0016276
0.0016269
0.00162594
0.00162517
0.00162493
0.00162369
0.00162246
0.00162245
0.00162111
0.00161896
0.00161849
0.0016177
0.00161523
0.00161404
0.00161348
0.00161137
0.00161
0.00160987
0.00160823
0.00160647
0.00160652
0.00160635
0.00160432
0.00160302
0.00160332
0.00160335
0.00160107
0.00159912
0.00159863
0.00159974
0.0015977
0.00159417
0.00159185
0.00159119
0.00159204
0.00158896
0.00158433
0.00158181
0.00158112
0.0015782
0.00157368
0.00157058
0.00156799
0.0015641
0.00156049
0.00155779
0.0015554
0.00155211
0.0015482
0.00154475
0.00154151
0.00153814
0.00153463
0.00153102
0.00152736
0.00152368
0.00151998
0.00151628
0.00151259
0.00150893
0.00150534
0.00150185
0.0014985
0.00149533
0.00149232
0.00167452
0.00167265
0.00167058
0.00166835
0.00166626
0.00166453
0.00166313
0.00166184
0.00166052
0.00165909
0.00165753
0.00165582
0.00165396
0.00165212
0.00165044
0.00164894
0.00164765
0.00164646
0.00164521
0.00164385
0.00164232
0.00164064
0.00163888
0.00163713
0.00163547
0.00163393
0.00163246
0.00163097
0.0016295
0.00162794
0.00162624
0.00162444
0.00162261
0.00162091
0.00161946
0.00161807
0.00161691
0.00161617
0.00161505
0.00161384
0.00161346
0.00161241
0.00161035
0.0016091
0.00160809
0.0016061
0.00160462
0.00160316
0.00160138
0.00160046
0.00159895
0.00159689
0.00159622
0.00159494
0.00159219
0.00159092
0.00159022
0.00158722
0.00158494
0.00158425
0.00158173
0.00157903
0.00157828
0.0015763
0.00157336
0.0015726
0.00157205
0.00156896
0.00156687
0.00156714
0.00156666
0.00156341
0.0015612
0.0015609
0.00156175
0.00155898
0.00155563
0.00155375
0.00155364
0.00155418
0.00155025
0.00154607
0.00154427
0.00154429
0.00154133
0.00153673
0.00153376
0.00153162
0.00152797
0.00152441
0.00152184
0.00152013
0.00151737
0.00151355
0.00151022
0.00150738
0.00150478
0.00150183
0.00149859
0.00149534
0.00149217
0.00148908
0.00148605
0.00148307
0.00148017
0.00147735
0.00147465
0.00147211
0.00146975
0.00146753
0.00166282
0.00166121
0.00165949
0.0016576
0.00165564
0.00165377
0.00165209
0.0016506
0.00164923
0.00164789
0.0016465
0.00164501
0.0016434
0.00164168
0.00163994
0.00163826
0.00163668
0.0016352
0.00163378
0.00163235
0.00163083
0.0016292
0.00162744
0.00162559
0.0016237
0.00162182
0.00161997
0.00161814
0.00161634
0.0016145
0.00161258
0.00161056
0.00160844
0.00160629
0.00160425
0.00160219
0.00160016
0.00159865
0.00159698
0.00159507
0.00159393
0.00159256
0.00159026
0.00158863
0.00158738
0.00158486
0.00158271
0.00158103
0.00157849
0.00157663
0.00157498
0.0015723
0.00157064
0.00156932
0.00156635
0.00156426
0.00156332
0.00156034
0.00155735
0.00155627
0.0015538
0.00155028
0.00154876
0.00154688
0.00154328
0.00154143
0.00154048
0.00153702
0.00153424
0.00153417
0.00153277
0.00152884
0.00152656
0.00152665
0.0015265
0.00152275
0.0015197
0.00151835
0.00151904
0.00151794
0.0015135
0.00151026
0.00150927
0.0015095
0.00150604
0.00150169
0.0014992
0.00149757
0.00149405
0.00149058
0.00148819
0.00148698
0.00148486
0.00148116
0.00147789
0.00147532
0.00147326
0.0014712
0.00146835
0.00146541
0.0014627
0.00146018
0.00145778
0.00145545
0.00145322
0.00145109
0.0014491
0.00144727
0.0014456
0.00144409
0.00165235
0.00165083
0.00164935
0.00164784
0.00164625
0.00164457
0.00164284
0.00164113
0.00163951
0.001638
0.00163656
0.00163515
0.00163372
0.00163221
0.0016306
0.00162892
0.00162719
0.00162546
0.00162376
0.0016221
0.00162046
0.00161881
0.00161708
0.00161526
0.00161332
0.00161129
0.00160919
0.00160705
0.00160489
0.00160272
0.00160054
0.00159831
0.00159602
0.00159362
0.00159115
0.00158867
0.00158612
0.00158353
0.0015813
0.00157901
0.00157643
0.00157453
0.00157265
0.00157
0.00156793
0.00156625
0.00156341
0.0015608
0.00155887
0.00155593
0.00155324
0.00155132
0.00154831
0.00154568
0.00154405
0.00154106
0.00153818
0.00153679
0.001534
0.00153054
0.00152895
0.00152666
0.00152277
0.00152055
0.00151882
0.00151501
0.00151221
0.00151094
0.00150762
0.00150424
0.00150336
0.00150141
0.00149729
0.00149494
0.00149513
0.00149347
0.00148923
0.00148657
0.00148589
0.00148657
0.00148346
0.00147933
0.00147702
0.00147686
0.00147654
0.00147236
0.00146866
0.00146696
0.00146577
0.0014622
0.00145881
0.00145669
0.00145599
0.00145444
0.00145084
0.00144767
0.00144533
0.0014436
0.00144211
0.00144002
0.00143756
0.00143528
0.00143324
0.00143136
0.00142961
0.00142796
0.00142645
0.00142507
0.00142386
0.0014228
0.00142193
0.00164063
0.00163904
0.00163753
0.00163606
0.00163459
0.00163307
0.00163149
0.00162987
0.00162825
0.00162665
0.00162511
0.00162359
0.00162209
0.00162055
0.00161895
0.00161728
0.00161553
0.00161371
0.00161187
0.00161001
0.00160814
0.00160626
0.00160434
0.00160236
0.00160028
0.0015981
0.00159581
0.00159344
0.00159101
0.00158852
0.00158599
0.00158342
0.0015808
0.0015781
0.00157533
0.00157249
0.00156955
0.00156658
0.00156375
0.00156086
0.00155779
0.00155523
0.00155269
0.00154959
0.00154707
0.00154485
0.00154168
0.00153875
0.00153651
0.00153331
0.00153004
0.00152777
0.00152461
0.00152121
0.00151911
0.00151615
0.00151261
0.00151065
0.00150803
0.00150424
0.00150205
0.00149993
0.00149599
0.00149315
0.00149145
0.00148783
0.00148431
0.00148273
0.0014798
0.00147592
0.00147419
0.00147227
0.00146825
0.00146561
0.00146525
0.00146273
0.00145849
0.00145616
0.00145611
0.00145551
0.00145122
0.0014478
0.00144632
0.00144682
0.00144497
0.00144071
0.00143784
0.00143701
0.00143596
0.00143219
0.00142894
0.00142721
0.00142712
0.00142586
0.00142234
0.0014194
0.00141733
0.00141581
0.00141459
0.00141318
0.00141142
0.00140967
0.00140809
0.00140667
0.00140539
0.00140425
0.00140325
0.0014024
0.00140171
0.00140119
0.00140084
0.00140068
0.00140064
0.00162889
0.00162729
0.00162575
0.00162425
0.00162277
0.00162129
0.00161977
0.00161821
0.00161661
0.00161499
0.00161336
0.00161174
0.00161011
0.00160847
0.00160679
0.00160505
0.00160324
0.00160134
0.00159938
0.00159735
0.00159528
0.00159317
0.00159102
0.00158881
0.00158653
0.00158415
0.00158167
0.00157909
0.00157641
0.00157364
0.00157081
0.00156791
0.00156496
0.00156194
0.00155885
0.00155568
0.00155243
0.00154913
0.00154583
0.00154244
0.00153903
0.00153586
0.00153268
0.00152918
0.0015262
0.00152337
0.00151982
0.00151664
0.00151403
0.00151054
0.00150693
0.00150434
0.00150102
0.00149712
0.00149458
0.00149158
0.00148758
0.00148502
0.00148247
0.0014785
0.00147566
0.0014736
0.00146984
0.0014664
0.00146459
0.00146139
0.00145739
0.00145538
0.00145297
0.00144889
0.00144632
0.00144466
0.00144103
0.00143783
0.00143682
0.00143428
0.0014302
0.00142796
0.00142798
0.00142595
0.00142159
0.00141881
0.00141804
0.00141841
0.00141526
0.00141131
0.00140921
0.00140914
0.00140788
0.00140399
0.00140102
0.00139972
0.00140006
0.00139873
0.0013955
0.00139293
0.00139121
0.00138993
0.00138889
0.00138786
0.00138671
0.00138553
0.00138443
0.00138346
0.00138261
0.0013819
0.00138134
0.00138094
0.0013807
0.00138062
0.00138066
0.00138088
0.00138126
0.00162013
0.00161856
0.00161698
0.00161541
0.00161385
0.00161231
0.00161079
0.00160928
0.00160774
0.00160617
0.00160456
0.00160291
0.00160121
0.00159949
0.00159775
0.00159597
0.00159416
0.0015923
0.00159037
0.00158836
0.00158626
0.00158408
0.00158183
0.0015795
0.00157712
0.00157467
0.00157214
0.00156953
0.00156683
0.00156402
0.00156111
0.00155809
0.00155499
0.0015518
0.00154854
0.00154521
0.00154181
0.00153834
0.00153479
0.00153119
0.00152753
0.00152379
0.00152005
0.0015164
0.00151269
0.00150889
0.00150543
0.001502
0.00149813
0.0014947
0.00149163
0.00148782
0.00148402
0.00148114
0.0014776
0.00147342
0.00147053
0.00146743
0.00146317
0.00146008
0.00145749
0.00145351
0.00145002
0.00144785
0.00144441
0.00144045
0.00143833
0.00143561
0.00143145
0.00142881
0.00142685
0.00142306
0.00141969
0.00141809
0.00141515
0.00141144
0.00140969
0.0014077
0.00140396
0.00140144
0.001401
0.00139849
0.00139441
0.00139204
0.00139183
0.00139146
0.00138751
0.00138413
0.0013827
0.00138307
0.00138144
0.00137768
0.00137504
0.00137396
0.0013743
0.00137305
0.00137039
0.00136829
0.0013669
0.00136588
0.00136502
0.00136424
0.00136348
0.00136276
0.00136211
0.00136156
0.00136112
0.0013608
0.00136063
0.00136059
0.00136068
0.00136096
0.00136138
0.00136194
0.00136265
0.00160796
0.00160643
0.00160488
0.00160332
0.00160175
0.00160018
0.0015986
0.00159702
0.00159542
0.0015938
0.00159213
0.00159041
0.00158865
0.00158683
0.00158496
0.00158304
0.00158108
0.00157906
0.00157698
0.00157481
0.00157256
0.00157022
0.00156778
0.00156526
0.00156265
0.00155996
0.00155719
0.00155434
0.0015514
0.00154835
0.00154521
0.00154196
0.00153861
0.00153517
0.00153164
0.00152803
0.00152435
0.0015206
0.00151679
0.00151291
0.00150897
0.00150497
0.00150095
0.00149693
0.00149285
0.00148878
0.00148489
0.00148096
0.00147686
0.00147314
0.00146958
0.00146549
0.00146159
0.00145838
0.0014546
0.00145028
0.00144714
0.00144389
0.0014395
0.00143601
0.00143331
0.00142942
0.0014254
0.001423
0.00141987
0.00141562
0.00141297
0.00141064
0.00140667
0.00140332
0.00140151
0.00139837
0.00139445
0.00139243
0.00139035
0.00138661
0.0013839
0.00138245
0.00137945
0.00137641
0.00137529
0.00137314
0.00136949
0.00136719
0.00136716
0.00136592
0.00136197
0.00135909
0.00135813
0.00135867
0.00135662
0.00135326
0.00135102
0.0013499
0.00134958
0.00134883
0.00134714
0.00134554
0.00134438
0.00134353
0.00134286
0.00134229
0.00134181
0.00134143
0.00134114
0.00134095
0.00134088
0.00134089
0.00134103
0.00134132
0.00134174
0.00134232
0.00134304
0.0013439
0.00134489
0.00134604
0.0016067
0.0016051
0.0016035
0.00160191
0.00160034
0.00159878
0.00159723
0.00159569
0.00159415
0.0015926
0.00159102
0.00158943
0.00158781
0.00158617
0.00158451
0.00158283
0.00158111
0.00157935
0.00157754
0.00157567
0.00157374
0.00157175
0.00156969
0.00156757
0.00156538
0.00156312
0.00156078
0.00155835
0.00155583
0.00155321
0.0015505
0.00154768
0.00154477
0.00154178
0.00153869
0.00153551
0.00153224
0.00152887
0.00152539
0.00152182
0.00151816
0.0015144
0.00151056
0.00150665
0.00150266
0.00149861
0.00149451
0.00149035
0.00148613
0.00148189
0.00147761
0.00147329
0.00146899
0.00146476
0.00146049
0.00145621
0.00145218
0.0014482
0.00144392
0.00143992
0.00143636
0.00143235
0.00142799
0.00142465
0.00142122
0.00141678
0.00141303
0.00141021
0.00140641
0.00140205
0.00139936
0.00139646
0.00139218
0.00138892
0.00138677
0.00138327
0.00137933
0.00137725
0.00137482
0.00137087
0.00136805
0.0013665
0.00136344
0.00135993
0.00135822
0.00135637
0.00135318
0.00135097
0.00134948
0.00134668
0.00134418
0.00134351
0.00134204
0.00133878
0.00133622
0.00133531
0.00133553
0.00133347
0.00133079
0.00132894
0.00132779
0.00132706
0.00132637
0.00132539
0.00132433
0.00132346
0.00132281
0.00132232
0.00132195
0.00132171
0.0013216
0.00132159
0.00132168
0.00132191
0.00132223
0.00132267
0.00132325
0.00132395
0.0013248
0.00132578
0.00132691
0.00132818
0.00132959
0.00159432
0.00159274
0.00159117
0.0015896
0.00158803
0.00158647
0.0015849
0.00158332
0.00158174
0.00158015
0.00157853
0.00157688
0.0015752
0.00157349
0.00157174
0.00156996
0.00156813
0.00156626
0.00156433
0.00156234
0.00156028
0.00155815
0.00155595
0.00155366
0.00155131
0.00154887
0.00154635
0.00154374
0.00154103
0.00153823
0.00153532
0.00153232
0.00152921
0.00152601
0.00152271
0.00151932
0.00151583
0.00151226
0.00150858
0.00150482
0.00150096
0.00149702
0.00149299
0.00148889
0.00148472
0.00148049
0.00147621
0.00147188
0.0014675
0.00146309
0.00145864
0.00145416
0.0014497
0.00144525
0.00144078
0.00143635
0.00143207
0.00142778
0.00142339
0.00141927
0.00141539
0.00141119
0.00140687
0.00140333
0.00139972
0.00139528
0.0013914
0.00138844
0.00138472
0.00138021
0.00137723
0.00137446
0.00137038
0.00136656
0.00136435
0.00136134
0.00135718
0.00135451
0.00135258
0.00134911
0.00134556
0.00134389
0.00134172
0.00133809
0.00133554
0.00133437
0.00133189
0.00132888
0.00132713
0.00132544
0.00132304
0.00132129
0.00131987
0.00131774
0.00131557
0.00131421
0.00131352
0.0013122
0.00131036
0.00130879
0.00130762
0.00130675
0.00130604
0.00130535
0.00130468
0.00130412
0.00130369
0.00130341
0.00130326
0.00130323
0.00130331
0.00130353
0.00130389
0.00130438
0.00130497
0.00130568
0.00130651
0.00130747
0.00130858
0.00130982
0.0013112
0.00131273
0.00131442
0.00158197
0.0015804
0.00157882
0.00157725
0.00157566
0.00157407
0.00157246
0.00157084
0.00156921
0.00156755
0.00156586
0.00156414
0.00156238
0.00156058
0.00155874
0.00155684
0.0015549
0.0015529
0.00155084
0.00154871
0.00154651
0.00154424
0.00154188
0.00153944
0.00153692
0.00153431
0.00153162
0.00152883
0.00152595
0.00152297
0.00151989
0.00151671
0.00151342
0.00151004
0.00150656
0.00150299
0.00149933
0.00149558
0.00149174
0.00148782
0.00148381
0.00147972
0.00147555
0.00147132
0.00146702
0.00146266
0.00145826
0.00145381
0.00144933
0.00144481
0.00144026
0.00143569
0.00143113
0.00142656
0.00142199
0.00141747
0.00141302
0.00140857
0.00140413
0.00139988
0.00139576
0.00139146
0.00138719
0.00138346
0.00137968
0.0013753
0.00137138
0.00136827
0.00136459
0.0013601
0.00135686
0.00135415
0.00135033
0.00134617
0.00134372
0.0013411
0.0013371
0.00133379
0.00133198
0.00132915
0.00132531
0.00132301
0.0013215
0.00131841
0.00131514
0.00131368
0.00131225
0.00130928
0.0013068
0.00130542
0.00130364
0.00130149
0.00129979
0.00129826
0.0012966
0.00129508
0.00129391
0.00129281
0.00129156
0.00129033
0.00128929
0.00128846
0.00128779
0.00128724
0.0012868
0.00128647
0.00128628
0.00128621
0.00128624
0.00128639
0.00128669
0.00128713
0.00128772
0.00128842
0.00128925
0.0012902
0.00129128
0.00129249
0.00129384
0.00129533
0.00129697
0.00129877
0.00130072
0.00156965
0.00156806
0.00156646
0.00156486
0.00156324
0.0015616
0.00155994
0.00155826
0.00155655
0.00155482
0.00155305
0.00155124
0.00154938
0.00154748
0.00154553
0.00154352
0.00154145
0.00153932
0.00153712
0.00153486
0.00153252
0.0015301
0.0015276
0.00152501
0.00152233
0.00151956
0.00151671
0.00151376
0.00151072
0.00150758
0.00150434
0.00150101
0.00149758
0.00149405
0.00149043
0.00148672
0.00148292
0.00147904
0.00147508
0.00147104
0.00146692
0.00146273
0.00145848
0.00145416
0.00144979
0.00144536
0.0014409
0.00143639
0.00143186
0.00142729
0.00142271
0.00141811
0.00141351
0.00140891
0.00140432
0.00139976
0.00139525
0.00139075
0.00138629
0.00138196
0.00137771
0.00137338
0.00136916
0.00136529
0.00136138
0.0013571
0.00135319
0.00134992
0.00134627
0.0013419
0.00133849
0.00133576
0.00133219
0.00132791
0.00132516
0.00132278
0.00131914
0.00131537
0.00131335
0.00131107
0.00130739
0.00130442
0.00130304
0.00130069
0.00129723
0.00129505
0.00129413
0.00129189
0.00128901
0.00128719
0.00128585
0.001284
0.00128214
0.00128064
0.00127928
0.00127792
0.00127668
0.0012756
0.00127459
0.00127364
0.00127279
0.00127209
0.00127152
0.0012711
0.00127082
0.00127068
0.00127066
0.00127074
0.00127097
0.00127133
0.00127183
0.00127247
0.00127325
0.00127417
0.00127521
0.00127639
0.0012777
0.00127915
0.00128074
0.00128248
0.00128438
0.00128643
0.00128864
0.00129102
0.00129357
0.00155734
0.00155572
0.00155409
0.00155243
0.00155076
0.00154907
0.00154734
0.00154559
0.00154381
0.00154198
0.00154012
0.00153821
0.00153625
0.00153424
0.00153218
0.00153005
0.00152786
0.0015256
0.00152328
0.00152088
0.0015184
0.00151584
0.0015132
0.00151047
0.00150766
0.00150476
0.00150176
0.00149868
0.0014955
0.00149223
0.00148887
0.00148542
0.00148188
0.00147824
0.00147452
0.00147071
0.00146682
0.00146286
0.00145882
0.00145471
0.00145054
0.0014463
0.00144201
0.00143766
0.00143327
0.00142883
0.00142436
0.00141985
0.00141532
0.00141077
0.00140621
0.00140164
0.00139707
0.0013925
0.00138795
0.00138342
0.00137892
0.00137445
0.00137003
0.00136569
0.00136141
0.00135712
0.00135294
0.00134899
0.00134502
0.00134086
0.00133699
0.00133359
0.00132996
0.00132578
0.00132226
0.00131948
0.00131611
0.0013119
0.00130886
0.00130659
0.00130333
0.00129936
0.00129698
0.00129506
0.00129178
0.00128836
0.00128667
0.00128496
0.00128174
0.00127896
0.00127786
0.00127646
0.00127367
0.00127136
0.00126995
0.00126851
0.0012668
0.00126525
0.00126394
0.00126273
0.00126159
0.00126057
0.00125967
0.00125887
0.00125819
0.00125764
0.00125721
0.00125692
0.00125678
0.00125677
0.00125686
0.00125712
0.00125753
0.00125808
0.00125877
0.00125959
0.00126056
0.00126166
0.00126291
0.0012643
0.00126583
0.0012675
0.00126933
0.00127131
0.00127344
0.00127573
0.00127819
0.00128081
0.00128359
0.00154507
0.0015434
0.00154171
0.00154
0.00153827
0.0015365
0.00153471
0.00153287
0.001531
0.00152909
0.00152713
0.00152512
0.00152306
0.00152094
0.00151876
0.00151652
0.00151421
0.00151184
0.00150939
0.00150687
0.00150427
0.00150159
0.00149883
0.00149599
0.00149306
0.00149004
0.00148694
0.00148375
0.00148047
0.00147711
0.00147366
0.00147012
0.0014665
0.0014628
0.00145902
0.00145517
0.00145124
0.00144724
0.00144317
0.00143905
0.00143487
0.00143064
0.00142636
0.00142204
0.00141768
0.00141328
0.00140885
0.0014044
0.00139993
0.00139545
0.00139096
0.00138647
0.00138198
0.00137751
0.00137304
0.00136861
0.00136419
0.00135981
0.00135547
0.00135119
0.00134696
0.00134276
0.00133865
0.00133468
0.00133073
0.00132671
0.0013229
0.00131941
0.00131581
0.00131184
0.0013083
0.00130544
0.0013022
0.00129818
0.00129493
0.00129267
0.0012897
0.00128578
0.00128304
0.00128126
0.00127841
0.00127481
0.00127269
0.00127131
0.00126855
0.00126544
0.00126387
0.00126293
0.00126056
0.00125801
0.00125633
0.00125503
0.00125357
0.00125207
0.00125075
0.0012496
0.00124856
0.00124762
0.0012468
0.00124609
0.00124553
0.0012451
0.00124481
0.00124465
0.00124462
0.00124468
0.00124492
0.00124533
0.0012459
0.00124661
0.00124745
0.00124844
0.00124958
0.00125086
0.00125229
0.00125388
0.00125561
0.00125749
0.00125953
0.00126172
0.00126407
0.00126659
0.00126926
0.00127209
0.00127508
0.00153454
0.00153284
0.00153112
0.00152937
0.00152759
0.00152579
0.00152395
0.00152207
0.00152016
0.0015182
0.00151619
0.00151414
0.00151203
0.00150987
0.00150765
0.00150537
0.00150302
0.00150061
0.00149813
0.00149558
0.00149295
0.00149025
0.00148748
0.00148462
0.00148169
0.00147867
0.00147557
0.00147239
0.00146914
0.0014658
0.00146238
0.00145888
0.00145531
0.00145166
0.00144794
0.00144415
0.00144029
0.00143637
0.00143238
0.00142835
0.00142426
0.00142012
0.00141595
0.00141174
0.00140748
0.0014032
0.00139889
0.00139456
0.00139022
0.00138586
0.0013815
0.00137713
0.00137277
0.00136842
0.00136408
0.00135975
0.00135545
0.00135117
0.00134692
0.00134272
0.00133856
0.00133444
0.00133036
0.00132636
0.00132245
0.00131856
0.00131469
0.00131096
0.00130744
0.00130389
0.00130012
0.00129662
0.00129368
0.00129054
0.00128674
0.00128339
0.00128109
0.00127831
0.00127456
0.00127156
0.00126977
0.00126725
0.00126369
0.0012612
0.00125987
0.00125753
0.00125435
0.00125234
0.00125144
0.0012495
0.00124696
0.00124506
0.0012437
0.00124237
0.00124097
0.00123967
0.00123853
0.00123753
0.00123665
0.00123588
0.00123524
0.00123475
0.00123442
0.00123423
0.00123417
0.00123419
0.00123436
0.00123472
0.00123526
0.00123595
0.00123678
0.00123777
0.0012389
0.00124018
0.00124162
0.00124321
0.00124496
0.00124687
0.00124893
0.00125116
0.00125354
0.00125608
0.00125878
0.00126164
0.00126465
0.00126782
0.00152244
0.00152068
0.0015189
0.00151708
0.00151524
0.00151336
0.00151145
0.00150949
0.0015075
0.00150545
0.00150336
0.00150122
0.00149903
0.00149677
0.00149447
0.0014921
0.00148966
0.00148717
0.0014846
0.00148197
0.00147927
0.00147649
0.00147364
0.00147072
0.00146773
0.00146466
0.00146152
0.0014583
0.00145501
0.00145165
0.00144822
0.00144472
0.00144115
0.00143752
0.00143382
0.00143007