/*--------------------------------*- C++ -*----------------------------------*\
| =========                 |                                                 |
| \\      /  F ield         | OpenFOAM: The Open Source CFD Toolbox           |
|  \\    /   O peration     | Version:  v1706                                 |
|   \\  /    A nd           | Web:      www.OpenFOAM.com                      |
|    \\/     M anipulation  |                                                 |
\*---------------------------------------------------------------------------*/
FoamFile
{
    version     2.0;
    format      ascii;
    class       volScalarField;
    location    "3.5e-05";
    object      Tt;
}
// * * * * * * * * * * * * * * * * * * * * * * * * * * * * * * * * * * * * * //

dimensions      [0 0 0 1 0 0 0];


internalField   nonuniform List<scalar> 
29871
(
147.253
147.613
148.015
148.47
148.986
149.568
150.219
150.937
151.72
152.563
153.463
154.436
155.508
156.702
158.014
159.43
160.93
162.496
164.114
165.77
167.446
169.125
170.791
172.432
174.057
175.752
177.901
180.421
183.162
185.996
188.825
191.579
194.207
196.677
198.971
201.083
203.019
204.785
206.392
207.847
209.154
210.315
211.329
212.201
212.935
213.534
214.006
214.356
214.594
214.741
214.76
214.708
214.603
214.457
214.255
213.99
213.703
213.383
213.027
212.641
212.233
211.81
211.359
210.883
210.398
209.894
209.363
208.822
208.276
207.712
207.133
206.549
205.957
205.355
204.743
204.117
203.472
202.804
202.112
201.397
200.658
199.897
199.116
198.318
197.504
196.676
195.831
194.971
194.095
193.201
192.289
191.357
190.403
189.426
188.421
187.388
186.321
185.218
184.074
182.883
181.637
180.324
178.927
177.439
175.862
161.257
163.29
165.542
168.047
170.817
173.838
177.085
180.524
184.121
187.839
191.659
195.607
199.915
204.762
210.074
215.712
221.522
227.353
233.074
238.577
243.778
248.619
253.062
257.095
260.717
263.929
266.669
268.963
270.842
272.351
273.53
274.416
275.048
275.466
275.725
275.881
275.98
276.048
276.102
276.146
276.185
276.205
276.194
276.159
276.098
276.008
275.874
275.691
275.456
275.174
274.84
274.459
274.039
273.589
273.099
272.607
272.106
271.565
271.013
270.46
269.904
269.357
268.805
268.252
267.703
267.158
266.615
266.09
265.567
265.044
264.536
264.035
263.527
263.024
262.53
262.036
261.536
261.03
260.521
260.011
259.502
258.997
258.495
257.998
257.503
257.009
256.515
256.02
255.524
255.026
254.527
254.024
253.517
253.006
252.489
251.964
251.429
250.883
250.323
249.745
249.144
248.521
247.894
247.287
246.709
191.611
196.371
201.359
206.777
212.792
219.33
226.236
233.327
240.416
247.333
253.942
260.143
265.856
270.992
275.507
279.435
282.828
285.75
288.264
290.422
292.264
293.813
295.082
296.072
296.8
297.306
297.645
297.858
297.978
297.975
297.918
297.786
297.564
297.237
296.8
296.274
295.687
295.064
294.424
293.782
293.147
292.531
291.938
291.37
290.83
290.316
289.827
289.357
288.897
288.442
287.983
287.514
287.031
286.529
286.009
285.468
284.909
284.332
283.741
283.139
282.522
281.895
281.249
280.647
280.025
279.339
278.721
278.152
277.511
276.877
276.315
275.746
275.156
274.599
274.078
273.556
273.029
272.513
272.01
271.516
271.026
270.543
270.069
269.604
269.15
268.705
268.271
267.848
267.436
267.036
266.648
266.275
265.915
265.572
265.245
264.936
264.644
264.372
264.119
263.887
263.677
263.497
263.353
263.247
263.202
263.211
253.449
260.699
267.487
273.676
279.187
284.028
288.233
291.85
294.939
297.556
299.756
301.585
303.078
304.262
305.164
305.813
306.253
306.546
306.752
306.916
307.061
307.194
307.307
307.346
307.301
307.178
306.984
306.736
306.45
306.131
305.793
305.452
305.122
304.809
304.501
304.159
303.754
303.28
302.744
302.159
301.542
300.906
300.263
299.624
298.995
298.382
297.791
297.22
296.671
296.141
295.622
295.11
294.597
294.076
293.541
292.989
292.414
291.816
291.195
290.555
289.889
289.207
288.494
287.817
287.123
286.346
285.633
284.973
284.24
283.506
282.843
282.177
281.484
280.827
280.212
279.596
278.975
278.368
277.782
277.209
276.639
276.073
275.516
274.971
274.44
273.923
273.419
272.93
272.455
271.996
271.553
271.128
270.723
270.339
269.979
269.643
269.334
269.053
268.801
268.583
268.402
268.268
268.204
268.204
268.23
268.283
298.301
301.243
303.718
305.78
307.476
308.851
309.944
310.789
311.418
311.879
312.227
312.506
312.736
312.925
313.071
313.158
313.143
313.06
312.9
312.687
312.447
312.204
311.982
311.802
311.684
311.621
311.567
311.473
311.313
311.081
310.79
310.455
310.093
309.727
309.379
309.066
308.761
308.435
308.069
307.652
307.181
306.66
306.098
305.506
304.893
304.267
303.638
303.014
302.398
301.79
301.198
300.62
300.049
299.484
298.926
298.361
297.788
297.208
296.612
295.995
295.365
294.718
294.045
293.345
292.651
291.969
291.213
290.481
289.799
289.023
288.286
287.6
286.888
286.116
285.417
284.774
284.113
283.422
282.749
282.114
281.491
280.868
280.252
279.656
279.078
278.516
277.97
277.439
276.925
276.428
275.947
275.484
275.041
274.619
274.22
273.845
273.495
273.171
272.875
272.61
272.379
272.187
272.038
271.939
271.893
271.896
271.914
315.123
315.597
315.974
316.29
316.558
316.779
316.949
317.065
317.078
317.038
316.95
316.827
316.688
316.55
316.422
316.303
316.208
316.129
316.026
315.872
315.655
315.4
315.127
314.855
314.621
314.447
314.331
314.229
314.105
313.939
313.722
313.456
313.148
312.809
312.451
312.103
311.789
311.497
311.211
310.914
310.59
310.23
309.831
309.394
308.926
308.43
307.911
307.377
306.838
306.289
305.738
305.197
304.656
304.11
303.574
303.037
302.486
301.935
301.378
300.799
300.203
299.6
298.974
298.316
297.64
296.971
296.28
295.552
294.829
294.095
293.382
292.72
291.947
291.111
290.386
289.711
289.033
288.267
287.52
286.848
286.18
285.488
284.806
284.16
283.534
282.918
282.319
281.741
281.18
280.634
280.104
279.594
279.104
278.635
278.189
277.767
277.37
276.998
276.655
276.341
276.061
275.816
275.608
275.438
275.304
275.202
275.122
319.919
320.101
320.219
320.238
320.207
320.138
320.05
319.952
319.857
319.77
319.701
319.65
319.603
319.526
319.398
319.231
319.037
318.834
318.626
318.448
318.311
318.182
318.042
317.871
317.665
317.428
317.162
316.895
316.648
316.456
316.301
316.182
316.071
315.944
315.786
315.594
315.361
315.097
314.812
314.533
314.267
314.007
313.763
313.523
313.268
312.992
312.686
312.35
311.986
311.59
311.164
310.728
310.275
309.794
309.318
308.845
308.347
307.852
307.37
306.864
306.349
305.849
305.327
304.776
304.229
303.67
303.076
302.453
301.828
301.21
300.546
299.832
299.139
298.455
297.855
297.078
296.242
295.522
294.839
294.187
293.373
292.585
291.884
291.204
290.461
289.72
289.045
288.382
287.714
287.076
286.463
285.861
285.268
284.691
284.134
283.599
283.084
282.59
282.116
281.666
281.238
280.837
280.461
280.115
279.797
279.508
279.247
279.01
278.794
278.594
322.868
322.8
322.752
322.721
322.672
322.583
322.464
322.302
322.12
321.939
321.773
321.636
321.534
321.432
321.311
321.16
320.985
320.784
320.57
320.356
320.161
319.991
319.844
319.703
319.551
319.383
319.188
318.976
318.759
318.553
318.376
318.237
318.123
318.024
317.925
317.812
317.675
317.509
317.307
317.094
316.885
316.645
316.418
316.21
316.004
315.79
315.568
315.322
315.062
314.785
314.454
314.116
313.779
313.37
312.967
312.582
312.146
311.7
311.275
310.83
310.358
309.903
309.455
308.952
308.449
307.965
307.453
306.881
306.317
305.772
305.196
304.525
303.887
303.254
302.707
301.969
301.187
300.501
299.833
299.221
298.417
297.624
296.919
296.245
295.47
294.687
293.985
293.304
292.597
291.931
291.304
290.671
290.035
289.412
288.814
288.239
287.681
287.137
286.609
286.1
285.612
285.145
284.701
284.28
283.881
283.505
283.149
282.81
282.485
282.172
325.092
324.92
324.77
324.652
324.551
324.445
324.321
324.167
323.989
323.798
323.603
323.419
323.259
323.127
323.008
322.886
322.759
322.612
322.446
322.268
322.087
321.915
321.76
321.621
321.489
321.36
321.218
321.061
320.892
320.714
320.54
320.383
320.253
320.144
320.053
319.968
319.88
319.786
319.653
319.513
319.379
319.185
318.981
318.806
318.629
318.441
318.265
318.074
317.875
317.681
317.427
317.169
316.927
316.599
316.259
315.947
315.602
315.188
314.81
314.447
314.005
313.589
313.204
312.736
312.281
311.853
311.405
310.867
310.367
309.889
309.389
308.762
308.191
307.62
307.123
306.433
305.725
305.095
304.462
303.897
303.111
302.36
301.682
301.028
300.234
299.426
298.711
298.034
297.31
296.623
295.976
295.341
294.673
294.003
293.376
292.772
292.175
291.585
291.005
290.441
289.895
289.367
288.858
288.366
287.893
287.436
286.995
286.567
286.152
285.746
326.938
326.749
326.562
326.39
326.248
326.127
326.016
325.899
325.77
325.626
325.47
325.307
325.149
325.006
324.881
324.768
324.661
324.55
324.427
324.292
324.145
323.992
323.842
323.702
323.573
323.452
323.334
323.21
323.081
322.942
322.795
322.65
322.515
322.396
322.297
322.211
322.135
322.072
321.988
321.897
321.817
321.694
321.533
321.395
321.261
321.083
320.932
320.779
320.607
320.455
320.268
320.057
319.868
319.635
319.345
319.082
318.826
318.454
318.114
317.814
317.413
317.018
316.671
316.254
315.82
315.424
315.025
314.511
314.057
313.636
313.168
312.579
312.069
311.557
311.103
310.435
309.81
309.24
308.657
308.12
307.346
306.667
306.031
305.41
304.596
303.797
303.091
302.426
301.693
300.996
300.339
299.707
299.023
298.316
297.659
297.032
296.415
295.786
295.157
294.545
293.951
293.375
292.814
292.266
291.732
291.211
290.702
290.206
289.72
289.244
328.729
328.587
328.435
328.282
328.137
328.011
327.9
327.798
327.696
327.589
327.472
327.344
327.21
327.077
326.951
326.837
326.732
326.633
326.535
326.431
326.319
326.198
326.072
325.946
325.825
325.71
325.603
325.498
325.395
325.287
325.173
325.055
324.936
324.822
324.723
324.633
324.554
324.498
324.438
324.37
324.319
324.251
324.14
324.044
323.951
323.802
323.669
323.551
323.392
323.253
323.116
322.93
322.766
322.601
322.356
322.128
321.926
321.614
321.305
321.041
320.694
320.314
319.984
319.622
319.19
318.802
318.439
317.952
317.519
317.13
316.655
316.104
315.637
315.182
314.715
314.069
313.52
312.986
312.482
311.884
311.168
310.563
309.957
309.361
308.544
307.787
307.104
306.451
305.706
305.007
304.353
303.722
303.036
302.298
301.62
300.975
300.335
299.693
299.023
298.373
297.748
297.14
296.542
295.954
295.376
294.809
294.253
293.708
293.174
292.649
330.771
330.669
330.563
330.449
330.327
330.203
330.083
329.972
329.873
329.781
329.692
329.601
329.504
329.401
329.293
329.185
329.08
328.981
328.891
328.806
328.723
328.638
328.548
328.452
328.353
328.252
328.154
328.06
327.971
327.886
327.802
327.716
327.627
327.534
327.441
327.352
327.269
327.192
327.136
327.083
327.024
326.989
326.948
326.875
326.812
326.753
326.641
326.533
326.441
326.302
326.168
326.056
325.893
325.734
325.6
325.396
325.186
325.011
324.754
324.468
324.225
323.929
323.563
323.241
322.92
322.497
322.106
321.757
321.299
320.855
320.467
320.009
319.479
319.024
318.609
318.081
317.478
316.977
316.464
316
315.323
314.692
314.133
313.555
312.946
312.145
311.451
310.798
310.152
309.388
308.696
308.053
307.425
306.736
305.972
305.282
304.627
303.969
303.306
302.627
301.959
301.316
300.688
300.068
299.455
298.849
298.252
297.665
297.088
296.522
295.965
332.846
332.756
332.669
332.581
332.489
332.393
332.295
332.199
332.109
332.026
331.949
331.876
331.802
331.727
331.648
331.566
331.483
331.403
331.327
331.256
331.191
331.127
331.064
330.998
330.93
330.858
330.786
330.714
330.646
330.58
330.517
330.455
330.393
330.328
330.262
330.194
330.127
330.063
330.009
329.959
329.908
329.878
329.846
329.793
329.754
329.715
329.634
329.551
329.48
329.363
329.237
329.138
328.993
328.831
328.706
328.529
328.321
328.153
327.937
327.662
327.425
327.168
326.82
326.498
326.2
325.798
325.397
325.048
324.617
324.153
323.745
323.311
322.786
322.316
321.901
321.353
320.778
320.288
319.802
319.283
318.597
318.026
317.475
316.941
316.254
315.515
314.876
314.251
313.592
312.812
312.133
311.504
310.884
310.175
309.397
308.705
308.047
307.379
306.702
306.021
305.349
304.698
304.061
303.43
302.803
302.18
301.566
300.96
300.363
299.776
299.199
298.631
298.07
335.064
334.984
334.911
334.841
334.772
334.702
334.631
334.559
334.488
334.422
334.361
334.304
334.251
334.2
334.148
334.095
334.041
333.987
333.935
333.886
333.842
333.801
333.763
333.726
333.688
333.648
333.607
333.564
333.522
333.482
333.443
333.405
333.368
333.33
333.29
333.247
333.202
333.156
333.113
333.07
333.029
332.998
332.968
332.925
332.896
332.864
332.8
332.737
332.68
332.579
332.463
332.371
332.237
332.07
331.943
331.778
331.564
331.388
331.19
330.92
330.675
330.437
330.107
329.776
329.484
329.106
328.692
328.329
327.926
327.445
327.007
326.59
326.067
325.567
325.127
324.592
324.018
323.512
323.043
322.444
321.793
321.246
320.688
320.157
319.413
318.735
318.128
317.527
316.83
316.05
315.386
314.752
314.143
313.416
312.644
311.953
311.293
310.625
309.944
309.261
308.588
307.932
307.289
306.653
306.019
305.389
304.765
304.147
303.538
302.936
302.341
301.758
301.182
337.542
337.471
337.404
337.34
337.283
337.23
337.182
337.135
337.09
337.044
337
336.957
336.918
336.884
336.853
336.826
336.802
336.778
336.755
336.732
336.71
336.69
336.672
336.658
336.647
336.639
336.631
336.624
336.615
336.605
336.594
336.583
336.571
336.559
336.547
336.535
336.52
336.502
336.48
336.454
336.426
336.395
336.363
336.333
336.301
336.263
336.233
336.197
336.139
336.085
336.028
335.935
335.826
335.735
335.601
335.431
335.295
335.128
334.905
334.711
334.513
334.241
333.974
333.735
333.417
333.067
332.763
332.406
331.978
331.589
331.205
330.721
330.25
329.825
329.318
328.783
328.301
327.792
327.206
326.666
326.179
325.562
324.924
324.37
323.811
323.235
322.479
321.839
321.233
320.648
319.918
319.148
318.487
317.842
317.224
316.5
315.749
315.06
314.396
313.727
313.049
312.368
311.693
311.032
310.383
309.742
309.104
308.47
307.84
307.212
306.594
305.982
305.376
304.777
304.183
339.943
339.897
339.853
339.812
339.775
339.744
339.717
339.694
339.674
339.656
339.64
339.626
339.615
339.607
339.604
339.605
339.609
339.615
339.624
339.634
339.646
339.659
339.673
339.69
339.71
339.731
339.755
339.779
339.803
339.826
339.847
339.867
339.884
339.899
339.913
339.924
339.932
339.936
339.935
339.928
339.915
339.896
339.872
339.845
339.811
339.772
339.734
339.687
339.626
339.567
339.499
339.4
339.292
339.189
339.048
338.871
338.721
338.541
338.304
338.085
337.872
337.591
337.292
337.034
336.716
336.342
336.008
335.659
335.222
334.798
334.41
333.936
333.43
332.972
332.491
331.927
331.396
330.899
330.313
329.731
329.2
328.602
327.957
327.375
326.818
326.18
325.443
324.814
324.194
323.612
322.853
322.101
321.434
320.779
320.124
319.434
318.713
318.02
317.347
316.674
315.998
315.319
314.645
313.979
313.323
312.676
312.032
311.391
310.757
310.125
309.497
308.874
308.255
307.64
307.03
306.424
342.712
342.661
342.613
342.57
342.532
342.499
342.47
342.446
342.425
342.407
342.392
342.38
342.374
342.373
342.375
342.382
342.393
342.407
342.424
342.445
342.468
342.496
342.527
342.563
342.602
342.644
342.688
342.735
342.783
342.832
342.882
342.935
342.989
343.044
343.099
343.155
343.209
343.261
343.309
343.355
343.396
343.434
343.467
343.495
343.517
343.532
343.539
343.537
343.527
343.508
343.481
343.444
343.399
343.348
343.286
343.212
343.135
343.045
342.931
342.81
342.684
342.524
342.333
342.159
341.956
341.699
341.451
341.212
340.911
340.576
340.284
339.952
339.552
339.174
338.814
338.371
337.905
337.485
337.023
336.487
335.984
335.509
334.942
334.364
333.832
333.276
332.652
332.061
331.484
330.836
330.211
329.622
328.976
328.261
327.614
326.976
326.371
325.611
324.879
324.201
323.533
322.86
322.175
321.475
320.782
320.1
319.423
318.746
318.068
317.393
316.724
316.061
315.406
314.758
314.111
313.468
312.828
312.19
311.555
310.923
310.293
309.666
309.042
345.149
345.121
345.097
345.078
345.063
345.052
345.048
345.049
345.053
345.062
345.075
345.092
345.114
345.14
345.172
345.209
345.25
345.296
345.346
345.4
345.457
345.519
345.584
345.653
345.726
345.803
345.882
345.963
346.046
346.131
346.216
346.301
346.387
346.473
346.559
346.643
346.725
346.804
346.879
346.948
347.012
347.07
347.12
347.163
347.198
347.224
347.239
347.24
347.232
347.213
347.182
347.137
347.079
347.01
346.927
346.832
346.727
346.607
346.467
346.318
346.158
345.967
345.751
345.543
345.306
345.021
344.736
344.461
344.13
343.756
343.42
343.061
342.632
342.202
341.81
341.353
340.845
340.376
339.911
339.359
338.805
338.298
337.745
337.126
336.545
335.996
335.366
334.719
334.108
333.484
332.82
332.179
331.536
330.851
330.175
329.51
328.856
328.15
327.429
326.731
326.047
325.362
324.673
323.978
323.285
322.598
321.915
321.235
320.556
319.878
319.206
318.54
317.878
317.221
316.566
315.914
315.263
314.614
313.967
313.321
312.677
312.035
311.394
347.665
347.662
347.664
347.669
347.679
347.695
347.717
347.744
347.776
347.813
347.856
347.903
347.956
348.014
348.077
348.146
348.22
348.299
348.383
348.471
348.564
348.66
348.761
348.865
348.972
349.083
349.197
349.312
349.429
349.547
349.664
349.781
349.897
350.012
350.124
350.233
350.339
350.439
350.534
350.622
350.702
350.773
350.835
350.886
350.926
350.954
350.967
350.965
350.952
350.924
350.88
350.819
350.742
350.649
350.538
350.412
350.272
350.113
349.936
349.747
349.542
349.31
349.057
348.802
348.52
348.197
347.869
347.546
347.174
346.758
346.369
345.97
345.507
345.021
344.579
344.099
343.553
343.025
342.532
341.967
341.364
340.804
340.255
339.616
338.983
338.393
337.788
337.1
336.439
335.804
335.14
334.458
333.79
333.116
332.43
331.744
331.062
330.367
329.657
328.951
328.252
327.558
326.863
326.167
325.472
324.781
324.093
323.407
322.724
322.046
321.371
320.7
320.031
319.365
318.701
318.039
317.378
316.718
316.059
315.4
314.742
314.085
313.429
350.257
350.278
350.306
350.338
350.376
350.42
350.47
350.525
350.587
350.654
350.728
350.807
350.892
350.983
351.079
351.181
351.289
351.402
351.521
351.644
351.771
351.903
352.038
352.176
352.318
352.462
352.608
352.755
352.903
353.05
353.196
353.341
353.482
353.62
353.754
353.883
354.005
354.121
354.228
354.327
354.414
354.49
354.554
354.604
354.64
354.66
354.662
354.65
354.621
354.573
354.507
354.42
354.314
354.188
354.042
353.877
353.692
353.488
353.264
353.024
352.764
352.481
352.178
351.866
351.528
351.157
350.776
350.395
349.972
349.508
349.06
348.611
348.104
347.562
347.061
346.545
345.962
345.372
344.828
344.247
343.601
342.985
342.406
341.761
341.078
340.44
339.83
339.135
338.425
337.753
337.087
336.391
335.695
335.007
334.315
333.617
332.918
332.217
331.509
330.8
330.094
329.393
328.693
327.993
327.295
326.599
325.905
325.217
324.534
323.853
323.174
322.497
321.822
321.149
320.477
319.806
319.135
318.465
317.794
317.123
316.452
315.781
315.111
314.441
313.771
352.915
352.964
353.018
353.079
353.146
353.219
353.298
353.384
353.477
353.576
353.681
353.793
353.911
354.036
354.166
354.302
354.443
354.59
354.742
354.899
355.06
355.225
355.393
355.563
355.736
355.91
356.084
356.259
356.433
356.605
356.774
356.94
357.1
357.255
357.403
357.544
357.675
357.797
357.908
358.007
358.092
358.163
358.219
358.257
358.278
358.278
358.263
358.227
358.17
358.092
357.992
357.87
357.725
357.556
357.365
357.151
356.915
356.656
356.376
356.076
355.755
355.41
355.046
354.668
354.266
353.835
353.392
352.944
352.462
351.943
351.429
350.92
350.362
349.765
349.197
348.635
348.009
347.359
346.755
346.145
345.464
344.788
344.158
343.508
342.788
342.101
341.451
340.77
340.02
339.307
338.619
337.92
337.205
336.497
335.793
335.086
334.378
333.668
332.957
332.246
331.538
330.832
330.128
329.426
328.725
328.024
327.331
326.643
325.958
325.274
324.592
323.911
323.232
322.553
321.875
321.196
320.517
319.838
319.158
318.476
317.793
317.11
316.425
315.739
315.052
355.634
355.71
355.793
355.883
355.98
356.083
356.193
356.311
356.435
356.566
356.703
356.848
356.999
357.156
357.319
357.488
357.662
357.841
358.025
358.213
358.405
358.6
358.796
358.995
359.194
359.393
359.591
359.787
359.981
360.17
360.355
360.534
360.705
360.868
361.021
361.164
361.295
361.413
361.517
361.605
361.677
361.732
361.767
361.782
361.776
361.75
361.702
361.63
361.535
361.415
361.271
361.101
360.906
360.685
360.439
360.167
359.871
359.55
359.205
358.837
358.447
358.033
357.6
357.148
356.673
356.175
355.662
355.14
354.59
354.01
353.427
352.849
352.233
351.58
350.942
350.324
349.652
348.946
348.277
347.627
346.911
346.179
345.495
344.825
344.079
343.342
342.648
341.966
341.198
340.446
339.731
339.021
338.297
337.572
336.854
336.139
335.423
334.709
333.995
333.283
332.574
331.868
331.164
330.46
329.757
329.059
328.369
327.682
326.997
326.313
325.63
324.948
324.266
323.584
322.902
322.219
321.534
320.847
320.159
319.468
318.775
318.079
317.381
316.679
315.973
358.307
358.405
358.51
358.622
358.741
358.868
359.001
359.143
359.291
359.446
359.608
359.778
359.954
360.136
360.324
360.518
360.717
360.922
361.13
361.342
361.558
361.776
361.995
362.216
362.436
362.655
362.873
363.087
363.297
363.502
363.701
363.892
364.075
364.247
364.408
364.556
364.69
364.81
364.913
364.998
365.065
365.111
365.137
365.138
365.12
365.078
365.011
364.918
364.799
364.654
364.481
364.281
364.053
363.798
363.514
363.204
362.865
362.5
362.109
361.692
361.25
360.785
360.296
359.785
359.255
358.703
358.13
357.541
356.941
356.318
355.67
355.015
354.364
353.684
352.971
352.266
351.586
350.864
350.106
349.373
348.672
347.921
347.14
346.403
345.699
344.934
344.154
343.422
342.719
341.948
341.168
340.428
339.703
338.972
338.238
337.509
336.787
336.068
335.352
334.638
333.928
333.222
332.519
331.817
331.115
330.416
329.726
329.042
328.36
327.679
326.998
326.318
325.637
324.957
324.275
323.591
322.906
322.218
321.527
320.833
320.135
319.433
318.726
318.014
317.297
316.573
361.09
361.216
361.35
361.491
361.64
361.796
361.96
362.131
362.309
362.494
362.686
362.885
363.09
363.301
363.517
363.739
363.965
364.195
364.428
364.663
364.901
365.139
365.377
365.614
365.849
366.081
366.308
366.53
366.745
366.953
367.151
367.338
367.514
367.676
367.823
367.955
368.069
368.165
368.241
368.296
368.329
368.336
368.322
368.283
368.218
368.125
368.005
367.856
367.679
367.472
367.236
366.97
366.674
366.349
365.994
365.609
365.196
364.755
364.286
363.791
363.269
362.724
362.154
361.563
360.951
360.318
359.665
358.997
358.316
357.617
356.898
356.169
355.442
354.695
353.921
353.15
352.406
351.633
350.827
350.035
349.283
348.496
347.677
346.89
346.146
345.364
344.552
343.785
343.054
342.284
341.491
340.734
339.997
339.26
338.523
337.791
337.065
336.347
335.633
334.924
334.221
333.523
332.829
332.135
331.441
330.753
330.074
329.399
328.727
328.054
327.381
326.707
326.033
325.357
324.679
323.998
323.314
322.626
321.934
321.236
320.533
319.825
319.11
318.387
317.657
316.917
316.168
315.408
363.903
364.057
364.218
364.388
364.564
364.749
364.941
365.139
365.345
365.558
365.777
366.002
366.233
366.469
366.709
366.953
367.201
367.45
367.702
367.954
368.206
368.458
368.706
368.952
369.193
369.428
369.656
369.876
370.086
370.285
370.471
370.644
370.801
370.942
371.065
371.168
371.25
371.31
371.348
371.358
371.346
371.307
371.241
371.146
371.022
370.868
370.684
370.469
370.222
369.945
369.635
369.294
368.921
368.517
368.083
367.617
367.122
366.599
366.047
365.468
364.862
364.232
363.578
362.904
362.208
361.491
360.756
360.007
359.245
358.471
357.68
356.88
356.079
355.265
354.431
353.6
352.791
351.969
351.126
350.291
349.496
348.68
347.835
347.012
346.236
345.439
344.611
343.817
343.065
342.294
341.499
340.733
339.988
339.25
338.514
337.784
337.063
336.349
335.643
334.943
334.25
333.564
332.882
332.2
331.518
330.843
330.177
329.515
328.854
328.192
327.53
326.867
326.203
325.536
324.867
324.194
323.515
322.831
322.141
321.445
320.741
320.03
319.31
318.58
317.841
317.091
316.329
315.554
366.731
366.911
367.099
367.295
367.498
367.708
367.925
368.149
368.379
368.615
368.857
369.104
369.355
369.611
369.869
370.13
370.392
370.655
370.918
371.179
371.438
371.694
371.944
372.189
372.426
372.654
372.873
373.08
373.274
373.453
373.617
373.764
373.891
373.999
374.085
374.147
374.187
374.197
374.184
374.144
374.075
373.976
373.846
373.685
373.492
373.267
373.009
372.717
372.393
372.035
371.644
371.219
370.762
370.273
369.752
369.2
368.617
368.006
367.367
366.7
366.007
365.289
364.549
363.79
363.011
362.212
361.397
360.568
359.728
358.878
358.021
357.163
356.304
355.436
354.555
353.678
352.817
351.951
351.074
350.206
349.375
348.533
347.671
346.824
346.026
345.218
344.385
343.577
342.813
342.042
341.253
340.487
339.741
339.005
338.278
337.558
336.847
336.146
335.454
334.769
334.091
333.421
332.755
332.09
331.424
330.766
330.116
329.471
328.825
328.179
327.531
326.882
326.232
325.579
324.922
324.259
323.591
322.916
322.233
321.542
320.842
320.133
319.414
318.683
317.941
317.186
316.418
315.636
369.559
369.763
369.974
370.193
370.419
370.651
370.89
371.135
371.385
371.64
371.899
372.162
372.428
372.697
372.966
373.237
373.506
373.774
374.04
374.302
374.558
374.809
375.051
375.285
375.508
375.72
375.918
376.101
376.267
376.416
376.546
376.655
376.741
376.803
376.842
376.851
376.836
376.792
376.717
376.612
376.475
376.305
376.102
375.866
375.595
375.289
374.948
374.573
374.163
373.718
373.238
372.723
372.176
371.596
370.984
370.34
369.665
368.962
368.233
367.477
366.696
365.891
365.065
364.221
363.364
362.495
361.614
360.722
359.82
358.909
357.994
357.081
356.17
355.255
354.336
353.422
352.521
351.618
350.708
349.811
348.945
348.08
347.204
346.344
345.529
344.713
343.882
343.073
342.304
341.536
340.763
340.007
339.271
338.547
337.835
337.134
336.442
335.762
335.091
334.429
333.776
333.129
332.489
331.85
331.21
330.576
329.95
329.328
328.707
328.084
327.459
326.83
326.198
325.562
324.921
324.274
323.62
322.958
322.287
321.607
320.916
320.215
319.502
318.777
318.039
317.288
316.522
315.742
314.948
372.592
372.824
373.062
373.307
373.557
373.812
374.072
374.337
374.604
374.875
375.148
375.421
375.695
375.969
376.24
376.509
376.773
377.033
377.285
377.53
377.765
377.99
378.202
378.401
378.584
378.751
378.899
379.028
379.135
379.22
379.279
379.315
379.318
379.299
379.249
379.168
379.056
378.91
378.73
378.517
378.268
377.983
377.662
377.305
376.912
376.482
376.015
375.513
374.975
374.401
373.791
373.148
372.474
371.768
371.03
370.261
369.465
368.645
367.807
366.951
366.074
365.178
364.264
363.338
362.404
361.461
360.51
359.553
358.59
357.623
356.656
355.693
354.733
353.775
352.826
351.89
350.959
350.03
349.117
348.231
347.354
346.477
345.618
344.797
343.982
343.165
342.37
341.607
340.853
340.104
339.371
338.655
337.955
337.267
336.592
335.929
335.276
334.635
334.003
333.38
332.764
332.155
331.549
330.943
330.338
329.741
329.15
328.558
327.964
327.368
326.767
326.161
325.548
324.929
324.302
323.667
323.024
322.371
321.708
321.034
320.348
319.65
318.939
318.215
317.476
316.724
315.957
315.176
375.378
375.626
375.879
376.137
376.399
376.666
376.935
377.207
377.481
377.756
378.03
378.304
378.576
378.844
379.108
379.366
379.618
379.861
380.095
380.318
380.528
380.724
380.905
381.069
381.214
381.339
381.442
381.521
381.576
381.606
381.604
381.578
381.521
381.432
381.31
381.155
380.964
380.739
380.477
380.179
379.843
379.469
379.057
378.608
378.122
377.596
377.032
376.432
375.798
375.127
374.419
373.678
372.906
372.11
371.29
370.444
369.57
368.672
367.757
366.827
365.881
364.921
363.947
362.959
361.96
360.955
359.946
358.935
357.924
356.913
355.906
354.906
353.913
352.928
351.957
351
350.054
349.119
348.203
347.311
346.433
345.565
344.719
343.903
343.102
342.311
341.542
340.799
340.071
339.354
338.654
337.97
337.302
336.649
336.009
335.381
334.765
334.16
333.565
332.979
332.401
331.829
331.261
330.695
330.128
329.564
329.008
328.453
327.893
327.326
326.755
326.178
325.592
325
324.401
323.793
323.176
322.549
321.912
321.263
320.602
319.928
319.242
318.542
317.828
317.101
316.36
315.606
378.357
378.619
378.885
379.153
379.424
379.696
379.969
380.241
380.512
380.781
381.046
381.306
381.561
381.808
382.047
382.276
382.494
382.7
382.89
383.066
383.224
383.363
383.481
383.578
383.65
383.699
383.719
383.711
383.677
383.61
383.512
383.38
383.214
383.013
382.775
382.5
382.188
381.837
381.447
381.018
380.549
380.041
379.494
378.91
378.284
377.62
376.92
376.186
375.426
374.634
373.811
372.956
372.076
371.176
370.255
369.312
368.346
367.358
366.352
365.334
364.306
363.269
362.223
361.172
360.117
359.063
358.011
356.964
355.922
354.889
353.866
352.856
351.859
350.879
349.917
348.971
348.042
347.136
346.253
345.389
344.542
343.72
342.925
342.148
341.39
340.656
339.948
339.256
338.581
337.922
337.28
336.654
336.043
335.446
334.862
334.289
333.727
333.176
332.633
332.098
331.569
331.044
330.523
330.001
329.476
328.953
328.433
327.909
327.377
326.839
326.295
325.746
325.189
324.625
324.051
323.469
322.876
322.272
321.657
321.031
320.392
319.741
319.077
318.401
317.711
317.009
316.295
381.259
381.526
381.794
382.062
382.329
382.594
382.857
383.116
383.37
383.618
383.858
384.09
384.312
384.522
384.72
384.903
385.07
385.22
385.35
385.46
385.548
385.612
385.652
385.661
385.646
385.601
385.525
385.416
385.273
385.096
384.883
384.633
384.345
384.018
383.652
383.246
382.8
382.313
381.787
381.219
380.61
379.961
379.277
378.562
377.812
377.026
376.206
375.36
374.488
373.588
372.659
371.7
370.717
369.714
368.693
367.655
366.599
365.53
364.45
363.363
362.27
361.175
360.08
358.987
357.899
356.819
355.748
354.688
353.642
352.612
351.599
350.605
349.632
348.681
347.751
346.844
345.962
345.106
344.273
343.462
342.678
341.919
341.181
340.465
339.775
339.11
338.466
337.839
337.23
336.638
336.061
335.5
334.953
334.418
333.894
333.382
332.879
332.384
331.898
331.417
330.939
330.46
329.98
329.497
329.011
328.527
328.042
327.553
327.057
326.555
326.047
325.531
325.008
324.476
323.934
323.383
322.822
322.25
321.667
321.073
320.467
319.85
319.222
318.582
317.931
317.269
316.597
315.914
383.775
384.036
384.295
384.553
384.807
385.058
385.303
385.541
385.772
385.995
386.206
386.407
386.594
386.766
386.923
387.062
387.182
387.282
387.358
387.412
387.44
387.439
387.414
387.358
387.27
387.15
386.996
386.807
386.582
386.319
386.018
385.678
385.297
384.875
384.414
383.911
383.364
382.777
382.151
381.492
380.795
380.06
379.289
378.489
377.656