/*--------------------------------*- C++ -*----------------------------------*\
| =========                 |                                                 |
| \\      /  F ield         | OpenFOAM: The Open Source CFD Toolbox           |
|  \\    /   O peration     | Version:  v1706                                 |
|   \\  /    A nd           | Web:      www.OpenFOAM.com                      |
|    \\/     M anipulation  |                                                 |
\*---------------------------------------------------------------------------*/
FoamFile
{
    version     2.0;
    format      ascii;
    class       volVectorField;
    location    "3.5e-05";
    object      U;
}
// * * * * * * * * * * * * * * * * * * * * * * * * * * * * * * * * * * * * * //

dimensions      [0 1 -1 0 0 0 0];


internalField   nonuniform List<vector> 
29871
(
(975.414 3.91054 7.10574e-15)
(974.958 4.48299 4.66362e-15)
(974.428 5.13934 4.90192e-15)
(973.826 5.87445 4.08679e-15)
(973.159 6.67422 2.58902e-15)
(972.438 7.52347 3.48753e-15)
(971.681 8.41227 4.43684e-15)
(970.911 9.34027 4.44601e-15)
(970.146 10.3163 4.89727e-15)
(969.392 11.3498 4.78924e-15)
(968.616 12.4721 5.01852e-15)
(967.796 13.6717 6.52105e-15)
(966.847 15.022 5.31041e-15)
(965.633 16.6446 5.61097e-15)
(964.074 18.6305 4.07572e-15)
(962.164 21.0086 2.59871e-15)
(959.964 23.7395 3.34159e-15)
(957.592 26.7443 4.04156e-15)
(955.166 29.9302 4.28541e-15)
(952.76 33.2033 3.9765e-15)
(950.405 36.4868 3.7583e-15)
(948.118 39.7256 3.83648e-15)
(945.912 42.8892 2.59916e-15)
(943.817 45.9322 4.00168e-15)
(941.803 48.9065 5.71776e-15)
(939.715 52.0152 5.4084e-15)
(937.152 55.6067 6.35883e-15)
(934.171 59.7387 3.79715e-15)
(930.995 64.2059 3.31121e-15)
(927.798 68.8307 4.93158e-15)
(924.686 73.4985 4.84106e-15)
(921.72 78.1366 3.19662e-15)
(918.936 82.6938 4.23872e-15)
(916.347 87.1303 6.26434e-15)
(913.948 91.4196 4.31858e-15)
(911.719 95.5513 1.35268e-15)
(909.628 99.5272 9.09332e-16)
(907.647 103.355 3.56172e-15)
(905.752 107.043 3.5728e-15)
(903.929 110.594 4.34357e-15)
(902.175 114.007 4.60125e-15)
(900.499 117.268 5.71947e-15)
(898.914 120.36 5.82844e-15)
(897.435 123.266 3.43218e-15)
(896.079 125.965 2.4725e-15)
(894.859 128.436 3.45018e-15)
(893.792 130.658 2.55865e-15)
(892.886 132.613 -7.81664e-16)
(892.144 134.288 7.74805e-16)
(891.576 135.675 3.58251e-15)
(891.154 136.782 3.6943e-15)
(890.904 137.585 6.40277e-16)
(890.776 138.151 1.52055e-15)
(890.826 138.486 2.68903e-15)
(890.945 138.505 2.41058e-15)
(891.222 138.39 2.62241e-15)
(891.583 138.08 3.53309e-15)
(892.004 137.585 4.30623e-15)
(892.51 136.937 3.37611e-15)
(893.09 136.159 3.20775e-15)
(893.724 135.274 1.31714e-15)
(894.397 134.301 7.49963e-16)
(895.116 133.234 2.03949e-15)
(895.883 132.104 -5.59264e-16)
(896.672 130.913 3.25401e-15)
(897.5 129.648 4.17693e-15)
(898.367 128.331 3.3849e-15)
(899.23 126.997 2.21389e-15)
(900.101 125.624 1.51191e-15)
(901.008 124.202 2.06502e-15)
(901.918 122.773 3.06264e-15)
(902.815 121.334 2.5733e-15)
(903.731 119.856 1.51724e-15)
(904.67 118.352 1.68063e-15)
(905.621 116.844 1.21761e-15)
(906.584 115.325 3.36913e-15)
(907.576 113.772 6.34908e-16)
(908.605 112.176 1.79188e-15)
(909.67 110.539 1.16744e-15)
(910.764 108.868 4.0183e-15)
(911.884 107.167 4.06923e-15)
(913.029 105.437 3.28243e-15)
(914.192 103.679 4.21466e-15)
(915.368 101.896 2.52819e-15)
(916.558 100.089 3.96547e-15)
(917.76 98.2573 4.0174e-15)
(918.977 96.4008 2.79205e-15)
(920.209 94.5193 4.02028e-15)
(921.458 92.6129 5.06914e-15)
(922.723 90.6815 3.94672e-15)
(924.007 88.7245 4.1448e-15)
(925.31 86.7403 2.08431e-15)
(926.635 84.7268 3.61152e-15)
(927.984 82.6812 3.99096e-15)
(929.358 80.6005 2.3973e-15)
(930.76 78.4808 3.04812e-15)
(932.191 76.3183 3.1361e-15)
(933.653 74.1099 3.56735e-15)
(935.146 71.8537 3.74001e-15)
(936.673 69.543 3.41234e-15)
(938.245 67.1655 4.20953e-15)
(939.883 64.7147 3.70667e-15)
(941.583 62.203 1.87537e-15)
(943.319 59.6588 2.88771e-15)
(945.053 57.1172 1.29323e-15)
(957.748 22.9969 1.20944e-14)
(955.463 25.6789 1.23477e-14)
(952.926 28.6347 1.38214e-14)
(949.962 32.0284 1.3366e-14)
(946.445 36.0024 1.23456e-14)
(942.341 40.6343 1.41513e-14)
(937.699 45.929 1.31636e-14)
(932.623 51.8262 1.33081e-14)
(927.236 58.2181 1.29096e-14)
(921.618 65.0077 1.21873e-14)
(915.929 71.9849 1.18759e-14)
(909.918 79.3859 1.15458e-14)
(903.464 87.2231 1.24465e-14)
(896.337 95.7122 8.83737e-15)
(888.621 104.915 8.07208e-15)
(880.513 114.725 9.50641e-15)
(872.167 125.012 1.15586e-14)
(863.69 135.674 1.03417e-14)
(855.179 146.622 8.34996e-15)
(846.729 157.756 6.90699e-15)
(838.438 168.957 7.27249e-15)
(830.403 180.091 9.01544e-15)
(822.721 191.032 1.03486e-14)
(815.472 201.659 9.59821e-15)
(808.702 211.898 7.3098e-15)
(802.524 221.639 6.87906e-15)
(797.093 230.75 7.5929e-15)
(792.31 239.208 6.8689e-15)
(788.091 247.008 6.97451e-15)
(784.38 254.154 6.19379e-15)
(781.159 260.652 7.83625e-15)
(778.42 266.511 2.84717e-15)
(776.169 271.737 6.30287e-15)
(774.437 276.304 7.78527e-15)
(773.214 280.19 7.5673e-15)
(772.448 283.401 5.55691e-15)
(772.078 285.975 3.63794e-15)
(772.046 287.971 6.37352e-15)
(772.307 289.456 3.04149e-15)
(772.821 290.497 4.46204e-15)
(773.556 291.161 3.67488e-15)
(774.477 291.514 2.03012e-15)
(775.545 291.619 2.94246e-15)
(776.725 291.538 3.18506e-15)
(777.981 291.331 2.25097e-15)
(779.281 291.052 3.63234e-15)
(780.592 290.751 3.9908e-15)
(781.885 290.467 4.35487e-16)
(783.137 290.234 2.527e-15)
(784.331 290.075 3.08704e-16)
(785.459 289.993 3.94241e-16)
(786.497 290.029 9.87752e-16)
(787.475 290.106 3.13471e-15)
(788.37 290.319 -5.55325e-16)
(789.02 290.512 1.59658e-15)
(790.164 290.833 -4.35964e-16)
(790.814 291.356 8.66637e-16)
(791.156 291.599 -5.46116e-16)
(791.666 291.911 -2.1875e-15)
(792.188 292.247 -1.27597e-15)
(792.671 292.546 -9.78317e-16)
(793.092 292.812 -1.0584e-15)
(793.456 293.101 1.5393e-16)
(793.819 293.255 2.56311e-16)
(794.178 293.316 1.474e-15)
(794.445 293.466 1.50372e-15)
(794.657 293.558 1.1666e-15)
(794.929 293.457 3.37084e-15)
(795.19 293.378 4.23291e-15)
(795.379 293.346 2.72231e-15)
(795.573 293.178 4.93293e-15)
(795.803 292.922 1.53449e-15)
(795.984 292.73 2.61545e-15)
(796.099 292.557 4.44359e-15)
(796.223 292.315 2.44041e-15)
(796.398 292.013 3.67629e-15)
(796.606 291.693 2.04326e-15)
(796.831 291.363 2.61681e-15)
(797.084 290.998 2.60494e-15)
(797.392 290.587 3.51384e-15)
(797.773 290.132 2.00987e-15)
(798.226 289.642 1.25087e-15)
(798.733 289.121 1.53111e-15)
(799.276 288.571 2.3433e-15)
(799.847 287.993 2.12082e-15)
(800.441 287.386 2.9175e-15)
(801.056 286.75 2.59958e-15)
(801.693 286.084 2.09882e-15)
(802.354 285.386 3.10276e-15)
(803.043 284.656 3.30648e-15)
(803.764 283.892 2.6654e-15)
(804.522 283.091 3.32121e-15)
(805.32 282.25 5.73868e-15)
(806.163 281.365 4.96416e-15)
(807.052 280.431 4.68798e-15)
(807.992 279.441 4.00974e-15)
(808.985 278.384 5.13523e-15)
(810.037 277.242 4.62455e-15)
(811.157 275.987 5.3527e-15)
(812.349 274.606 1.29982e-15)
(813.612 273.106 4.85817e-15)
(815.031 271.415 5.8222e-15)
(816.78 269.376 3.9154e-15)
(819.015 266.833 3.83668e-15)
(821.815 263.699 2.5309e-15)
(916.97 66.1987 2.38098e-14)
(910.063 74.0987 2.29318e-14)
(902.66 82.5963 1.80613e-14)
(894.654 91.6763 2.16269e-14)
(885.794 101.527 2.25544e-14)
(876.088 112.261 1.97151e-14)
(865.692 123.834 1.98615e-14)
(854.776 136.149 1.95443e-14)
(843.503 149.081 2.04057e-14)
(832.039 162.475 1.85374e-14)
(820.552 176.151 1.66948e-14)
(809.224 189.892 1.47965e-14)
(798.238 203.482 1.35143e-14)
(787.916 216.63 1.63736e-14)
(778.495 229.018 1.677e-14)
(770.034 240.443 1.55475e-14)
(762.558 250.765 1.48559e-14)
(756.06 259.913 1.47115e-14)
(750.488 267.895 1.36922e-14)
(745.76 274.793 1.34937e-14)
(741.776 280.739 1.29272e-14)
(738.448 285.879 1.00867e-14)
(735.691 290.368 1.28987e-14)
(733.463 294.31 1.33331e-14)
(731.754 297.775 8.3506e-15)
(730.551 300.769 1.20341e-14)
(729.824 303.263 1.11302e-14)
(729.516 305.33 9.95298e-15)
(729.573 307.047 8.59704e-15)
(729.912 308.46 9.17966e-15)
(730.494 309.602 8.54977e-15)
(731.268 310.508 7.88843e-15)
(732.176 311.228 7.18515e-15)
(733.129 311.875 7.49028e-15)
(734.17 312.636 6.9165e-15)
(735.201 313.594 7.44746e-15)
(736.16 314.7 6.26196e-15)
(737.051 315.854 6.00039e-15)
(737.904 316.965 6.18318e-15)
(738.75 317.965 6.17096e-15)
(739.613 318.811 5.00226e-15)
(740.515 319.473 4.22091e-15)
(741.472 319.936 3.45325e-15)
(742.496 320.197 3.49066e-15)
(743.595 320.265 4.04579e-15)
(744.772 320.161 4.2383e-15)
(746.032 319.908 4.8996e-15)
(747.369 319.539 3.31039e-15)
(748.774 319.091 2.46542e-15)
(750.237 318.598 1.09602e-15)
(751.743 318.092 1.38248e-15)
(753.278 317.601 2.40154e-15)
(754.823 317.161 1.63922e-15)
(756.372 316.765 1.31356e-15)
(757.912 316.448 3.28404e-15)
(759.402 316.202 4.52516e-15)
(760.911 316.026 3.16006e-15)
(762.389 315.942 4.91237e-15)
(763.797 315.902 2.8038e-15)
(765.14 315.926 -3.32495e-16)
(766.454 315.99 1.09748e-15)
(767.843 315.981 -2.27899e-15)
(769.08 316.147 1.441e-15)
(770.571 316.376 8.98398e-18)
(771.597 316.264 -1.69398e-15)
(772.629 316.269 -1.04497e-15)
(773.812 316.383 -3.09145e-16)
(774.953 316.223 -3.63877e-16)
(775.686 316.275 1.28376e-16)
(776.734 316.233 2.65309e-16)
(777.82 316.052 2.56359e-16)
(778.608 315.933 1.47744e-15)
(779.404 315.851 3.15477e-16)
(780.373 315.539 1.06918e-15)
(781.198 315.195 1.76405e-15)
(781.898 314.942 5.36869e-16)
(782.638 314.67 3.2629e-15)
(783.413 314.314 4.34965e-15)
(784.17 313.905 1.81432e-15)
(784.904 313.499 3.32055e-15)
(785.648 313.134 3.81746e-15)
(786.417 312.796 3.39471e-15)
(787.194 312.457 3.40132e-15)
(787.973 312.103 2.41008e-15)
(788.752 311.732 4.62068e-15)
(789.532 311.345 2.68503e-15)
(790.313 310.945 9.2626e-16)
(791.096 310.532 3.87389e-16)
(791.882 310.108 1.08487e-15)
(792.673 309.673 -1.25095e-15)
(793.474 309.227 4.58056e-16)
(794.286 308.77 -1.48914e-15)
(795.112 308.3 1.29839e-16)
(795.953 307.815 1.22449e-15)
(796.811 307.313 1.71476e-15)
(797.684 306.79 1.63191e-15)
(798.573 306.24 1.06933e-15)
(799.476 305.656 3.95295e-15)
(800.393 305.03 4.19605e-15)
(801.315 304.357 4.02012e-15)
(802.242 303.613 4.15892e-15)
(803.195 302.745 4.81e-15)
(804.127 301.87 4.93872e-15)
(805.061 301.302 4.12795e-15)
(806.092 301.145 4.98229e-15)
(807.244 301.368 5.87165e-15)
(821.983 167.546 2.95037e-14)
(809.103 182.189 2.94996e-14)
(796.44 196.833 2.52538e-14)
(784.358 211.139 2.56675e-14)
(773.141 224.737 2.46798e-14)
(762.885 237.376 2.37111e-14)
(753.647 248.891 2.42923e-14)
(745.454 259.19 2.33226e-14)
(738.293 268.247 1.93754e-14)
(732.104 276.117 1.96601e-14)
(726.796 282.904 2.2942e-14)
(722.258 288.755 2.09677e-14)
(718.415 293.777 1.92108e-14)
(715.191 298.153 1.87707e-14)
(712.525 302.044 1.8992e-14)
(710.365 305.537 1.63378e-14)
(708.678 308.66 1.94276e-14)
(707.424 311.375 1.81789e-14)
(706.538 313.635 1.95001e-14)
(705.967 315.408 1.79829e-14)
(705.673 316.688 1.84221e-14)
(705.644 317.5 2.05382e-14)
(705.876 317.905 1.84297e-14)
(706.319 318.028 1.62986e-14)
(706.933 318.149 1.56949e-14)
(707.612 318.509 1.40902e-14)
(708.237 319.112 1.65813e-14)
(708.81 319.844 1.13703e-14)
(709.379 320.613 1.2559e-14)
(709.979 321.365 1.24649e-14)
(710.641 322.045 1.2368e-14)
(711.373 322.626 1.13644e-14)
(712.186 323.061 1.05606e-14)
(713.096 323.265 1.19245e-14)
(714.022 323.433 9.98046e-15)
(715.03 323.586 1.01612e-14)
(716.141 323.773 8.37384e-15)
(717.333 324.027 6.19057e-15)
(718.587 324.342 7.17831e-15)
(719.888 324.696 4.8804e-15)
(721.229 325.062 8.27373e-15)
(722.611 325.417 7.45124e-15)
(724.032 325.746 5.24876e-15)
(725.497 326.03 6.19032e-15)
(727.007 326.257 4.6485e-15)
(728.56 326.421 3.90889e-15)
(730.162 326.513 3.28945e-15)
(731.814 326.52 4.96025e-15)
(733.513 326.45 6.67781e-15)
(735.252 326.311 2.16368e-15)
(737.03 326.096 2.31602e-15)
(738.836 325.821 2.58848e-15)
(740.655 325.511 3.22025e-15)
(742.481 325.156 4.62389e-15)
(744.307 324.773 2.22983e-15)
(746.111 324.399 2.88878e-15)
(747.897 324.027 5.70478e-15)
(749.667 323.648 4.10079e-15)
(751.405 323.29 3.10616e-15)
(753.1 323.012 3.34171e-15)
(754.708 322.729 4.32207e-15)
(756.469 322.394 8.14527e-16)
(758.088 322.214 -2.86846e-16)
(759.923 322.354 3.80182e-16)
(761.357 321.938 7.1844e-17)
(762.774 321.626 5.47114e-16)
(764.394 321.771 7.50363e-17)
(765.974 321.551 -2.74802e-16)
(767.016 321.47 6.97588e-17)
(768.469 321.424 -2.99773e-16)
(770.018 321.381 1.03969e-15)
(771.209 321.29 2.92586e-16)
(772.36 321.272 6.5408e-16)
(773.761 321.145 2.24006e-16)
(775.042 321.015 -1.8034e-15)
(776.158 320.994 4.7131e-16)
(777.317 320.982 1.15486e-15)
(778.521 320.886 1.86448e-15)
(779.677 320.756 2.06585e-15)
(780.762 320.646 3.8954e-15)
(781.79 320.52 6.19456e-16)
(782.778 320.355 6.36957e-16)
(783.743 320.164 -7.96042e-16)
(784.691 319.965 1.58648e-15)
(785.629 319.77 2.02425e-15)
(786.561 319.583 -6.42944e-16)
(787.488 319.407 2.53635e-15)
(788.413 319.243 3.76462e-15)
(789.339 319.094 2.65455e-15)
(790.269 318.963 7.21223e-16)
(791.208 318.852 1.71579e-15)
(792.161 318.763 1.36797e-15)
(793.133 318.697 1.47634e-15)
(794.129 318.655 1.7342e-15)
(795.155 318.635 -1.04246e-15)
(796.216 318.638 -3.89605e-16)
(797.319 318.661 4.39441e-15)
(798.475 318.701 1.69737e-15)
(799.69 318.76 1.43844e-15)
(800.982 318.837 2.52525e-15)
(802.386 318.916 3.10195e-15)
(803.895 319.051 2.54082e-15)
(805.46 319.353 4.12249e-15)
(806.885 319.684 3.71327e-15)
(808.077 319.987 3.24279e-15)
(809.092 320.226 4.02168e-15)
(732.31 267.188 3.23795e-14)
(725.171 275.693 3.21238e-14)
(719.03 282.983 3.1141e-14)
(713.799 289.17 3.00139e-14)
(709.383 294.446 3.14376e-14)
(705.698 298.993 2.759e-14)
(702.645 302.962 2.7871e-14)
(700.122 306.463 2.79893e-14)
(698.069 309.542 2.96388e-14)
(696.44 312.216 2.63192e-14)
(695.179 314.47 2.45751e-14)
(694.232 316.289 2.40277e-14)
(693.539 317.707 2.39316e-14)
(693.067 318.769 2.21654e-14)
(692.814 319.51 2.21036e-14)
(692.782 320.006 2.28226e-14)
(692.914 320.369 2.2147e-14)
(693.184 320.822 2.19001e-14)
(693.484 321.504 2.14404e-14)
(693.736 322.36 1.83635e-14)
(693.948 323.277 1.854e-14)
(694.176 324.144 1.82266e-14)
(694.421 324.896 1.93601e-14)
(694.719 325.463 1.99622e-14)
(695.087 325.749 1.43924e-14)
(695.496 325.815 1.52767e-14)
(695.999 325.775 1.46849e-14)
(696.641 325.737 9.96908e-15)
(697.403 325.785 1.24101e-14)
(698.254 325.944 1.40991e-14)
(699.171 326.205 1.38096e-14)
(700.144 326.548 1.40711e-14)
(701.17 326.938 1.27018e-14)
(702.255 327.352 1.27897e-14)
(703.398 327.745 1.36173e-14)
(704.486 327.779 1.18893e-14)
(705.552 327.552 1.22282e-14)
(706.68 327.187 1.09188e-14)
(707.91 326.798 7.67153e-15)
(709.243 326.446 9.04999e-15)
(710.666 326.159 1.17842e-14)
(712.154 325.939 9.44561e-15)
(713.687 325.77 7.66151e-15)
(715.248 325.639 6.28771e-15)
(716.826 325.525 8.62553e-15)
(718.421 325.397 6.44342e-15)
(720.024 325.251 5.32601e-15)
(721.636 325.082 4.23757e-15)
(723.275 324.85 2.69273e-15)
(724.945 324.556 3.67047e-15)
(726.642 324.232 2.25017e-15)
(728.385 323.852 2.70318e-15)
(730.187 323.407 3.3121e-15)
(732.038 322.955 5.40786e-15)
(733.94 322.49 4.23412e-15)
(735.906 321.984 4.05616e-15)
(737.914 321.51 2.81935e-15)
(739.943 321.083 4.48096e-15)
(742.013 320.646 4.73569e-15)
(744.103 320.243 2.40405e-15)
(746.173 319.946 3.60813e-15)
(748.205 319.687 5.11016e-15)
(750.265 319.383 5.14961e-15)
(752.347 319.211 2.64499e-15)
(754.423 319.29 3.21516e-15)
(756.451 319.129 2.17968e-15)
(758.258 318.881 -6.89969e-17)
(760.206 319.136 8.85011e-18)
(762.185 319.107 7.06339e-16)
(763.62 318.806 3.98011e-15)
(765.4 319.069 2.43972e-15)
(767.219 319.226 2.76499e-15)
(768.671 319.13 4.05791e-15)
(770.074 319.149 1.47497e-15)
(771.707 319.257 1.98198e-15)
(773.262 319.353 1.82427e-15)
(774.555 319.393 1.54224e-15)
(775.856 319.54 1.95036e-15)
(777.328 319.571 2.19249e-15)
(778.733 319.579 2.24864e-15)
(780.012 319.632 3.43154e-15)
(781.288 319.694 1.72877e-15)
(782.568 319.727 8.53744e-16)
(783.802 319.737 -1.22111e-16)
(784.981 319.748 2.67769e-15)
(786.127 319.769 2.8604e-15)
(787.251 319.798 2.18515e-15)
(788.353 319.838 2.04165e-15)
(789.433 319.89 3.29307e-15)
(790.494 319.958 1.29299e-15)
(791.536 320.043 2.9486e-15)
(792.56 320.149 3.61202e-15)
(793.568 320.277 1.50013e-15)
(794.562 320.43 2.27958e-15)
(795.545 320.607 1.17287e-15)
(796.52 320.813 2.5681e-16)
(797.493 321.046 1.95025e-16)
(798.469 321.309 1.18558e-15)
(799.459 321.603 -3.86053e-16)
(800.471 321.93 1.10064e-15)
(801.515 322.291 1.87225e-15)
(802.595 322.698 -6.28952e-17)
(803.712 323.189 3.2556e-15)
(804.863 323.721 3.50156e-15)
(806.074 324.267 4.06755e-15)
(807.286 324.797 4.71254e-15)
(808.441 325.295 6.56113e-15)
(690.244 311.233 3.39196e-14)
(688.559 313.714 3.28487e-14)
(687.22 315.756 3.25874e-14)
(686.168 317.355 3.08289e-14)
(685.392 318.544 3.1187e-14)
(684.849 319.414 3.12441e-14)
(684.518 320.025 3.16547e-14)
(684.397 320.447 2.90792e-14)
(684.421 320.818 2.90622e-14)
(684.554 321.328 2.90437e-14)
(684.659 322.024 2.43095e-14)
(684.712 322.834 2.7455e-14)
(684.756 323.642 2.51456e-14)
(684.829 324.373 2.44753e-14)
(684.915 325.028 2.49305e-14)
(685.045 325.577 2.02719e-14)
(685.295 325.923 1.95618e-14)
(685.569 326.16 1.93221e-14)
(685.889 326.376 1.99851e-14)
(686.297 326.64 2.05908e-14)
(686.763 326.985 1.84739e-14)
(687.364 327.461 2.08943e-14)
(687.945 327.966 2.10284e-14)
(688.502 328.474 1.87233e-14)
(689.083 328.944 1.5226e-14)
(689.62 329.109 1.68268e-14)
(690.134 328.965 1.6504e-14)
(690.66 328.611 1.71587e-14)
(691.292 328.178 1.90234e-14)
(692.052 327.777 1.73851e-14)
(692.915 327.468 1.73602e-14)
(693.85 327.255 1.55877e-14)
(694.821 327.144 1.59709e-14)
(695.796 327.101 1.43611e-14)
(696.811 327.059 1.63383e-14)
(697.91 327.044 1.33464e-14)
(699.042 326.945 1.17809e-14)
(700.189 326.704 1.0644e-14)
(701.36 326.372 1.17177e-14)
(702.577 326.001 1.21416e-14)
(703.863 325.625 1.10775e-14)
(705.223 325.291 1.12215e-14)
(706.651 325.011 1.09627e-14)
(708.133 324.788 9.61194e-15)
(709.65 324.632 1.15762e-14)
(711.205 324.499 8.33621e-15)
(712.794 324.364 6.60399e-15)
(714.39 324.265 6.42215e-15)
(716.008 324.146 5.30569e-15)
(717.667 323.942 7.59784e-15)
(719.34 323.733 3.58707e-15)
(721.033 323.513 3.41572e-15)
(722.777 323.182 4.64695e-15)
(724.571 322.809 6.88696e-15)
(726.401 322.462 8.12911e-15)
(728.293 322.023 4.78604e-15)
(730.255 321.528 3.1246e-15)
(732.25 321.116 -1.06883e-15)
(734.3 320.682 -2.0236e-16)
(736.427 320.177 1.36475e-15)
(738.572 319.767 2.21149e-15)
(740.714 319.455 8.10229e-16)
(742.901 319.093 2.34093e-15)
(745.172 318.742 4.07065e-15)
(747.391 318.528 4.85811e-16)
(749.614 318.451 2.21513e-15)
(751.822 318.303 5.97173e-15)
(754.025 318.186 1.61859e-15)
(756.22 317.978 -1.0721e-15)
(758.309 317.928 2.24145e-15)
(760.396 318.271 2.04083e-15)
(762.734 318.309 4.88868e-16)
(764.149 318.063 1.64588e-15)
(766.025 317.985 2.1451e-15)
(768.038 318.217 2.99498e-15)
(769.864 318.412 2.47061e-15)
(771.588 318.33 3.46831e-15)
(772.995 318.538 2.51301e-15)
(774.803 318.643 2.05841e-15)
(776.62 318.828 -9.54727e-16)
(778.203 318.89 6.86038e-17)
(779.704 319.052 2.18044e-15)
(781.331 319.146 1.96739e-15)
(782.929 319.221 9.18834e-16)
(784.408 319.331 -3.86683e-16)
(785.851 319.465 3.10034e-17)
(787.272 319.604 4.68175e-16)
(788.652 319.752 1.79779e-15)
(790.001 319.92 8.68468e-16)
(791.327 320.103 4.05152e-16)
(792.626 320.3 1.03373e-15)
(793.891 320.515 3.56153e-16)
(795.12 320.752 9.24528e-16)
(796.319 321.011 3.35896e-15)
(797.489 321.294 2.39659e-15)
(798.63 321.6 1.33367e-16)
(799.743 321.933 1.56624e-15)
(800.832 322.294 2.63138e-15)
(801.9 322.688 1.65656e-15)
(802.952 323.115 1.80737e-15)
(803.992 323.579 3.64168e-15)
(805.02 324.1 2.51864e-15)
(806.034 324.687 2.31661e-15)
(807.037 325.306 1.9241e-15)
(808.063 325.92 9.34426e-17)
(809.125 326.5 1.90966e-15)
(810.201 327.049 5.24527e-15)
(678.751 319.444 4.04367e-14)
(678.378 319.99 4.04922e-14)
(678.193 320.385 4.01815e-14)
(678.154 320.805 3.60349e-14)
(678.145 321.413 3.87277e-14)
(678.096 322.161 3.68655e-14)
(678.023 322.938 3.82829e-14)
(677.923 323.693 3.74559e-14)
(677.898 324.353 3.77773e-14)
(677.864 324.896 3.4465e-14)
(677.921 325.327 3.2205e-14)
(678.081 325.604 3.24093e-14)
(678.261 325.814 3.35777e-14)
(678.481 326.016 3.07893e-14)
(678.8 326.311 3.08402e-14)
(679.198 326.696 3.06592e-14)
(679.592 327.113 3.02707e-14)
(679.978 327.597 2.92798e-14)
(680.33 327.999 2.86235e-14)
(680.806 328.474 2.74583e-14)
(681.205 328.698 2.6055e-14)
(681.525 328.732 2.56861e-14)
(681.936 328.697 2.64889e-14)
(682.448 328.665 2.31018e-14)
(683.031 328.73 2.43345e-14)
(683.65 328.862 2.6208e-14)
(684.231 329.003 2.50044e-14)
(684.822 329.191 2.39688e-14)
(685.411 329.313 2.26185e-14)
(686.055 329.381 2.15548e-14)
(686.558 329.224 2.05729e-14)
(687.165 328.97 2.05724e-14)
(687.806 328.632 2.10921e-14)
(688.504 328.273 2.10505e-14)
(689.276 327.932 1.93088e-14)
(690.111 327.691 1.56925e-14)
(690.971 327.516 1.36715e-14)
(691.964 327.415 1.38568e-14)
(692.96 327.398 1.40464e-14)
(693.981 327.44 1.48853e-14)
(695.042 327.397 1.46599e-14)
(696.104 327.233 1.45326e-14)
(697.225 327.049 1.26051e-14)
(698.384 326.785 1.44192e-14)
(699.607 326.474 1.40761e-14)
(700.895 326.165 1.50555e-14)
(702.252 325.842 1.32917e-14)
(703.666 325.575 1.28673e-14)
(705.132 325.364 1.32005e-14)
(706.679 325.113 1.1529e-14)
(708.253 324.913 9.23881e-15)
(709.844 324.814 8.70021e-15)
(711.505 324.61 8.27002e-15)
(713.184 324.332 9.13499e-15)
(714.879 324.202 8.07427e-15)
(716.606 323.976 5.25418e-15)
(718.389 323.572 4.72136e-15)
(720.214 323.307 7.07855e-15)
(722.065 323.001 6.32808e-15)
(723.976 322.459 3.37732e-15)
(725.934 322.041 3.92546e-15)
(727.926 321.708 5.55893e-15)
(729.993 321.141 7.99548e-16)
(732.117 320.58 3.75074e-15)
(734.242 320.249 3.49987e-15)
(736.395 319.854 2.81587e-15)
(738.703 319.333 7.32777e-15)
(740.978 318.876 4.05727e-15)
(743.227 318.719 4.46761e-15)
(745.573 318.639 4.55554e-15)
(747.89 318.231 2.10029e-15)
(750.183 317.819 3.23016e-15)
(752.532 317.791 6.61314e-16)
(754.744 318.071 2.26237e-15)
(757.505 318.054 2.40439e-15)
(759.021 317.588 3.36791e-15)
(761.253 317.48 2.40567e-15)
(763.555 317.749 2.95923e-15)
(765.64 317.942 1.49139e-15)
(767.886 317.842 3.70068e-15)
(769.265 317.959 3.494e-15)
(771.405 318.148 4.41236e-15)
(773.427 318.487 3.81857e-15)
(775.411 318.54 4.07672e-15)
(777.038 318.749 5.59336e-15)
(778.952 318.932 3.58159e-15)
(780.9 319.196 4.58229e-15)
(782.587 319.387 2.63883e-15)
(784.27 319.595 1.36369e-15)
(786.02 319.79 1.40409e-15)
(787.647 320.051 1.92439e-15)
(789.219 320.36 2.49571e-15)
(790.786 320.68 1.98301e-15)
(792.33 321.001 -2.3094e-15)
(793.822 321.338 9.9165e-16)
(795.261 321.704 2.01974e-15)
(796.658 322.102 1.86252e-15)
(798.021 322.526 3.25986e-15)
(799.346 322.974 2.51385e-15)
(800.629 323.449 1.66105e-15)
(801.869 323.954 1.37346e-15)
(803.067 324.491 1.79025e-15)
(804.222 325.062 4.09321e-15)
(805.338 325.673 1.43373e-15)
(806.411 326.332 5.69467e-15)
(807.439 327.031 2.18637e-15)
(808.425 327.744 4.93196e-15)
(809.385 328.442 2.20147e-15)
(810.341 329.101 1.15014e-15)
(811.307 329.704 3.05458e-15)
(672.081 324.175 4.57206e-14)
(671.979 324.636 4.79444e-14)
(672.005 324.975 4.65352e-14)
(672.111 325.207 4.60231e-14)
(672.241 325.4 4.72776e-14)
(672.44 325.609 4.71609e-14)
(672.81 325.965 4.76655e-14)
(673.006 326.316 4.37587e-14)
(673.276 326.692 4.60514e-14)
(673.577 327.09 4.40392e-14)
(673.886 327.503 4.28065e-14)
(674.184 327.808 4.25955e-14)
(674.499 327.935 4.08019e-14)
(674.746 327.95 3.76667e-14)
(675.071 327.929 3.73857e-14)
(675.487 327.962 3.81698e-14)
(675.952 328.017 3.91302e-14)
(676.391 328.168 3.75627e-14)
(676.829 328.38 3.548e-14)
(677.259 328.616 3.29201e-14)
(677.691 328.83 3.50959e-14)
(678.108 328.952 3.30691e-14)
(678.572 328.996 3.61539e-14)
(679.043 329.026 3.38027e-14)
(679.542 329.056 2.92727e-14)
(680.097 329.142 2.84414e-14)
(680.642 329.215 2.96555e-14)
(681.246 329.389 3.03672e-14)
(681.836 329.59 2.4625e-14)
(682.434 329.79 2.25231e-14)
(683.031 329.928 2.36701e-14)
(683.638 329.972 2.53622e-14)
(684.21 329.884 2.39742e-14)
(684.822 329.706 2.07882e-14)
(685.502 329.459 2.23631e-14)
(686.238 329.204 2.36224e-14)
(687.011 328.993 2.26801e-14)
(687.92 328.801 2.14514e-14)
(688.851 328.604 1.99488e-14)
(689.823 328.637 2.18474e-14)
(690.846 328.626 1.96953e-14)
(691.826 328.413 1.70063e-14)
(692.91 328.331 1.79605e-14)
(693.996 328.209 1.69012e-14)
(695.154 327.982 1.66367e-14)
(696.351 327.727 1.59773e-14)
(697.623 327.418 1.69994e-14)
(698.947 327.062 1.4327e-14)
(700.348 326.875 1.20724e-14)
(701.836 326.584 1.26177e-14)
(703.335 326.179 1.17026e-14)
(704.896 326.115 1.28195e-14)
(706.545 325.967 9.73976e-15)
(708.119 325.479 1.30588e-14)
(709.865 325.396 1.12235e-14)
(711.599 325.352 1.06391e-14)
(713.269 324.844 1.22865e-14)
(715.161 324.599 9.12339e-15)
(716.981 324.485 1.06007e-14)
(718.822 323.979 1.18271e-14)
(720.813 323.54 8.69413e-15)
(722.742 323.343 9.91561e-15)
(724.797 322.906 7.67137e-15)
(726.862 322.212 7.62403e-15)
(728.937 321.854 3.87774e-15)
(731.093 321.643 8.51455e-15)
(733.335 321.017 6.91029e-15)
(735.584 320.351 3.96394e-15)
(737.804 320.115 6.98457e-15)
(740.145 320.082 7.19433e-15)
(742.507 319.513 3.92475e-15)
(744.781 318.857 2.36678e-15)
(747.207 318.764 2.62981e-15)
(749.449 318.947 4.7425e-15)
(752.27 318.906 -2.67732e-16)
(753.971 318.158 8.46781e-16)
(756.396 318.015 2.08488e-15)
(758.841 318.214 1.36324e-15)
(761.118 318.363 2.00684e-15)
(763.808 318.218 1.57483e-15)
(765.27 318.192 1.25134e-15)
(767.608 318.395 3.44885e-15)
(769.771 318.784 5.52268e-15)
(772.041 318.884 5.3717e-15)
(773.747 319.02 6.6553e-15)
(775.886 319.256 8.10804e-15)
(778.034 319.648 6.63755e-15)
(779.959 319.835 4.70177e-15)
(781.779 320.03 6.87224e-15)
(783.763 320.367 6.8876e-15)
(785.675 320.738 7.68257e-15)
(787.398 321.089 6.88007e-15)
(789.131 321.488 8.31135e-15)
(790.888 321.875 4.71807e-15)
(792.58 322.287 6.01871e-15)
(794.187 322.754 3.33712e-15)
(795.748 323.265 4.16405e-15)
(797.279 323.803 3.10247e-15)
(798.773 324.361 1.89962e-15)
(800.217 324.94 4.4354e-15)
(801.604 325.546 3.64525e-15)
(802.932 326.184 3.08283e-15)
(804.202 326.856 2.29897e-15)
(805.412 327.564 9.63742e-16)
(806.56 328.309 3.41999e-15)
(807.644 329.077 1.8007e-15)
(808.667 329.849 4.04212e-15)
(809.639 330.603 3.76053e-15)
(810.578 331.32 5.27563e-15)
(811.503 331.984 4.02037e-15)
(667.667 326.313 5.37961e-14)
(667.93 326.652 5.31218e-14)
(668.194 327.01 5.09408e-14)
(668.412 327.21 5.31338e-14)
(668.641 327.197 5.26195e-14)
(668.922 327.151 5.09359e-14)
(669.284 327.113 5.00012e-14)
(669.629 327.131 5.21793e-14)
(669.998 327.218 5.04668e-14)
(670.37 327.354 5.0534e-14)
(670.719 327.533 4.84472e-14)
(671.041 327.735 4.62515e-14)
(671.378 327.919 4.68927e-14)
(671.708 328.025 4.34028e-14)
(672.021 328.078 4.57971e-14)
(672.367 328.105 4.42326e-14)
(672.778 328.155 4.2668e-14)
(673.174 328.262 4.22693e-14)
(673.589 328.435 4.04076e-14)
(674.012 328.661 4.05767e-14)
(674.444 328.928 4.19366e-14)
(674.87 329.202 3.81661e-14)
(675.296 329.444 3.60791e-14)
(675.723 329.626 3.64288e-14)
(676.189 329.747 3.48711e-14)
(676.692 329.889 3.4187e-14)
(677.198 330.007 3.17462e-14)
(677.755 330.153 3.26423e-14)
(678.354 330.327 3.46111e-14)
(678.943 330.53 2.98312e-14)
(679.549 330.735 3.20168e-14)
(680.176 330.889 3.09082e-14)
(680.812 330.976 3.27715e-14)
(681.452 330.988 3.0784e-14)
(682.113 330.91 3.00001e-14)
(682.822 330.755 2.90019e-14)
(683.565 330.611 2.78976e-14)
(684.404 330.44 2.71847e-14)
(685.259 330.151 2.59041e-14)
(686.227 330.108 2.56096e-14)
(687.287 330.111 2.49123e-14)
(688.11 329.814 2.32749e-14)
(689.21 329.726 2.27989e-14)
(690.31 329.767 1.90843e-14)
(691.408 329.581 1.81497e-14)
(692.591 329.375 1.9433e-14)
(693.838 329.203 1.99019e-14)
(695.103 328.862 1.75315e-14)
(696.462 328.677 1.81033e-14)
(697.911 328.467 1.8793e-14)
(699.299 327.961 1.98844e-14)
(700.889 327.825 1.77198e-14)
(702.551 327.756 1.52998e-14)
(703.933 327.178 1.60724e-14)
(705.745 326.983 1.64926e-14)
(707.492 327.038 1.50504e-14)
(709.106 326.59 1.20897e-14)
(710.922 326.172 1.34064e-14)
(712.779 326.202 1.18838e-14)
(714.664 325.908 1.48184e-14)
(716.527 325.321 1.01216e-14)
(718.537 325.229 1.0656e-14)
(720.6 324.999 1.16144e-14)
(722.496 324.229 1.10185e-14)
(724.713 323.948 1.06767e-14)
(726.825 323.886 1.0865e-14)
(728.92 323.188 1.04264e-14)
(731.121 322.426 9.60643e-15)
(733.39 322.247 1.02785e-14)
(735.694 322.253 7.71674e-15)
(737.968 321.532 1.06171e-14)
(740.187 320.735 8.52326e-15)
(742.655 320.628 7.6233e-15)
(744.9 320.741 9.08102e-15)
(747.649 320.54 3.93906e-15)
(749.425 319.646 2.18299e-15)
(751.944 319.474 3.71759e-15)
(754.418 319.598 1.85603e-15)
(756.796 319.698 2.92941e-15)
(759.669 319.397 5.22923e-15)
(761.256 319.225 4.10301e-15)
(763.782 319.435 5.14059e-15)
(766.027 319.81 6.08824e-15)
(768.481 319.861 7.20334e-15)
(770.186 319.882 4.83804e-15)
(772.49 320.128 6.03238e-15)
(774.74 320.615 6.33157e-15)
(776.865 320.828 1.06775e-14)
(778.776 320.997 8.50356e-15)
(780.903 321.346 9.62464e-15)
(782.914 321.81 7.84893e-15)
(784.922 322.155 1.0963e-14)
(786.662 322.567 9.15759e-15)
(788.514 322.996 9.36487e-15)
(790.423 323.489 1.00498e-14)
(792.159 323.999 1.00063e-14)
(793.817 324.603 9.3303e-15)
(795.463 325.224 6.23776e-15)
(797.084 325.848 6.04742e-15)
(798.651 326.484 6.15323e-15)
(800.15 327.148 6.27785e-15)
(801.581 327.844 5.90997e-15)
(802.943 328.574 8.10788e-15)
(804.235 329.336 5.24294e-15)
(805.457 330.126 6.16332e-15)
(806.607 330.929 4.77681e-15)
(807.689 331.733 3.6977e-15)
(808.714 332.525 5.32697e-15)
(809.694 333.286 6.46971e-15)
(810.645 334 6.07606e-15)
(664.563 326.524 6.04896e-14)
(664.898 326.604 6.07348e-14)
(665.2 326.726 6.07725e-14)
(665.486 326.871 6.16712e-14)
(665.762 326.978 6.13075e-14)
(666.037 327.02 6.0463e-14)
(666.327 327.026 5.55392e-14)
(666.634 327.047 5.71776e-14)
(666.953 327.113 5.57048e-14)
(667.281 327.232 5.41993e-14)
(667.614 327.406 5.34068e-14)
(667.944 327.63 5.2557e-14)
(668.27 327.89 5.3083e-14)
(668.586 328.141 4.97773e-14)
(668.886 328.359 4.8627e-14)