/*--------------------------------*- C++ -*----------------------------------*\
| =========                 |                                                 |
| \\      /  F ield         | OpenFOAM: The Open Source CFD Toolbox           |
|  \\    /   O peration     | Version:  v1706                                 |
|   \\  /    A nd           | Web:      www.OpenFOAM.com                      |
|    \\/     M anipulation  |                                                 |
\*---------------------------------------------------------------------------*/
FoamFile
{
    version     2.0;
    format      ascii;
    class       volScalarField;
    location    "1.5e-05";
    object      Tv;
}
// * * * * * * * * * * * * * * * * * * * * * * * * * * * * * * * * * * * * * //

dimensions      [0 0 0 1 0 0 0];


internalField   nonuniform List<scalar> 
29871
(
144.4
144.4
144.4
144.4
144.4
144.4
144.4
144.4
144.4
144.4
144.4
144.4
144.4
144.4
144.4
144.4
144.4
144.4
144.4
144.4
144.4
144.4
144.4
144.4
144.4
144.4
144.4
144.4
144.4
144.4
144.4
144.4
144.4
144.4
144.4
144.4
144.4
144.4
144.4
144.4
144.4
144.4
144.4
144.4
144.4
144.4
144.4
144.4
144.4
144.4
144.4
144.4
144.4
144.4
144.4
144.4
144.4
144.4
144.4
144.4
144.4
144.4
144.4
144.4
144.4
144.4
144.4
144.4
144.4
144.4
144.4
144.4
144.4
144.4
144.4
144.4
144.4
144.4
144.4
144.4
144.4
144.4
144.4
144.4
144.4
144.4
144.4
144.4
144.4
144.4
144.4
144.4
144.4
144.4
144.4
144.4
144.4
144.4
144.4
144.4
144.4
144.4
144.4
144.4
144.4
144.4
144.4
144.4
144.4
144.4
144.4
144.4
144.4
144.4
144.4
144.4
144.4
144.4
144.4
144.4
144.4
144.4
144.4
144.4
144.4
144.4
144.4
144.4
144.4
144.4
144.4
144.4
144.4
144.4
144.4
144.4
144.4
144.4
144.4
144.4
144.4
144.4
144.4
144.4
144.4
144.4
144.4
144.4
144.4
144.4
144.4
144.4
144.4
144.4
144.4
144.4
144.4
144.4
144.4
144.4
144.4
144.4
144.4
144.4
144.4
144.4
144.4
144.4
144.4
144.4
144.4
144.4
144.4
144.4
144.4
144.4
144.4
144.4
144.4
144.4
144.4
144.4
144.4
144.4
144.4
144.4
144.4
144.4
144.4
144.4
144.4
144.4
144.4
144.4
144.4
144.4
144.4
144.4
144.4
144.4
144.4
144.4
144.4
144.4
144.4
144.4
144.4
144.4
144.4
144.4
144.4
144.4
144.4
144.4
144.4
144.4
144.4
144.4
144.4
144.4
144.4
144.4
144.4
144.4
144.4
144.4
144.4
144.4
144.4
144.4
144.4
144.4
144.4
144.4
144.4
144.4
144.4
144.4
144.4
144.4
144.4
144.4
144.4
144.4
144.4
144.4
144.4
144.4
144.4
144.4
144.4
144.4
144.4
144.4
144.4
144.4
144.4
144.4
144.4
144.4
144.4
144.4
144.4
144.4
144.4
144.4
144.4
144.4
144.4
144.4
144.4
144.4
144.4
144.4
144.4
144.4
144.4
144.4
144.4
144.4
144.4
144.4
144.4
144.4
144.4
144.4
144.4
144.4
144.4
144.4
144.4
144.4
144.4
144.4
144.4
144.4
144.4
144.4
144.4
144.4
144.4
144.4
144.4
144.4
144.4
144.4
144.4
144.4
144.4
144.4
144.4
144.4
144.4
144.4
144.4
144.4
144.4
144.4
144.4
144.4
144.4
144.4
144.4
144.4
144.4
144.4
144.4
144.4
144.4
144.4
144.4
144.4
144.4
144.4
144.4
144.4
144.4
144.4
144.4
144.4
144.4
144.4
144.4
144.4
144.4
144.4
144.4
144.4
144.4
144.4
144.4
144.4
144.4
144.4
144.4
144.4
144.4
144.4
144.4
144.4
144.4
144.4
144.4
144.4
144.4
144.4
144.4
144.4
144.4
144.4
144.4
144.4
144.4
144.4
144.4
144.4
144.4
144.4
144.4
144.4
144.4
144.4
144.4
144.4
144.4
144.4
144.4
144.4
144.4
144.4
144.4
144.4
144.4
144.4
144.4
144.4
144.4
144.4
144.4
144.4
144.4
144.4
144.4
144.4
144.4
144.4
144.4
144.4
144.4
144.4
144.4
144.4
144.4
144.4
144.4
144.4
144.4
144.4
144.4
144.4
144.4
144.4
144.4
144.4
144.4
144.4
144.4
144.4
144.4
144.4
144.4
144.4
144.4
144.4
144.4
144.4
144.4
144.4
144.4
144.4
144.4
144.4
144.4
144.4
144.4
144.4
144.4
144.4
144.4
144.4
144.4
144.4
144.4
144.4
144.4
144.4
144.4
144.4
144.4
144.4
144.4
144.4
144.4
144.4
144.4
144.4
144.4
144.4
144.4
144.4
144.4
144.4
144.4
144.4
144.4
144.4
144.4
144.4
144.4
144.4
144.4
144.4
144.4
144.4
144.4
144.4
144.4
144.4
144.4
144.4
144.4
144.4
144.4
144.4
144.4
144.4
144.4
144.4
144.4
144.4
144.4
144.4
144.4
144.4
144.4
144.4
144.4
144.4
144.4
144.4
144.4
144.4
144.4
144.4
144.4
144.4
144.4
144.4
144.4
144.4
144.4
144.4
144.4
144.4
144.4
144.4
144.4
144.4
144.4
144.4
144.4
144.4
144.4
144.4
144.4
144.4
144.4
144.4
144.4
144.4
144.4
144.4
144.4
144.4
144.4
144.4
144.4
144.4
144.4
144.4
144.4
144.4
144.4
144.4
144.4
144.4
144.4
144.4
144.4
144.4
144.4
144.4
144.4
144.4
144.4
144.4
144.4
144.4
144.4
144.4
144.4
144.4
144.4
144.4
144.4
144.4
144.4
144.4
144.4
144.4
144.4
144.4
144.4
144.4
144.4
144.4
144.4
144.4
144.4
144.4
144.4
144.4
144.4
144.4
144.4
144.4
144.4
144.4
144.4
144.4
144.4
144.4
144.4
144.4
144.4
144.4
144.4
144.4
144.4
144.4
144.4
144.4
144.4
144.4
144.4
144.4
144.4
144.4
144.4
144.4
144.4
144.4
144.4
144.4
144.4
144.4
144.4
144.4
144.4
144.4
144.4
144.4
144.4
144.4
144.4
144.4
144.4
144.4
144.4
144.4
144.4
144.4
144.4
144.4
144.4
144.4
144.4
144.4
144.4
144.4
144.4
144.4
144.4
144.4
144.4
144.4
144.4
144.4
144.4
144.4
144.4
144.4
144.4
144.4
144.4
144.4
144.4
144.4
144.4
144.4
144.4
144.4
144.4
144.4
144.4
144.4
144.4
144.4
144.4
144.4
144.4
144.4
144.4
144.4
144.4
144.4
144.4
144.4
144.4
144.4
144.4
144.4
144.4
144.4
144.4
144.4
144.4
144.4
144.4
144.4
144.4
144.4
144.4
144.4
144.4
144.4
144.4
144.4
144.4
144.4
144.4
144.4
144.4
144.4
144.4
144.4
144.4
144.4
144.4
144.4
144.4
144.4
144.4
144.4
144.4
144.4
144.4
144.4
144.4
144.4
144.4
144.4
144.4
144.4
144.4
144.4
144.4
144.4
144.4
144.4
144.4
144.4
144.4
144.4
144.4
144.4
144.4
144.4
144.4
144.4
144.4
144.4
144.4
144.4
144.4
144.4
144.4
144.4
144.4
144.4
144.4
144.4
144.4
144.4
144.4
144.4
144.4
144.4
144.4
144.4
144.4
144.4
144.4
144.4
144.4
144.4
144.4
144.4
144.4
144.4
144.4
144.4
144.4
144.4
144.4
144.4
144.4
144.4
144.4
144.4
144.4
144.4
144.4
144.4
144.4
144.4
144.4
144.4
144.4
144.4
144.4
144.4
144.4
144.4
144.4
144.4
144.4
144.4
144.4
144.4
144.4
144.4
144.4
144.4
144.4
144.4
144.4
144.4
144.4
144.4
144.4
144.4
144.4
144.4
144.4
144.4
144.4
144.4
144.4
144.4
144.4
144.4
144.4
144.4
144.4
144.4
144.4
144.4
144.4
144.4
144.4
144.4
144.4
144.4
144.4
144.4
144.4
144.4
144.4
144.4
144.4
144.4
144.4
144.4
144.4
144.4
144.4
144.4
144.4
144.4
144.4
144.4
144.4
144.4
144.4
144.4
144.4
144.4
144.4
144.4
144.4
144.4
144.4
144.4
144.4
144.4
144.4
144.4
144.4
144.4
144.4
144.4
144.4
144.4
144.4
144.4
144.4
144.4
144.4
144.4
144.4
144.4
144.4
144.4
144.4
144.4
144.4
144.4
144.4
144.4
144.4
144.4
144.4
144.4
144.4
144.4
144.4
144.4
144.4
144.4
144.4
144.4
144.4
144.4
144.4
144.4
144.4
144.4
144.4
144.4
144.4
144.4
144.4
144.4
144.4
144.4
144.4
144.4
144.4
144.4
144.4
144.4
144.4
144.4
144.4
144.4
144.4
144.4
144.4
144.4
144.4
144.4
144.4
144.4
144.4
144.4
144.4
144.4
144.4
144.4
144.4
144.4
144.4
144.4
144.4
144.4
144.4
144.4
144.4
144.4
144.4
144.4
144.4
144.4
144.4
144.4
144.4
144.4
144.4
144.4
144.4
144.4
144.4
144.4
144.4
144.4
144.4
144.4
144.4
144.4
144.4
144.4
144.4
144.4
144.4
144.4
144.4
144.4
144.4
144.4
144.4
144.4
144.4
144.4
144.4
144.4
144.4
144.4
144.4
144.4
144.4
144.4
144.4
144.4
144.4
144.4
144.4
144.4
144.4
144.4
144.4
144.4
144.4
144.4
144.4
144.4
144.4
144.4
144.4
144.4
144.4
144.4
144.4
144.4
144.4
144.4
144.4
144.4
144.4
144.4
144.4
144.4
144.4
144.4
144.4
144.4
144.4
144.4
144.4
144.4
144.4
144.4
144.4
144.4
144.4
144.4
144.4
144.4
144.4
144.4
144.4
144.4
144.4
144.4
144.4
144.4
144.4
144.4
144.4
144.4
144.4
144.4
144.4
144.4
144.4
144.4
144.4
144.4
144.4
144.4
144.4
144.4
144.4
144.4
144.4
144.4
144.4
144.4
144.4
144.4
144.4
144.4
144.4
144.4
144.4
144.4
144.4
144.4
144.4
144.4
144.4
144.4
144.4
144.4
144.4
144.4
144.4
144.4
144.4
144.4
144.4
144.4
144.4
144.4
144.4
144.4
144.4
144.4
144.4
144.4
144.4
144.4
144.4
144.4
144.4
144.4
144.4
144.4
144.4
144.4
144.4
144.4
144.4
144.4
144.4
144.4
144.4
144.4
144.4
144.4
144.4
144.4
144.4
144.4
144.4
144.4
144.4
144.4
144.4
144.4
144.4
144.4
144.4
144.4
144.4
144.4
144.4
144.4
144.4
144.4
144.4
144.4
144.4
144.4
144.4
144.4
144.4
144.4
144.4
144.4
144.4
144.4
144.4
144.4
144.4
144.4
144.4
144.4
144.4
144.4
144.4
144.4
144.4
144.4
144.4
144.4
144.4
144.4
144.4
144.4
144.4
144.4
144.4
144.4
144.4
144.4
144.4
144.4
144.4
144.4
144.4
144.4
144.4
144.4
144.4
144.4
144.4
144.4
144.4
144.4
144.4
144.4
144.4
144.4
144.4
144.4
144.4
144.4
144.4
144.4
144.4
144.4
144.4
144.4
144.4
144.4
144.4
144.4
144.4
144.4
144.4
144.4
144.4
144.4
144.4
144.4
144.4
144.4
144.4
144.4
144.4
144.4
144.4
144.4
144.4
144.4
144.4
144.4
144.4
144.4
144.4
144.4
144.4
144.4
144.4
144.4
144.4
144.4
144.4
144.4
144.4
144.4
144.4
144.4
144.4
144.4
144.4
144.4
144.4
144.4
144.4
144.4
144.4
144.4
144.4
144.4
144.4
144.4
144.4
144.4
144.4
144.4
144.4
144.4
144.4
144.4
144.4
144.4
144.4
144.4
144.4
144.4
144.4
144.4
144.4
144.4
144.4
144.4
144.4
144.4
144.4
144.4
144.4
144.4
144.4
144.4
144.4
144.4
144.4
144.4
144.4
144.4
144.4
144.4
144.4
144.4
144.4
144.4
144.4
144.4
144.4
144.4
144.4
144.4
144.4
144.4
144.4
144.4
144.4
144.4
144.4
144.4
144.4
144.4
144.4
144.4
144.4
144.4
144.4
144.4
144.4
144.4
144.4
144.4
144.4
144.4
144.4
144.4
144.4
144.4
144.4
144.4
144.4
144.4
144.4
144.4
144.4
144.4
144.4
144.4
144.4
144.4
144.4
144.4
144.4
144.4
144.4
144.4
144.4
144.4
144.4
144.4
144.4
144.4
144.4
144.4
144.4
144.4
144.4
144.4
144.4
144.4
144.4
144.4
144.4
144.4
144.4
144.4
144.4
144.4
144.4
144.4
144.4
144.4
144.4
144.4
144.4
144.4
144.4
144.4
144.4
144.4
144.4
144.4
144.4
144.4
144.4
144.4
144.4
144.4
144.4
144.4
144.4
144.4
144.4
144.4
144.4
144.4
144.4
144.4
144.4
144.4
144.4
144.4
144.4
144.4
144.4
144.4
144.4
144.4
144.4
144.4
144.4
144.4
144.4
144.4
144.4
144.4
144.4
144.4
144.4
144.4
144.4
144.4
144.4
144.4
144.4
144.4
144.4
144.4
144.4
144.4
144.4
144.4
144.4
144.4
144.4
144.4
144.4
144.4
144.4
144.4
144.4
144.4
144.4
144.4
144.4
144.4
144.4
144.4
144.4
144.4
144.4
144.4
144.4
144.4
144.4
144.4
144.4
144.4
144.4
144.4
144.4
144.4
144.4
144.4
144.4
144.4
144.4
144.4
144.4
144.4
144.4
144.4
144.4
144.4
144.4
144.4
144.4
144.4
144.4
144.4
144.4
144.4
144.4
144.4
144.4
144.4
144.4
144.4
144.4
144.4
144.4
144.4
144.4
144.4
144.4
144.4
144.4
144.4
144.4
144.4
144.4
144.4
144.4
144.401
144.401
144.401
144.401
144.401
144.401
144.401
144.401
144.4
144.4
144.4
144.4
144.4
144.4
144.4
144.4
144.4
144.4
144.4
144.4
144.4
144.4
144.4
144.4
144.4
144.4
144.4
144.4
144.4
144.4
144.4
144.4
144.4
144.4
144.4
144.4
144.4
144.4
144.4
144.4
144.4
144.4
144.4
144.4
144.4
144.4
144.4
144.4
144.4
144.4
144.4
144.4
144.4
144.4
144.4
144.4
144.4
144.4
144.4
144.4
144.4
144.4
144.4
144.4
144.4
144.4
144.4
144.4
144.4
144.4
144.4
144.4
144.4
144.4
144.4
144.4
144.4
144.4
144.4
144.4
144.4
144.4
144.4
144.4
144.401
144.401
144.401
144.401
144.401
144.401
144.401
144.401
144.401
144.401
144.401
144.401
144.401
144.402
144.402
144.402
144.402
144.402
144.402
144.403
144.403
144.403
144.403
144.404
144.404
144.404
144.404
144.405
144.405
144.406
144.406
144.406
144.407
144.407
144.407
144.408
144.408
144.408
144.408
144.4
144.4
144.4
144.4
144.4
144.4
144.4
144.4
144.4
144.4
144.4
144.4
144.4
144.4
144.4
144.4
144.4
144.4
144.4
144.4
144.4
144.4
144.4
144.4
144.4
144.4
144.4
144.4
144.4
144.4
144.4
144.4
144.4
144.4
144.4
144.4
144.4
144.4
144.4
144.4
144.4
144.4
144.4
144.4
144.4
144.4
144.4
144.4
144.4
144.4
144.4
144.4
144.4
144.401
144.401
144.401
144.401
144.401
144.401
144.401
144.401
144.401
144.401
144.402
144.402
144.402
144.402
144.402
144.403
144.403
144.403
144.404
144.404
144.405
144.405
144.405
144.406
144.407
144.407
144.408
144.408
144.409
144.41
144.411
144.412
144.413
144.414
144.416
144.417
144.419
144.421
144.422
144.424
144.427
144.429
144.431
144.433
144.436
144.439
144.441
144.444
144.448
144.452
144.456
144.461
144.465
144.47
144.474
144.478
144.482
144.486
144.489
144.492
144.494
144.496
144.497
144.4
144.4
144.4
144.4
144.4
144.4
144.4
144.4
144.4
144.4
144.4
144.4
144.4
144.4
144.4
144.4
144.4
144.4
144.4
144.4
144.4
144.4
144.4
144.4
144.4
144.4
144.4
144.4
144.4
144.4
144.4
144.4
144.4
144.4
144.4
144.4
144.4
144.4
144.4
144.4
144.4
144.401
144.401
144.401
144.401
144.401
144.401
144.401
144.401
144.402
144.402
144.402
144.402
144.403
144.403
144.403
144.404
144.404
144.405
144.405
144.406
144.407
144.408
144.409
144.41
144.411
144.412
144.414
144.415
144.417
144.418
144.42
144.422
144.425
144.427
144.431
144.434
144.438
144.442
144.446
144.451
144.456
144.462
144.467
144.473
144.48
144.486
144.493
144.501
144.509
144.519
144.531
144.544
144.559
144.575
144.593
144.612
144.631
144.652
144.674
144.697
144.721
144.746
144.772
144.799
144.827
144.856
144.889
144.926
144.967
145.012
145.06
145.107
145.154
145.198
145.24
145.278
145.314
145.346
145.373
145.395
145.41
145.418
144.4
144.4
144.4
144.4
144.4
144.4
144.4
144.4
144.4
144.4
144.4
144.4
144.4
144.4
144.4
144.4
144.4
144.4
144.4
144.4
144.4
144.4
144.4
144.401
144.401
144.401
144.401
144.401
144.401
144.401
144.401
144.402
144.402
144.402
144.402
144.403
144.403
144.404
144.404
144.405
144.405
144.406
144.407
144.408
144.409
144.41
144.411
144.413
144.415
144.417
144.419
144.422
144.425
144.428
144.432
144.436
144.44
144.445
144.45
144.457
144.464
144.472
144.482
144.493
144.504
144.517
144.532
144.547
144.563
144.581
144.599
144.62
144.642
144.667
144.696
144.728
144.764
144.804
144.848
144.895
144.944
144.996
145.05
145.106
145.165
145.225
145.289
145.355
145.428
145.51
145.604
145.712
145.833
145.965
146.106
146.255
146.41
146.569
146.733
146.9
147.071
147.246
147.423
147.602
147.781
147.962
148.147
148.346
148.566
148.806
149.057
149.308
149.549
149.776
149.985
150.175
150.346
150.5
150.634
150.747
150.835
150.894
150.923
144.4
144.4
144.4
144.4
144.4
144.4
144.4
144.401
144.401
144.401
144.401
144.401
144.401
144.401
144.402
144.402
144.402
144.402
144.403
144.403
144.404
144.404
144.405
144.406
144.406
144.407
144.409
144.41
144.411
144.413
144.415
144.417
144.419
144.422
144.425
144.429
144.433
144.437
144.443
144.449
144.456
144.463
144.472
144.481
144.492
144.504
144.518
144.534
144.553
144.574
144.598
144.625
144.656
144.689
144.726
144.766
144.81
144.859
144.914
144.977
145.049
145.13
145.222
145.323
145.434
145.553
145.68
145.814
145.954
146.101
146.253
146.416
146.593
146.79
147.008
147.247
147.505
147.778
148.062
148.353
148.648
148.944
149.24
149.535
149.83
150.124
150.42
150.721
151.036
151.38
151.759
152.17
152.603
153.047
153.494
153.938
154.373
154.799
155.214
155.62
156.019
156.408
156.788
157.158
157.515
157.86
158.199
158.548
158.923
159.317
159.71
160.085
160.432
160.748
161.031
161.282
161.503
161.697
161.863
162
162.103
162.163
162.181
144.402
144.402
144.402
144.403
144.403
144.404
144.405
144.405
144.406
144.407
144.408
144.41
144.411
144.413
144.416
144.418
144.421
144.424
144.428
144.432
144.437
144.443
144.449
144.457
144.465
144.475
144.486
144.499
144.513
144.529
144.548
144.568
144.592
144.618
144.649
144.684
144.724
144.77
144.822
144.88
144.945
145.016
145.095
145.183
145.28
145.391
145.516
145.658
145.818
145.997
146.194
146.409
146.642
146.89
147.151
147.427
147.719
148.033
148.376
148.751
149.158
149.595
150.058
150.539
151.033
151.533
152.033
152.528
153.017
153.499
153.978
154.464
154.973
155.511
156.076
156.656
157.243
157.825
158.396
158.949
159.482
159.992
160.481
160.95
161.402
161.84
162.267
162.686
163.113
163.569
164.056
164.561
165.072
165.575
166.066
166.538
166.992
167.425
167.842
168.245
168.635
169.013
169.378
169.73
170.067
170.389
170.698
171.005
171.33
171.661
171.983
172.285
172.563
172.816
173.041
173.239
173.413
173.564
173.691
173.794
173.868
173.898
173.893
173.858
173.788
144.417
144.42
144.423
144.427
144.432
144.438
144.445
144.452
144.461
144.471
144.483
144.497
144.513
144.531
144.552
144.576
144.604
144.635
144.67
144.711
144.757
144.809
144.87
144.938
145.016
145.105
145.204
145.316
145.44
145.577
145.728
145.896
146.082
146.291
146.524
146.783
147.068
147.38
147.718
148.08
148.463
148.866
149.288
149.733
150.207
150.715
151.259
151.838
152.449
153.085
153.738
154.403
155.071
155.737
156.397
157.05
157.706
158.379
159.078
159.803
160.547
161.3
162.051
162.792
163.514
164.212
164.881
165.52
166.13
166.715
167.281
167.843
168.423
169.02
169.627
170.23
170.819
171.388
171.932
172.448
172.936
173.396
173.832
174.246
174.642
175.022
175.39
175.748
176.103
176.481
176.876
177.272
177.663
178.046
178.418
178.779
179.126
179.46
179.784
180.102
180.413
180.718
181.015
181.304
181.584
181.853
182.11
182.36
182.611
182.858
183.097
183.322
183.532
183.724
183.895
184.045
184.174
184.284
184.374
184.446
184.489
184.492
184.471
184.421
184.341
144.56
144.589
144.623
144.662
144.707
144.76
144.82
144.889
144.968
145.058
145.162
145.28
145.414
145.565
145.736
145.927
146.139
146.372
146.629
146.911
147.222
147.563
147.936
148.343
148.782
149.252
149.752
150.277
150.825
151.393
151.982
152.597
153.242
153.919
154.625
155.359
156.114
156.885
157.664
158.446
159.224
159.995
160.76
161.53
162.316
163.123
163.949
164.788
165.632
166.471
167.299
168.109
168.894
169.653
170.383
171.09
171.786
172.49
173.209
173.938
174.666
175.384
176.084
176.761
177.41
178.027
178.612
179.166
179.691
180.191
180.672
181.145
181.633
182.125
182.612
183.085
183.542
183.981
184.399
184.797
185.173
185.529
185.868
186.193
186.506
186.809
187.103
187.388
187.668
187.951
188.237
188.522
188.803
189.081
189.353
189.62
189.881
190.135
190.382
190.626
190.868
191.105
191.336
191.561
191.779
191.989
192.189
192.385
192.579
192.771
192.959
193.142
193.314
193.474
193.619
193.746
193.853
193.941
194.01
194.063
194.086
194.082
194.053
193.997
193.915
145.583
145.78
146.004
146.257
146.54
146.856
147.203
147.584
148
148.452
148.942
149.47
150.036
150.638
151.274
151.94
152.633
153.347
154.081
154.834
155.609
156.407
157.229
158.073
158.934
159.808
160.689
161.572
162.451
163.321
164.181
165.039
165.902
166.776
167.661
168.553
169.445
170.333
171.21
172.071
172.91
173.724
174.512
175.279
176.041
176.81
177.589
178.371
179.149
179.916
180.667
181.397
182.102
182.779
183.427
184.047
184.644
185.228
185.822
186.423
187.02
187.607
188.181
188.739
189.278
189.797
190.292
190.764
191.213
191.643
192.056
192.455
192.844
193.231
193.615
193.991
194.356
194.709
195.049
195.375
195.686
195.982
196.263
196.532
196.79
197.039
197.279
197.511
197.733
197.949
198.162
198.372
198.582
198.792
199
199.207
199.413
199.617
199.817
200.012
200.204
200.395
200.582
200.765
200.945
201.119
201.287
201.45
201.609
201.767
201.924
202.08
202.234
202.385
202.527
202.658
202.777
202.877
202.957
203.02
203.067
203.091
203.089
203.067
203.018
202.943
151.295
152.052
152.848
153.677
154.535
155.416
156.316
157.233
158.165
159.115
160.081
161.062
162.053
163.051
164.05
165.047
166.036
167.013
167.978
168.936
169.894
170.852
171.81
172.765
173.713
174.649
175.569
176.469
177.346
178.196
179.022
179.835
180.645
181.456
182.265
183.067
183.859
184.635
185.394
186.13
186.842
187.527
188.187
188.826
189.461
190.103
190.745
191.382
192.011
192.629
193.233
193.823
194.395
194.948
195.48
195.994
196.492
196.98
197.468
197.955
198.438
198.914
199.382
199.839
200.285
200.716
201.132
201.53
201.912
202.28
202.636
202.979
203.312
203.635
203.951
204.259
204.558
204.846
205.124
205.391
205.646
205.888
206.119
206.339
206.549
206.749
206.942
207.127
207.303
207.472
207.636
207.795
207.952
208.109
208.266
208.424
208.584
208.745
208.905
209.061
209.216
209.37
209.524
209.676
209.827
209.976
210.121
210.264
210.405
210.545
210.685
210.825
210.966
211.105
211.238
211.364
211.481
211.581
211.662
211.726
211.774
211.807
211.813
211.801
211.764
211.702
211.616
211.503
164.118
165.266
166.414
167.556
168.69
169.809
170.912
172
173.078
174.147
175.207
176.256
177.291
178.309
179.306
180.28
181.227
182.147
183.041
183.919
184.787
185.647
186.495
187.33
188.148
188.949
189.729
190.486
191.218
191.923
192.605
193.275
193.946
194.613
195.272
195.921
196.559
197.185
197.8
198.399
198.981
199.545
200.092
200.625
201.152
201.679
202.205
202.73
203.25
203.764
204.271
204.771
205.259
205.734
206.196
206.646
207.085
207.518
207.946
208.368
208.786
209.199
209.606
210.005
210.395
210.774
211.139
211.49
211.827
212.154
212.469
212.774
213.069
213.352
213.626
213.889
214.143
214.387
214.621
214.845
215.059
215.263
215.455
215.637
215.809
215.971
216.126
216.274
216.416
216.551
216.681
216.807
216.93
217.051
217.173
217.296
217.422
217.55
217.679
217.807
217.933
218.06
218.188
218.318
218.449
218.58
218.71
218.84
218.97
219.101
219.232
219.365
219.498
219.63
219.758
219.882
220.001
220.106
220.193
220.264
220.318
220.36
220.38
220.377
220.353
220.305
220.232
220.133
179.719
180.872
182
183.101
184.171
185.21
186.217
187.197
188.158
189.101
190.026
190.931
191.814
192.674
193.51
194.322
195.107
195.865
196.597
197.319
198.032
198.734
199.422
200.097
200.758
201.405
202.038
202.657
203.258
203.84
204.406
204.96
205.512
206.06
206.605
207.145
207.68
208.209
208.732
209.247
209.751
210.242
210.723
211.195
211.662
212.125
212.588
213.051
213.511
213.967
214.42
214.867
215.305
215.733
216.151
216.558
216.958
217.355
217.746
218.131
218.509
218.883
219.251
219.613
219.966
220.311
220.645
220.965
221.272
221.567
221.852
222.127
222.392
222.647
222.891
223.126
223.351
223.565
223.77
223.965
224.151
224.326
224.49
224.643
224.784
224.916
225.04
225.158
225.269
225.376
225.478
225.577
225.672
225.767
225.862
225.958
226.056
226.157
226.259
226.363
226.468
226.575
226.684
226.797
226.912
227.03
227.149
227.27
227.393
227.517
227.644
227.772
227.902
228.03
228.156
228.28
228.401
228.51
228.604
228.685
228.749
228.797
228.832
228.837
228.824
228.788
228.728
228.64
194.481
195.453
196.399
197.314
198.2
199.055
199.881
200.683
201.471
202.243
202.995
203.728
204.442
205.138
205.817
206.479
207.124
207.75
208.356
208.951
209.538
210.117
210.689
211.254
211.811
212.361
212.905
213.44
213.962
214.472
214.97
215.459
215.944
216.428
216.909
217.389
217.866
218.34
218.811
219.276
219.732
220.177
220.614
221.046
221.475
221.9
222.324
222.749
223.172
223.592
224.009
224.423
224.832
225.233
225.624
226.004
226.377
226.746
227.112
227.471
227.824
228.172
228.516
228.854
229.186
229.51
229.824
230.126
230.415
230.69
230.954
231.206
231.448
231.68
231.902
232.114
232.316
232.508
232.689
232.861
233.023
233.175
233.315
233.444
233.561
233.667
233.766
233.858
233.944
234.025
234.103
234.177
234.25
234.321
234.392
234.465
234.54
234.618
234.699
234.782
234.868
234.957
235.051
235.149
235.252
235.358
235.468
235.581
235.698
235.817
235.939
236.064
236.191
236.317
236.442
236.566
236.688
236.799
236.898
236.988
237.061
237.117
237.162
237.177
237.17
237.143
237.093
237.015
236.909
208.084
208.851
209.596
210.32
211.024
211.706
212.37
213.02
213.657
214.282
214.895
215.498
216.089
216.672
217.245
217.806
218.354
218.887
219.408
219.922
220.431
220.937
221.439
221.936
222.43
222.92
223.404
223.877
224.338
224.79
225.236
225.68
226.123
226.563
227.004
227.443
227.881
228.318
228.753
229.181
229.599
230.009
230.415
230.817
231.216
231.615
232.015
232.413
232.81
233.205
233.599
233.99
234.377
234.756
235.125
235.483
235.836
236.184
236.525
236.861
237.192
237.518
237.84
238.156
238.465
238.764
239.053
239.329
239.592
239.84
240.077
240.302
240.516
240.719
240.912
241.094
241.266
241.427
241.578
241.719
241.849
241.968
242.076
242.171
242.255
242.331
242.4
242.462
242.52
242.575
242.626
242.676
242.726
242.775
242.827
242.881
242.938
242.999
243.064
243.132
243.205
243.284
243.369
243.46
243.557
243.658
243.764
243.874
243.987
244.105
244.227
244.35
244.474
244.597
244.721
244.84
244.95
245.054
245.15
245.228
245.289
245.341
245.363
245.358
245.338
245.294
245.223
245.124
219.133
219.786
220.426
221.053
221.667
222.267
222.85
223.418
223.975
224.524
225.065
225.601
226.129
226.652
227.169
227.677
228.171
228.651
229.122
229.588
230.051
230.511
230.97
231.427
231.882
232.335
232.785
233.227
233.659
234.083
234.501
234.916
235.33
235.743
236.156
236.57
236.984
237.399
237.814
238.226
238.633
239.033
239.427
239.816
240.199
240.582
240.966
241.349
241.731
242.111
242.492
242.871
243.248
243.62
243.982
244.335
244.681
245.02
245.351
245.675
245.994
246.308
246.617
246.92
247.216
247.502
247.779
248.045
248.297
248.535
248.759
248.97
249.169
249.355
249.53
249.694
249.847
249.989
250.12
250.24
250.35
250.448
250.535
250.609
250.673
250.727
250.773
250.813
250.849
250.88
250.91
250.938
250.966
250.995
251.026
251.061
251.099
251.141
251.188
251.24
251.298
251.362
251.434
251.513
251.599
251.692
251.79
251.893
252
252.113
252.23
252.349
252.468
252.589
252.709
252.824
252.932
253.035
253.132
253.211
253.275
253.329
253.351
253.348
253.33
253.289
253.221
253.124
229.796
230.367
230.93
231.484
232.025
232.55
233.059
233.56
234.054
234.544
235.03
235.512
235.991
236.466
236.935
237.395
237.843
238.281
238.715
239.145
239.573
240
240.426
240.853
241.28
241.706
242.13
242.549
242.961
243.367
243.767
244.165
244.561
244.958
245.355
245.754
246.153
246.554
246.956
247.356
247.752
248.142
248.526
248.905
249.282
249.657
250.031
250.404
250.776
251.146
251.516
251.885
252.251
252.609
252.959
253.302
253.637
253.962
254.279
254.589
254.893
255.192
255.483
255.767
256.042
256.307
256.561
256.803
257.031
257.243
257.442
257.626
257.797
257.955
258.101
258.236
258.358
258.469
258.568
258.657
258.734
258.8
258.854
258.897
258.929
258.953
258.971
258.984
258.994
259.002
259.009
259.016
259.024
259.036
259.051
259.07
259.094
259.124
259.16
259.202
259.252
259.31
259.377
259.452
259.535
259.624
259.719
259.82
259.926
260.036
260.148
260.262
260.377
260.491
260.599
260.702
260.801
260.892
260.967
261.028
261.079
261.095
261.091
261.071
261.029
260.958
260.858
239.636
240.149
240.655
241.152
241.637
242.107
242.568
243.024
243.475
243.924
244.37
244.814
245.257
245.699
246.137
246.567
246.991
247.408
247.82
248.228
248.636
249.043
249.451
249.86
250.27
250.68
251.09
251.496
251.897
252.294
252.686
253.076
253.465
253.854
254.243
254.634
255.026
255.419
255.813
256.205
256.595
256.979
257.358
257.733
258.106
258.475
258.843
259.209
259.573
259.936
260.298
260.656
261.01
261.357
261.697
262.028
262.349
262.661
262.964
263.261
263.55
263.831
264.103
264.366
264.619
264.861
265.091
265.308
265.508
265.694
265.864
266.019
266.161
266.29
266.405
266.508
266.598
266.677
266.744
266.8
266.844
266.877
266.898
266.909
266.911
266.907
266.898
266.885
266.87
266.856
266.842
266.83
266.821
266.818
266.819
266.825
266.838
266.857
266.884
266.919
266.963
267.017
267.079
267.15
267.229
267.315
267.406
267.504
267.605
267.709
267.814
267.92
268.024
268.123
268.217
268.306
268.386
268.451
268.505
268.543
268.549
268.54
268.514
268.463
268.383
268.274
268.137
267.966
248.352
248.824
249.291
249.755
250.213
250.661
251.101
251.534
251.962
252.386
252.808
253.229
253.65
254.071
254.491
254.91
255.324
255.734
256.139
256.541
256.94
257.337
257.735
258.134
258.534
258.934
259.336
259.738
260.137
260.533
260.926
261.315
261.702
262.088
262.474
262.86
263.246
263.634
264.022
264.41
264.797
265.182
265.561
265.937
266.309
266.676
267.041
267.403
267.763
268.12
268.475
268.827
269.175
269.517
269.853
270.18
270.497
270.803
271.101
271.389
271.669
271.94
272.201
272.452
272.692
272.922
273.138
273.341
273.529
273.701
273.856
273.996
274.12
274.231
274.327
274.409
274.479
274.536
274.581
274.614
274.636
274.647
274.645
274.635
274.616
274.589
274.558
274.522
274.485
274.448
274.413
274.38
274.351
274.328
274.31
274.299
274.297
274.3
274.31
274.329
274.358
274.397
274.445
274.503
274.569
274.643
274.723
274.808
274.898
274.989
275.083
275.176
275.267
275.352
275.432
275.506
275.57
275.621
275.659
275.675
275.671
275.65
275.609
275.543
275.447
275.323
275.17
274.984
256.62
257.061
257.501
257.939
258.374
258.806
259.233
259.654
260.07
260.482
260.892
261.3
261.708
262.116
262.524
262.933
263.34
263.746
264.15
264.549
264.946
265.341
265.735
266.129
266.524
266.919
267.315
267.712
268.109
268.505
268.898
269.288
269.676
270.062
270.446
270.83
271.214
271.598
271.982
272.366
272.75
273.132
273.51
273.886
274.257
274.623
274.986
275.344
275.7
276.052
276.401
276.746
277.087
277.423
277.753
278.074
278.385
278.686
278.976
279.257
279.527
279.787
280.037
280.275
280.502
280.717
280.919
281.107
281.28
281.437
281.577
281.7
281.806
281.898
281.974
282.035
282.083
282.118
282.14
282.15
282.148
282.136
282.114
282.081
282.039
281.99
281.935
281.877
281.817
281.757
281.7
281.646
281.596
281.552
281.516
281.486
281.465
281.451
281.447
281.45
281.462
281.484
281.517
281.559
281.61
281.668
281.733
281.804
281.878
281.954
282.031
282.108
282.18
282.247
282.309
282.362
282.404
282.434
282.446
282.441
282.42
282.377
282.313
282.224
282.106
281.959
281.783
281.576
264.929
265.351
265.771
266.191
266.61
267.026
267.44
267.85
268.257
268.662
269.064
269.466
269.868
270.269
270.671
271.074
271.476
271.878
272.277
272.675
273.07
273.463
273.856
274.249
274.641
275.034
275.428
275.822
276.215
276.608
276.999
277.387
277.773
278.157
278.54
278.921
279.302
279.683
280.063
280.442
280.82
281.196
281.569
281.938
282.302
282.662
283.017
283.368
283.714
284.057
284.395
284.728
285.056
285.378
285.691
285.995
286.288
286.57
286.841
287.102
287.35
287.587
287.812
288.024
288.224
288.41
288.582
288.739
288.879
289.001
289.107
289.195
289.266
289.322
289.362
289.387
289.398
289.395
289.383
289.358
289.323
289.276
289.221
289.156
289.083
289.005
288.924
288.841
288.758
288.678
288.602
288.531
288.466
288.409
288.36
288.32
288.288
288.265
288.251
288.248
288.252
288.266
288.289
288.321
288.361
288.408
288.459
288.514
288.57
288.626
288.68
288.73
288.774
288.81
288.838
288.852
288.851
288.838
288.806
288.755
288.683
288.589
288.47
288.321
288.145
287.939
287.702
272.471
272.884
273.294
273.704
274.113
274.522
274.93
275.337
275.742
276.144
276.545
276.945
277.344
277.742
278.141
278.54
278.94
279.339
279.738
280.136
280.531
280.925
281.318
281.71
282.101
282.492
282.883
283.274
283.664
284.055
284.444
284.831
285.216
285.599
285.98
286.359
286.737
287.114
287.489
287.864
288.237
288.608
288.976
289.34
289.7
290.055
290.406
290.751
291.091
291.426
291.756
292.081
292.399
292.711
293.015
293.309
293.592
293.865
294.125
294.374
294.61
294.833
295.043
295.24
295.423
295.592
295.746
295.885
296.007
296.111
296.198
296.266
296.317
296.35
296.368
296.367
296.357