/*--------------------------------*- C++ -*----------------------------------*\
| =========                 |                                                 |
| \\      /  F ield         | OpenFOAM: The Open Source CFD Toolbox           |
|  \\    /   O peration     | Version:  v1706                                 |
|   \\  /    A nd           | Web:      www.OpenFOAM.com                      |
|    \\/     M anipulation  |                                                 |
\*---------------------------------------------------------------------------*/
FoamFile
{
    version     2.0;
    format      ascii;
    class       volScalarField;
    location    "2e-05";
    object      kappatr;
}
// * * * * * * * * * * * * * * * * * * * * * * * * * * * * * * * * * * * * * //

dimensions      [1 1 -3 -1 0 0 0];


internalField   nonuniform List<scalar> 
30104
(
0.014593
0.014593
0.014593
0.014593
0.014593
0.014593
0.014593
0.014593
0.014593
0.014593
0.014593
0.014593
0.014593
0.014593
0.014593
0.014593
0.014593
0.0145931
0.0145931
0.0145931
0.0145931
0.0145931
0.0145931
0.0145931
0.0145931
0.0145931
0.0145931
0.0145931
0.0145931
0.0145931
0.0145931
0.0145931
0.0145931
0.0145931
0.0145931
0.0145931
0.0145931
0.0145931
0.0145931
0.0145931
0.0145931
0.0145931
0.0145931
0.0145931
0.0145931
0.0145931
0.0145931
0.0145931
0.0145931
0.0145931
0.0145931
0.0145931
0.0145931
0.0145931
0.0145931
0.0145931
0.0145931
0.0145931
0.0145931
0.0145931
0.0145931
0.0145931
0.0145931
0.0145931
0.0145931
0.0145931
0.0145931
0.0145931
0.0145931
0.0145931
0.0145931
0.0145931
0.0145931
0.0145931
0.0145931
0.0145931
0.0145931
0.0145931
0.0145931
0.0145931
0.0145931
0.0145931
0.0145931
0.0145931
0.0145931
0.0145932
0.0145932
0.0145932
0.0145932
0.0145932
0.0145932
0.0145932
0.0145932
0.0145932
0.0145932
0.0145932
0.0145932
0.0145932
0.0145932
0.0145932
0.0145932
0.0145932
0.0145932
0.0145932
0.0145932
0.0145932
0.0145932
0.0145932
0.0145932
0.0145932
0.0145932
0.0145932
0.0145932
0.0145932
0.0145932
0.0145932
0.0145932
0.0145932
0.0145932
0.0145932
0.0145933
0.0145933
0.0145933
0.0145933
0.0145933
0.0145933
0.0145933
0.0145933
0.0145933
0.0145933
0.0145933
0.0145933
0.0145933
0.0145933
0.0145933
0.0145933
0.0145933
0.0145933
0.0145933
0.0145933
0.0145933
0.0145933
0.0145934
0.0145934
0.0145934
0.0145934
0.0145934
0.0145934
0.0145934
0.0145934
0.0145934
0.0145934
0.0145934
0.0145934
0.0145934
0.0145934
0.0145934
0.0145935
0.0145935
0.0145935
0.0145935
0.0145935
0.0145935
0.0145935
0.0145935
0.0145935
0.0145935
0.0145935
0.0145935
0.0145935
0.0145936
0.0145936
0.0145936
0.0145936
0.0145936
0.0145936
0.0145936
0.0145936
0.0145936
0.0145936
0.0145936
0.0145937
0.0145937
0.0145937
0.0145937
0.0145937
0.0145937
0.0145937
0.0145937
0.0145938
0.0145938
0.0145938
0.0145938
0.0145938
0.0145938
0.0145938
0.0145938
0.0145939
0.0145939
0.0145939
0.0145939
0.0145939
0.0145939
0.0145939
0.014594
0.014594
0.014594
0.014594
0.014594
0.0145939
0.014593
0.014593
0.014593
0.014593
0.014593
0.014593
0.014593
0.014593
0.014593
0.014593
0.014593
0.014593
0.014593
0.014593
0.0145931
0.0145931
0.0145931
0.0145934
0.0145934
0.0145934
0.0145934
0.0145934
0.0145934
0.0145934
0.0145934
0.0145934
0.0145934
0.0145934
0.0145934
0.0145934
0.0145934
0.0145934
0.0145934
0.0145934
0.0145934
0.0145934
0.0145935
0.0145935
0.0145935
0.0145935
0.0145935
0.0145935
0.0145935
0.0145935
0.0145935
0.0145935
0.0145935
0.0145935
0.0145936
0.0145936
0.0145936
0.0145936
0.0145936
0.0145936
0.0145936
0.0145936
0.0145936
0.0145937
0.0145937
0.0145937
0.0145937
0.0145937
0.0145937
0.0145937
0.0145937
0.0145938
0.0145938
0.0145938
0.0145938
0.0145938
0.0145938
0.0145938
0.0145938
0.0145939
0.0145939
0.0145939
0.0145939
0.0145939
0.0145939
0.014594
0.014594
0.014594
0.014594
0.014594
0.014594
0.0145941
0.0145941
0.0145941
0.0145941
0.0145941
0.0145941
0.0145942
0.0145942
0.0145942
0.0145942
0.0145942
0.0145943
0.0145943
0.0145943
0.0145943
0.0145943
0.0145944
0.0145944
0.0145944
0.0145944
0.0145945
0.0145945
0.0145945
0.0145945
0.0145946
0.0145946
0.0145946
0.0145946
0.0145947
0.0145947
0.0145947
0.0145948
0.0145948
0.0145948
0.0145949
0.0145949
0.0145949
0.014595
0.014595
0.014595
0.0145951
0.0145951
0.0145951
0.0145952
0.0145952
0.0145952
0.0145953
0.0145953
0.0145954
0.0145954
0.0145955
0.0145955
0.0145955
0.0145956
0.0145956
0.0145957
0.0145957
0.0145958
0.0145958
0.0145959
0.0145959
0.014596
0.014596
0.0145961
0.0145961
0.0145962
0.0145962
0.0145963
0.0145964
0.0145964
0.0145965
0.0145966
0.0145966
0.0145967
0.0145967
0.0145968
0.0145969
0.014597
0.014597
0.0145971
0.0145972
0.0145972
0.0145973
0.0145974
0.0145975
0.0145976
0.0145976
0.0145977
0.0145978
0.0145979
0.014598
0.0145981
0.0145981
0.0145982
0.0145983
0.0145984
0.0145985
0.0145986
0.0145987
0.0145988
0.0145989
0.014599
0.0145992
0.0145993
0.0145994
0.0145995
0.0145996
0.0145998
0.0145999
0.0146
0.0146002
0.0146003
0.0146005
0.0146006
0.0146008
0.0146009
0.0146011
0.0146012
0.0146014
0.0146016
0.0146017
0.0146019
0.0146021
0.0146021
0.0146014
0.014593
0.014593
0.014593
0.014593
0.014593
0.0145931
0.0145931
0.0145931
0.0145931
0.0145931
0.0145931
0.0145931
0.0145931
0.0145931
0.0145932
0.0145932
0.0145942
0.0145942
0.0145942
0.0145942
0.0145942
0.0145943
0.0145943
0.0145943
0.0145943
0.0145943
0.0145944
0.0145944
0.0145944
0.0145944
0.0145944
0.0145945
0.0145945
0.0145945
0.0145945
0.0145946
0.0145946
0.0145946
0.0145947
0.0145947
0.0145947
0.0145947
0.0145948
0.0145948
0.0145948
0.0145949
0.0145949
0.014595
0.014595
0.014595
0.0145951
0.0145951
0.0145952
0.0145952
0.0145952
0.0145953
0.0145953
0.0145954
0.0145954
0.0145955
0.0145955
0.0145956
0.0145956
0.0145957
0.0145957
0.0145958
0.0145958
0.0145959
0.0145959
0.014596
0.0145961
0.0145961
0.0145962
0.0145962
0.0145963
0.0145963
0.0145964
0.0145965
0.0145965
0.0145966
0.0145967
0.0145967
0.0145968
0.0145969
0.0145969
0.014597
0.0145971
0.0145972
0.0145972
0.0145973
0.0145974
0.0145975
0.0145976
0.0145976
0.0145977
0.0145978
0.0145979
0.014598
0.0145981
0.0145982
0.0145983
0.0145984
0.0145985
0.0145986
0.0145987
0.0145988
0.0145989
0.014599
0.0145991
0.0145992
0.0145994
0.0145995
0.0145996
0.0145997
0.0145999
0.0146
0.0146001
0.0146003
0.0146004
0.0146005
0.0146007
0.0146008
0.014601
0.0146011
0.0146013
0.0146015
0.0146016
0.0146018
0.014602
0.0146021
0.0146023
0.0146025
0.0146027
0.0146029
0.014603
0.0146032
0.0146034
0.0146036
0.0146038
0.0146041
0.0146043
0.0146045
0.0146047
0.0146049
0.0146052
0.0146054
0.0146057
0.0146059
0.0146062
0.0146064
0.0146067
0.014607
0.0146073
0.0146075
0.0146078
0.0146081
0.0146085
0.0146088
0.0146091
0.0146094
0.0146098
0.0146101
0.0146105
0.0146108
0.0146112
0.0146116
0.0146119
0.0146123
0.0146127
0.0146131
0.0146135
0.0146139
0.0146143
0.0146148
0.0146152
0.0146156
0.0146161
0.0146165
0.014617
0.0146175
0.0146179
0.0146184
0.0146189
0.0146194
0.01462
0.0146205
0.0146211
0.0146216
0.0146222
0.0146228
0.0146234
0.0146241
0.0146247
0.0146254
0.0146261
0.0146268
0.0146275
0.0146283
0.014629
0.0146298
0.0146306
0.0146314
0.0146323
0.0146331
0.014634
0.0146349
0.0146358
0.0146363
0.0146335
0.0145931
0.0145931
0.0145931
0.0145931
0.0145931
0.0145931
0.0145932
0.0145932
0.0145932
0.0145932
0.0145933
0.0145933
0.0145933
0.0145934
0.0145934
0.0145935
0.0145964
0.0145965
0.0145965
0.0145966
0.0145967
0.0145967
0.0145968
0.0145968
0.0145969
0.014597
0.014597
0.0145971
0.0145972
0.0145972
0.0145973
0.0145974
0.0145975
0.0145975
0.0145976
0.0145977
0.0145978
0.0145979
0.014598
0.0145981
0.0145982
0.0145983
0.0145984
0.0145985
0.0145986
0.0145987
0.0145988
0.014599
0.0145991
0.0145992
0.0145994
0.0145995
0.0145996
0.0145998
0.0145999
0.0146001
0.0146003
0.0146004
0.0146006
0.0146007
0.0146009
0.0146011
0.0146013
0.0146014
0.0146016
0.0146018
0.014602
0.0146022
0.0146023
0.0146025
0.0146027
0.0146029
0.0146031
0.0146033
0.0146035
0.0146037
0.014604
0.0146042
0.0146044
0.0146046
0.0146049
0.0146051
0.0146053
0.0146056
0.0146058
0.0146061
0.0146064
0.0146066
0.0146069
0.0146072
0.0146075
0.0146078
0.0146081
0.0146084
0.0146087
0.014609
0.0146094
0.0146097
0.01461
0.0146104
0.0146107
0.0146111
0.0146115
0.0146119
0.0146122
0.0146126
0.014613
0.0146135
0.0146139
0.0146143
0.0146148
0.0146152
0.0146157
0.0146162
0.0146166
0.0146171
0.0146176
0.0146182
0.0146187
0.0146193
0.0146198
0.0146204
0.014621
0.0146216
0.0146222
0.0146228
0.0146235
0.0146242
0.0146248
0.0146255
0.0146262
0.014627
0.0146277
0.0146285
0.0146292
0.01463
0.0146308
0.0146316
0.0146325
0.0146333
0.0146341
0.014635
0.0146359
0.0146368
0.0146377
0.0146387
0.0146397
0.0146406
0.0146417
0.0146427
0.0146438
0.0146449
0.014646
0.0146472
0.0146484
0.0146496
0.0146509
0.0146522
0.0146535
0.0146549
0.0146563
0.0146577
0.0146592
0.0146607
0.0146622
0.0146638
0.0146654
0.0146671
0.0146688
0.0146705
0.0146722
0.014674
0.0146758
0.0146776
0.0146795
0.0146814
0.0146833
0.0146853
0.0146873
0.0146893
0.0146914
0.0146935
0.0146957
0.0146979
0.0147001
0.0147025
0.0147048
0.0147073
0.0147098
0.0147123
0.014715
0.0147177
0.0147205
0.0147235
0.0147265
0.0147296
0.0147328
0.0147361
0.0147396
0.0147432
0.0147469
0.0147507
0.0147546
0.0147587
0.0147629
0.0147672
0.0147717
0.0147752
0.0147658
0.0145932
0.0145932
0.0145933
0.0145933
0.0145933
0.0145934
0.0145934
0.0145935
0.0145935
0.0145936
0.0145937
0.0145938
0.0145939
0.014594
0.0145941
0.0146024
0.0146026
0.0146027
0.0146029
0.0146031
0.0146032
0.0146034
0.0146036
0.0146038
0.014604
0.0146042
0.0146044
0.0146046
0.0146048
0.014605
0.0146053
0.0146055
0.0146057
0.014606
0.0146063
0.0146065
0.0146068
0.0146071
0.0146074
0.0146077
0.014608
0.0146083
0.0146086
0.014609
0.0146093
0.0146097
0.0146101
0.0146105
0.0146109
0.0146113
0.0146118
0.0146122
0.0146127
0.0146131
0.0146136
0.0146141
0.0146146
0.0146151
0.0146156
0.0146162
0.0146167
0.0146173
0.0146178
0.0146184
0.014619
0.0146196
0.0146202
0.0146208
0.0146214
0.014622
0.0146227
0.0146233
0.014624
0.0146247
0.0146254
0.0146261
0.0146268
0.0146275
0.0146283
0.0146291
0.0146298
0.0146307
0.0146315
0.0146323
0.0146332
0.0146341
0.014635
0.014636
0.0146369
0.0146379
0.0146389
0.01464
0.014641
0.0146421
0.0146432
0.0146444
0.0146455
0.0146467
0.014648
0.0146492
0.0146505
0.0146518
0.0146531
0.0146545
0.0146559
0.0146573
0.0146588
0.0146602
0.0146618
0.0146633
0.0146649
0.0146665
0.0146682
0.0146699
0.0146716
0.0146734
0.0146752
0.0146771
0.014679
0.014681
0.0146831
0.0146852
0.0146873
0.0146896
0.0146918
0.0146942
0.0146966
0.0146991
0.0147016
0.0147042
0.0147068
0.0147095
0.0147123
0.0147151
0.014718
0.014721
0.014724
0.0147271
0.0147302
0.0147334
0.0147366
0.01474
0.0147434
0.0147469
0.0147504
0.014754
0.0147578
0.0147616
0.0147655
0.0147695
0.0147737
0.0147779
0.0147823
0.0147868
0.0147914
0.0147962
0.0148011
0.0148062
0.0148115
0.0148169
0.0148225
0.0148282
0.0148342
0.0148403
0.0148466
0.0148531
0.0148598
0.0148666
0.0148736
0.0148808
0.0148881
0.0148956
0.0149032
0.0149109
0.0149187
0.0149267
0.0149347
0.0149428
0.014951
0.0149593
0.0149678
0.0149764
0.0149851
0.0149939
0.015003
0.0150122
0.0150216
0.0150313
0.0150412
0.0150514
0.0150618
0.0150725
0.0150836
0.015095
0.0151067
0.0151188
0.0151314
0.0151444
0.0151578
0.0151717
0.0151861
0.015201
0.0152164
0.0152324
0.0152491
0.0152661
0.0152839
0.0152578
0.0145936
0.0145937
0.0145937
0.0145938
0.0145938
0.0145939
0.014594
0.0145941
0.0145942
0.0145944
0.0145946
0.0145948
0.014595
0.0145953
0.0145955
0.0145959
0.0146179
0.0146183
0.0146188
0.0146192
0.0146197
0.0146202
0.0146208
0.0146213
0.0146219
0.0146224
0.014623
0.0146236
0.0146242
0.0146248
0.0146254
0.0146261
0.0146268
0.0146275
0.0146282
0.0146289
0.0146297
0.0146305
0.0146313
0.0146321
0.014633
0.0146339
0.0146348
0.0146358
0.0146368
0.0146379
0.014639
0.0146401
0.0146413
0.0146425
0.0146437
0.014645
0.0146463
0.0146477
0.0146491
0.0146505
0.014652
0.0146535
0.0146551
0.0146566
0.0146583
0.0146599
0.0146616
0.0146633
0.0146651
0.0146669
0.0146687
0.0146706
0.0146725
0.0146744
0.0146764
0.0146784
0.0146805
0.0146826
0.0146847
0.0146869
0.0146892
0.0146915
0.0146938
0.0146962
0.0146986
0.0147011
0.0147037
0.0147063
0.0147089
0.0147117
0.0147145
0.0147174
0.0147204
0.0147234
0.0147266
0.0147298
0.0147331
0.0147365
0.01474
0.0147436
0.0147473
0.0147511
0.014755
0.014759
0.0147631
0.0147672
0.0147715
0.0147759
0.0147804
0.014785
0.0147896
0.0147944
0.0147993
0.0148043
0.0148095
0.0148147
0.0148201
0.0148256
0.0148312
0.014837
0.014843
0.0148491
0.0148554
0.0148618
0.0148685
0.0148753
0.0148823
0.0148896
0.014897
0.0149047
0.0149126
0.0149208
0.0149292
0.0149379
0.0149468
0.0149561
0.0149655
0.0149753
0.0149853
0.0149955
0.015006
0.0150167
0.0150277
0.0150388
0.0150501
0.0150616
0.0150732
0.015085
0.0150969
0.0151091
0.0151214
0.015134
0.0151468
0.0151599
0.0151733
0.015187
0.0152011
0.0152155
0.0152303
0.0152455
0.0152613
0.0152774
0.0152941
0.0153114
0.0153292
0.0153476
0.0153665
0.0153862
0.0154064
0.0154273
0.015449
0.0154712
0.0154942
0.0155179
0.0155423
0.0155673
0.015593
0.0156194
0.0156463
0.0156738
0.0157018
0.0157302
0.015759
0.0157881
0.0158174
0.0158469
0.0158767
0.0159068
0.0159371
0.0159678
0.0159987
0.01603
0.0160616
0.0160936
0.016126
0.0161589
0.0161923
0.0162263
0.0162609
0.0162963
0.0163325
0.0163697
0.0164079
0.0164473
0.016488
0.0165301
0.0165738
0.0166194
0.0166661
0.0167163
0.0167658
0.0168287
0.0167945
0.014595
0.014595
0.0145951
0.0145952
0.0145953
0.0145955
0.0145957
0.014596
0.0145963
0.0145967
0.0145971
0.0145976
0.0145982
0.0146567
0.0146579
0.0146592
0.0146605
0.0146619
0.0146633
0.0146647
0.0146662
0.0146678
0.0146693
0.0146709
0.0146726
0.0146743
0.014676
0.0146778
0.0146796
0.0146815
0.0146834
0.0146854
0.0146875
0.0146896
0.0146918
0.0146941
0.0146965
0.0146989
0.0147015
0.0147041
0.0147069
0.0147097
0.0147127
0.0147158
0.0147189
0.0147222
0.0147256
0.0147292
0.0147328
0.0147365
0.0147404
0.0147444
0.0147485
0.0147527
0.014757
0.0147614
0.014766
0.0147706
0.0147754
0.0147803
0.0147853
0.0147904
0.0147956
0.014801
0.0148064
0.014812
0.0148177
0.0148236
0.0148295
0.0148356
0.0148418
0.0148482
0.0148547
0.0148613
0.0148681
0.0148751
0.0148822
0.0148894
0.0148969
0.0149045
0.0149123
0.0149204
0.0149286
0.0149371
0.0149457
0.0149547
0.0149638
0.0149733
0.014983
0.0149929
0.0150032
0.0150137
0.0150245
0.0150357
0.0150472
0.015059
0.0150711
0.0150836
0.0150964
0.0151096
0.0151231
0.015137
0.0151512
0.0151657
0.0151806
0.0151957
0.0152111
0.0152268
0.0152427
0.015259
0.0152755
0.0152923
0.0153095
0.0153271
0.015345
0.0153634
0.0153823
0.0154016
0.0154215
0.0154419
0.0154629
0.0154846
0.0155068
0.0155298
0.0155535
0.0155779
0.0156031
0.015629
0.0156557
0.0156832
0.0157115
0.0157405
0.0157703
0.0158009
0.0158322
0.0158642
0.0158969
0.0159302
0.0159641
0.0159985
0.0160333
0.0160685
0.0161041
0.0161401
0.0161765
0.0162134
0.0162508
0.0162887
0.0163271
0.016366
0.0164056
0.0164457
0.0164866
0.0165281
0.0165704
0.0166136
0.0166577
0.0167028
0.0167491
0.0167966
0.0168455
0.0168959
0.0169479
0.0170016
0.0170572
0.0171146
0.017174
0.0172354
0.0172987
0.017364
0.0174312
0.0175001
0.0175706
0.0176426
0.0177159
0.0177903
0.017865
0.0179388
0.0180119
0.0180839
0.0181551
0.0182253
0.0182945
0.0183628
0.0184301
0.0184968
0.0185623
0.0186276
0.0186916
0.0187555
0.018818
0.0188807
0.0189416
0.0190026
0.0190619
0.0191203
0.0191777
0.019233
0.0192877
0.0193391
0.0193903
0.019437
0.0194838
0.0195262
0.0195779
0.0195458
0.0145994
0.0145994
0.0145994
0.0145994
0.0145997
0.0146
0.0146004
0.014601
0.0146017
0.0146026
0.0146036
0.0146048
0.0146062
0.0147515
0.0147549
0.0147583
0.0147619
0.0147657
0.0147695
0.0147734
0.0147774
0.0147815
0.0147857
0.0147899
0.0147943
0.0147988
0.0148034
0.0148081
0.0148129
0.0148179
0.014823
0.0148282
0.0148337
0.0148393
0.0148451
0.0148511
0.0148574
0.0148639
0.0148706
0.0148776
0.0148849
0.0148925
0.0149003
0.0149084
0.0149169
0.0149257
0.0149347
0.0149442
0.0149539
0.014964
0.0149744
0.0149851
0.0149961
0.0150075
0.0150192
0.0150312
0.0150435
0.0150561
0.0150691
0.0150823
0.0150959
0.0151098
0.0151241
0.0151386
0.0151535
0.0151688
0.0151844
0.0152003
0.0152166
0.0152332
0.0152503
0.0152677
0.0152855
0.0153037
0.0153223
0.0153413
0.0153607
0.0153805
0.0154007
0.0154213
0.0154422
0.0154636
0.0154854
0.0155077
0.0155305
0.0155538
0.0155777
0.0156021
0.0156272
0.0156529
0.0156793
0.0157065
0.0157343
0.015763
0.0157924
0.0158227
0.0158538
0.0158857
0.0159185
0.0159522
0.0159867
0.016022
0.0160581
0.0160951
0.0161328
0.0161713
0.0162104
0.0162502
0.0162905
0.0163313
0.0163726
0.0164145
0.016457
0.0165001
0.0165438
0.0165881
0.0166332
0.0166789
0.0167254
0.0167726
0.0168205
0.0168692
0.0169189
0.0169694
0.0170209
0.0170736
0.0171275
0.0171827
0.0172393
0.0172976
0.0173575
0.0174192
0.0174826
0.0175479
0.0176149
0.0176837
0.017754
0.0178257
0.0178986
0.0179726
0.018047
0.0181206
0.018193
0.0182643
0.0183342
0.0184026
0.0184696
0.0185351
0.0185992
0.0186619
0.0187234
0.0187838
0.0188431
0.0189016
0.0189592
0.019016
0.0190721
0.0191274
0.0191819
0.0192354
0.0192877
0.0193386
0.019388
0.0194357
0.0194814
0.019525
0.0195664
0.0196054
0.0196422
0.0196767
0.0197091
0.0197395
0.0197679
0.0197948
0.01982
0.0198441
0.0198671
0.0198898
0.0199117
0.0199338
0.0199552
0.019977
0.0199981
0.0200195
0.0200399
0.0200604
0.0200797
0.0200986
0.0201161
0.0201325
0.0201475
0.0201609
0.0201731
0.0201831
0.0201921
0.0201993
0.0202053
0.0202106
0.020214
0.0202182
0.0202201
0.020224
0.0202249
0.0202285
0.0202321
0.0202171
0.014615
0.0146139
0.0146131
0.0146125
0.0146124
0.0146125
0.0146129
0.0146136
0.0146147
0.0146163
0.0146182
0.0146205
0.0146233
0.0146265
0.0149739
0.0149824
0.0149912
0.0150003
0.0150096
0.0150191
0.0150289
0.0150389
0.0150491
0.0150596
0.0150702
0.0150811
0.0150923
0.0151037
0.0151155
0.0151275
0.0151399
0.0151526
0.0151658
0.0151793
0.0151933
0.0152077
0.0152226
0.0152381
0.015254
0.0152706
0.0152878
0.0153057
0.0153242
0.0153434
0.0153634
0.015384
0.0154054
0.0154276
0.0154505
0.0154741
0.0154984
0.0155234
0.0155491
0.0155756
0.0156027
0.0156305
0.015659
0.0156881
0.0157179
0.0157483
0.0157794
0.0158111
0.0158434
0.0158764
0.0159101
0.0159444
0.0159794
0.0160151
0.0160515
0.0160887
0.0161266
0.0161653
0.0162047
0.0162449
0.0162859
0.0163277
0.0163703
0.0164136
0.0164577
0.0165024
0.0165477
0.0165936
0.0166401
0.0166872
0.0167349
0.0167833
0.0168325
0.0168823
0.016933
0.0169844
0.0170365
0.0170895
0.0171432
0.0171978
0.0172532
0.0173094
0.0173665
0.0174246
0.0174837
0.017544
0.0176053
0.0176679
0.0177318
0.0177971
0.0178636
0.0179313
0.0180002
0.0180702
0.018141
0.0182123
0.018283
0.0183527
0.0184212
0.0184885
0.0185543
0.0186187
0.0186816
0.0187431
0.0188032
0.0188618
0.0189193
0.0189758
0.0190314
0.0190859
0.0191399
0.0191932
0.0192456
0.019297
0.0193475
0.0193968
0.0194445
0.0194903
0.0195339
0.0195753
0.0196141
0.0196502
0.0196836
0.0197142
0.0197423
0.019768
0.0197915
0.0198131
0.0198335
0.019853
0.019872
0.0198906
0.0199092
0.019928
0.019947
0.0199664
0.019986
0.0200058
0.0200255
0.0200448
0.0200635
0.0200813
0.0200979
0.0201131
0.0201267
0.0201387
0.0201491
0.0201579
0.0201654
0.0201717
0.0201771
0.0201818
0.0201862
0.0201904
0.0201948
0.0201993
0.0202043
0.0202098
0.0202157
0.0202222
0.0202293
0.0202367
0.0202445
0.0202525
0.0202607
0.0202688
0.0202766
0.0202842
0.020291
0.0202976
0.020303
0.0203081
0.0203115
0.020315
0.0203166
0.0203186
0.0203189
0.0203197
0.0203194
0.0203194
0.0203189
0.0203184
0.0203181
0.0203177
0.0203178
0.0203178
0.0203185
0.0203191
0.0203207
0.0203218
0.0203239
0.020327
0.0203258
0.0146656
0.0146609
0.014657
0.0146539
0.0146517
0.0146505
0.0146503
0.0146509
0.0146525
0.0146552
0.014659
0.0146639
0.0146699
0.0146772
0.0154604
0.0154801
0.0155003
0.0155212
0.0155425
0.0155645
0.0155868
0.0156097
0.0156329
0.0156565
0.0156806
0.015705
0.0157298
0.0157551
0.0157809
0.0158071
0.0158339
0.0158613
0.0158893
0.0159181
0.0159476
0.0159781
0.0160094
0.0160417
0.016075
0.0161093
0.0161448
0.0161814
0.0162191
0.0162581
0.0162984
0.0163399
0.0163828
0.0164269
0.0164723
0.0165191
0.0165673
0.0166167
0.0166674
0.0167193
0.0167722
0.016826
0.0168807
0.016936
0.0169921
0.0170488
0.0171061
0.017164
0.0172225
0.0172816
0.0173412
0.0174014
0.0174621
0.0175233
0.017585
0.0176472
0.0177098
0.0177729
0.0178366
0.0179007
0.0179653
0.0180305
0.0180962
0.0181623
0.0182289
0.0182961
0.0183634
0.01843
0.0184958
0.0185606
0.0186243
0.0186868
0.0187479
0.0188076
0.0188659
0.0189228
0.0189782
0.0190321
0.0190848
0.0191362
0.0191864
0.0192355
0.0192837
0.0193308
0.0193769
0.019422
0.0194657
0.0195081
0.0195488
0.0195875
0.0196243
0.0196588
0.0196909
0.0197206
0.0197481
0.0197733
0.0197968
0.019819
0.01984
0.0198601
0.0198797
0.0198989
0.019918
0.0199372
0.0199563
0.0199754
0.0199945
0.0200132
0.0200312
0.0200485
0.0200648
0.0200793
0.0200923
0.0201038
0.0201136
0.0201214
0.0201279
0.0201335
0.0201381
0.0201421
0.0201459
0.0201497
0.0201538
0.0201583
0.0201633
0.0201691
0.0201756
0.0201828
0.0201907
0.0201993
0.0202085
0.0202179
0.0202276
0.020237
0.0202462
0.0202547
0.0202624
0.0202689
0.0202742
0.0202784
0.0202814
0.0202835
0.0202849
0.0202857
0.0202862
0.0202865
0.0202869
0.0202873
0.020288
0.0202889
0.0202903
0.0202921
0.0202945
0.0202973
0.0203007
0.0203044
0.0203086
0.020313
0.0203176
0.0203222
0.0203267
0.020331
0.0203349
0.0203385
0.0203415
0.0203442
0.0203461
0.0203478
0.0203489
0.0203497
0.0203499
0.02035
0.0203495
0.0203491
0.0203482
0.0203476
0.0203466
0.020346
0.0203453
0.0203448
0.0203445
0.0203444
0.0203446
0.0203449
0.0203456
0.0203464
0.0203477
0.0203489
0.0203506
0.0203521
0.020354
0.0203561
0.0203575
0.0148298
0.0148118
0.0147961
0.0147829
0.0147722
0.0147641
0.014759
0.0147568
0.0147573
0.0147603
0.0147662
0.0147752
0.0147872
0.0148022
0.0163947
0.0164323
0.0164708
0.0165101
0.0165501
0.0165907
0.0166319
0.0166736
0.0167158
0.0167585
0.0168018
0.0168455
0.0168898
0.0169345
0.0169798
0.0170258
0.0170725
0.0171201
0.0171685
0.0172177
0.0172676
0.0173183
0.0173697
0.017422
0.0174752
0.0175294
0.0175846
0.017641
0.0176986
0.0177573
0.0178171
0.0178781
0.0179401
0.0180032
0.0180671
0.0181314
0.018196
0.0182608
0.018326
0.0183918
0.0184579
0.0185237
0.0185891
0.0186538
0.0187179
0.018781
0.018843
0.0189035
0.0189624
0.0190196
0.0190749
0.0191285
0.0191802
0.0192301
0.0192782
0.0193246
0.0193693
0.0194123
0.0194537
0.0194937
0.019532
0.0195687
0.0196037
0.0196373
0.0196692
0.0196991
0.0197272
0.0197538
0.0197789
0.0198025
0.0198248
0.0198459
0.0198662
0.0198857
0.0199046
0.019923
0.0199409
0.0199585
0.0199757
0.0199924
0.0200088
0.0200243
0.0200388
0.0200523
0.0200647
0.0200756
0.0200852
0.0200935
0.0201008
0.0201072
0.020113
0.0201183
0.0201236
0.0201288
0.0201342
0.02014
0.0201463
0.0201531
0.0201605
0.0201683
0.0201765
0.0201849
0.0201932
0.0202012
0.0202088
0.0202159
0.020222
0.0202269
0.020231
0.0202342
0.0202365
0.0202381
0.0202393
0.0202403
0.0202412
0.0202421
0.0202431
0.0202445
0.0202464
0.0202488
0.0202519
0.0202556
0.0202599
0.0202648
0.0202702
0.0202758
0.0202816
0.0202874
0.0202929
0.020298
0.0203027
0.0203069
0.0203106
0.0203138
0.0203164
0.0203182
0.0203194
0.0203199
0.02032
0.0203197
0.0203193
0.0203188
0.0203186
0.0203185
0.0203185
0.0203188
0.0203195
0.0203205
0.0203219
0.0203236
0.0203257
0.020328
0.0203307
0.0203335
0.0203364
0.0203393
0.0203421
0.0203449
0.0203474
0.0203498
0.0203519
0.0203539
0.0203555
0.0203569
0.0203579
0.0203588
0.0203593
0.0203595
0.0203596
0.0203594
0.0203591
0.0203587
0.0203582
0.0203578
0.0203574
0.0203573
0.0203571
0.0203572
0.0203574
0.0203579
0.0203585
0.0203593
0.0203604
0.0203616
0.0203631
0.0203645
0.0203663
0.020368
0.0203699
0.0203717
0.0203737
0.0203756
0.0203773
0.0153371
0.0152767
0.0152221
0.0151739
0.0151326
0.0150986
0.015072
0.0150534
0.015043
0.0150409
0.0150451
0.0150568
0.0150765
0.0178166
0.0178702
0.0179242
0.0179785
0.0180332
0.0180884
0.0181439
0.0181996
0.0182552
0.0183106
0.0183656
0.0184204
0.0184751
0.0185295
0.018583
0.0186353
0.0186863
0.0187359
0.0187845
0.0188324
0.01888
0.0189274
0.0189746
0.0190213
0.0190674
0.0191127
0.0191571
0.0192006
0.0192431
0.0192845
0.0193249
0.0193642
0.0194024
0.0194393
0.019475
0.0195099
0.0195441
0.0195777
0.0196106
0.0196426
0.0196737
0.0197041
0.0197332
0.0197606
0.0197861
0.0198098
0.019832
0.0198529
0.0198728
0.0198918
0.0199101
0.0199277
0.0199446
0.019961
0.0199767
0.0199918
0.0200061
0.0200197
0.0200325
0.0200444
0.0200552
0.0200654
0.0200747
0.020083
0.0200904
0.0200974
0.0201039
0.0201101
0.0201161
0.0201222
0.0201285
0.0201349
0.0201414
0.0201482
0.020155
0.0201617
0.0201684
0.0201748
0.0201806
0.0201861
0.0201908
0.0201948
0.0201984
0.0202013
0.0202037
0.0202059
0.0202081
0.0202101
0.0202123
0.0202149
0.0202178
0.020221
0.0202248
0.0202291
0.0202338
0.0202388
0.020244
0.0202493
0.0202545
0.0202592
0.0202635
0.0202675
0.0202708
0.0202734
0.0202757
0.0202776
0.0202783
0.0202788
0.0202792
0.0202792
0.0202792
0.0202793
0.0202795
0.02028
0.0202809
0.0202822
0.020284
0.0202863
0.0202891
0.0202922
0.0202957
0.0202994
0.0203032
0.0203071
0.0203109
0.0203145
0.020318
0.0203213
0.0203242
0.0203269
0.0203291
0.0203308
0.0203319
0.0203325
0.0203325
0.0203323
0.0203319
0.0203316
0.0203315
0.0203315
0.0203317
0.020332
0.0203326
0.0203335
0.0203345
0.0203359
0.0203375
0.0203394
0.0203415
0.0203437
0.0203461
0.0203486
0.0203511
0.0203536
0.020356
0.0203583
0.0203604
0.0203624
0.0203641
0.0203656
0.0203669
0.0203681
0.020369
0.0203696
0.0203701
0.0203704
0.0203705
0.0203706
0.0203705
0.0203705
0.0203704
0.0203704
0.0203705
0.0203707
0.0203711
0.0203717
0.0203725
0.0203734
0.0203745
0.0203758
0.0203773
0.0203788
0.0203806
0.0203824
0.0203844
0.0203864
0.0203885
0.0203906
0.0203928
0.0203948
0.0203969
0.0203991
0.0204005
0.0167311
0.016561
0.016403
0.0162584
0.0161288
0.016016
0.0159211
0.0158451
0.0157888
0.0157533
0.0157376
0.01574
0.015758
0.0193375
0.0193759
0.0194127
0.0194476
0.0194805
0.0195115
0.019541
0.0195693
0.0195965
0.0196226
0.0196473
0.0196708
0.0196933
0.0197152
0.0197369
0.0197586
0.0197801
0.0198013
0.0198219
0.0198413
0.0198594
0.0198759
0.0198911
0.0199052
0.0199185
0.0199312
0.0199432
0.0199548
0.0199659
0.0199765
0.0199866
0.0199965
0.0200063
0.020016
0.0200253
0.0200337
0.0200412
0.0200477
0.0200533
0.0200578
0.0200619
0.0200667
0.0200725
0.0200791
0.0200861
0.0200934
0.0201008
0.0201082
0.0201157
0.020123
0.0201301
0.0201371
0.0201437
0.0201499
0.0201558
0.0201612
0.0201663
0.0201709
0.0201752
0.0201791
0.0201827
0.0201863
0.0201899
0.0201934
0.0201971
0.0202011
0.0202052
0.0202094
0.0202138
0.0202182
0.0202225
0.0202266
0.0202303
0.0202338
0.0202369
0.0202392
0.0202412
0.0202429
0.0202441
0.020245
0.0202461
0.020247
0.0202479
0.0202491
0.0202506
0.0202523
0.0202545
0.020257
0.0202597
0.0202628
0.0202661
0.0202693
0.0202727
0.0202762
0.0202792
0.0202823
0.0202852
0.0202876
0.0202896
0.0202915
0.0202927
0.0202933
0.0202939
0.0202941
0.020294
0.0202942
0.0202945
0.020295
0.0202957
0.0202967
0.0202981
0.0202998
0.0203019
0.0203044
0.0203071
0.0203101
0.0203134
0.0203168
0.0203202
0.0203235
0.0203269
0.0203299
0.0203327
0.0203353
0.0203375
0.0203394
0.0203409
0.0203421
0.0203429
0.0203434
0.0203436
0.0203437
0.0203437
0.0203436
0.0203437
0.020344
0.0203444
0.0203451
0.0203461
0.0203472
0.0203487
0.0203503
0.0203522
0.0203542
0.0203564
0.0203587
0.020361
0.0203634
0.0203658
0.0203681
0.0203703
0.0203725
0.0203745
0.0203764
0.0203781
0.0203796
0.0203809
0.0203821
0.020383
0.0203838
0.0203844
0.0203849
0.0203854
0.0203858
0.0203862
0.0203866
0.0203871
0.0203877
0.0203884
0.0203893
0.0203903
0.0203915
0.0203929
0.0203944
0.0203961
0.0203979
0.0204
0.0204021
0.0204044
0.0204067
0.0204091
0.0204116
0.0204142
0.0204167
0.0204193
0.0204219
0.0204245
0.0204271
0.0204296
0.0204327
0.0204336
0.0193835
0.0190537
0.0187373
0.018438
0.0181613
0.0179127
0.0176967
0.017517
0.0173759
0.0172782
0.0172209
0.0172039
0.0199669
0.0199803
0.0199927
0.0200044
0.0200157
0.0200266
0.0200371
0.020047
0.0200561
0.0200643
0.0200718
0.0200788
0.0200855
0.020092
0.0200981
0.0201031
0.0201065
0.0201087
0.0201105
0.0201124
0.0201146
0.0201172
0.0201201
0.020123
0.0201258
0.0201285
0.0201311
0.0201335
0.0201358
0.0201381
0.0201403
0.0201426
0.0201448
0.0201469
0.020149
0.0201509
0.0201527
0.0201544
0.0201564
0.0201588
0.0201621
0.0201662
0.0201707
0.0201747
0.0201783
0.0201818
0.0201852
0.0201887
0.0201923
0.0201958
0.0201992
0.0202027
0.0202059
0.020209
0.020212
0.0202148
0.0202174
0.0202199
0.0202223
0.0202245
0.0202268
0.0202293
0.0202318
0.0202343
0.0202372
0.0202401
0.0202429
0.0202458
0.0202486
0.0202511
0.0202536
0.0202558
0.0202575
0.0202591
0.0202604
0.0202612
0.0202621
0.020263
0.0202638
0.0202647
0.0202658
0.0202671
0.0202686
0.0202704
0.0202725
0.0202748
0.0202775
0.0202804
0.0202833
0.0202864
0.0202896
0.0202923
0.0202951
0.0202977
0.0202998
0.0203017
0.0203034
0.0203044
0.0203051
0.0203059
0.0203063
0.0203067
0.0203073
0.0203077
0.0203084
0.0203093
0.0203104
0.0203119
0.0203136
0.0203157
0.020318
0.0203207
0.0203236
0.0203265
0.0203296
0.0203328
0.0203359
0.0203387
0.0203415
0.0203442
0.0203465
0.0203484
0.0203503
0.0203519
0.0203532
0.0203541
0.0203549
0.0203555
0.020356
0.0203563
0.0203567
0.0203571
0.0203576
0.0203583
0.0203592
0.0203603
0.0203616
0.0203632
0.0203649
0.0203668
0.0203689
0.0203712
0.0203735
0.0203759
0.0203784
0.0203809
0.0203833
0.0203858
0.0203881
0.0203903
0.0203924
0.0203944
0.0203962
0.0203978
0.0203993
0.0204008
0.020402
0.0204032
0.0204043
0.0204054
0.0204065
0.0204075
0.0204086
0.0204098
0.020411
0.0204124
0.0204139
0.0204156
0.0204174
0.0204194
0.0204216
0.020424
0.0204266
0.0204292
0.0204321
0.020435
0.0204381
0.0204412
0.0204445
0.0204479
0.0204513
0.0204548
0.0204583
0.0204619
0.0204655
0.0204691
0.0204727
0.0204765
0.0204801
0.0204851
0.0204855
0.0236574
0.0232144
0.0227553
0.02229
0.0218298
0.0213868
0.0209731
0.0205999
0.020276
0.0200075
0.0201707
0.020176
0.020181
0.0201856
0.0201895
0.0201926
0.0201948
0.0201967
0.0201985
0.0202001
0.0202016
0.0202029
0.0202039
0.0202047
0.0202054
0.0202059
0.0202062
0.0202064
0.0202068
0.0202078
0.0202092
0.0202105
0.0202112
0.0202113
0.0202112
0.0202109
0.0202105
0.02021
0.0202095
0.020209
0.0202086
0.0202081
0.0202078