/*--------------------------------*- C++ -*----------------------------------*\
| =========                 |                                                 |
| \\      /  F ield         | OpenFOAM: The Open Source CFD Toolbox           |
|  \\    /   O peration     | Version:  v1706                                 |
|   \\  /    A nd           | Web:      www.OpenFOAM.com                      |
|    \\/     M anipulation  |                                                 |
\*---------------------------------------------------------------------------*/
FoamFile
{
    version     2.0;
    format      ascii;
    class       volScalarField;
    location    "2e-05";
    object      Tt;
}
// * * * * * * * * * * * * * * * * * * * * * * * * * * * * * * * * * * * * * //

dimensions      [0 0 0 1 0 0 0];


internalField   nonuniform List<scalar> 
30104
(
144.4
144.4
144.4
144.4
144.4
144.4
144.4
144.4
144.4
144.4
144.4
144.4
144.4
144.4
144.4
144.4
144.4
144.401
144.401
144.401
144.401
144.401
144.401
144.401
144.401
144.401
144.401
144.401
144.401
144.401
144.401
144.401
144.401
144.401
144.401
144.401
144.401
144.401
144.401
144.401
144.401
144.401
144.401
144.401
144.401
144.401
144.401
144.401
144.401
144.401
144.401
144.401
144.401
144.401
144.401
144.401
144.401
144.401
144.401
144.401
144.401
144.401
144.401
144.401
144.401
144.401
144.401
144.401
144.402
144.402
144.402
144.402
144.402
144.402
144.402
144.402
144.402
144.402
144.402
144.402
144.402
144.402
144.402
144.402
144.402
144.402
144.402
144.402
144.402
144.402
144.402
144.402
144.402
144.402
144.402
144.402
144.402
144.402
144.402
144.402
144.402
144.402
144.403
144.403
144.403
144.403
144.403
144.403
144.403
144.403
144.403
144.403
144.403
144.403
144.403
144.403
144.403
144.403
144.403
144.403
144.403
144.403
144.403
144.403
144.404
144.404
144.404
144.404
144.404
144.404
144.404
144.404
144.404
144.404
144.404
144.404
144.404
144.404
144.404
144.404
144.405
144.405
144.405
144.405
144.405
144.405
144.405
144.405
144.405
144.405
144.405
144.405
144.405
144.406
144.406
144.406
144.406
144.406
144.406
144.406
144.406
144.406
144.406
144.407
144.407
144.407
144.407
144.407
144.407
144.407
144.407
144.407
144.408
144.408
144.408
144.408
144.408
144.408
144.408
144.408
144.409
144.409
144.409
144.409
144.409
144.409
144.409
144.41
144.41
144.41
144.41
144.41
144.41
144.411
144.411
144.411
144.411
144.411
144.412
144.412
144.412
144.412
144.412
144.413
144.413
144.413
144.413
144.413
144.413
144.411
144.4
144.4
144.4
144.4
144.4
144.4
144.4
144.4
144.4
144.4
144.4
144.4
144.4
144.401
144.401
144.401
144.401
144.405
144.405
144.405
144.405
144.405
144.405
144.405
144.405
144.405
144.405
144.405
144.405
144.405
144.405
144.406
144.406
144.406
144.406
144.406
144.406
144.406
144.406
144.406
144.406
144.406
144.407
144.407
144.407
144.407
144.407
144.407
144.407
144.407
144.408
144.408
144.408
144.408
144.408
144.408
144.409
144.409
144.409
144.409
144.409
144.409
144.41
144.41
144.41
144.41
144.41
144.41
144.411
144.411
144.411
144.411
144.411
144.411
144.412
144.412
144.412
144.412
144.412
144.413
144.413
144.413
144.413
144.414
144.414
144.414
144.414
144.414
144.415
144.415
144.415
144.415
144.416
144.416
144.416
144.416
144.417
144.417
144.417
144.418
144.418
144.418
144.419
144.419
144.419
144.419
144.42
144.42
144.42
144.421
144.421
144.422
144.422
144.422
144.423
144.423
144.423
144.424
144.424
144.425
144.425
144.426
144.426
144.427
144.427
144.427
144.428
144.428
144.429
144.429
144.43
144.431
144.431
144.432
144.432
144.433
144.433
144.434
144.434
144.435
144.436
144.436
144.437
144.438
144.438
144.439
144.44
144.44
144.441
144.442
144.443
144.443
144.444
144.445
144.446
144.447
144.447
144.448
144.449
144.45
144.451
144.452
144.453
144.454
144.455
144.456
144.457
144.458
144.459
144.46
144.461
144.462
144.463
144.464
144.465
144.466
144.467
144.469
144.47
144.471
144.472
144.474
144.475
144.476
144.478
144.479
144.481
144.482
144.484
144.485
144.487
144.489
144.49
144.492
144.494
144.496
144.498
144.5
144.502
144.504
144.506
144.508
144.51
144.512
144.514
144.517
144.519
144.521
144.521
144.512
144.4
144.4
144.4
144.4
144.401
144.401
144.401
144.401
144.401
144.401
144.401
144.401
144.402
144.402
144.402
144.402
144.416
144.416
144.416
144.416
144.417
144.417
144.417
144.417
144.418
144.418
144.418
144.418
144.419
144.419
144.419
144.42
144.42
144.42
144.421
144.421
144.421
144.422
144.422
144.422
144.423
144.423
144.424
144.424
144.425
144.425
144.426
144.426
144.427
144.427
144.428
144.428
144.429
144.429
144.43
144.431
144.431
144.432
144.432
144.433
144.434
144.434
144.435
144.436
144.436
144.437
144.438
144.439
144.439
144.44
144.441
144.441
144.442
144.443
144.444
144.445
144.445
144.446
144.447
144.448
144.449
144.45
144.451
144.452
144.453
144.453
144.454
144.455
144.457
144.458
144.459
144.46
144.461
144.462
144.463
144.464
144.465
144.467
144.468
144.469
144.471
144.472
144.473
144.475
144.476
144.477
144.479
144.48
144.482
144.483
144.485
144.487
144.488
144.49
144.492
144.493
144.495
144.497
144.499
144.501
144.503
144.505
144.507
144.509
144.511
144.513
144.515
144.517
144.52
144.522
144.524
144.527
144.529
144.532
144.534
144.537
144.539
144.542
144.545
144.548
144.55
144.553
144.556
144.559
144.563
144.566
144.569
144.572
144.576
144.579
144.583
144.587
144.59
144.594
144.598
144.602
144.606
144.611
144.615
144.619
144.624
144.629
144.633
144.638
144.643
144.648
144.653
144.658
144.663
144.669
144.674
144.68
144.685
144.691
144.697
144.702
144.708
144.714
144.72
144.727
144.733
144.74
144.746
144.753
144.76
144.768
144.775
144.783
144.79
144.799
144.807
144.815
144.824
144.833
144.842
144.852
144.861
144.871
144.882
144.892
144.903
144.914
144.925
144.936
144.948
144.96
144.973
144.978
144.941
144.401
144.401
144.401
144.401
144.402
144.402
144.402
144.402
144.403
144.403
144.403
144.404
144.404
144.405
144.405
144.406
144.446
144.447
144.447
144.448
144.449
144.45
144.45
144.451
144.452
144.453
144.454
144.455
144.456
144.456
144.457
144.458
144.459
144.461
144.462
144.463
144.464
144.465
144.466
144.468
144.469
144.47
144.472
144.473
144.475
144.476
144.478
144.48
144.481
144.483
144.485
144.487
144.489
144.491
144.493
144.495
144.497
144.499
144.501
144.503
144.506
144.508
144.51
144.512
144.515
144.517
144.52
144.522
144.525
144.527
144.53
144.532
144.535
144.538
144.541
144.543
144.546
144.549
144.552
144.555
144.558
144.561
144.565
144.568
144.571
144.575
144.578
144.582
144.586
144.59
144.593
144.597
144.601
144.606
144.61
144.614
144.618
144.623
144.628
144.632
144.637
144.642
144.647
144.652
144.657
144.662
144.668
144.673
144.679
144.685
144.691
144.697
144.703
144.709
144.716
144.722
144.729
144.736
144.743
144.751
144.758
144.766
144.774
144.782
144.79
144.799
144.807
144.816
144.825
144.835
144.844
144.854
144.864
144.874
144.884
144.895
144.905
144.916
144.927
144.938
144.95
144.961
144.973
144.985
144.998
145.011
145.024
145.037
145.05
145.064
145.079
145.094
145.109
145.124
145.14
145.157
145.174
145.191
145.209
145.227
145.246
145.265
145.285
145.305
145.326
145.347
145.368
145.39
145.413
145.436
145.459
145.483
145.507
145.532
145.557
145.582
145.608
145.634
145.661
145.688
145.716
145.744
145.773
145.803
145.833
145.864
145.896
145.929
145.962
145.997
146.032
146.069
146.107
146.146
146.186
146.228
146.271
146.315
146.362
146.41
146.459
146.51
146.563
146.618
146.674
146.732
146.792
146.84
146.713
144.403
144.403
144.403
144.404
144.404
144.405
144.405
144.406
144.407
144.408
144.409
144.41
144.411
144.413
144.415
144.526
144.528
144.53
144.532
144.534
144.537
144.539
144.542
144.544
144.547
144.549
144.552
144.555
144.558
144.561
144.564
144.567
144.57
144.574
144.577
144.58
144.584
144.588
144.592
144.596
144.6
144.604
144.609
144.614
144.618
144.623
144.628
144.634
144.639
144.645
144.651
144.656
144.663
144.669
144.675
144.682
144.688
144.695
144.702
144.709
144.717
144.724
144.731
144.739
144.747
144.755
144.763
144.771
144.779
144.788
144.796
144.805
144.814
144.823
144.832
144.842
144.851
144.861
144.871
144.882
144.892
144.903
144.914
144.926
144.937
144.949
144.962
144.974
144.987
145
145.014
145.028
145.042
145.056
145.071
145.087
145.102
145.118
145.135
145.151
145.168
145.186
145.204
145.222
145.241
145.26
145.279
145.299
145.319
145.34
145.361
145.383
145.405
145.427
145.451
145.475
145.499
145.524
145.55
145.577
145.604
145.633
145.662
145.691
145.722
145.753
145.785
145.818
145.852
145.887
145.922
145.959
145.996
146.034
146.073
146.112
146.152
146.194
146.236
146.278
146.322
146.367
146.412
146.459
146.507
146.555
146.605
146.657
146.709
146.763
146.819
146.876
146.934
146.995
147.057
147.121
147.187
147.255
147.326
147.398
147.474
147.551
147.631
147.713
147.798
147.885
147.975
148.067
148.162
148.258
148.357
148.457
148.559
148.663
148.769
148.875
148.984
149.093
149.204
149.316
149.43
149.545
149.663
149.782
149.904
150.029
150.156
150.286
150.42
150.557
150.698
150.843
150.993
151.147
151.305
151.469
151.639
151.815
151.996
152.184
152.379
152.581
152.791
153.008
153.234
153.465
153.706
153.352
144.409
144.409
144.409
144.41
144.411
144.412
144.413
144.415
144.416
144.419
144.421
144.424
144.427
144.43
144.434
144.438
144.732
144.738
144.744
144.751
144.757
144.764
144.771
144.778
144.785
144.793
144.801
144.809
144.817
144.825
144.833
144.842
144.851
144.86
144.87
144.88
144.89
144.9
144.911
144.923
144.934
144.946
144.959
144.972
144.986
145
145.014
145.029
145.045
145.061
145.077
145.095
145.112
145.131
145.149
145.169
145.188
145.209
145.229
145.251
145.272
145.294
145.317
145.34
145.364
145.388
145.412
145.437
145.463
145.489
145.515
145.542
145.57
145.598
145.627
145.656
145.686
145.716
145.748
145.78
145.812
145.846
145.88
145.915
145.951
145.988
146.025
146.064
146.104
146.145
146.187
146.23
146.275
146.32
146.367
146.415
146.465
146.516
146.568
146.621
146.676
146.732
146.789
146.848
146.908
146.97
147.033
147.097
147.163
147.23
147.299
147.369
147.442
147.516
147.592
147.669
147.749
147.831
147.916
148.003
148.092
148.184
148.278
148.376
148.476
148.579
148.686
148.796
148.909
149.026
149.147
149.271
149.399
149.53
149.665
149.803
149.945
150.089
150.237
150.387
150.539
150.694
150.852
151.011
151.173
151.337
151.504
151.674
151.848
152.025
152.206
152.392
152.582
152.778
152.979
153.186
153.399
153.618
153.845
154.079
154.321
154.571
154.829
155.096
155.372
155.657
155.951
156.255
156.569
156.892
157.224
157.567
157.918
158.278
158.647
159.024
159.408
159.798
160.193
160.592
160.995
161.401
161.812
162.226
162.644
163.067
163.494
163.926
164.363
164.805
165.253
165.709
166.172
166.643
167.124
167.615
168.118
168.635
169.167
169.715
170.283
170.871
171.48
172.117
172.771
173.474
174.168
175.05
174.569
144.427
144.427
144.428
144.429
144.431
144.433
144.436
144.44
144.444
144.449
144.455
144.461
144.469
145.251
145.267
145.284
145.302
145.321
145.34
145.359
145.379
145.399
145.42
145.442
145.464
145.486
145.509
145.533
145.558
145.583
145.609
145.635
145.663
145.692
145.721
145.752
145.783
145.816
145.851
145.886
145.923
145.961
146.001
146.042
146.084
146.129
146.174
146.221
146.27
146.32
146.372
146.425
146.48
146.536
146.594
146.654
146.715
146.777
146.841
146.907
146.974
147.043
147.113
147.185
147.258
147.333
147.41
147.488
147.568
147.65
147.733
147.819
147.906
147.995
148.087
148.18
148.276
148.374
148.474
148.577
148.682
148.79
148.901
149.015
149.132
149.252
149.375
149.502
149.633
149.767
149.906
150.048
150.194
150.345
150.499
150.659
150.823
150.991
151.165
151.343
151.526
151.714
151.906
152.103
152.303
152.508
152.717
152.93
153.146
153.367
153.591
153.82
154.054
154.292
154.536
154.786
155.043
155.306
155.577
155.855
156.141
156.436
156.741
157.054
157.378
157.711
158.055
158.41
158.776
159.152
159.539
159.938
160.347
160.767
161.197
161.637
162.087
162.546
163.014
163.489
163.97
164.456
164.948
165.446
165.951
166.463
166.981
167.507
168.041
168.583
169.133
169.693
170.262
170.842
171.433
172.036
172.653
173.285
173.933
174.6
175.287
175.995
176.727
177.484
178.268
179.079
179.919
180.787
181.685
182.612
183.566
184.547
185.552
186.58
187.628
188.694
189.766
190.827
191.878
192.917
193.944
194.958
195.96
196.951
197.927
198.896
199.85
200.8
201.733
202.667
203.581
204.498
205.391
206.285
207.156
208.016
208.86
209.676
210.483
211.242
211.999
212.691
213.384
214.013
214.78
214.304
144.486
144.485
144.485
144.486
144.489
144.493
144.499
144.507
144.517
144.528
144.542
144.558
144.577
146.521
146.566
146.613
146.661
146.711
146.762
146.814
146.868
146.923
146.979
147.037
147.095
147.155
147.217
147.28
147.345
147.411
147.48
147.55
147.623
147.699
147.777
147.858
147.942
148.03
148.12
148.215
148.312
148.414
148.519
148.629
148.743
148.861
148.983
149.11
149.241
149.377
149.517
149.661
149.81
149.963
150.121
150.283
150.449
150.62
150.795
150.974
151.158
151.346
151.538
151.735
151.937
152.143
152.354
152.57
152.791
153.017
153.248
153.485
153.727
153.974
154.227
154.485
154.749
155.018
155.293
155.573
155.858
156.15
156.448
156.752
157.063
157.381
157.708
158.042
158.385
158.737
159.099
159.47
159.853
160.246
160.65
161.066
161.493
161.933
162.385
162.848
163.324
163.812
164.311
164.822
165.343
165.876
166.419
166.971
167.53
168.098
168.673
169.256
169.848
170.449
171.059
171.679
172.309
172.949
173.6
174.262
174.935
175.62
176.318
177.03
177.757
178.5
179.261
180.042
180.844
181.67
182.52
183.396
184.299
185.229
186.185
187.167
188.173
189.201
190.248
191.311
192.381
193.443
194.491
195.521
196.534
197.527
198.5
199.453
200.386
201.301
202.198
203.08
203.948
204.804
205.649
206.483
207.307
208.121
208.922
209.71
210.482
211.235
211.965
212.67
213.348
213.994
214.608
215.188
215.735
216.249
216.731
217.183
217.607
218.007
218.384
218.743
219.085
219.423
219.751
220.081
220.401
220.726
221.041
221.361
221.666
221.973
222.262
222.545
222.807
223.053
223.279
223.48
223.664
223.814
223.951
224.059
224.149
224.229
224.281
224.343
224.371
224.43
224.444
224.498
224.552
224.327
144.695
144.681
144.669
144.662
144.66
144.661
144.666
144.676
144.691
144.711
144.736
144.767
144.804
144.848
149.511
149.626
149.744
149.866
149.992
150.121
150.253
150.388
150.526
150.667
150.811
150.958
151.109
151.263
151.422
151.585
151.753
151.925
152.103
152.286
152.475
152.671
152.873
153.082
153.299
153.524
153.758
154
154.252
154.513
154.784
155.065
155.356
155.658
155.97
156.291
156.623
156.964
157.316
157.677
158.048
158.429
158.819
159.218
159.626
160.044
160.47
160.906
161.35
161.804
162.267
162.74
163.223
163.716
164.219
164.732
165.257
165.792
166.339
166.897
167.466
168.046
168.638
169.241
169.855
170.479
171.112
171.753
172.404
173.063
173.732
174.412
175.102
175.803
176.516
177.24
177.976
178.723
179.483
180.255
181.04
181.837
182.649
183.475
184.316
185.174
186.049
186.944
187.857
188.791
189.745
190.718
191.709
192.716
193.738
194.768
195.791
196.801
197.795
198.772
199.731
200.669
201.587
202.484
203.362
204.221
205.063
205.892
206.708
207.51
208.303
209.088
209.861
210.62
211.365
212.094
212.8
213.478
214.126
214.741
215.317
215.854
216.351
216.808
217.226
217.609
217.959
218.282
218.586
218.877
219.16
219.438
219.715
219.995
220.279
220.568
220.861
221.157
221.451
221.74
222.02
222.286
222.535
222.763
222.968
223.149
223.304
223.437
223.55
223.644
223.726
223.797
223.863
223.926
223.991
224.059
224.134
224.215
224.305
224.401
224.507
224.618
224.736
224.856
224.978
225.1
225.218
225.332
225.435
225.534
225.614
225.692
225.744
225.797
225.821
225.851
225.855
225.868
225.863
225.863
225.856
225.849
225.844
225.838
225.839
225.839
225.85
225.858
225.882
225.899
225.93
225.976
225.958
145.378
145.314
145.261
145.219
145.189
145.172
145.169
145.176
145.197
145.233
145.283
145.348
145.428
145.525
156.106
156.374
156.65
156.934
157.227
157.526
157.832
158.144
158.462
158.786
159.115
159.45
159.79
160.137
160.491
160.852
161.22
161.596
161.982
162.378
162.785
163.205
163.637
164.083
164.543
165.018
165.508
166.015
166.538
167.079
167.638
168.216
168.811
169.425
170.059
170.711
171.384
172.075
172.784
173.511
174.253
175.009
175.777
176.556
177.346
178.146
178.956
179.775
180.603
181.441
182.288
183.143
184.007
184.879
185.759
186.646
187.542
188.446
189.358
190.279
191.208
192.145
193.092
194.046
195.008
195.98
196.955
197.922
198.878
199.821
200.75
201.661
202.554
203.427
204.28
205.114
205.926
206.719
207.493
208.249
208.988
209.713
210.423
211.119
211.801
212.467
213.115
213.742
214.346
214.922
215.468
215.981
216.459
216.902
217.311
217.688
218.039
218.369
218.682
218.983
219.275
219.561
219.846
220.132
220.417
220.702
220.987
221.267
221.537
221.796
222.04
222.259
222.453
222.626
222.773
222.891
222.989
223.073
223.143
223.203
223.259
223.317
223.377
223.444
223.519
223.605
223.702
223.81
223.929
224.057
224.194
224.336
224.48
224.623
224.761
224.889
225.004
225.102
225.183
225.246
225.291
225.323
225.345
225.357
225.365
225.369
225.375
225.381
225.391
225.405
225.426
225.453
225.488
225.53
225.58
225.636
225.699
225.765
225.834
225.904
225.972
226.036
226.095
226.149
226.194
226.234
226.264
226.29
226.306
226.319
226.322
226.323
226.316
226.309
226.297
226.287
226.273
226.263
226.253
226.245
226.241
226.239
226.241
226.245
226.256
226.268
226.287
226.305
226.331
226.354
226.382
226.414
226.434
147.596
147.352
147.139
146.959
146.813
146.703
146.632
146.601
146.606
146.645
146.723
146.842
147.001
147.202
168.979
169.502
170.039
170.587
171.145
171.713
172.288
172.872
173.463
174.063
174.67
175.284
175.907
176.537
177.175
177.823
178.483
179.155
179.84
180.536
181.244
181.963
182.693
183.436
184.193
184.965
185.754
186.559
187.382
188.222
189.08
189.954
190.845
191.752
192.672
193.6
194.533
195.47
196.414
197.367
198.327
199.284
200.235
201.179
202.114
203.036
203.943
204.829
205.693
206.533
207.347
208.135
208.897
209.632
210.342
211.027
211.689
212.325
212.938
213.53
214.099
214.643
215.163
215.662
216.136
216.582
217.001
217.397
217.77
218.122
218.454
218.77
219.073
219.364
219.646
219.92
220.188
220.451
220.708
220.958
221.202
221.435
221.652
221.855
222.041
222.204
222.348
222.473
222.583
222.679
222.765
222.846
222.924
223.002
223.083
223.17
223.264
223.365
223.476
223.593
223.715
223.841
223.966
224.086
224.201
224.306
224.398
224.473
224.534
224.583
224.618
224.642
224.661
224.675
224.689
224.702
224.717
224.738
224.766
224.802
224.848
224.903
224.968
225.041
225.121
225.206
225.293
225.379
225.462
225.54
225.611
225.674
225.73
225.778
225.817
225.845
225.863
225.871
225.872
225.868
225.862
225.855
225.851
225.849
225.85
225.854
225.864
225.879
225.899
225.925
225.956
225.992
226.031
226.073
226.117
226.16
226.203
226.245
226.283
226.319
226.351
226.381
226.405
226.426
226.442
226.455
226.462
226.466
226.467
226.465
226.46
226.454
226.447
226.441
226.435
226.432
226.43
226.431
226.434
226.441
226.451
226.463
226.479
226.496
226.519
226.541
226.567
226.592
226.621
226.649
226.678
226.707
226.733
154.505
153.676
152.929
152.269
151.704
151.237
150.871
150.614
150.468
150.436
150.488
150.643
150.904
189.073
189.843
190.618
191.398
192.186
192.981
193.782
194.586
195.39
196.192
196.99
197.785
198.578
199.369
200.148
200.911
201.655
202.38
203.09
203.791
204.487
205.182
205.874
206.56
207.237
207.904
208.558
209.199
209.825
210.437
211.033
211.614
212.178
212.725
213.254
213.771
214.279
214.778
215.265
215.741
216.204
216.655
217.089
217.497
217.878
218.232
218.563
218.875
219.172
219.455
219.728
219.991
220.244
220.488
220.724
220.95
221.164
221.367
221.559
221.737
221.899
222.051
222.191
222.316
222.427
222.532
222.63
222.722
222.812
222.903
222.997
223.093
223.191
223.292
223.393
223.494
223.594
223.69
223.779
223.86
223.932
223.992
224.045
224.089
224.125
224.16
224.192
224.222
224.255
224.294
224.336
224.384
224.441
224.505
224.575
224.651
224.729
224.808
224.886
224.957
225.022
225.082
225.132
225.172
225.207
225.235
225.246
225.254
225.26
225.259
225.259
225.261
225.264
225.271
225.284
225.304
225.331
225.365
225.406
225.453
225.505
225.56
225.618
225.676
225.733
225.788
225.841
225.89
225.934
225.974
226.008
226.033
226.05
226.059
226.06
226.057
226.051
226.047
226.045
226.045
226.048
226.053
226.062
226.074
226.09
226.11
226.134
226.162
226.194
226.228
226.264
226.301
226.339
226.376
226.412
226.447
226.479
226.508
226.534
226.557
226.577
226.594
226.608
226.618
226.625
226.63
226.632
226.632
226.632
226.631
226.629
226.629
226.63
226.634
226.64
226.649
226.66
226.674
226.691
226.71
226.732
226.756
226.783
226.81
226.84
226.869
226.901
226.932
226.965
226.996
227.028
227.061
227.081
173.887
171.49
169.27
167.243
165.431
163.855
162.53
161.469
160.679
160.178
159.95
159.974
160.211
211.219
211.787
212.332
212.849
213.336
213.796
214.233
214.653
215.057
215.445
215.813
216.162
216.496
216.822
217.145
217.468
217.788
218.104
218.411
218.702
218.971
219.218
219.445
219.656
219.855
220.044
220.225
220.398
220.564
220.722
220.874
221.021
221.167
221.312
221.451
221.578
221.69
221.789
221.872
221.939
222.002
222.073
222.159
222.257
222.362
222.471
222.582
222.694
222.805
222.915
223.021
223.126
223.225
223.318
223.406
223.488
223.564
223.633
223.697
223.756
223.811
223.864
223.918
223.971
224.026
224.086
224.147
224.211
224.277
224.342
224.407
224.469
224.524
224.577
224.624
224.658
224.688
224.715
224.732
224.747
224.762
224.776
224.79
224.808
224.83
224.855
224.887
224.924
224.965
225.011
225.061
225.109
225.16
225.213
225.258
225.305
225.349
225.385
225.415
225.444
225.462
225.471
225.48
225.483
225.482
225.484
225.489
225.496
225.506
225.522
225.542
225.568
225.599
225.636
225.677
225.723
225.772
225.822
225.873
225.924
225.974
226.02
226.062
226.101
226.135
226.163
226.186
226.205
226.217
226.224
226.227
226.228
226.227
226.227
226.228
226.232
226.239
226.249
226.263
226.281
226.302
226.327
226.354
226.385
226.417
226.452
226.487
226.523
226.559
226.594
226.628
226.66
226.691
226.719
226.744
226.767
226.787
226.805
226.819
226.831
226.84
226.848
226.855
226.861
226.867
226.873
226.881
226.889
226.9
226.913
226.928
226.946
226.967
226.989
227.016
227.043
227.073
227.105
227.139
227.174
227.211
227.248
227.287
227.325
227.364
227.403
227.442
227.481
227.519
227.565
227.578
212.269
207.389
202.736
198.356
194.324
190.716
187.589
184.994
182.956
181.537
180.7
180.435
220.577
220.777
220.962
221.138
221.306
221.47
221.627
221.775
221.911
222.035
222.148
222.253
222.353
222.451
222.542
222.618
222.669
222.702
222.728
222.757
222.791
222.829
222.872
222.915
222.958
222.999
223.037
223.073
223.108
223.142
223.175
223.209
223.243
223.275
223.305
223.334
223.361
223.388
223.417
223.453
223.501
223.563
223.631
223.69
223.744
223.796
223.848
223.901
223.955
224.007
224.059
224.11
224.158
224.205
224.25
224.292
224.331
224.369
224.405
224.438
224.472
224.51
224.547
224.585
224.627
224.672
224.713
224.757
224.799
224.837
224.875
224.907
224.933
224.957
224.977
224.989
225.003
225.017
225.028
225.041
225.058
225.077
225.1
225.126
225.158
225.193
225.233
225.276
225.319
225.367
225.414
225.455
225.497
225.537
225.568
225.596
225.622
225.637
225.649
225.66
225.667
225.672
225.68
225.688
225.697
225.711
225.728
225.749
225.776
225.807
225.842
225.881
225.925
225.969
226.014
226.063
226.11
226.152
226.193
226.235
226.269
226.299
226.327
226.351
226.37
226.385
226.397
226.406
226.412
226.418
226.423
226.429
226.437
226.447
226.461
226.478
226.497
226.52
226.546
226.575
226.606
226.64
226.675
226.712
226.749
226.786
226.823
226.859
226.895
226.928
226.959
226.989
227.016
227.041
227.064
227.085
227.105
227.122
227.139
227.155
227.171
227.187
227.204
227.221
227.24
227.26
227.283
227.308
227.336
227.366
227.399
227.434
227.473
227.513
227.556
227.6
227.646
227.694
227.743
227.793
227.845
227.897
227.95
228.004
228.058
228.113
228.167
228.223
228.278
228.354
228.359
277.854
270.868
263.668
256.414
249.282
242.456
236.118
230.428
225.509
221.444
223.63
223.71
223.785
223.853
223.912
223.959
223.993
224.021
224.047
224.072
224.095
224.114
224.129
224.141
224.151
224.16
224.164
224.167
224.173
224.187
224.209
224.228
224.238
224.24
224.239
224.235
224.229
224.221
224.213
224.206
224.199
224.193
224.187
224.181
224.174
224.168
224.165
224.165
224.171
224.187
224.2
224.202
224.203
224.217
224.245
224.273
224.303
224.339
224.375
224.411
224.447
224.482
224.516
224.55
224.585
224.618
224.652
224.689
224.728
224.766
224.806
224.85
224.89
224.929
224.973
225.013
225.048
225.084
225.118
225.147
225.171
225.192
225.205
225.22
225.236
225.25
225.266
225.283
225.302
225.323
225.348
225.376
225.409
225.445
225.483
225.522
225.567
225.607
225.644
225.685
225.721
225.749
225.78
225.806
225.824
225.842
225.857
225.867
225.879
225.889
225.899
225.913
225.928
225.946
225.968
225.994
226.024
226.057
226.095
226.133
226.174
226.219
226.263
226.304
226.346
226.39
226.427
226.46
226.494
226.526
226.55
226.573
226.596
226.614
226.628
226.642
226.655
226.667
226.679
226.692
226.708
226.726
226.747
226.77
226.797
226.826
226.857
226.892
226.928
226.966
227.005
227.045
227.086
227.126
227.167
227.208
227.246
227.285
227.322
227.357
227.391
227.424
227.456
227.486
227.516
227.545
227.574
227.603
227.632
227.663
227.694
227.727
227.762
227.799
227.839
227.881
227.926
227.974
228.025
228.078
228.135
228.194
228.256
228.32
228.386
228.454
228.525
228.597
228.671
228.746
228.823
228.902
228.982
229.063
229.146
229.23
229.316
229.404
229.491
229.615
229.615
319.482
314.758
309.576
303.963
297.973
291.702
285.294
278.938
272.849
224.88
224.92
224.951
224.977
224.998
225.013
225.025
225.037
225.045
225.047
225.045
225.04
225.032
225.023
225.012
224.993
224.971
224.952
224.927
224.897
224.867
224.839
224.815
224.795
224.774
224.754
224.733
224.713
224.695
224.676
224.659
224.641
224.625
224.609
224.597
224.589
224.59
224.597
224.611
224.631
224.658
224.683
224.706
224.727
224.746
224.77
224.797
224.819
224.843
224.869
224.894
224.919
224.947
224.976
225.006
225.04
225.076
225.112
225.15
225.193
225.233
225.268
225.305
225.345
225.375
225.398
225.426
225.449
225.463
225.477
225.49
225.504
225.52
225.534
225.549
225.568
225.59
225.615
225.645
225.676
225.709
225.746
225.785
225.819
225.856
225.897
225.928
225.958
225.991
226.017
226.037
226.061
226.078
226.092
226.109
226.122
226.136
226.154
226.171
226.19
226.214
226.24
226.27
226.303
226.338
226.375
226.416
226.458
226.499
226.541
226.586
226.627
226.664
226.703
226.744
226.776
226.804
226.837
226.865
226.885
226.907
226.93
226.95
226.968
226.989
227.011
227.033
227.058
227.085
227.114
227.148
227.183
227.22
227.26
227.302
227.346
227.392
227.439
227.487
227.536
227.586
227.635
227.685
227.734
227.783
227.831
227.879
227.926
227.973
228.019
228.065
228.112
228.158
228.205
228.253
228.303
228.354
228.406
228.461
228.519
228.579
228.643
228.71
228.78
228.854
228.931
229.011
229.095
229.183
229.274
229.368
229.464
229.564
229.667
229.773
229.881
229.992
230.106
230.222
230.341
230.463
230.588
230.715
230.846
230.979
231.117
231.256
231.395
231.589
231.584
334.051
331.138
225.578
225.617
225.651
225.675
225.693
225.699
225.696
225.688
225.679
225.669
225.656
225.639
225.618
225.593
225.566
225.537
225.514
225.498
225.485
225.47
225.45
225.426
225.4
225.373
225.347
225.322
225.297
225.272
225.249
225.226
225.205
225.184
225.166
225.152
225.141
225.136
225.137
225.14
225.145
225.146
225.143
225.141
225.145
225.155
225.167
225.182
225.195
225.208
225.225
225.247
225.268
225.293
225.321
225.35
225.38
225.418
225.454
225.487
225.525
225.568
225.602
225.631
225.666
225.696
225.717
225.734
225.757
225.774
225.79
225.808
225.823
225.84
225.859
225.878
225.901
225.928
225.955
225.986
226.021
226.052
226.085
226.123
226.157
226.186
226.221
226.253
226.277
226.304
226.33
226.349
226.369
226.39
226.406
226.424
226.445
226.463
226.487
226.513
226.539
226.57
226.603
226.638
226.676
226.717
226.757
226.799
226.845
226.891
226.933
226.976
227.022
227.063
227.098
227.138
227.176
227.208
227.239
227.272
227.304
227.332
227.361
227.392
227.423
227.455
227.489
227.526
227.565
227.607
227.652
227.699
227.75
227.802
227.857
227.914
227.972
228.033
228.095
228.158
228.222
228.287
228.353
228.419
228.486
228.553
228.62
228.687
228.755
228.824
228.893
228.963
229.035
229.108
229.183
229.261
229.341
229.423
229.509
229.599
229.692
229.789
229.891
229.997
230.107
230.221
230.34
230.464
230.591
230.723
230.86
231.001
231.145
231.294
231.447
231.605
231.766
231.931
232.1
232.274
232.451
232.634
232.82
233.012
233.208
233.411
233.617
233.829
234.043
234.256
234.54
234.522
226.213
226.263
226.3
226.322
226.334
226.344
226.347
226.346
226.34
226.328
226.313
226.294
226.273
226.25
226.226
226.199
226.173
226.147
226.12
226.088
226.052
226.015
225.98
225.946
225.915
225.885
225.856
225.828
225.802
225.777
225.753
225.732
225.713
225.696
225.682
225.671
225.664
225.659
225.658
225.659
225.663
225.667
225.668
225.669
225.674
225.684
225.696
225.709
225.726
225.741
225.757
225.78
225.805
225.83
225.862
225.896
225.925
225.957
225.994
226.027
226.05
226.076
226.104
226.126
226.142
226.162
226.178
226.192
226.21
226.225
226.242
226.264
226.286
226.31
226.339
226.367
226.396
226.43
226.463
226.493
226.525
226.56
226.589
226.616
226.647
226.673
226.696
226.722
226.745
226.766
226.79
226.813
226.835
226.862
226.89
226.918
226.952
226.987
227.023
227.065
227.107
227.149
227.196
227.245
227.291
227.339
227.39
227.438
227.483
227.531
227.578
227.623
227.666
227.71
227.754
227.797
227.838
227.881
227.925
227.969
228.014
228.062
228.112
228.165
228.22
228.278
228.34
228.405
228.472
228.543
228.616
228.692
228.771
228.851
228.934
229.019
229.105
229.194
229.283
229.374
229.467
229.56
229.655
229.752
229.85
229.949
230.051
230.155
230.261
230.37
230.483
230.598
230.718
230.841
230.969
231.101
231.239
231.382
231.53
231.683
231.842
232.007
232.177
232.353
232.535
232.723
232.916
233.115
233.319
233.529
233.744
233.966
234.192
234.425
234.663
234.907
235.157
235.413
235.676
235.945
236.221
236.505
236.795
237.094
237.397
237.707
238.016
238.319
238.7
238.65
226.894
226.954
226.993
227.022
227.049
227.064
227.064
227.06
227.052
227.038
227.02