/*--------------------------------*- C++ -*----------------------------------*\
| =========                 |                                                 |
| \\      /  F ield         | OpenFOAM: The Open Source CFD Toolbox           |
|  \\    /   O peration     | Version:  v1706                                 |
|   \\  /    A nd           | Web:      www.OpenFOAM.com                      |
|    \\/     M anipulation  |                                                 |
\*---------------------------------------------------------------------------*/
FoamFile
{
    version     2.0;
    format      ascii;
    class       volVectorField;
    location    "2e-05";
    object      U;
}
// * * * * * * * * * * * * * * * * * * * * * * * * * * * * * * * * * * * * * //

dimensions      [0 1 -1 0 0 0 0];


internalField   nonuniform List<vector> 
30104
(
(978.58 2.59518e-05 3.95584e-15)
(978.58 2.96962e-05 6.2999e-15)
(978.58 3.40715e-05 5.33857e-15)
(978.58 3.91529e-05 4.17749e-15)
(978.58 4.50248e-05 5.23527e-15)
(978.58 5.17822e-05 4.36994e-15)
(978.58 5.95319e-05 1.58047e-15)
(978.58 6.83908e-05 2.62049e-15)
(978.58 7.84821e-05 5.71788e-15)
(978.58 8.99302e-05 7.31131e-15)
(978.58 0.000102858 5.31659e-15)
(978.58 0.000117391 4.48088e-15)
(978.58 0.000133667 2.68625e-15)
(978.58 0.000151858 4.973e-15)
(978.58 0.000172175 6.67935e-15)
(978.58 0.000194872 6.49759e-15)
(978.58 0.000220222 5.5301e-15)
(978.579 0.00148476 3.07908e-15)
(978.579 0.00149953 4.02006e-15)
(978.579 0.00151568 4.00647e-15)
(978.579 0.00153294 3.74651e-15)
(978.579 0.00155108 3.68621e-15)
(978.579 0.00156988 3.62334e-15)
(978.579 0.00158913 3.34067e-15)
(978.579 0.00160867 4.72062e-15)
(978.579 0.00162843 3.79494e-15)
(978.579 0.0016484 2.94903e-15)
(978.579 0.00166861 3.15082e-15)
(978.579 0.00168908 3.04794e-15)
(978.579 0.00170984 5.04596e-15)
(978.579 0.00173091 3.63991e-15)
(978.579 0.00175235 1.16211e-15)
(978.579 0.00177429 2.40703e-15)
(978.579 0.00179688 2.79858e-15)
(978.579 0.00182028 3.45199e-15)
(978.579 0.00184461 4.40422e-15)
(978.579 0.00186997 2.76601e-15)
(978.579 0.00189645 5.01783e-15)
(978.579 0.00192408 4.4632e-15)
(978.579 0.00195294 2.74451e-15)
(978.579 0.00198308 2.87582e-15)
(978.579 0.00201456 2.76974e-15)
(978.579 0.00204746 2.9419e-15)
(978.579 0.00208183 2.85125e-15)
(978.579 0.00211771 2.93612e-15)
(978.579 0.00215516 3.02904e-15)
(978.579 0.00219419 3.23799e-15)
(978.579 0.00223478 2.051e-15)
(978.579 0.00227688 4.10406e-15)
(978.578 0.0023204 4.14795e-15)
(978.578 0.00236527 3.01094e-15)
(978.578 0.0024114 2.15167e-15)
(978.578 0.00245865 2.82285e-15)
(978.578 0.00250682 4.44608e-15)
(978.578 0.00255573 2.48821e-15)
(978.578 0.00260523 3.47619e-15)
(978.578 0.00265524 3.81596e-15)
(978.578 0.00270571 2.87464e-15)
(978.578 0.00275663 3.71886e-15)
(978.578 0.00280793 3.6758e-15)
(978.578 0.00285956 4.78265e-15)
(978.578 0.00291145 4.64136e-15)
(978.578 0.00296354 3.40444e-15)
(978.578 0.00301577 3.37855e-15)
(978.578 0.00306809 3.00607e-15)
(978.578 0.00312042 2.92074e-15)
(978.578 0.00317272 1.60092e-15)
(978.578 0.00322495 4.2279e-15)
(978.578 0.00327706 2.61062e-15)
(978.578 0.00332901 1.64674e-15)
(978.578 0.00338081 3.00635e-15)
(978.578 0.00343244 3.55954e-15)
(978.578 0.00348394 1.64484e-15)
(978.578 0.00353535 3.40248e-15)
(978.578 0.00358672 2.85147e-15)
(978.578 0.00363814 2.29787e-15)
(978.578 0.00368972 2.06172e-15)
(978.578 0.00374158 2.12622e-15)
(978.578 0.00379385 3.89914e-15)
(978.578 0.00384668 3.33809e-15)
(978.577 0.00390019 2.82912e-15)
(978.577 0.00395449 4.76364e-15)
(978.577 0.00400966 3.68679e-15)
(978.577 0.00406573 3.57468e-15)
(978.577 0.00412272 3.9877e-15)
(978.577 0.00418061 3.63154e-15)
(978.577 0.00423937 3.87217e-15)
(978.577 0.00429893 2.90947e-15)
(978.577 0.00435926 3.05581e-15)
(978.577 0.00442032 3.0812e-15)
(978.577 0.00448215 1.57542e-15)
(978.577 0.00454481 3.9143e-15)
(978.577 0.00460846 3.88006e-15)
(978.577 0.00467328 3.13813e-15)
(978.577 0.00473955 4.50921e-16)
(978.577 0.00480755 4.52586e-16)
(978.577 0.00487761 2.96376e-15)
(978.577 0.00495006 1.28788e-15)
(978.577 0.00502525 2.7345e-15)
(978.577 0.00510347 1.35059e-15)
(978.577 0.00518499 1.75664e-15)
(978.577 0.00526996 4.47685e-15)
(978.577 0.00535846 3.8631e-15)
(978.576 0.00545046 2.83985e-15)
(978.576 0.00554587 2.04455e-15)
(978.576 0.00564453 2.74284e-15)
(978.576 0.0057462 3.54284e-15)
(978.576 0.00585062 3.0622e-15)
(978.576 0.00595754 3.55499e-15)
(978.576 0.0060667 3.92063e-15)
(978.576 0.0061779 2.3016e-15)
(978.576 0.00629101 9.25603e-16)
(978.576 0.006406 2.4912e-15)
(978.576 0.0065229 4.12961e-16)
(978.576 0.00664186 7.27405e-16)
(978.576 0.00676306 2.62619e-15)
(978.576 0.00688678 2.80245e-15)
(978.575 0.00701328 2.99042e-15)
(978.575 0.00714282 2.67611e-15)
(978.575 0.0072756 2.04642e-15)
(978.575 0.00741175 2.34847e-15)
(978.575 0.00755127 2.35816e-15)
(978.575 0.00769404 2.53077e-15)
(978.575 0.00783981 1.48258e-15)
(978.575 0.00798819 1.58268e-15)
(978.575 0.00813867 3.75913e-15)
(978.575 0.00829065 3.65123e-15)
(978.575 0.00844348 2.96283e-15)
(978.575 0.0085965 3.17974e-15)
(978.574 0.0087491 2.9943e-15)
(978.574 0.00890072 2.45247e-15)
(978.574 0.00905094 1.82476e-15)
(978.574 0.00919946 2.42793e-15)
(978.574 0.00934616 2.73745e-15)
(978.574 0.00949105 3.00498e-15)
(978.574 0.00963435 2.81964e-15)
(978.574 0.00977641 2.6094e-15)
(978.574 0.00991773 2.59479e-15)
(978.574 0.0100589 1.58432e-15)
(978.573 0.0102006 3.44402e-15)
(978.573 0.0103434 2.73141e-15)
(978.573 0.0104881 1.70603e-16)
(978.573 0.0106351 2.98411e-16)
(978.573 0.0107848 1.04527e-15)
(978.573 0.0109375 1.4021e-15)
(978.573 0.0110933 1.89939e-15)
(978.573 0.0112519 1.84105e-15)
(978.573 0.0114131 2.29246e-15)
(978.573 0.0115765 2.47745e-15)
(978.572 0.0117415 2.11237e-15)
(978.572 0.0119076 2.39662e-15)
(978.572 0.0120742 1.76439e-15)
(978.572 0.0122407 2.56681e-15)
(978.572 0.012407 1.43947e-15)
(978.572 0.0125727 2.68347e-15)
(978.572 0.0127379 2.38195e-15)
(978.572 0.0129031 2.09863e-15)
(978.572 0.0130686 3.47071e-15)
(978.571 0.0132354 3.46138e-15)
(978.571 0.0134044 2.77307e-15)
(978.571 0.0135768 2.81716e-15)
(978.571 0.0137538 1.71194e-15)
(978.571 0.0139367 2.54055e-15)
(978.571 0.0141266 3.74488e-15)
(978.571 0.0143247 2.75059e-15)
(978.571 0.0145317 1.56942e-15)
(978.57 0.0147483 2.1548e-15)
(978.57 0.0149749 2.89138e-15)
(978.57 0.0152118 1.46507e-15)
(978.57 0.0154589 2.50028e-15)
(978.57 0.0157159 2.09566e-15)
(978.57 0.0159825 2.77309e-15)
(978.569 0.0162583 3.08373e-15)
(978.569 0.0165429 2.67953e-15)
(978.569 0.016836 3.05029e-15)
(978.569 0.0171373 2.08138e-15)
(978.569 0.0174469 1.34707e-15)
(978.569 0.0177648 1.32961e-15)
(978.568 0.0180918 2.01185e-15)
(978.568 0.0184286 1.0236e-15)
(978.568 0.0187763 2.21807e-15)
(978.568 0.0191363 2.12106e-15)
(978.567 0.0195104 2.63678e-15)
(978.567 0.0199002 3.34153e-15)
(978.567 0.0203078 2.1063e-15)
(978.567 0.020735 1.48258e-15)
(978.566 0.0211837 9.56661e-16)
(978.566 0.0216553 2.88366e-15)
(978.566 0.0221513 1.94011e-15)
(978.565 0.0226727 1.99797e-15)
(978.565 0.0232196 1.67518e-15)
(978.565 0.0237925 1.36829e-15)
(978.564 0.0243902 1.31425e-15)
(978.564 0.0250121 2.53679e-15)
(978.564 0.0256557 1.70714e-15)
(978.563 0.0263198 1.46273e-15)
(978.563 0.0270007 1.51972e-15)
(978.563 0.0276964 1.44396e-15)
(978.562 0.0284036 2.05521e-15)
(978.562 0.0291191 2.64518e-15)
(978.561 0.0298407 2.1619e-15)
(978.561 0.0305648 2.86096e-15)
(978.561 0.0312897 2.15381e-15)
(978.56 0.0320138 1.89309e-15)
(978.56 0.0327328 2.73622e-15)
(978.559 0.0334492 2.94613e-15)
(978.559 0.0341674 2.52384e-15)
(978.559 0.034857 2.26962e-15)
(978.559 0.0352127 1.99764e-15)
(978.561 0.0329453 2.007e-15)
(978.58 0.000142323 1.40336e-14)
(978.58 0.000161856 1.39344e-14)
(978.58 0.000184893 1.20065e-14)
(978.58 0.000211864 1.25092e-14)
(978.58 0.000243238 1.29198e-14)
(978.58 0.000279521 1.25083e-14)
(978.58 0.000321262 1.18352e-14)
(978.58 0.000369061 1.3668e-14)
(978.58 0.000423593 1.51264e-14)
(978.58 0.000485625 1.35773e-14)
(978.579 0.000556023 1.39521e-14)
(978.579 0.00063573 1.576e-14)
(978.579 0.000725715 1.64028e-14)
(978.579 0.000826913 1.48028e-14)
(978.579 0.000940185 1.48462e-14)
(978.579 0.00106634 1.41971e-14)
(978.579 0.00120625 1.19726e-14)
(978.574 0.00922416 6.22601e-15)
(978.574 0.00932195 8.90926e-15)
(978.574 0.00942933 1.06676e-14)
(978.574 0.00954472 1.01737e-14)
(978.574 0.00966709 9.77491e-15)
(978.574 0.00979591 9.61832e-15)
(978.574 0.00993098 8.2007e-15)
(978.573 0.0100721 1.01942e-14)
(978.573 0.010219 1.05797e-14)
(978.573 0.0103711 7.92495e-15)
(978.573 0.0105281 6.20855e-15)
(978.573 0.0106899 8.27213e-15)
(978.573 0.0108563 8.45306e-15)
(978.573 0.0110276 7.65132e-15)
(978.573 0.011204 5.40111e-15)
(978.573 0.0113852 7.26745e-15)
(978.572 0.0115712 7.34211e-15)
(978.572 0.0117618 8.27226e-15)
(978.572 0.0119571 1.08243e-14)
(978.572 0.0121571 9.38e-15)
(978.572 0.0123621 1.04769e-14)
(978.572 0.0125726 1.03327e-14)
(978.572 0.0127889 9.45606e-15)
(978.571 0.0130111 9.25315e-15)
(978.571 0.0132394 8.59225e-15)
(978.571 0.0134738 8.30918e-15)
(978.571 0.0137143 8.07739e-15)
(978.571 0.0139608 7.83243e-15)
(978.571 0.0142129 7.82855e-15)
(978.57 0.0144704 7.96813e-15)
(978.57 0.0147332 7.20372e-15)
(978.57 0.0150012 9.60421e-15)
(978.57 0.0152743 8.40759e-15)
(978.57 0.0155522 7.53353e-15)
(978.57 0.0158349 5.61292e-15)
(978.569 0.0161223 8.65467e-15)
(978.569 0.0164148 9.29834e-15)
(978.569 0.0167128 7.4779e-15)
(978.569 0.0170164 7.90176e-15)
(978.569 0.0173255 9.97773e-15)
(978.568 0.0176396 9.21306e-15)
(978.568 0.0179582 1.03682e-14)
(978.568 0.0182811 7.62653e-15)
(978.568 0.0186079 8.62267e-15)
(978.568 0.0189388 1.0523e-14)
(978.567 0.0192735 8.3957e-15)
(978.567 0.0196122 6.04607e-15)
(978.567 0.019955 6.81649e-15)
(978.567 0.0203022 8.92101e-15)
(978.566 0.0206541 6.57421e-15)
(978.566 0.0210112 8.25259e-15)
(978.566 0.0213742 8.46178e-15)
(978.566 0.0217435 8.06649e-15)
(978.565 0.02212 7.77701e-15)
(978.565 0.0225044 5.13272e-15)
(978.565 0.0228971 6.56853e-15)
(978.565 0.023299 8.24809e-15)
(978.564 0.0237104 8.63546e-15)
(978.564 0.0241317 9.51376e-15)
(978.564 0.0245632 7.06105e-15)
(978.564 0.0250049 6.25895e-15)
(978.563 0.0254566 7.00434e-15)
(978.563 0.0259182 7.14364e-15)
(978.563 0.0263892 7.27558e-15)
(978.562 0.0268695 9.12509e-15)
(978.562 0.0273586 8.34107e-15)
(978.562 0.0278565 6.52516e-15)
(978.561 0.0283631 6.38728e-15)
(978.561 0.0288785 8.4914e-15)
(978.561 0.0294028 7.61912e-15)
(978.56 0.0299365 7.57954e-15)
(978.56 0.0304801 7.03385e-15)
(978.56 0.0310339 6.77664e-15)
(978.559 0.0315985 7.27545e-15)
(978.559 0.0321741 1.01639e-14)
(978.559 0.0327607 7.77799e-15)
(978.558 0.0333581 6.55331e-15)
(978.558 0.0339658 5.44118e-15)
(978.557 0.0345833 6.00613e-15)
(978.557 0.0352096 5.66969e-15)
(978.557 0.0358437 4.22005e-15)
(978.556 0.0364844 5.22807e-15)
(978.556 0.0371304 6.33179e-15)
(978.555 0.0377806 7.67579e-15)
(978.555 0.0384341 7.78723e-15)
(978.555 0.0390903 7.19892e-15)
(978.554 0.0397493 5.52732e-15)
(978.554 0.0404114 6.06948e-15)
(978.553 0.0410773 7.30881e-15)
(978.553 0.0417482 7.24394e-15)
(978.552 0.0424255 7.67793e-15)
(978.552 0.0431111 7.07962e-15)
(978.551 0.0438067 6.68629e-15)
(978.551 0.0445141 4.70901e-15)
(978.55 0.045235 3.4649e-15)
(978.55 0.0459707 5.89071e-15)
(978.549 0.0467219 3.07743e-15)
(978.549 0.0474891 5.46366e-15)
(978.548 0.0482722 6.97135e-15)
(978.548 0.0490705 4.92618e-15)
(978.547 0.0498833 6.12582e-15)
(978.547 0.0507091 4.76139e-15)
(978.546 0.0515469 5.72276e-15)
(978.546 0.0523956 6.88136e-15)
(978.545 0.0532544 7.16025e-15)
(978.545 0.054123 5.79572e-15)
(978.544 0.0550019 5.47875e-15)
(978.543 0.0558922 6.82174e-15)
(978.543 0.0567957 6.06941e-15)
(978.542 0.0577152 6.39469e-15)
(978.542 0.0586538 9.12001e-15)
(978.541 0.0596155 8.76045e-15)
(978.54 0.0606042 5.35887e-15)
(978.54 0.0616242 6.23048e-15)
(978.539 0.0626793 5.93576e-15)
(978.538 0.0637733 5.40292e-15)
(978.538 0.064909 8.05341e-15)
(978.537 0.0660888 8.22384e-15)
(978.536 0.0673141 6.29046e-15)
(978.535 0.0685855 6.95845e-15)
(978.534 0.0699025 4.82735e-15)
(978.533 0.0712644 5.20411e-15)
(978.532 0.0726693 8.98407e-15)
(978.532 0.0741152 7.28764e-15)
(978.531 0.0755999 4.37258e-15)
(978.53 0.0771211 4.04824e-15)
(978.529 0.0786768 4.06809e-15)
(978.528 0.0802654 4.23592e-15)
(978.526 0.0818862 3.60036e-15)
(978.525 0.0835392 5.15233e-15)
(978.524 0.085225 6.42633e-15)
(978.523 0.0869452 3.81518e-15)
(978.522 0.0887024 4.96697e-15)
(978.521 0.0904992 5.39134e-15)
(978.52 0.092339 6.61354e-15)
(978.519 0.094225 6.87298e-15)
(978.517 0.09616 5.37168e-15)
(978.516 0.0981466 4.79664e-15)
(978.515 0.100186 5.84227e-15)
(978.514 0.102279 6.93243e-15)
(978.512 0.104425 7.29081e-15)
(978.511 0.106621 7.07513e-15)
(978.509 0.108864 6.58722e-15)
(978.508 0.111151 6.29359e-15)
(978.507 0.113476 6.49591e-15)
(978.505 0.115833 5.71318e-15)
(978.504 0.118217 5.27998e-15)
(978.502 0.120621 6.37535e-15)
(978.501 0.123041 4.83264e-15)
(978.499 0.125473 4.90445e-15)
(978.498 0.127913 5.31422e-15)
(978.496 0.130359 5.36624e-15)
(978.495 0.132811 6.58829e-15)
(978.493 0.13527 6.26282e-15)
(978.491 0.137739 5.99532e-15)
(978.49 0.140222 6.53693e-15)
(978.488 0.142723 5.635e-15)
(978.487 0.145249 6.95819e-15)
(978.485 0.147805 5.97051e-15)
(978.483 0.150398 4.69645e-15)
(978.481 0.153032 5.91592e-15)
(978.48 0.155713 4.90195e-15)
(978.478 0.158444 4.52332e-15)
(978.476 0.161226 4.18944e-15)
(978.474 0.164061 3.45969e-15)
(978.472 0.166946 5.08148e-15)
(978.47 0.169879 6.59601e-15)
(978.468 0.172854 6.46904e-15)
(978.466 0.175867 5.42983e-15)
(978.464 0.178909 6.07348e-15)
(978.462 0.181975 4.86939e-15)
(978.46 0.185056 3.7483e-15)
(978.458 0.188147 5.58617e-15)
(978.456 0.191243 5.67747e-15)
(978.454 0.194337 4.69312e-15)
(978.452 0.197432 5.2125e-15)
(978.45 0.20052 5.00204e-15)
(978.448 0.203614 4.8178e-15)
(978.446 0.206708 4.47203e-15)
(978.444 0.20982 4.19934e-15)
(978.441 0.212948 4.4283e-15)
(978.439 0.216112 4.17262e-15)
(978.437 0.219321 4.56913e-15)
(978.435 0.222584 4.41499e-15)
(978.433 0.225925 3.48743e-15)
(978.431 0.229345 4.19998e-15)
(978.429 0.232858 6.40264e-15)
(978.427 0.236498 6.69296e-15)
(978.424 0.240233 6.98243e-15)
(978.422 0.244015 6.60643e-15)
(978.419 0.248587 5.75254e-15)
(978.419 0.251876 4.22518e-15)
(978.431 0.240299 4.04836e-15)
(978.58 0.000461113 2.06075e-14)
(978.58 0.000518755 2.20399e-14)
(978.579 0.000587599 2.07774e-14)
(978.579 0.000668969 2.10682e-14)
(978.579 0.000764342 2.22042e-14)
(978.579 0.000875368 2.05501e-14)
(978.579 0.00100387 2.02105e-14)
(978.579 0.00115182 2.06884e-14)
(978.579 0.0013213 2.09616e-14)
(978.579 0.00151446 2.0571e-14)
(978.578 0.00173359 2.19033e-14)
(978.578 0.0019812 2.2715e-14)
(978.578 0.00226014 2.00123e-14)
(978.578 0.00257377 2.0748e-14)
(978.577 0.00292593 2.31256e-14)
(978.577 0.00332076 2.2247e-14)
(978.559 0.0316406 1.40112e-14)
(978.559 0.0320256 1.46528e-14)
(978.559 0.0324427 1.50978e-14)
(978.559 0.0328882 1.51538e-14)
(978.558 0.0333576 1.55414e-14)
(978.558 0.0338468 1.46074e-14)
(978.558 0.0343515 1.43194e-14)
(978.557 0.0348687 1.68312e-14)
(978.557 0.0353966 1.46197e-14)
(978.556 0.0359348 1.49636e-14)
(978.556 0.0364835 1.54262e-14)
(978.556 0.0370429 1.44868e-14)
(978.555 0.0376129 1.52205e-14)
(978.555 0.0381936 1.37051e-14)
(978.555 0.0387858 1.08446e-14)
(978.554 0.0393911 1.16704e-14)
(978.554 0.040012 1.15948e-14)
(978.553 0.0406514 1.39784e-14)
(978.553 0.0413118 1.4189e-14)
(978.552 0.041995 1.17862e-14)
(978.552 0.0427026 1.43389e-14)
(978.551 0.0434356 1.42121e-14)
(978.551 0.0441952 1.34604e-14)
(978.55 0.0449826 1.36054e-14)
(978.55 0.0457994 1.36046e-14)
(978.549 0.0466471 1.30608e-14)
(978.549 0.0475272 1.30712e-14)
(978.548 0.0484413 1.26289e-14)
(978.547 0.049391 1.25282e-14)
(978.547 0.0503776 1.34962e-14)
(978.546 0.051402 1.23667e-14)
(978.545 0.0524642 1.30003e-14)
(978.545 0.0535642 1.26142e-14)
(978.544 0.0547017 1.23447e-14)
(978.543 0.0558765 1.18288e-14)
(978.542 0.0570865 1.44824e-14)
(978.541 0.0583284 1.03426e-14)
(978.541 0.0595983 1.2112e-14)
(978.54 0.0608929 1.33174e-14)
(978.539 0.0622104 1.29071e-14)
(978.538 0.0635496 1.35342e-14)
(978.537 0.0649095 1.49913e-14)
(978.536 0.0662889 1.16389e-14)
(978.535 0.0676862 1.33892e-14)
(978.534 0.0691001 1.23399e-14)
(978.534 0.0705297 1.27625e-14)
(978.533 0.0719745 1.40332e-14)
(978.532 0.0734341 1.39416e-14)
(978.531 0.0749085 1.28608e-14)
(978.53 0.0763977 1.11869e-14)
(978.529 0.0779017 1.1086e-14)
(978.528 0.0794205 1.17458e-14)
(978.527 0.0809542 1.1481e-14)
(978.526 0.0825029 1.07585e-14)
(978.525 0.0840666 1.23628e-14)
(978.524 0.0856453 1.38706e-14)
(978.523 0.0872393 1.09725e-14)
(978.522 0.0888489 1.21976e-14)
(978.521 0.0904744 1.39212e-14)
(978.52 0.0921168 1.2443e-14)
(978.519 0.0937775 1.22609e-14)
(978.517 0.0954584 1.18559e-14)
(978.516 0.097162 1.25128e-14)
(978.515 0.0988911 1.19907e-14)
(978.514 0.100649 9.57058e-15)
(978.513 0.102438 1.01373e-14)
(978.512 0.104262 1.32003e-14)
(978.51 0.106122 1.1231e-14)
(978.509 0.108022 1.16695e-14)
(978.508 0.109963 1.36436e-14)
(978.507 0.111946 1.07817e-14)
(978.505 0.113971 1.14152e-14)
(978.504 0.116037 1.24367e-14)
(978.502 0.118143 1.23757e-14)
(978.501 0.120289 1.05431e-14)
(978.5 0.122473 1.02154e-14)
(978.498 0.124696 1.22256e-14)
(978.497 0.126958 1.07415e-14)
(978.495 0.12926 1.02802e-14)
(978.494 0.131604 9.01475e-15)
(978.492 0.133995 1.04795e-14)
(978.49 0.136437 1.14667e-14)
(978.489 0.138937 1.23309e-14)
(978.487 0.141501 1.12856e-14)
(978.485 0.144138 1.14012e-14)
(978.484 0.146854 1.11952e-14)
(978.482 0.149655 9.97359e-15)
(978.48 0.152546 9.26243e-15)
(978.478 0.155532 9.40678e-15)
(978.476 0.158614 1.05132e-14)
(978.474 0.161794 1.2346e-14)
(978.472 0.16507 1.05893e-14)
(978.47 0.16844 9.49244e-15)
(978.467 0.171901 9.75456e-15)
(978.465 0.175448 7.95055e-15)
(978.463 0.179078 9.13681e-15)
(978.46 0.182788 8.26014e-15)
(978.458 0.186574 1.0892e-14)
(978.455 0.190436 9.63807e-15)
(978.453 0.194375 8.67679e-15)
(978.45 0.198394 9.64321e-15)
(978.448 0.202497 9.56046e-15)
(978.445 0.206691 9.03657e-15)
(978.442 0.210983 1.09835e-14)
(978.439 0.21538 1.12071e-14)
(978.436 0.21989 7.92258e-15)
(978.433 0.224518 8.64568e-15)
(978.43 0.229269 1.15135e-14)
(978.427 0.234143 1.01367e-14)
(978.424 0.239139 1.15322e-14)
(978.421 0.244252 1.20128e-14)
(978.418 0.249475 1.07461e-14)
(978.414 0.254797 8.84991e-15)
(978.411 0.260207 9.81322e-15)
(978.407 0.265692 9.70224e-15)
(978.404 0.271237 9.68329e-15)
(978.4 0.276831 1.03104e-14)
(978.397 0.282462 1.06872e-14)
(978.393 0.288123 9.75032e-15)
(978.389 0.293809 1.03312e-14)
(978.385 0.29952 1.02265e-14)
(978.382 0.305258 9.48819e-15)
(978.378 0.311031 1.05722e-14)
(978.374 0.31685 1.044e-14)
(978.37 0.32273 9.71434e-15)
(978.366 0.328686 8.71568e-15)
(978.362 0.334738 8.15575e-15)
(978.358 0.340902 8.99357e-15)
(978.354 0.347196 6.42517e-15)
(978.349 0.353635 7.70464e-15)
(978.345 0.360232 8.35101e-15)
(978.34 0.366996 8.06206e-15)
(978.336 0.37393 1.0571e-14)
(978.331 0.381037 9.18502e-15)
(978.326 0.388313 8.98161e-15)
(978.321 0.39575 9.26246e-15)
(978.316 0.403341 9.20925e-15)
(978.311 0.411074 9.42002e-15)
(978.306 0.418939 1.05389e-14)
(978.301 0.426926 9.2352e-15)
(978.295 0.43503 8.96859e-15)
(978.29 0.443246 9.24564e-15)
(978.285 0.451575 9.25285e-15)
(978.279 0.460024 9.07271e-15)
(978.273 0.468601 8.1339e-15)
(978.268 0.477324 7.89694e-15)
(978.262 0.486211 8.71807e-15)
(978.256 0.495285 9.95999e-15)
(978.25 0.504572 8.52149e-15)
(978.244 0.514098 8.03571e-15)
(978.238 0.523888 8.49958e-15)
(978.231 0.533966 8.04277e-15)
(978.224 0.544356 8.58497e-15)
(978.217 0.555073 6.83694e-15)
(978.21 0.566134 6.83278e-15)
(978.203 0.577546 8.81583e-15)
(978.195 0.589316 8.74769e-15)
(978.187 0.601444 8.76701e-15)
(978.179 0.613929 7.43732e-15)
(978.171 0.626768 7.5819e-15)
(978.162 0.639957 7.59038e-15)
(978.153 0.653495 5.95885e-15)
(978.144 0.667379 6.72426e-15)
(978.134 0.681619 7.44995e-15)
(978.125 0.696217 7.90918e-15)
(978.115 0.711201 8.09385e-15)
(978.105 0.726582 7.37138e-15)
(978.095 0.742407 7.7713e-15)
(978.084 0.758697 1.03026e-14)
(978.073 0.775519 7.72092e-15)
(978.062 0.792903 7.48718e-15)
(978.05 0.810929 8.70811e-15)
(978.038 0.829635 8.9398e-15)
(978.026 0.849093 7.52112e-15)
(978.013 0.869356 7.38808e-15)
(977.999 0.890462 6.9722e-15)
(977.986 0.912485 8.06595e-15)
(977.971 0.9354 7.21392e-15)
(977.957 0.959304 6.40894e-15)
(977.941 0.984106 5.83811e-15)
(977.926 1.0099 7.0196e-15)
(977.91 1.03656 6.36021e-15)
(977.893 1.06412 7.38596e-15)
(977.876 1.09251 7.50689e-15)
(977.859 1.12161 7.18384e-15)
(977.842 1.15146 8.28912e-15)
(977.824 1.18188 6.90839e-15)
(977.806 1.21272 6.92558e-15)
(977.787 1.24455 8.7976e-15)
(977.77 1.27504 7.02474e-15)
(977.749 1.31062 7.07036e-15)
(977.737 1.34464 7.53872e-15)
(977.781 1.31568 7.26344e-15)
(978.579 0.00138637 2.9317e-14)
(978.579 0.00153367 2.80122e-14)
(978.578 0.00171338 2.83485e-14)
(978.578 0.00192921 3.12034e-14)
(978.578 0.00218514 2.95153e-14)
(978.578 0.00248553 2.66747e-14)
(978.577 0.00283516 2.85342e-14)
(978.577 0.0032394 2.85088e-14)
(978.576 0.00370437 2.77808e-14)
(978.576 0.00423694 2.99189e-14)
(978.575 0.00484462 3.25878e-14)
(978.575 0.00553517 3.03498e-14)
(978.574 0.0063162 2.87843e-14)
(978.573 0.00719489 2.83705e-14)
(978.572 0.0081782 2.88401e-14)
(978.571 0.00927366 2.8072e-14)
(978.52 0.0923917 1.9983e-14)
(978.519 0.0936221 1.87466e-14)
(978.518 0.0949461 1.95963e-14)
(978.517 0.0963521 1.92153e-14)
(978.516 0.097832 2.16081e-14)
(978.515 0.0993821 2.07208e-14)
(978.514 0.101001 1.83558e-14)
(978.513 0.102688 1.93791e-14)
(978.511 0.104439 2.09081e-14)
(978.51 0.10625 2.10265e-14)
(978.509 0.108117 1.90172e-14)
(978.508 0.110038 1.95824e-14)
(978.506 0.112015 1.83564e-14)
(978.505 0.11405 1.91947e-14)
(978.504 0.116148 1.96906e-14)
(978.502 0.118308 1.82047e-14)
(978.501 0.120529 1.83936e-14)
(978.499 0.122809 1.72838e-14)
(978.498 0.12515 1.66998e-14)
(978.496 0.127554 1.91194e-14)
(978.494 0.130024 2.03681e-14)
(978.493 0.132569 2.11695e-14)
(978.491 0.135194 1.96206e-14)
(978.489 0.137903 1.82131e-14)
(978.487 0.140701 1.70479e-14)
(978.485 0.143589 1.77691e-14)
(978.483 0.14657 1.79643e-14)
(978.481 0.149643 1.81862e-14)
(978.479 0.152807 2.07994e-14)
(978.477 0.156059 1.85319e-14)
(978.475 0.159397 1.7064e-14)
(978.472 0.16282 1.89185e-14)
(978.47 0.166326 1.70515e-14)
(978.468 0.16991 1.76792e-14)
(978.465 0.173567 1.82215e-14)
(978.463 0.177299 1.83643e-14)
(978.46 0.181109 1.78671e-14)
(978.457 0.185006 1.88529e-14)
(978.455 0.188995 1.71054e-14)
(978.452 0.193075 1.52136e-14)
(978.449 0.19724 1.80226e-14)
(978.447 0.201487 1.62716e-14)
(978.444 0.205814 1.74145e-14)
(978.441 0.210219 1.82067e-14)
(978.438 0.214703 1.78038e-14)
(978.435 0.219265 1.70251e-14)
(978.432 0.223903 1.66245e-14)
(978.429 0.228616 1.62937e-14)
(978.426 0.233404 1.71259e-14)
(978.423 0.238267 1.38944e-14)
(978.42 0.243207 1.4961e-14)
(978.416 0.248227 1.76388e-14)
(978.413 0.253333 1.70058e-14)
(978.41 0.258529 1.64049e-14)
(978.406 0.263825 1.75617e-14)
(978.403 0.269229 1.72751e-14)
(978.399 0.274753 1.56082e-14)
(978.395 0.280406 1.61388e-14)
(978.392 0.286201 1.75116e-14)
(978.388 0.292149 1.70755e-14)
(978.384 0.298259 1.70007e-14)
(978.38 0.304537 1.60582e-14)
(978.376 0.310988 1.54935e-14)
(978.371 0.317616 1.56044e-14)
(978.367 0.324419 1.30259e-14)
(978.362 0.331398 1.44706e-14)
(978.358 0.338549 1.77373e-14)
(978.353 0.345871 1.63524e-14)
(978.348 0.353359 1.6212e-14)
(978.343 0.361011 1.66848e-14)
(978.338 0.368824 1.56357e-14)
(978.333 0.3768 1.60009e-14)
(978.328 0.384942 1.55375e-14)
(978.322 0.393256 1.55965e-14)
(978.317 0.401748 1.57252e-14)
(978.311 0.410428 1.52867e-14)
(978.306 0.419302 1.58299e-14)
(978.3 0.42838 1.52684e-14)
(978.294 0.43767 1.55075e-14)
(978.288 0.447177 1.49488e-14)
(978.281 0.4569 1.63457e-14)
(978.275 0.466837 1.45914e-14)
(978.268 0.47698 1.48647e-14)
(978.262 0.487315 1.45898e-14)
(978.255 0.497825 1.6392e-14)
(978.248 0.508497 1.56365e-14)
(978.241 0.519314 1.46639e-14)
(978.234 0.530261 1.37094e-14)
(978.227 0.541329 1.28509e-14)
(978.219 0.552512 1.56216e-14)
(978.212 0.563812 1.64824e-14)
(978.204 0.575237 1.44499e-14)
(978.197 0.5868 1.50583e-14)
(978.189 0.598526 1.4664e-14)
(978.181 0.610444 1.30418e-14)
(978.173 0.62258 1.2773e-14)
(978.165 0.634971 1.27322e-14)
(978.156 0.647651 1.38772e-14)
(978.148 0.660645 1.43089e-14)
(978.139 0.673981 1.27776e-14)
(978.13 0.687681 1.43259e-14)
(978.12 0.70175 1.35898e-14)
(978.111 0.716189 1.387e-14)
(978.101 0.730994 1.40547e-14)
(978.091 0.746152 1.33552e-14)
(978.081 0.761639 1.23978e-14)
(978.07 0.777439 1.41593e-14)
(978.06 0.793535 1.37109e-14)
(978.049 0.809907 1.27928e-14)
(978.038 0.826547 1.17546e-14)
(978.027 0.843459 1.41863e-14)
(978.016 0.860659 1.51936e-14)
(978.004 0.878168 1.24451e-14)
(977.992 0.896025 1.26721e-14)
(977.98 0.914279 1.27042e-14)
(977.968 0.932994 1.1278e-14)
(977.956 0.952232 1.28145e-14)
(977.943 0.97206 1.27214e-14)
(977.929 0.992547 1.46423e-14)
(977.915 1.01376 1.65698e-14)
(977.901 1.03574 1.3327e-14)
(977.886 1.05854 1.22372e-14)
(977.871 1.0822 1.40276e-14)
(977.855 1.10673 1.42703e-14)
(977.838 1.13214 1.36355e-14)
(977.821 1.15842 1.35519e-14)
(977.803 1.18557 1.15165e-14)
(977.785 1.21356 1.28962e-14)
(977.766 1.24237 1.3832e-14)
(977.747 1.27197 1.23498e-14)
(977.728 1.30236 1.22776e-14)
(977.707 1.33352 1.16671e-14)
(977.687 1.36545 1.17328e-14)
(977.666 1.39815 1.17926e-14)
(977.644 1.43168 1.19821e-14)
(977.622 1.46606 1.21426e-14)
(977.599 1.50135 1.33297e-14)
(977.576 1.53762 1.34381e-14)
(977.552 1.57496 1.16061e-14)
(977.528 1.61342 1.15195e-14)
(977.502 1.65308 1.03554e-14)
(977.477 1.69401 1.18297e-14)
(977.45 1.73625 1.19867e-14)
(977.422 1.77982 1.21959e-14)
(977.394 1.82473 1.12673e-14)
(977.366 1.87096 1.40222e-14)
(977.336 1.91846 1.24156e-14)
(977.306 1.96715 1.3287e-14)
(977.275 2.01695 1.22671e-14)
(977.243 2.06775 1.23815e-14)
(977.211 2.11942 1.24597e-14)
(977.178 2.17185 1.02684e-14)
(977.145 2.2249 1.0759e-14)
(977.112 2.27847 9.97391e-15)
(977.078 2.33246 1.08394e-14)
(977.043 2.38679 1.05301e-14)
(977.008 2.44141 1.18055e-14)
(976.973 2.49632 1.2351e-14)
(976.937 2.55152 1.15636e-14)
(976.901 2.60708 1.05675e-14)
(976.864 2.66307 1.2149e-14)
(976.826 2.71962 1.10926e-14)
(976.789 2.77686 1.10657e-14)
(976.75 2.83494 1.01469e-14)
(976.711 2.89405 1.11077e-14)
(976.671 2.95427 1.15655e-14)
(976.63 3.01582 1.01677e-14)
(976.588 3.07872 9.93537e-15)
(976.545 3.1432 1.06112e-14)
(976.501 3.20915 9.91433e-15)
(976.456 3.2768 1.2873e-14)
(976.41 3.34596 1.08901e-14)
(976.363 3.41682 1.17931e-14)
(976.314 3.48914 1.21675e-14)
(976.265 3.56303 1.15822e-14)
(976.215 3.63831 1.05423e-14)
(976.164 3.71494 1.21968e-14)
(976.111 3.79296 1.03038e-14)
(976.058 3.87205 9.94256e-15)
(976.005 3.95264 9.57752e-15)
(975.95 4.03416 1.04503e-14)
(975.895 4.11729 8.91122e-15)
(975.839 4.20156 8.9332e-15)
(975.782 4.28739 9.62583e-15)
(975.724 4.37515 9.49284e-15)
(975.666 4.46422 9.40554e-15)
(975.606 4.55606 8.7383e-15)
(975.546 4.64984 8.50924e-15)
(975.485 4.74604 1.0505e-14)
(975.422 4.8447 1.03658e-14)
(975.359 4.94627 1.10342e-14)
(975.268 5.1203 1.0435e-14)
(975.501 4.92369 9.79102e-15)
(978.576 0.0041526 3.64129e-14)
(978.576 0.00449219 3.80567e-14)
(978.575 0.00492356 4.06396e-14)
(978.575 0.00545639 4.06213e-14)
(978.574 0.00610138 3.73189e-14)
(978.573 0.00687037 3.75337e-14)
(978.572 0.00777621 3.86917e-14)
(978.571 0.00883247 3.82209e-14)
(978.57 0.0100533 3.75887e-14)
(978.569 0.0114535 4.03489e-14)
(978.567 0.0130498 3.96606e-14)
(978.566 0.0148612 3.67946e-14)
(978.564 0.0169109 3.69805e-14)
(978.561 0.0192255 3.45519e-14)
(978.559 0.0218347 3.59769e-14)
(978.414 0.255424 2.64646e-14)
(978.411 0.259412 2.4978e-14)
(978.408 0.263662 2.44031e-14)
(978.405 0.268148 2.35805e-14)
(978.402 0.272842 2.6182e-14)
(978.398 0.277709 2.37604e-14)
(978.395 0.282716 2.39343e-14)
(978.392 0.287836 2.57731e-14)
(978.388 0.293053 2.55865e-14)
(978.385 0.298366 2.58876e-14)
(978.381 0.303779 2.48384e-14)
(978.377 0.309296 2.47622e-14)
(978.373 0.314916 2.59001e-14)
(978.37 0.320637 2.58835e-14)
(978.366 0.326464 2.33412e-14)
(978.362 0.332411 2.53611e-14)
(978.358 0.338507 2.58884e-14)
(978.353 0.344783 2.37542e-14)
(978.349 0.351268 2.47333e-14)
(978.344 0.357987 2.26845e-14)
(978.34 0.364951 2.20127e-14)
(978.335 0.372171 2.32326e-14)
(978.33 0.379655 2.283e-14)
(978.324 0.387412 2.28582e-14)
(978.319 0.395457 2.24207e-14)
(978.313 0.403804 2.28899e-14)
(978.307 0.412472 2.32427e-14)
(978.301 0.421477 2.33317e-14)
(978.295 0.430841 2.42385e-14)
(978.288 0.440586 2.33288e-14)
(978.281 0.45073 2.34224e-14)
(978.274 0.461283 2.3196e-14)
(978.267 0.472259 2.29171e-14)
(978.259 0.483676 2.37284e-14)
(978.251 0.495549 2.31751e-14)
(978.243 0.507875 2.38798e-14)
(978.235 0.520624 2.33293e-14)
(978.226 0.533755 2.31814e-14)
(978.217 0.547236 2.11693e-14)
(978.208 0.561055 1.97327e-14)
(978.199 0.575209 1.99162e-14)
(978.19 0.589695 2.10937e-14)
(978.18 0.604498 2.1195e-14)
(978.171 0.6196 2.05693e-14)
(978.161 0.634982 1.94853e-14)
(978.151 0.650632 2.02276e-14)
(978.141 0.666541 2.05257e-14)
(978.13 0.682705 2.10611e-14)
(978.12 0.699119 2.10679e-14)
(978.109 0.715787 2.00973e-14)
(978.099 0.732712 2.18433e-14)
(978.088 0.749898 2.16344e-14)
(978.076 0.767351 2.20409e-14)
(978.065 0.785081 2.01895e-14)
(978.053 0.803091 2.09296e-14)
(978.042 0.821384 2.18098e-14)
(978.03 0.839963 2.20285e-14)
(978.017 0.858829 2.25883e-14)
(978.005 0.877979 1.94567e-14)
(977.992 0.897409 1.81806e-14)
(977.979 0.917122 2.15845e-14)
(977.966 0.937126 2.21819e-14)
(977.953 0.957435 1.89463e-14)
(977.939 0.978066 1.98906e-14)
(977.925 0.999048 2.016e-14)
(977.911 1.02041 2.01193e-14)
(977.897 1.04219 2.0689e-14)
(977.882 1.06442 2.05268e-14)
(977.867 1.08716 2.00778e-14)
(977.852 1.11043 2.09185e-14)
(977.836 1.13429 1.99706e-14)
(977.82 1.15879 2.09302e-14)
(977.803 1.18394 1.97867e-14)
(977.786 1.20977 2.26072e-14)
(977.769 1.23629 1.99027e-14)
(977.751 1.26352 1.83838e-14)