/*--------------------------------*- C++ -*----------------------------------*\
| =========                 |                                                 |
| \\      /  F ield         | OpenFOAM: The Open Source CFD Toolbox           |
|  \\    /   O peration     | Version:  v1706                                 |
|   \\  /    A nd           | Web:      www.OpenFOAM.com                      |
|    \\/     M anipulation  |                                                 |
\*---------------------------------------------------------------------------*/
FoamFile
{
    version     2.0;
    format      ascii;
    class       volScalarField;
    location    "2e-05";
    object      wallHeatFlux;
}
// * * * * * * * * * * * * * * * * * * * * * * * * * * * * * * * * * * * * * //

dimensions      [1 0 -3 0 0 0 0];


internalField   uniform 0;

boundaryField
{
    cone
    {
        type            calculated;
        value           nonuniform List<scalar> 
119
(
7215.07
7320.1
7426.79
7535.18
7645.33
7757.27
7871.08
7986.8
8104.51
8224.25
8346.1
8470.13
8596.41
8725
8856
8989.48
9125.53
9264.23
9405.68
9549.98
9697.21
9847.49
10000.9
10157.6
10317.7
10481.4
10648.7
10819.9
10995.1
11174.5
11358.3
11546.8
11740.2
11938.7
12142.6
12352.3
12568
12790.2
13019.1
13255.2
13498.9
13750.7
14011.1
14280.7
14560
14849.7
15150.6
15463.2
15788.6
16127.5
16480.8
16849.7
17235
17637.9
18059.6
18501
18963.2
19447.1
19953.4
20482.3
21033.7
21606.5
22198.6
22806.3
23423.8
24042.7
24651
25232.7
25766.6
26226.2
26579.4
26789.7
26817.4
26623.8
26175.9
25456.2
24467.5
23206.9
21703
20003
18169.1
16267.4
14360.6
12504.4
10743.4
9109.38
7621.7
6288.85
5110.71
4080.9
3188.93
2422.55
1768.01
1211.89
741.298
344.208
9.88866
-271.068
-506.829
-704.417
-869.827
-1008.16
-1123.73
-1220.2
-1300.7
-1367.86
-1423.97
-1471.01
-1510.7
-1544.63
-1574.26
-1601
-1626.33
-1651.92
-1679.89
-1713.14
-1756.42
-1817.79
-1901.32
)
;
    }
    inlet
    {
        type            calculated;
        value           uniform 0;
    }
    rWedge
    {
        type            wedge;
    }
    lWedge
    {
        type            wedge;
    }
    outlet
    {
        type            calculated;
        value           uniform 0;
    }
    procBoundary0to1
    {
        type            processor;
        value           uniform 0;
    }
    procBoundary0to2
    {
        type            processor;
        value           uniform 0;
    }
}


// ************************************************************************* //
