/*--------------------------------*- C++ -*----------------------------------*\
| =========                 |                                                 |
| \\      /  F ield         | OpenFOAM: The Open Source CFD Toolbox           |
|  \\    /   O peration     | Version:  v1706                                 |
|   \\  /    A nd           | Web:      www.OpenFOAM.com                      |
|    \\/     M anipulation  |                                                 |
\*---------------------------------------------------------------------------*/
FoamFile
{
    version     2.0;
    format      ascii;
    class       volScalarField;
    location    "3.2e-05";
    object      Mach;
}
// * * * * * * * * * * * * * * * * * * * * * * * * * * * * * * * * * * * * * //

dimensions      [0 0 0 0 0 0 0];


internalField   nonuniform List<scalar> 
30038
(
3.99498
3.99498
3.99498
3.99498
3.99498
3.99498
3.99498
3.99498
3.99498
3.99498
3.99498
3.99498
3.99498
3.99498
3.99498
3.99498
3.99498
3.99498
3.99498
3.99498
3.99498
3.99498
3.99498
3.99498
3.99498
3.99498
3.99498
3.99498
3.99498
3.99498
3.99498
3.99498
3.99498
3.99498
3.99498
3.99498
3.99498
3.99498
3.99498
3.99498
3.99498
3.99498
3.99498
3.99498
3.99498
3.99498
3.99498
3.99498
3.99498
3.99498
3.99498
3.99498
3.99498
3.99498
3.99498
3.99498
3.99498
3.99498
3.99498
3.99498
3.99498
3.99498
3.99498
3.99498
3.99498
3.99498
3.99498
3.99498
3.99498
3.99498
3.99498
3.99498
3.99498
3.99498
3.99498
3.99498
3.99498
3.99498
3.99498
3.99498
3.99498
3.99498
3.99498
3.99498
3.99498
3.99498
3.99498
3.99498
3.99498
3.99498
3.99498
3.99498
3.99498
3.99498
3.99498
3.99498
3.99498
3.99498
3.99498
3.99498
3.99498
3.99498
3.99498
3.99498
3.99498
3.99498
3.99498
3.99498
3.99498
3.99498
3.99498
3.99498
3.99498
3.99498
3.99498
3.99498
3.99498
3.99498
3.99498
3.99498
3.99498
3.99498
3.99498
3.99498
3.99498
3.99498
3.99498
3.99498
3.99498
3.99498
3.99498
3.99498
3.99498
3.99498
3.99498
3.99498
3.99498
3.99498
3.99498
3.99498
3.99498
3.99498
3.99498
3.99498
3.99498
3.99498
3.99498
3.99498
3.99498
3.99498
3.99498
3.99498
3.99498
3.99498
3.99498
3.99498
3.99498
3.99498
3.99498
3.99498
3.99498
3.99498
3.99498
3.99498
3.99498
3.99498
3.99498
3.99498
3.99498
3.99498
3.99498
3.99498
3.99498
3.99498
3.99498
3.99498
3.99498
3.99498
3.99498
3.99498
3.99498
3.99498
3.99498
3.99498
3.99498
3.99498
3.99498
3.99498
3.99498
3.99498
3.99498
3.99498
3.99498
3.99498
3.99498
3.99498
3.99498
3.99498
3.99498
3.99498
3.99498
3.99498
3.99498
3.99498
3.99498
3.99498
3.99498
3.99498
3.99498
3.99498
3.99498
3.99498
3.99498
3.99498
3.99498
3.99498
3.99498
3.99498
3.99498
3.99498
3.99498
3.99498
3.99498
3.99498
3.99498
3.99498
3.99498
3.99498
3.99498
3.99498
3.99498
3.99498
3.99498
3.99498
3.99498
3.99498
3.99498
3.99498
3.99498
3.99498
3.99498
3.99498
3.99498
3.99498
3.99498
3.99498
3.99498
3.99498
3.99498
3.99498
3.99498
3.99498
3.99498
3.99498
3.99498
3.99498
3.99498
3.99498
3.99498
3.99498
3.99498
3.99498
3.99498
3.99498
3.99497
3.99497
3.99498
3.99498
3.99498
3.99498
3.99498
3.99498
3.99498
3.99498
3.99498
3.99498
3.99498
3.99498
3.99498
3.99498
3.99498
3.99498
3.99498
3.99498
3.99498
3.99498
3.99498
3.99498
3.99498
3.99498
3.99498
3.99498
3.99498
3.99498
3.99498
3.99498
3.99498
3.99498
3.99498
3.99497
3.99497
3.99497
3.99497
3.99496
3.99498
3.99498
3.99498
3.99498
3.99498
3.99498
3.99498
3.99498
3.99498
3.99498
3.99498
3.99498
3.99498
3.99498
3.99498
3.99498
3.99498
3.99498
3.99498
3.99498
3.99498
3.99498
3.99498
3.99498
3.99498
3.99498
3.99498
3.99498
3.99498
3.99498
3.99498
3.99497
3.99497
3.99497
3.99497
3.99496
3.99496
3.99495
3.99494
3.99498
3.99498
3.99498
3.99498
3.99498
3.99498
3.99498
3.99498
3.99498
3.99498
3.99498
3.99498
3.99498
3.99498
3.99498
3.99498
3.99498
3.99498
3.99498
3.99498
3.99498
3.99498
3.99498
3.99498
3.99498
3.99498
3.99498
3.99498
3.99497
3.99497
3.99497
3.99497
3.99497
3.99496
3.99495
3.99494
3.99492
3.99489
3.99485
3.99498
3.99498
3.99498
3.99498
3.99498
3.99498
3.99498
3.99498
3.99498
3.99498
3.99498
3.99498
3.99498
3.99498
3.99498
3.99498
3.99498
3.99498
3.99498
3.99498
3.99498
3.99498
3.99498
3.99498
3.99498
3.99497
3.99497
3.99497
3.99497
3.99497
3.99496
3.99495
3.99494
3.99492
3.9949
3.99486
3.99481
3.99472
3.9946
3.99498
3.99498
3.99498
3.99498
3.99498
3.99498
3.99498
3.99498
3.99498
3.99498
3.99498
3.99498
3.99498
3.99498
3.99498
3.99498
3.99498
3.99498
3.99498
3.99498
3.99498
3.99498
3.99498
3.99497
3.99497
3.99497
3.99497
3.99497
3.99496
3.99495
3.99494
3.99493
3.9949
3.99487
3.99482
3.99474
3.99463
3.99447
3.99423
3.99387
3.99498
3.99498
3.99498
3.99498
3.99498
3.99498
3.99498
3.99498
3.99498
3.99498
3.99498
3.99498
3.99498
3.99498
3.99498
3.99498
3.99498
3.99498
3.99498
3.99498
3.99497
3.99497
3.99497
3.99497
3.99497
3.99496
3.99495
3.99494
3.99493
3.9949
3.99487
3.99482
3.99475
3.99465
3.99451
3.99429
3.99398
3.99351
3.99282
3.99179
3.99498
3.99498
3.99498
3.99498
3.99498
3.99498
3.99498
3.99498
3.99498
3.99498
3.99498
3.99498
3.99498
3.99498
3.99498
3.99498
3.99498
3.99497
3.99497
3.99497
3.99497
3.99497
3.99496
3.99495
3.99494
3.99493
3.9949
3.99487
3.99483
3.99476
3.99467
3.99453
3.99433
3.99404
3.99362
3.99301
3.99212
3.99081
3.98886
3.98601
3.99498
3.99498
3.99498
3.99498
3.99498
3.99498
3.99498
3.99498
3.99498
3.99498
3.99498
3.99498
3.99498
3.99498
3.99497
3.99497
3.99497
3.99497
3.99496
3.99496
3.99495
3.99494
3.99493
3.9949
3.99487
3.99483
3.99476
3.99467
3.99454
3.99435
3.99408
3.9937
3.99313
3.99232
3.99114
3.98943
3.98695
3.98333
3.97801
3.97027
3.99498
3.99498
3.99498
3.99498
3.99498
3.99498
3.99498
3.99498
3.99498
3.99498
3.99497
3.99497
3.99497
3.99497
3.99497
3.99496
3.99496
3.99495
3.99494
3.99492
3.9949
3.99487
3.99483
3.99476
3.99467
3.99455
3.99437
3.99411
3.99374
3.99322
3.99246
3.99137
3.98981
3.98757
3.98433
3.97966
3.97292
3.96321
3.94911
3.92894
3.99498
3.99498
3.99498
3.99498
3.99498
3.99498
3.99498
3.99497
3.99497
3.99497
3.99497
3.99497
3.99496
3.99496
3.99495
3.99494
3.99492
3.9949
3.99487
3.99482
3.99476
3.99467
3.99455
3.99437
3.99412
3.99377
3.99326
3.99255
3.99153
3.99008
3.98801
3.98504
3.9808
3.97474
3.96608
3.95371
3.93611
3.91119
3.87589
3.82715
3.99498
3.99498
3.99498
3.99497
3.99497
3.99497
3.99497
3.99497
3.99497
3.99496
3.99495
3.99495
3.99493
3.99492
3.99489
3.99486
3.99481
3.99475
3.99466
3.99454
3.99436
3.99412
3.99377
3.99328
3.9926
3.99163
3.99025
3.9883
3.98554
3.98162
3.97606
3.96817
3.957
3.94121
3.919
3.88797
3.84499
3.78643
3.70748
3.60552
3.99498
3.99497
3.99497
3.99497
3.99497
3.99497
3.99496
3.99496
3.99495
3.99494
3.99493
3.99491
3.99489
3.99485
3.9948
3.99474
3.99465
3.99452
3.99434
3.9941
3.99375
3.99327
3.9926
3.99166
3.99034
3.98848
3.98586
3.98217
3.97698
3.96967
3.9594
3.94498
3.92482
3.89682
3.85823
3.80574
3.73553
3.64371
3.52715
3.38328
3.21616
3.99497
3.99497
3.99497
3.99496
3.99496
3.99495
3.99494
3.99492
3.9949
3.99488
3.99484
3.99479
3.99472
3.99463
3.9945
3.99431
3.99406
3.99372
3.99324
3.99257
3.99164
3.99034
3.98854
3.98602
3.98249
3.97757
3.97069
3.96108
3.94769
3.9291
3.90342
3.86821
3.82046
3.7567
3.6733
3.56698
3.43575
3.27963
3.10221
2.90667
2.70582
3.99496
3.99496
3.99495
3.99494
3.99493
3.99492
3.99489
3.99487
3.99483
3.99477
3.9947
3.9946
3.99446
3.99427
3.99401
3.99366
3.99317
3.99249
3.99156
3.99028
3.98849
3.98603
3.9826
3.97785
3.97127
3.96215
3.94952
3.9321
3.90819
3.87558
3.83154
3.77289
3.6962
3.59829
3.47683
3.33134
3.16387
2.97912
2.7833
2.58516
2.39137
2.21432
3.99495
3.99494
3.99492
3.99491
3.99488
3.99485
3.99481
3.99475
3.99467
3.99456
3.99441
3.99422
3.99394
3.99357
3.99307
3.99238
3.99143
3.99013
3.98834
3.98589
3.98251
3.97786
3.97146
3.96266
3.95056
3.93399
3.91139
3.88075
3.83957
3.78493
3.71363
3.62257
3.50935
3.37296
3.21464
3.03815
2.84908
2.65451
2.46268
2.28192
2.12113
1.98609
1.88156
3.9949
3.99487
3.99483
3.99478
3.99472
3.99463
3.99451
3.99436
3.99414
3.99385
3.99346
3.99293
3.99221
3.99123
3.9899
3.98808
3.9856
3.98222
3.97759
3.97127
3.96265
3.95088
3.93488
3.9132
3.88399
3.84496
3.79341
3.72633
3.64081
3.53441
3.40583
3.2557
3.08693
2.90451
2.71452
2.52427
2.34164
2.17441
2.03028
1.91451
1.82845
1.76777
1.727
3.99481
3.99475
3.99468
3.99458
3.99445
3.99428
3.99405
3.99373
3.99332
3.99275
3.99199
3.99096
3.98958
3.9877
3.98516
3.98171
3.97704
3.97071
3.96213
3.95051
3.93482
3.91372
3.88548
3.84798
3.7987
3.73486
3.65369
3.5528
3.43079
3.28783
3.12616
2.95011
2.76521
2.57782
2.3951
2.2243
2.07261
1.94642
1.84873
1.77815
1.72992
1.69858
1.67875
1.66622
3.99463
3.99452
3.99438
3.99418
3.99393
3.99358
3.99313
3.99252
3.9917
3.99061
3.98914
3.98717
3.98453
3.98097
3.97619
3.96974
3.96108
3.94944
3.93384
3.913
3.88531
3.84879
3.80109
3.7396
3.66172
3.56518
3.44852
3.31165
3.15633
2.98626
2.80654
2.62279
2.44143
2.26916
2.11259
1.97822
1.8705
1.78994
1.73331
1.69549
1.67122
1.65613
1.64704
1.64195
1.63909
3.99428
3.99406
3.99377
3.99339
3.99289
3.99222
3.99133
3.99015
3.98858
3.98649
3.9837
3.97997
3.97499
3.96834
3.95947
3.94764
3.93191
3.91104
3.88352
3.84747
3.8007
3.74078
3.66524
3.57198
3.45955
3.32772
3.17791
3.0133
2.83855
2.65886
2.47988
2.30773
2.1485
2.00832
1.89238
1.80283
1.73796
1.6935
1.66434
1.64589
1.63459
1.62801
1.62454
1.62305
1.62285
1.62337
3.9939
3.99357
3.99315
3.99258
3.99184
3.99086
3.98957
3.98786
3.98561
3.98262
3.97866
3.97341
3.96645
3.95724
3.94504
3.92895
3.90777
3.88005
3.84401
3.79758
3.7385
3.66446
3.57348
3.46424
3.33645
3.19128
3.03156
2.86149
2.68597
2.51001
2.33916
2.17901
2.03516
1.91299
1.81578
1.74329
1.69229
1.65808
1.63604
1.6223
1.61414
1.60949
1.60742
1.60674
1.60719
1.60801
1.60936
1.61122
3.99219
3.99136
3.99026
3.98883
3.98695
3.98448
3.98124
3.97697
3.97136
3.96398
3.95428
3.94154
3.92486
3.90308
3.8748
3.83831
3.79167
3.73275
3.65942
3.56984
3.46283
3.33813
3.19676
3.04129
2.87554
2.70411
2.53158
2.36289
2.20314
2.05745
1.93097
1.82765
1.7485
1.69138
1.65221
1.62644
1.61013
1.60013
1.59444
1.59152
1.59058
1.59036
1.59159
1.5926
1.59438
1.59646
1.59858
1.60064
3.99075
3.98951
3.9879
3.9858
3.98306
3.97949
3.97484
3.96876
3.96082
3.95047
3.93699
3.91947
3.89679
3.86757
3.83019
3.7828
3.7234
3.65004
3.56105
3.4554
3.33291
3.19456
3.04271
2.8809
2.71339
2.54449
2.37856
2.22025
2.07421
1.94517
1.83737
1.75273
1.69016
1.6463
1.6169
1.59794
1.58618
1.57924
1.57547
1.5739
1.57371
1.57428
1.57562
1.57716
1.57937
1.58157
1.58383
1.5862
1.58867
1.59097
3.98433
3.98126
3.97728
3.97213
3.96546
3.95682
3.94563
3.93118
3.91256
3.88865
3.85811
3.81938
3.77069
3.7102
3.63611
3.54695
3.44186
3.3208
3.18476
3.03595
2.8777
2.71395
2.54878
2.38604
2.22995
2.08471
1.95464
1.84391
1.7551
1.68798
1.63994
1.60713
1.58558
1.572
1.56376
1.55922
1.55712
1.55668
1.55688
1.55842
1.5597
1.56176
1.56413
1.56651
1.5689
1.57151
1.57408
1.57658
1.57907
1.5814
3.96872
3.96131
3.95177
3.93954
3.92387
3.90384
3.87834
3.84606
3.80549
3.75498
3.69279
3.61731
3.52728
3.42205
3.30171
3.16734
3.02106
2.86602
2.70588
2.54446
2.38524
2.23199
2.0885
1.95867
1.84648
1.75482
1.68417
1.63261
1.59677
1.57286
1.55752
1.54811
1.5427
1.54002
1.53915
1.5394
1.54042
1.54208
1.54392
1.54641
1.54883
1.55134
1.55395
1.55668
1.55933
1.56198
1.56458
1.5671
1.56959
1.57194
3.9319
3.9147
3.89292
3.86543
3.83096
3.78805
3.73516
3.67068
3.59319
3.50165
3.39564
3.27545
3.14222
2.99804
2.84592
2.68928
2.53163
2.37619
2.22627
2.0853
1.95679
1.84442
1.7512
1.67812
1.62385
1.58549
1.5595
1.54256
1.53203
1.52582
1.52262
1.52144
1.52157
1.52231
1.5242
1.52579
1.52818
1.5308
1.53341
1.53604
1.53888
1.54171
1.54448
1.54725
1.54995
1.55261
1.55521
1.55775
1.56025
1.56261
3.84938
3.81222
3.76645
3.7106
3.64324
3.56316
3.46956
3.36225
3.24172
3.10922
2.96683
2.81745
2.66424
2.51044
2.35899
2.21282
2.07501
1.9487
1.83727
1.7437
1.66929
1.61319
1.57293
1.54528
1.527
1.51544
1.50853
1.50482
1.50334
1.50327
1.50398
1.50555
1.50751
1.50972
1.51252
1.51515
1.51789
1.52075
1.52371
1.5266
1.52951
1.53238
1.5352
1.53798
1.5407
1.54338
1.546
1.54856
1.55107
1.55346
3.68054
3.60975
3.52654
3.43039
3.32137
3.20017
3.06814
2.92736
2.78062
2.63086
2.48103
2.33379
2.19173
2.05763
1.93428
1.82476
1.73193
1.65726
1.60024
1.55877
1.52992
1.51062
1.49824
1.49078
1.48665
1.48486
1.48463
1.48534
1.48672
1.48889
1.49093
1.49368
1.49654
1.49938
1.50225
1.50534
1.50839
1.51142
1.51444
1.51741
1.52034
1.52323
1.52607
1.52887
1.53162
1.53432
1.53697
1.53955
1.54208
1.54449
3.38348
3.27248
3.15041
3.01873
2.87952
2.73546
2.58926
2.44356
2.30078
2.16318
2.03326
1.91352
1.80677
1.71567
1.64174
1.58469
1.54274
1.51322
1.49325
1.48031
1.47241
1.46795
1.46596
1.46564
1.46633
1.4676
1.46976
1.47197
1.47462
1.47766
1.48054
1.48351
1.48664
1.48983
1.49296
1.49612
1.49924
1.50232
1.50536
1.50837
1.51133
1.51425
1.51712
1.51995
1.52273
1.52546
1.52813
1.53073
1.53328
1.5357
2.96078
2.82326
2.68204
2.53959
2.39827
2.26021
2.12742
2.00214
1.88658
1.78333
1.69484
1.62256
1.56636
1.52465
1.49502
1.47479
1.46156
1.45339
1.44873
1.44659
1.4462
1.44686
1.44818
1.45022
1.45268
1.45523
1.45835
1.4614
1.46447
1.46762
1.47093
1.4742
1.47747
1.48073
1.48394
1.48713
1.49028
1.49339
1.49647
1.49951
1.50251
1.50546
1.50837
1.51123
1.51404
1.51679
1.51948
1.5221
1.52466
1.5271
2.48211
2.34545
2.21241
2.08477
1.96454
1.85369
1.7546
1.6695
1.59972
1.54515
1.50437
1.47519
1.45512
1.44188
1.43364
1.42896
1.42676
1.42635
1.427
1.42839
1.4304
1.43305
1.43552
1.43866
1.44191
1.44507
1.44828
1.45169
1.4551
1.45847
1.46186
1.46522
1.46854
1.47183
1.47509
1.47832
1.48151
1.48466
1.48778
1.49086
1.49389
1.49688
1.49982
1.50271
1.50554
1.50832
1.51103
1.51367
1.51624
1.51869
2.03565
1.92086
1.8152
1.72085
1.63983
1.5733
1.52109
1.4819
1.45369
1.43417
1.42123
1.41315
1.40857
1.40641
1.40603
1.4068
1.40824
1.41026
1.41288
1.41566
1.41872
1.42214
1.42537
1.42868
1.43214
1.43567
1.43915
1.44266
1.44616
1.44961
1.45304
1.45644
1.45981
1.46314
1.46645
1.46972
1.47295
1.47614
1.4793
1.48242
1.48549
1.48851
1.49148
1.49439
1.49725
1.50005
1.50278
1.50543
1.50801
1.51047
1.68249
1.60617
1.54353
1.49433
1.45728
1.43053
1.41195
1.39959
1.39188
1.38753
1.38553
1.38527
1.38618
1.38769
1.38977
1.39244
1.3954
1.39846
1.40198
1.40539
1.40879
1.4123
1.41593
1.41954
1.42315
1.42677
1.43035
1.43391
1.43745
1.44095
1.44443
1.44787
1.45128
1.45467
1.45802
1.46133
1.46461
1.46784
1.47104
1.47419
1.47729
1.48034
1.48334
1.48628
1.48916
1.49198
1.49472
1.49739
1.49998
1.50245
1.46508
1.43068
1.4058
1.3885
1.37698
1.36983
1.36586
1.36412
1.36405
1.36512
1.36674
1.36891
1.37169
1.37481
1.37788
1.38147
1.38506
1.38856
1.39213
1.39588
1.39962
1.40334
1.40707
1.41078
1.41446
1.41812
1.42176
1.42537
1.42895
1.4325
1.43603
1.43952
1.44298
1.44641
1.44981
1.45316
1.45648
1.45976
1.46299
1.46617
1.46931
1.47239
1.47542
1.47838
1.48128
1.48411
1.48687
1.48954
1.49214
1.49461
1.3639
1.35345
1.34703
1.34358
1.34218
1.34236
1.34365
1.34542
1.34773
1.3506
1.35375
1.35711
1.36068
1.36443
1.36804
1.37171
1.37554
1.37939
1.3832
1.38706
1.3909
1.39471
1.39849
1.40225
1.40599
1.4097
1.41338
1.41704
1.42068
1.42428
1.42786
1.4314
1.43491
1.43838
1.44182
1.44522
1.44858
1.45189
1.45516
1.45837
1.46154
1.46465
1.4677
1.47068
1.4736
1.47644
1.47921
1.4819
1.4845
1.48698
1.32071
1.31974
1.32025
1.32178
1.32372
1.32618
1.3292
1.33247
1.336
1.33961
1.34347
1.34723
1.351
1.35491
1.35887
1.3628
1.36676
1.37071
1.37463
1.37854
1.38243
1.38629
1.39013
1.39395
1.39774
1.4015
1.40524
1.40895
1.41264
1.41629
1.41991
1.4235
1.42706
1.43058
1.43406
1.4375
1.44089
1.44424
1.44754
1.45079
1.45398
1.45711
1.46018
1.46319
1.46612
1.46898
1.47176
1.47445
1.47705
1.47953
1.29951
1.30167
1.30431
1.30746
1.3109
1.31452
1.3183
1.32226
1.32615
1.33001
1.33399
1.33806
1.34211
1.34618
1.35024
1.35428
1.35831
1.36231
1.36629
1.37026
1.37419
1.37811
1.382
1.38587
1.38972
1.39354
1.39733
1.40109
1.40483
1.40853
1.4122
1.41583
1.41943
1.42299
1.42651
1.42999
1.43342
1.4368
1.44013
1.44341
1.44663
1.44978
1.45287
1.4559
1.45884
1.46171
1.4645
1.46719
1.4698
1.47228
1.28209
1.28542
1.28902
1.29274
1.2967
1.30077
1.30476
1.30874
1.3128
1.31699
1.32115
1.32531
1.32949
1.33364
1.33778
1.34191
1.34601
1.35009
1.35414
1.35818
1.3622
1.36619
1.37017
1.37411
1.37804
1.38193
1.38581
1.38965
1.39346
1.39725
1.401
1.40471
1.40839
1.41203
1.41563
1.41919
1.4227
1.42617
1.42958
1.43294
1.43624
1.43948
1.44266
1.44577
1.44881
1.45177
1.45465
1.45744
1.46013
1.46274
1.46521
1.2707
1.2748
1.279
1.28309
1.2872
1.29135
1.29565
1.29991
1.30418
1.30847
1.31273
1.31698
1.32122
1.32543
1.32963
1.33381
1.33796
1.3421
1.34621
1.35031
1.35438
1.35843
1.36246
1.36646
1.37044
1.37439
1.37831
1.3822
1.38606
1.38989
1.39369
1.39745
1.40117
1.40485
1.40849
1.41208
1.41563
1.41912
1.42257
1.42595
1.42928
1.43254
1.43574
1.43887
1.44192
1.44489
1.44777
1.45057
1.45327
1.45587
1.45833
1.25697
1.26117
1.26539
1.26966
1.27405
1.27842
1.28278
1.28718
1.29155
1.29592
1.30026
1.30459
1.3089
1.31319
1.31746
1.32171
1.32595
1.33016
1.33435
1.33852
1.34267
1.3468
1.35091
1.35499
1.35904
1.36307
1.36707
1.37104
1.37498
1.37889
1.38276
1.3866
1.3904
1.39416
1.39788
1.40156
1.40519
1.40876
1.41229
1.41576
1.41917
1.42252
1.42581
1.42902
1.43216
1.43523
1.43821
1.4411
1.44389
1.44659
1.44918
1.45164
1.24771
1.2522
1.25667
1.26114
1.26564
1.27012
1.27459
1.27904
1.28348
1.2879
1.2923
1.29669
1.30105
1.3054
1.30973
1.31404
1.31833
1.3226
1.32685
1.33107
1.33528
1.33946
1.34362
1.34775
1.35185
1.35593
1.35998
1.364
1.36798
1.37194
1.37585
1.37973
1.38358
1.38737
1.39113
1.39484
1.3985
1.40211
1.40567
1.40916
1.4126
1.41597
1.41927
1.4225
1.42566
1.42873
1.43171
1.43461
1.4374
1.44009
1.44268
1.44513
1.23926
1.24387
1.24845
1.25302
1.25758
1.26212
1.26665
1.27116
1.27565
1.28012
1.28458
1.28903
1.29345
1.29785
1.30224
1.3066
1.31095
1.31527
1.31958
1.32386
1.32812
1.33235
1.33656
1.34074
1.34489
1.34902
1.35311
1.35718
1.36121
1.3652
1.36916
1.37308
1.37696
1.3808
1.38459
1.38833
1.39203
1.39567
1.39925
1.40277
1.40623
1.40962
1.41294
1.41618
1.41934
1.42242
1.42541
1.4283
1.4311
1.43378
1.43636
1.43879
1.23121
1.23587
1.24052
1.24515
1.24976
1.25436
1.25894
1.26351
1.26806
1.27259
1.27711
1.28161
1.28608
1.29054
1.29498
1.29941
1.30381
1.30818
1.31254
1.31687
1.32118
1.32547
1.32972
1.33396
1.33816
1.34233
1.34647
1.35058
1.35465
1.35869
1.36269
1.36665
1.37056
1.37443
1.37826
1.38203
1.38576
1.38942
1.39303
1.39657
1.40005
1.40346
1.40679
1.41005
1.41322
1.4163
1.41929
1.42218
1.42497
1.42764
1.4302
1.43261
1.22341
1.22813
1.23283
1.23752
1.24219
1.24685
1.25148
1.25611
1.26071
1.2653
1.26987
1.27442
1.27896
1.28347
1.28797
1.29244
1.2969
1.30133
1.30573
1.31012
1.31448
1.31881
1.32311
1.32739
1.33164
1.33586
1.34004
1.34419
1.34831
1.35239
1.35642
1.36042
1.36437
1.36828
1.37213
1.37594
1.37968
1.38338
1.38701
1.39057
1.39407
1.39749
1.40083
1.4041
1.40727
1.41036
1.41335
1.41623
1.41901
1.42167
1.42421
1.4266
1.21586
1.22063
1.22539
1.23013
1.23486
1.23957
1.24427
1.24894
1.2536
1.25825
1.26287
1.26748
1.27207
1.27663
1.28118
1.28571
1.29021
1.29469
1.29915
1.30358
1.30799
1.31237
1.31672
1.32105
1.32534
1.3296
1.33383
1.33802
1.34217
1.34629
1.35036
1.3544
1.35838
1.36232
1.3662
1.37004
1.37381
1.37752
1.38118
1.38476
1.38827
1.3917
1.39506
1.39833
1.40151
1.40459
1.40757
1.41045
1.41321
1.41585
1.41837
1.42073
1.20855
1.21338
1.21819
1.22299
1.22777
1.23254
1.23728
1.24202
1.24673
1.25143
1.2561
1.26076
1.2654
1.27002
1.27462
1.2792
1.28375
1.28828
1.29279
1.29727
1.30172
1.30615
1.31055
1.31491
1.31925
1.32355
1.32782
1.33205
1.33625
1.3404
1.34451
1.34857
1.35259
1.35656
1.36047
1.36433
1.36813
1.37186
1.37553
1.37913
1.38265
1.3861
1.38946
1.39273
1.39591
1.39899
1.40196
1.40483
1.40757
1.41019
1.41268
1.41501
1.20636
1.21123
1.21608
1.22091
1.22573
1.23053
1.23532
1.24009
1.24483
1.24956
1.25427
1.25896
1.26363
1.26828
1.27291
1.27751
1.28209
1.28664
1.29117
1.29567
1.30014
1.30458
1.30899
1.31337
1.31771
1.32202
1.32629
1.33052
1.3347
1.33885
1.34294
1.34699
1.35099
1.35493
1.35881
1.36263
1.36638
1.37007
1.37368
1.37721
1.38066
1.38403
1.3873
1.39048
1.39355
1.39651
1.39935
1.40208
1.40467
1.40712
1.40942
1.19958
1.2045
1.2094
1.21429
1.21916
1.22401
1.22885
1.23367
1.23847
1.24324
1.248
1.25274
1.25746
1.26216
1.26683
1.27148
1.27611
1.2807
1.28528
1.28982
1.29434
1.29882
1.30327
1.30769
1.31207
1.31642
1.32072
1.32499
1.32921
1.33338
1.33751
1.34158
1.3456
1.34957
1.35347
1.35731
1.36108
1.36478
1.3684
1.37194
1.37539
1.37876
1.38203
1.38519
1.38825
1.39119
1.39402
1.39671
1.39927
1.40169
1.40394
1.19302
1.19799
1.20295
1.20789
1.21281
1.21771
1.2226
1.22747
1.23231
1.23714
1.24195
1.24674
1.2515
1.25625
1.26097
1.26566
1.27033
1.27497
1.27959
1.28418
1.28873
1.29326
1.29775
1.3022
1.30662
1.31101
1.31535
1.31964
1.32389
1.3281
1.33225
1.33635
1.3404
1.34438
1.3483
1.35216
1.35594
1.35965
1.36328
1.36682
1.37028
1.37364
1.3769
1.38005
1.38309
1.38601
1.38881
1.39147
1.39399
1.39637
1.39857
1.19171
1.19672
1.20171
1.20668
1.21163
1.21656
1.22148
1.22638
1.23125
1.23611
1.24094
1.24575
1.25054
1.25531
1.26005
1.26476
1.26945
1.2741
1.27873
1.28333
1.28789
1.29242
1.29691
1.30137
1.30578
1.31016
1.31448
1.31877
1.323
1.32718
1.3313
1.33536
1.33937
1.3433
1.34717
1.35097
1.35468
1.35831
1.36186
1.36531
1.36866
1.37191
1.37504
1.37806
1.38096
1.38372
1.38634
1.38882
1.39115
1.39329
1.18565
1.1907
1.19574
1.20076
1.20576
1.21074
1.2157
1.22065
1.22557
1.23047
1.23535
1.2402
1.24504
1.24985
1.25463
1.25938
1.26411
1.26881
1.27348
1.27811
1.28271
1.28728
1.29181
1.2963
1.30074
1.30515
1.3095
1.31381
1.31807
1.32227
1.32641
1.3305
1.33451
1.33846
1.34234
1.34614
1.34986
1.35349
1.35703
1.36047
1.36381
1.36704
1.37015
1.37315
1.37601
1.37873
1.38131
1.38374
1.38601
1.38809
1.1798
1.1849
1.18998
1.19505
1.20009
1.20512
1.21013
1.21512
1.22008
1.22503
1.22995
1.23485
1.23973
1.24458
1.2494
1.2542
1.25897
1.2637
1.26841
1.27308
1.27772
1.28232
1.28688
1.2914
1.29588
1.30031
1.30469
1.30902
1.3133
1.31752
1.32169
1.32578
1.32981
1.33377
1.33766
1.34146
1.34517
1.3488
1.35233
1.35576
1.35908
1.36229
1.36537
1.36833
1.37115
1.37383
1.37636
1.37873
1.38094
1.38295
1.17415
1.17929
1.18442
1.18953
1.19463
1.1997
1.20475
1.20979
1.2148
1.21979
1.22475
1.22969
1.23461
1.2395
1.24437
1.2492
1.25401
1.25878
1.26352
1.26823
1.2729
1.27753
1.28212
1.28667
1.29118
1.29563
1.30004
1.3044
1.30869
1.31293
1.31711
1.32122
1.32526
1.32922
1.3331
1.33691
1.34062
1.34423
1.34775
1.35116
1.35446
1.35763
1.36069
1.3636
1.36638
1.36901
1.37148
1.37378
1.37592
1.37785
1.1687
1.17389
1.17907
1.18422
1.18936
1.19447
1.19957
1.20464
1.2097
1.21473
1.21974
1.22472
1.22968
1.23461
1.23951
1.24438
1.24922
1.25403
1.25881
1.26355
1.26825
1.27291
1.27753
1.28211
1.28664
1.29112
1.29554
1.29992
1.30423
1.30848
1.31267
1.31679
1.32083
1.3248
1.32868
1.33247
1.33617
1.33977
1.34327
1.34666
1.34992
1.35307
1.35608
1.35895
1.36167
1.36424
1.36665
1.36888
1.37093
1.37278
1.16345
1.16868
1.1739
1.1791
1.18428
1.18943
1.19457
1.19969
1.20478
1.20986
1.2149
1.21992
1.22492
1.22989
1.23482
1.23973
1.24461
1.24945
1.25426
1.25903
1.26376
1.26845
1.2731
1.2777
1.28225
1.28675
1.29119
1.29558
1.29991
1.30417
1.30836
1.31248
1.31653
1.32049
1.32436
1.32814
1.33183
1.33541
1.33888
1.34224
1.34547
1.34857
1.35154
1.35435
1.35702
1.35952
1.36185
1.364
1.36597
1.36772
1.15838
1.16366
1.16892
1.17416
1.17938
1.18458
1.18976
1.19491
1.20005
1.20516
1.21024
1.2153
1.22033
1.22533
1.23031
1.23525
1.24016
1.24503
1.24987
1.25467
1.25942
1.26414
1.26881
1.27343
1.278
1.28251
1.28697
1.29137
1.29571
1.29998
1.30417
1.30829
1.31233
1.31628
1.32015
1.32391
1.32758
1.33113
1.33457
1.33789
1.34108
1.34414
1.34704
1.3498
1.3524
1.35483
1.35708
1.35914
1.36101
1.36265
1.15882
1.16412
1.1694
1.17466
1.1799
1.18511
1.19031
1.19548
1.20063
1.20575
1.21084
1.21591
1.22094
1.22595
1.23092
1.23586
1.24076
1.24563
1.25045
1.25523
1.25997
1.26466
1.26929
1.27388
1.27841
1.28288
1.28729
1.29163
1.29589
1.30009
1.3042
1.30823
1.31217
1.31602
1.31976
1.3234
1.32692
1.33032
1.3336
1.33674
1.33974
1.34259
1.34528
1.3478
1.35015
1.3523
1.35427
1.35603
1.35756
1.15415
1.15949
1.16481
1.17011
1.17538
1.18064
1.18587
1.19108
1.19626
1.20141
1.20654
1.21164
1.21671
1.22174
1.22674
1.23171
1.23664
1.24152
1.24637
1.25117
1.25593
1.26063
1.26528
1.26988
1.27442
1.2789
1.28331
1.28765
1.29191
1.2961
1.3002
1.30422
1.30814
1.31196
1.31567
1.31928
1.32276
1.32612
1.32935
1.33244
1.33537
1.33815
1.34076
1.3432
1.34545
1.34751
1.34936
1.35101
1.35241
1.14965
1.15502
1.16038
1.16572
1.17103
1.17632
1.18159
1.18683
1.19204
1.19723
1.20239
1.20752
1.21261
1.21768
1.2227
1.22769
1.23264
1.23755
1.24242
1.24724
1.25201
1.25672
1.26139
1.26599
1.27053
1.27501
1.27942
1.28376
1.28801
1.29219
1.29628
1.30027
1.30417
1.30796
1.31164
1.31521
1.31865
1.32195
1.32512
1.32814
1.33101
1.33371
1.33623
1.33858
1.34073
1.34268
1.34442
1.34594
1.34721
1.15072
1.15611
1.16149
1.16683
1.17216
1.17746
1.18273
1.18797
1.19319
1.19838
1.20353
1.20866
1.21374
1.21879
1.2238
1.22877
1.2337
1.23858
1.24341
1.24819
1.25292
1.25759
1.2622
1.26674
1.27122
1.27562
1.27995
1.28419
1.28835
1.29241
1.29638
1.30025
1.304
1.30764
1.31116
1.31455
1.31779
1.3209
1.32384
1.32663
1.32924
1.33168
1.33392
1.33597
1.3378
1.33942
1.34081
1.34194
1.14657
1.152
1.1574
1.16278
1.16814
1.17347
1.17877
1.18404
1.18929
1.1945
1.19968
1.20482
1.20993
1.215
1.22003
1.22502
1.22996
1.23485
1.23969
1.24448
1.24921
1.25388
1.25849
1.26303
1.2675
1.27189
1.2762
1.28043
1.28456
1.2886
1.29253
1.29636
1.30007
1.30366
1.30712
1.31045
1.31363
1.31666
1.31953
1.32223
1.32475
1.32708
1.32922
1.33115
1.33286
1.33434
1.33559
1.33657
1.14802
1.15346
1.15887
1.16425
1.16961
1.17494
1.18024
1.1855
1.19074
1.19594
1.20111
1.20623
1.21132
1.21636
1.22136
1.22631
1.23121
1.23606
1.24085
1.24558
1.25025
1.25485
1.25938
1.26384
1.26821
1.2725
1.2767
1.28081
1.28481
1.2887
1.29249
1.29615
1.29968
1.30309
1.30634
1.30945
1.3124
1.31519
1.31779
1.32021
1.32244
1.32445
1.32626
1.32783
1.32917
1.33027
1.33109
1.14418
1.14964
1.15508
1.16049
1.16587
1.17122
1.17655
1.18184
1.18709
1.19231
1.19749
1.20263
1.20773
1.21279
1.2178
1.22275
1.22766
1.23251
1.2373
1.24202
1.24668
1.25127
1.25579
1.26022
1.26457
1.26883
1.273
1.27707
1.28103
1.28488
1.28862
1.29222
1.2957
1.29903
1.30222
1.30524
1.30811
1.31079
1.3133
1.31561
1.31771
1.31961
1.32128
1.32271
1.3239
1.32484
1.32549
1.14595
1.15141
1.15684
1.16225
1.16762
1.17296
1.17827
1.18354
1.18878
1.19397
1.19913
1.20424
1.2093
1.21431
1.21927
1.22417
1.22902
1.2338
1.23851
1.24316
1.24773
1.25222
1.25663
1.26096
1.26519
1.26932
1.27334
1.27726
1.28106
1.28474
1.28828
1.29168
1.29494
1.29805
1.30099
1.30375
1.30634
1.30873
1.31092
1.3129
1.31466
1.31619
1.31747
1.3185
1.31927
1.31975
1.14237
1.14785
1.1533
1.15873
1.16412
1.16948
1.1748
1.18009
1.18533
1.19054
1.1957
1.20081
1.20587
1.21088
1.21584
1.22073
1.22557
1.23034
1.23504
1.23967
1.24422
1.24868
1.25307
1.25735
1.26155
1.26563
1.26961
1.27348
1.27722
1.28083
1.2843
1.28763
1.29081
1.29382
1.29666
1.29933
1.3018
1.30408
1.30614
1.30799
1.30961
1.31098
1.31211
1.31297
1.31356
1.31385
1.13889
1.14439
1.14986
1.1553
1.16071
1.16608
1.17141
1.17671
1.18196
1.18717
1.19233
1.19744
1.2025
1.2075
1.21245
1.21734
1.22216
1.22691
1.23159
1.2362
1.24072
1.24516
1.2495
1.25375
1.2579
1.26194
1.26586
1.26966
1.27334
1.27688
1.28028
1.28352
1.28661
1.28952
1.29226
1.29482
1.29717
1.29932
1.30125
1.30296
1.30442
1.30564
1.30659
1.30728
1.30769
1.30778
1.1355
1.14102
1.1465
1.15195
1.15737
1.16275
1.16809
1.17339
1.17864
1.18385
1.18901
1.19412
1.19917
1.20417
1.2091
1.21397
1.21877
1.22351
1.22816
1.23274
1.23722
1.24162
1.24593
1.25013
1.25423
1.25821
1.26207
1.26581
1.26941
1.27287
1.27618
1.27934
1.28233
1.28514
1.28777
1.2902
1.29243
1.29445
1.29624
1.29779
1.2991
1.30014
1.30092
1.30142
1.30163
1.30152
1.13219
1.13772
1.14321
1.14867
1.15409
1.15948
1.16482
1.17012
1.17537
1.18058
1.18573
1.19083
1.19587
1.20085
1.20577
1.21062
1.2154
1.2201
1.22473
1.22927
1.23372
1.23807
1.24233
1.24648
1.25051
1.25443
1.25823
1.26189
1.26542
1.26879
1.27201
1.27507
1.27795
1.28066
1.28317
1.28547
1.28757
1.28944
1.29108
1.29247
1.29361
1.29449
1.29508
1.29539
1.29539
1.29508
1.12894
1.13447
1.13998
1.14544
1.15087
1.15625
1.16159
1.16689
1.17214
1.17733
1.18248
1.18756
1.19259
1.19755
1.20244
1.20727
1.21202
1.21669
1.22128
1.22577
1.23018
1.23448
1.23869
1.24278
1.24675
1.2506
1.25432
1.25791
1.26134
1.26463
1.26775
1.2707
1.27347
1.27606
1.27844
1.28061
1.28257
1.28429
1.28577
1.287
1.28796
1.28865
1.28905
1.28916
1.28897
1.28845
1.12575
1.13129
1.13679
1.14226
1.14768
1.15307
1.1584
1.16369
1.16893
1.17411
1.17924
1.1843
1.18931
1.19425
1.19911
1.20391
1.20862
1.21325
1.2178
1.22225
1.2266
1.23085
1.23499
1.23902
1.24292
1.2467
1.25034
1.25383
1.25718
1.26036
1.26338
1.26622
1.26887
1.27133
1.27358
1.27561
1.27741
1.27898
1.28029
1.28135
1.28213
1.28262
1.28284
1.28275
1.28236
1.28162
1.12814
1.13365
1.13911
1.14453
1.1499
1.15523
1.1605
1.16572
1.17089
1.176
1.18104
1.18602
1.19092
1.19576
1.20051
1.20519
1.20978
1.21427
1.21867
1.22297
1.22715
1.23123
1.23518
1.23901
1.2427
1.24626
1.24966
1.2529
1.25598
1.25889
1.26161
1.26413
1.26646
1.26856
1.27045
1.27209
1.2735
1.27464
1.27551
1.27611
1.27642
1.27644
1.27614
1.27553
1.27455
1.12502
1.13052
1.13598
1.14139
1.14675
1.15206
1.15732
1.16252
1.16766
1.17274
1.17776
1.1827
1.18757
1.19237
1.19708
1.20171
1.20625
1.21069
1.21503
1.21926
1.22338
1.22738
1.23126
1.23501
1.23861
1.24207
1.24537
1.24851
1.25147
1.25426
1.25685
1.25925
1.26143
1.26339
1.26512
1.2666
1.26783
1.2688
1.26949
1.26991
1.27002
1.26983
1.26931
1.26847
1.26726
1.12192
1.12741
1.13285
1.13825
1.14359
1.14888
1.15412
1.1593
1.16441
1.16946
1.17444
1.17935
1.18418
1.18893
1.1936
1.19817
1.20265
1.20704
1.21131
1.21548
1.21952
1.22344
1.22724
1.23089
1.2344
1.23776
1.24095
1.24398
1.24683
1.24949
1.25195
1.2542
1.25624
1.25804
1.2596
1.26093
1.26198
1.26278
1.26329
1.2635
1.26341
1.26299
1.26225
1.26118
1.25973
1.12429
1.12972
1.1351
1.14042
1.14569
1.1509
1.15604
1.16113
1.16614
1.17108
1.17595
1.18073
1.18543
1.19005
1.19456
1.19898
1.2033
1.2075
1.21159
1.21556
1.2194
1.2231
1.22666
1.23007
1.23332
1.2364
1.23931
1.24203
1.24455
1.24688
1.24898