/*--------------------------------*- C++ -*----------------------------------*\
| =========                 |                                                 |
| \\      /  F ield         | OpenFOAM: The Open Source CFD Toolbox           |
|  \\    /   O peration     | Version:  v1706                                 |
|   \\  /    A nd           | Web:      www.OpenFOAM.com                      |
|    \\/     M anipulation  |                                                 |
\*---------------------------------------------------------------------------*/
FoamFile
{
    version     2.0;
    format      ascii;
    class       volScalarField;
    location    "3.2e-05";
    object      wallHeatFlux;
}
// * * * * * * * * * * * * * * * * * * * * * * * * * * * * * * * * * * * * * //

dimensions      [1 0 -3 0 0 0 0];


internalField   uniform 0;

boundaryField
{
    cone
    {
        type            calculated;
        value           nonuniform List<scalar> 
153
(
10459.8
10331.2
10203.2
10075.7
9948.77
9822.29
9696.27
9570.72
9445.66
9321.1
9197.05
9073.54
8950.57
8828.17
8706.36
8585.14
8464.55
8344.59
8225.27
8106.63
7988.66
7871.38
7754.81
7638.95
7523.82
7409.41
7295.74
7182.8
7070.61
6959.14
6848.4
6738.38
6629.07
6520.44
6412.49
6305.18
6198.48
6092.37
5986.8
5881.72
5777.07
5672.78
5568.73
5464.8
5360.76
5256.34
5151.16
5042.9
4931.69
4821.67
4713.42
4607.61
4504.02
4402.45
4302.76
4204.83
4108.59
4013.99
3921
3829.6
3739.8
3651.59
3564.98
3479.98
3396.61
3314.89
3234.83
3156.45
3079.78
3004.84
2931.64
2860.2
2790.54
2722.68
2656.62
2592.38
2529.96
2469.36
2410.57
2353.6
2298.41
2245
2193.33
2143.37
2095.07
2048.38
2003.24
1959.57
1917.3
1876.34
1836.58
1797.9
1760.22
1723.4
1687.34
1651.89
1616.93
1582.33
1547.97
1513.74
1479.52
1445.22
1410.78
1376.13
1341.24
1306.12
1270.79
1235.31
1199.76
1164.28
1129.03
1094.21
1060.04
1026.78
994.717
964.165
935.498
908.96
884.829
863.648
845.871
831.929
822.263
817.168
816.427
819.848
828.22
841.869
860.756
884.794
913.848
947.717
986.112
1028.65
1074.85
1124.13
1175.84
1229.22
1283.49
1337.59
1390.8
1442.31
1490.8
1535.2
1574.81
1608.92
1636.91
1658.34
1672.93
1680.88
1682.1
1677.1
1665.91
)
;
    }
    inlet
    {
        type            calculated;
        value           uniform 0;
    }
    rWedge
    {
        type            wedge;
    }
    lWedge
    {
        type            wedge;
    }
    outlet
    {
        type            calculated;
        value           nonuniform 0();
    }
    procBoundary2to0
    {
        type            processor;
        value           uniform 0;
    }
    procBoundary2to1
    {
        type            processor;
        value           uniform 0;
    }
    procBoundary2to3
    {
        type            processor;
        value           uniform 0;
    }
}


// ************************************************************************* //
