/*--------------------------------*- C++ -*----------------------------------*\
| =========                 |                                                 |
| \\      /  F ield         | OpenFOAM: The Open Source CFD Toolbox           |
|  \\    /   O peration     | Version:  v1706                                 |
|   \\  /    A nd           | Web:      www.OpenFOAM.com                      |
|    \\/     M anipulation  |                                                 |
\*---------------------------------------------------------------------------*/
FoamFile
{
    version     2.0;
    format      ascii;
    class       volScalarField;
    location    "3.5e-05";
    object      Mach;
}
// * * * * * * * * * * * * * * * * * * * * * * * * * * * * * * * * * * * * * //

dimensions      [0 0 0 0 0 0 0];


internalField   nonuniform List<scalar> 
30104
(
7.18506
7.18506
7.18506
7.18506
7.18506
7.18506
7.18506
7.18506
7.18506
7.18506
7.18506
7.18506
7.18506
7.18506
7.18506
7.18506
7.18506
7.18506
7.18506
7.18506
7.18506
7.18506
7.18506
7.18506
7.18506
7.18506
7.18506
7.18506
7.18506
7.18506
7.18506
7.18506
7.18506
7.18506
7.18506
7.18506
7.18506
7.18506
7.18506
7.18506
7.18506
7.18506
7.18506
7.18506
7.18506
7.18506
7.18506
7.18506
7.18506
7.18506
7.18506
7.18506
7.18506
7.18506
7.18506
7.18506
7.18506
7.18506
7.18506
7.18506
7.18506
7.18506
7.18506
7.18506
7.18506
7.18506
7.18506
7.18506
7.18506
7.18506
7.18506
7.18506
7.18506
7.18506
7.18506
7.18506
7.18506
7.18506
7.18506
7.18506
7.18506
7.18506
7.18506
7.18506
7.18506
7.18506
7.18506
7.18506
7.18506
7.18506
7.18506
7.18506
7.18506
7.18506
7.18506
7.18506
7.18506
7.18506
7.18506
7.18506
7.18506
7.18506
7.18506
7.18506
7.18506
7.18506
7.18506
7.18506
7.18506
7.18506
7.18506
7.18506
7.18506
7.18506
7.18506
7.18506
7.18506
7.18506
7.18506
7.18506
7.18506
7.18506
7.18506
7.18506
7.18506
7.18506
7.18506
7.18506
7.18506
7.18506
7.18506
7.18506
7.18506
7.18506
7.18506
7.18506
7.18506
7.18506
7.18506
7.18506
7.18506
7.18506
7.18506
7.18506
7.18506
7.18506
7.18506
7.18506
7.18506
7.18506
7.18506
7.18506
7.18506
7.18506
7.18506
7.18506
7.18506
7.18506
7.18506
7.18506
7.18506
7.18506
7.18506
7.18506
7.18506
7.18506
7.18506
7.18506
7.18506
7.18506
7.18506
7.18506
7.18506
7.18506
7.18506
7.18506
7.18506
7.18506
7.18506
7.18506
7.18506
7.18506
7.18506
7.18506
7.18506
7.18506
7.18506
7.18506
7.18506
7.18506
7.18506
7.18506
7.18506
7.18506
7.18506
7.18506
7.18506
7.18506
7.18506
7.18506
7.18506
7.18506
7.18506
7.18506
7.18506
7.18506
7.18506
7.18506
7.18506
7.18506
7.18506
7.18506
7.18506
7.18506
7.18506
7.18506
7.18506
7.18506
7.18506
7.18506
7.18506
7.18506
7.18506
7.18506
7.18506
7.18506
7.18506
7.18506
7.18506
7.18506
7.18506
7.18506
7.18506
7.18506
7.18506
7.18506
7.18506
7.18506
7.18506
7.18506
7.18506
7.18506
7.18506
7.18506
7.18506
7.18506
7.18506
7.18506
7.18506
7.18506
7.18506
7.18506
7.18506
7.18506
7.18506
7.18506
7.18506
7.18506
7.18506
7.18506
7.18506
7.18506
7.18506
7.18506
7.18506
7.18506
7.18506
7.18506
7.18506
7.18506
7.18506
7.18506
7.18506
7.18506
7.18506
7.18506
7.18506
7.18506
7.18506
7.18506
7.18506
7.18506
7.18506
7.18506
7.18506
7.18506
7.18506
7.18506
7.18506
7.18506
7.18506
7.18506
7.18506
7.18506
7.18506
7.18506
7.18506
7.18506
7.18506
7.18506
7.18506
7.18506
7.18506
7.18506
7.18506
7.18506
7.18506
7.18506
7.18506
7.18506
7.18506
7.18506
7.18506
7.18506
7.18506
7.18506
7.18506
7.18506
7.18506
7.18506
7.18506
7.18506
7.18506
7.18506
7.18506
7.18506
7.18506
7.18506
7.18506
7.18506
7.18506
7.18506
7.18506
7.18506
7.18506
7.18506
7.18506
7.18506
7.18506
7.18506
7.18506
7.18506
7.18506
7.18506
7.18506
7.18506
7.18506
7.18506
7.18506
7.18506
7.18506
7.18506
7.18506
7.18506
7.18506
7.18506
7.18506
7.18506
7.18506
7.18506
7.18506
7.18506
7.18506
7.18506
7.18506
7.18506
7.18506
7.18506
7.18506
7.18506
7.18506
7.18506
7.18506
7.18506
7.18506
7.18506
7.18506
7.18506
7.18506
7.18506
7.18506
7.18506
7.18506
7.18506
7.18506
7.18506
7.18506
7.18506
7.18506
7.18506
7.18506
7.18506
7.18506
7.18506
7.18506
7.18506
7.18506
7.18506
7.18506
7.18506
7.18506
7.18506
7.18506
7.18506
7.18506
7.18506
7.18506
7.18506
7.18506
7.18506
7.18506
7.18506
7.18506
7.18506
7.18506
7.18506
7.18506
7.18506
7.18506
7.18506
7.18506
7.18506
7.18506
7.18506
7.18506
7.18506
7.18506
7.18506
7.18506
7.18506
7.18506
7.18506
7.18506
7.18506
7.18506
7.18506
7.18506
7.18506
7.18506
7.18506
7.18506
7.18506
7.18506
7.18506
7.18506
7.18506
7.18506
7.18506
7.18506
7.18506
7.18506
7.18506
7.18506
7.18506
7.18506
7.18506
7.18506
7.18506
7.18506
7.18506
7.18506
7.18506
7.18506
7.18506
7.18506
7.18506
7.18506
7.18506
7.18506
7.18506
7.18506
7.18506
7.18506
7.18506
7.18506
7.18506
7.18506
7.18506
7.18506
7.18506
7.18506
7.18506
7.18506
7.18506
7.18506
7.18506
7.18506
7.18506
7.18506
7.18506
7.18506
7.18506
7.18506
7.18506
7.18506
7.18506
7.18506
7.18506
7.18506
7.18506
7.18506
7.18506
7.18506
7.18506
7.18506
7.18506
7.18506
7.18506
7.18506
7.18506
7.18506
7.18506
7.18506
7.18506
7.18506
7.18506
7.18506
7.18506
7.18506
7.18506
7.18506
7.18506
7.18506
7.18506
7.18506
7.18506
7.18506
7.18506
7.18506
7.18506
7.18506
7.18506
7.18506
7.18506
7.18506
7.18506
7.18506
7.18506
7.18506
7.18506
7.18506
7.18506
7.18506
7.18506
7.18506
7.18506
7.18506
7.18506
7.18506
7.18506
7.18506
7.18506
7.18506
7.18506
7.18506
7.18506
7.18506
7.18506
7.18506
7.18506
7.18506
7.18506
7.18506
7.18506
7.18506
7.18506
7.18506
7.18506
7.18506
7.18506
7.18506
7.18506
7.18506
7.18506
7.18506
7.18506
7.18506
7.18506
7.18506
7.18506
7.18506
7.18506
7.18506
7.18506
7.18506
7.18506
7.18506
7.18506
7.18506
7.18506
7.18506
7.18506
7.18506
7.18506
7.18506
7.18506
7.18506
7.18506
7.18506
7.18506
7.18506
7.18506
7.18506
7.18506
7.18506
7.18506
7.18506
7.18506
7.18506
7.18506
7.18506
7.18506
7.18506
7.18506
7.18506
7.18506
7.18506
7.18506
7.18506
7.18506
7.18506
7.18506
7.18506
7.18506
7.18506
7.18506
7.18506
7.18506
7.18506
7.18506
7.18506
7.18506
7.18506
7.18506
7.18506
7.18506
7.18506
7.18506
7.18506
7.18506
7.18506
7.18506
7.18506
7.18506
7.18506
7.18506
7.18506
7.18506
7.18506
7.18506
7.18506
7.18506
7.18506
7.18506
7.18506
7.18506
7.18506
7.18506
7.18506
7.18506
7.18506
7.18506
7.18506
7.18506
7.18506
7.18506
7.18506
7.18506
7.18506
7.18506
7.18506
7.18506
7.18506
7.18506
7.18506
7.18506
7.18506
7.18506
7.18506
7.18506
7.18506
7.18506
7.18506
7.18506
7.18506
7.18506
7.18506
7.18506
7.18506
7.18506
7.18506
7.18506
7.18506
7.18506
7.18506
7.18506
7.18506
7.18506
7.18506
7.18506
7.18506
7.18506
7.18506
7.18506
7.18506
7.18506
7.18506
7.18506
7.18506
7.18506
7.18506
7.18506
7.18506
7.18506
7.18506
7.18506
7.18506
7.18506
7.18506
7.18506
7.18506
7.18506
7.18506
7.18506
7.18506
7.18506
7.18506
7.18506
7.18506
7.18506
7.18506
7.18506
7.18506
7.18506
7.18506
7.18506
7.18506
7.18506
7.18506
7.18506
7.18506
7.18506
7.18506
7.18506
7.18506
7.18506
7.18506
7.18506
7.18506
7.18506
7.18506
7.18506
7.18506
7.18506
7.18506
7.18506
7.18506
7.18506
7.18506
7.18506
7.18506
7.18506
7.18506
7.18506
7.18506
7.18506
7.18506
7.18506
7.18506
7.18506
7.18506
7.18506
7.18506
7.18506
7.18506
7.18506
7.18506
7.18506
7.18506
7.18506
7.18506
7.18506
7.18506
7.18506
7.18506
7.18506
7.18506
7.18506
7.18506
7.18506
7.18506
7.18506
7.18506
7.18506
7.18506
7.18506
7.18506
7.18506
7.18506
7.18506
7.18506
7.18506
7.18506
7.18506
7.18506
7.18506
7.18506
7.18506
7.18506
7.18506
7.18506
7.18506
7.18506
7.18506
7.18506
7.18506
7.18506
7.18506
7.18506
7.18506
7.18506
7.18506
7.18506
7.18506
7.18506
7.18506
7.18506
7.18506
7.18506
7.18506
7.18506
7.18506
7.18506
7.18506
7.18506
7.18506
7.18506
7.18506
7.18506
7.18506
7.18506
7.18506
7.18506
7.18506
7.18506
7.18506
7.18506
7.18506
7.18506
7.18506
7.18506
7.18506
7.18506
7.18506
7.18506
7.18506
7.18506
7.18506
7.18506
7.18506
7.18506
7.18506
7.18506
7.18506
7.18506
7.18506
7.18506
7.18506
7.18506
7.18506
7.18506
7.18506
7.18506
7.18506
7.18506
7.18506
7.18506
7.18506
7.18506
7.18506
7.18506
7.18506
7.18506
7.18506
7.18506
7.18506
7.18506
7.18506
7.18506
7.18506
7.18506
7.18506
7.18506
7.18506
7.18506
7.18506
7.18506
7.18506
7.18506
7.18506
7.18506
7.18506
7.18506
7.18506
7.18506
7.18506
7.18506
7.18506
7.18506
7.18506
7.18506
7.18506
7.18506
7.18506
7.18506
7.18506
7.18506
7.18506
7.18506
7.18506
7.18506
7.18506
7.18506
7.18506
7.18506
7.18506
7.18506
7.18506
7.18506
7.18506
7.18506
7.18506
7.18506
7.18506
7.18506
7.18506
7.18506
7.18506
7.18506
7.18506
7.18506
7.18506
7.18506
7.18506
7.18506
7.18506
7.18506
7.18506
7.18506
7.18506
7.18506
7.18506
7.18506
7.18506
7.18506
7.18506
7.18506
7.18506
7.18506
7.18506
7.18506
7.18506
7.18506
7.18506
7.18506
7.18506
7.18506
7.18506
7.18506
7.18506
7.18506
7.18506
7.18506
7.18506
7.18506
7.18506
7.18506
7.18506
7.18506
7.18506
7.18506
7.18506
7.18506
7.18506
7.18506
7.18506
7.18506
7.18506
7.18506
7.18506
7.18506
7.18506
7.18506
7.18506
7.18506
7.18506
7.18506
7.18506
7.18506
7.18506
7.18506
7.18506
7.18506
7.18506
7.18506
7.18506
7.18506
7.18506
7.18506
7.18506
7.18506
7.18506
7.18506
7.18506
7.18506
7.18506
7.18506
7.18506
7.18506
7.18506
7.18506
7.18506
7.18506
7.18506
7.18506
7.18506
7.18506
7.18506
7.18506
7.18506
7.18506
7.18506
7.18506
7.18506
7.18506
7.18506
7.18506
7.18506
7.18506
7.18506
7.18506
7.18506
7.18506
7.18506
7.18506
7.18506
7.18506
7.18506
7.18506
7.18506
7.18506
7.18506
7.18506
7.18506
7.18506
7.18506
7.18506
7.18506
7.18506
7.18506
7.18506
7.18506
7.18506
7.18506
7.18506
7.18506
7.18506
7.18506
7.18506
7.18506
7.18506
7.18506
7.18506
7.18506
7.18506
7.18506
7.18506
7.18506
7.18506
7.18506
7.18506
7.18506
7.18506
7.18506
7.18506
7.18506
7.18506
7.18506
7.18506
7.18506
7.18506
7.18506
7.18506
7.18506
7.18506
7.18506
7.18506
7.18506
7.18506
7.18506
7.18506
7.18506
7.18506
7.18506
7.18506
7.18506
7.18506
7.18506
7.18506
7.18506
7.18506
7.18506
7.18506
7.18506
7.18506
7.18506
7.18506
7.18506
7.18506
7.18506
7.18506
7.18506
7.18506
7.18506
7.18506
7.18506
7.18506
7.18506
7.18506
7.18506
7.18506
7.18506
7.18506
7.18506
7.18506
7.18506
7.18506
7.18506
7.18506
7.18506
7.18506
7.18506
7.18506
7.18506
7.18506
7.18506
7.18506
7.18506
7.18506
7.18506
7.18506
7.18506
7.18506
7.18506
7.18506
7.18506
7.18506
7.18506
7.18506
7.18506
7.18506
7.18506
7.18506
7.18506
7.18506
7.18506
7.18506
7.18506
7.18506
7.18506
7.18506
7.18506
7.18506
7.18506
7.18506
7.18506
7.18506
7.18506
7.18506
7.18506
7.18506
7.18506
7.18506
7.18506
7.18506
7.18506
7.18506
7.18506
7.18506
7.18506
7.18506
7.18506
7.18506
7.18506
7.18506
7.18506
7.18506
7.18506
7.18506
7.18506
7.18506
7.18506
7.18506
7.18506
7.18506
7.18506
7.18506
7.18506
7.18506
7.18506
7.18506
7.18506
7.18506
7.18506
7.18506
7.18506
7.18506
7.18506
7.18506
7.18506
7.18506
7.18506
7.18506
7.18506
7.18506
7.18506
7.18506
7.18506
7.18506
7.18506
7.18506
7.18506
7.18506
7.18506
7.18506
7.18506
7.18506
7.18506
7.18506
7.18506
7.18506
7.18506
7.18506
7.18506
7.18506
7.18506
7.18506
7.18506
7.18506
7.18506
7.18506
7.18506
7.18506
7.18506
7.18506
7.18506
7.18506
7.18506
7.18506
7.18506
7.18506
7.18506
7.18506
7.18506
7.18506
7.18506
7.18506
7.18506
7.18506
7.18506
7.18506
7.18506
7.18506
7.18506
7.18506
7.18506
7.18506
7.18506
7.18506
7.18506
7.18506
7.18506
7.18506
7.18506
7.18506
7.18506
7.18506
7.18506
7.18506
7.18506
7.18506
7.18506
7.18506
7.18506
7.18506
7.18506
7.18506
7.18506
7.18506
7.18506
7.18506
7.18506
7.18506
7.18506
7.18506
7.18506
7.18506
7.18506
7.18506
7.18506
7.18506
7.18506
7.18506
7.18506
7.18506
7.18506
7.18506
7.18506
7.18506
7.18506
7.18506
7.18506
7.18506
7.18506
7.18506
7.18506
7.18506
7.18506
7.18506
7.18506
7.18506
7.18506
7.18506
7.18506
7.18506
7.18506
7.18506
7.18506
7.18506
7.18506
7.18506
7.18506
7.18506
7.18506
7.18506
7.18506
7.18506
7.18506
7.18506
7.18506
7.18506
7.18506
7.18506
7.18506
7.18506
7.18506
7.18506
7.18506
7.18506
7.18506
7.18506
7.18506
7.18506
7.18506
7.18506
7.18506
7.18506
7.18506
7.18506
7.18506
7.18506
7.18506
7.18506
7.18506
7.18506
7.18506
7.18506
7.18506
7.18506
7.18506
7.18506
7.18506
7.18506
7.18506
7.18506
7.18506
7.18506
7.18506
7.18506
7.18506
7.18506
7.18506
7.18506
7.18506
7.18506
7.18506
7.18506
7.18506
7.18506
7.18506
7.18506
7.18506
7.18506
7.18506
7.18506
7.18506
7.18506
7.18506
7.18506
7.18506
7.18506
7.18506
7.18506
7.18506
7.18506
7.18506
7.18506
7.18506
7.18506
7.18506
7.18506
7.18506
7.18506
7.18506
7.18506
7.18506
7.18506
7.18506
7.18506
7.18506
7.18506
7.18506
7.18506
7.18506
7.18506
7.18506
7.18506
7.18506
7.18506
7.18506
7.18506
7.18506
7.18506
7.18506
7.18506
7.18506
7.18506
7.18506
7.18506
7.18506
7.18506
7.18506
7.18506
7.18506
7.18506
7.18506
7.18506
7.18506
7.18506
7.18506
7.18506
7.18506
7.18506
7.18506
7.18506
7.18506
7.18506
7.18506
7.18506
7.18506
7.18506
7.18506
7.18506
7.18506
7.18506
7.18506
7.18506
7.18506
7.18506
7.18506
7.18506
7.18506
7.18506
7.18506
7.18506
7.18506
7.18506
7.18506
7.18506
7.18506
7.18506
7.18506
7.18506
7.18506
7.18506
7.18506
7.18506
7.18506
7.18506
7.18506
7.18506
7.18506
7.18506
7.18506
7.18506
7.18506
7.18506
7.18506
7.18506
7.18506
7.18506
7.18506
7.18506
7.18506
7.18506
7.18506
7.18506
7.18506
7.18506
7.18506
7.18506
7.18506
7.18505
7.18505
7.18505
7.18505
7.18505
7.18505
7.18505
7.18505
7.18504
7.18504
7.18504
7.18504
7.18504
7.18503
7.18503
7.18503
7.18503
7.18502
7.18502
7.18502
7.18502
7.18502
7.18502
7.18502
7.18502
7.18502
7.18502
7.18502
7.18502
7.18502
7.18502
7.18502
7.18502
7.18502
7.18502
7.18502
7.18502
7.18502
7.18502
7.18502
7.18502
7.18502
7.18502
7.18502
7.18502
7.18503
7.18503
7.18503
7.18503
7.18503
7.18503
7.18503
7.18503
7.18503
7.18504
7.18504
7.18504
7.18504
7.18504
7.18504
7.18504
7.18505
7.18505
7.18505
7.18505
7.18505
7.18505
7.18505
7.18506
7.18506
7.18506
7.18506
7.18506
7.18506
7.18506
7.18506
7.18506
7.18506
7.18506
7.18506
7.18506
7.18506
7.18506
7.18506
7.18506
7.18506
7.18506
7.18506
7.18506
7.18506
7.18506
7.18506
7.18506
7.18506
7.18506
7.18506
7.18506
7.18506
7.18506
7.18506
7.18506
7.18506
7.18506
7.18506
7.18506
7.18506
7.18506
7.18506
7.18506
7.18506
7.18506
7.18506
7.18506
7.18506
7.18506
7.18506
7.18506
7.18506
7.18506
7.18506
7.18506
7.18506
7.18506
7.18506
7.18506
7.18506
7.18506
7.18506
7.18506
7.18506
7.18506
7.18506
7.18506
7.18506
7.18506
7.18506
7.18506
7.18506
7.18506
7.18506
7.18506
7.18506
7.18506
7.18506
7.18506
7.18506
7.18506
7.18506
7.18506
7.18506
7.18506
7.18506
7.18506
7.18506
7.18506
7.18506
7.18506
7.18506
7.18506
7.18506
7.18506
7.18506
7.18506
7.18506
7.18506
7.18506
7.18506
7.18506
7.18506
7.18506
7.18506
7.18506
7.18506
7.18506
7.18506
7.18506
7.18506
7.18506
7.18506
7.18506
7.18506
7.18506
7.18506
7.18506
7.18506
7.18506
7.18506
7.18506
7.18506
7.18506
7.18506
7.18506
7.18506
7.18505
7.18505
7.18505
7.18505
7.18505
7.18504
7.18504
7.18504
7.18504
7.18503
7.18503
7.18502
7.18502
7.18501
7.185
7.18499
7.18498
7.18498
7.18497
7.18496
7.18495
7.18494
7.18493
7.18492
7.18491
7.18489
7.18488
7.18486
7.18485
7.18483
7.18482
7.18481
7.1848
7.18479
7.18478
7.18477
7.18477
7.18476
7.18476
7.18476
7.18476
7.18476
7.18476
7.18476
7.18476
7.18476
7.18476
7.18476
7.18476
7.18477
7.18477
7.18477
7.18478
7.18478
7.18478
7.18479
7.18479
7.1848
7.1848
7.18481
7.18482
7.18482
7.18483
7.18484
7.18484
7.18485
7.18486
7.18487
7.18488
7.18489
7.1849
7.1849
7.18491
7.18492
7.18493
7.18494
7.18495
7.18496
7.18497
7.18498
7.18499
7.185
7.18501
7.18502
7.18502
7.18503
7.18503
7.18504
7.18504
7.18504
7.18505
7.18505
7.18505
7.18505
7.18506
7.18506
7.18506
7.18506
7.18506
7.18506
7.18506
7.18506
7.18506
7.18506
7.18506
7.18506
7.18506
7.18506
7.18506
7.18506
7.18506
7.18506
7.18506
7.18506
7.18506
7.18506
7.18506
7.18506
7.18506
7.18506
7.18506
7.18506
7.18506
7.18506
7.18506
7.18506
7.18506
7.18506
7.18506
7.18506
7.18506
7.18506
7.18506
7.18506
7.18506
7.18506
7.18506
7.18506
7.18506
7.18506
7.18506
7.18506
7.18506
7.18506
7.18506
7.18506
7.18506
7.18506
7.18506
7.18506
7.18506
7.18506
7.18506
7.18506
7.18506
7.18506
7.18506
7.18506
7.18506
7.18506
7.18506
7.18506
7.18506
7.18506
7.18506
7.18506
7.18506
7.18506
7.18506
7.18506
7.18506
7.18506
7.18506
7.18506
7.18506
7.18506
7.18506
7.18506
7.18506
7.18506
7.18506
7.18506
7.18506
7.18506
7.18506
7.18506
7.18506
7.18506
7.18506
7.18506
7.18506
7.18506
7.18505
7.18505
7.18505
7.18505
7.18505
7.18505
7.18504
7.18504
7.18504
7.18503
7.18503
7.18503
7.18502
7.18501
7.18501
7.185
7.18499
7.18498
7.18497
7.18495
7.18494
7.18492
7.1849
7.18488
7.18486
7.18483
7.1848
7.18476
7.18471
7.18467
7.18462
7.18457
7.18451
7.18446
7.18441
7.18436
7.1843
7.18424
7.18417
7.18409
7.184
7.1839
7.18379
7.18369
7.18359
7.1835
7.18342
7.18334
7.18328
7.18322
7.18318
7.18315
7.18312
7.1831
7.18308
7.18307
7.18307
7.18307
7.18307
7.18307
7.18308
7.18309
7.1831
7.18311
7.18312
7.18314
7.18315
7.18317
7.18319
7.18322
7.18325
7.18328
7.18331
7.18334
7.18338
7.18342
7.18346
7.18351
7.18355
7.1836
7.18365
7.1837
7.18375
7.18381
7.18387
7.18393
7.18399
7.18406
7.18412
7.18419
7.18425
7.18432
7.18439
7.18446
7.18452
7.18459
7.18464
7.18469
7.18474
7.18478
7.18481
7.18484
7.18487
7.1849
7.18492
7.18494
7.18496
7.18498
7.18499
7.18501
7.18502
7.18502
7.18503
7.18504
7.18504
7.18505
7.18505
7.18505
7.18506
7.18506
7.18506
7.18506
7.18506
7.18506
7.18506
7.18506
7.18506
7.18506
7.18506
7.18506
7.18506
7.18506
7.18506
7.18506
7.18506
7.18506
7.18506
7.18506
7.18506
7.18506
7.18506
7.18506
7.18506
7.18506
7.18506
7.18506
7.18506
7.18506
7.18506
7.18506
7.18506
7.18506
7.18506
7.18506
7.18506
7.18506
7.18506
7.18506
7.18506
7.18506
7.18506
7.18506
7.18506
7.18506
7.18506
7.18506
7.18506
7.18506
7.18506
7.18506
7.18506
7.18506
7.18506
7.18506
7.18506
7.18506
7.18506
7.18506
7.18506
7.18506
7.18506
7.18506
7.18506
7.18506
7.18506
7.18506
7.18506
7.18506
7.18506
7.18506
7.18506
7.18506
7.18505
7.18505
7.18505
7.18505
7.18505
7.18505
7.18505
7.18504
7.18504
7.18504
7.18503
7.18503
7.18502
7.18502
7.18501
7.18501
7.185
7.18499
7.18498
7.18497
7.18496
7.18494
7.18492
7.1849
7.18488
7.18486
7.18483
7.1848
7.18477
7.18472
7.18467
7.18462
7.18455
7.18447
7.18439
7.1843
7.1842
7.1841
7.18398
7.18383
7.18365
7.18344
7.18319
7.18291
7.18261
7.18229
7.18197
7.18164
7.18132
7.181
7.18069
7.18036
7.17999
7.17955
7.17904
7.17847
7.17786
7.17724
7.17663
7.17604
7.17549
7.17499
7.17454
7.17416
7.17383
7.17357
7.17335
7.17318
7.17305
7.17295
7.17288
7.17284
7.17282
7.17281
7.17282
7.17284
7.17288
7.17292
7.17297
7.17304
7.17311
7.17319
7.17329
7.17341
7.17355
7.1737
7.17387
7.17406
7.17427
7.17449
7.17473
7.17498
7.17524
7.17552
7.17581
7.17612
7.17644
7.17678
7.17714
7.17751
7.1779
7.1783
7.17871
7.17913
7.17955
7.17999
7.18043
7.18087
7.1813
7.18172
7.18211
7.18245
7.18275
7.18301
7.18324
7.18344
7.18362
7.18378
7.18394
7.18408
7.18422
7.18435
7.18447
7.18457
7.18466
7.18474
7.1848
7.18485
7.18489
7.18492
7.18495
7.18497
7.18499
7.18501
7.18502
7.18503
7.18504
7.18504
7.18505
7.18505
7.18505
7.18506
7.18506
7.18506
7.18506
7.18506
7.18506
7.18506
7.18506
7.18506
7.18506
7.18506
7.18506
7.18506
7.18506
7.18506
7.18506
7.18506
7.18506
7.18506
7.18506
7.18506
7.18506
7.18506
7.18506
7.18506
7.18506
7.18506
7.18506
7.18506
7.18506
7.18506
7.18506
7.18506
7.18506
7.18506
7.18506
7.18506
7.18506
7.18506
7.18506
7.18506
7.18506
7.18506
7.18506
7.18506
7.18506
7.18506
7.18506
7.18506
7.18506
7.18506
7.18506
7.18506
7.18506
7.18506
7.18506
7.18506
7.18506
7.18506
7.18506
7.18506
7.18503
7.18503
7.18502
7.18502
7.18501
7.185
7.185
7.18499
7.18498
7.18497
7.18496
7.18494
7.18493
7.18491
7.18489
7.18486
7.18483
7.1848
7.18477
7.18473
7.18469
7.18464
7.18459
7.18452
7.18444
7.18435
7.18425
7.18414
7.18402
7.18388
7.18373
7.18356
7.18335
7.1831
7.18279
7.18242
7.18201
7.18155
7.18105
7.18051
7.17993
7.17931
7.17858
7.1777
7.17662
7.17534
7.17387
7.17223
7.17046
7.1686
7.16669
7.16477
7.16288
7.16102
7.15918
7.15727
7.15506
7.15234
7.14909
7.14543
7.14157
7.13765
7.13383
7.13019
7.12683
7.12378
7.12108
7.11875
7.11679
7.11519
7.11391
7.11288
7.11206
7.11142
7.11093
7.11058
7.11039
7.11031
7.11028
7.11034
7.11046
7.11062
7.11084
7.1111
7.11146
7.11186
7.11235
7.11296
7.11368
7.11452
7.11546
7.11651
7.11766
7.11891
7.12027
7.12173
7.12328
7.12493
7.12668
7.12852
7.13048
7.13255
7.13474
7.13704
7.13945
7.14196
7.14454
7.1472
7.14993
7.15271
7.15555
7.15841
7.16125
7.16395
7.16642
7.1686
7.17048
7.17209
7.17349
7.17472
7.17585
7.17689
7.17787
7.17881
7.1797
7.18055
7.18133
7.18201
7.18257
7.18301
7.18336
7.18364
7.18388
7.18408
7.18426
7.18442
7.18456
7.18467
7.18476
7.18482
7.18487
7.18491
7.18495
7.18497
7.18499
7.18501
7.18502
7.18503
7.18504
7.18504
7.18505
7.18505
7.18506
7.18506
7.18506
7.18506
7.18506
7.18506
7.18506
7.18506
7.18506
7.18506
7.18506
7.18506
7.18506
7.18506
7.18506
7.18506
7.18506
7.18506
7.18506
7.18506
7.18506
7.18506
7.18506
7.18506
7.18506
7.18506
7.18506
7.18506
7.18506
7.18506
7.18506
7.18506
7.18506
7.18506
7.18506
7.18506
7.18506
7.18506
7.18506
7.18506
7.18506
7.18506
7.18506
7.18506
7.18506
7.18506
7.18506
7.18506
7.18506
7.18506
7.18506
7.18506
7.18506
7.18506
7.18484
7.18481
7.18477
7.18473
7.18469
7.18465
7.1846
7.18454
7.18447
7.18439
7.1843
7.18419
7.18407
7.18394
7.18379
7.18363
7.18345
7.18324
7.18301
7.18274
7.1824
7.18201
7.18154
7.18101
7.18043
7.17978
7.17908
7.17832
7.17747
7.17648
7.17527
7.17379
7.17201
7.16994
7.16758
7.16497
7.16212
7.15908
7.15583
7.1523
7.14819
7.14306
7.13661
7.12885
7.11996
7.11018
7.09979
7.08905
7.0782
7.06744
7.05693
7.04678
7.03688
7.02662
7.01464
6.9998
6.98221
6.96286
6.94278
6.92274
6.90338
6.8852
6.86852
6.85353
6.8403
6.82889
6.81936
6.8116
6.80534
6.80026
6.7961
6.79272
6.79
6.78788
6.78634
6.78551
6.78508
6.78497
6.78503
6.78534
6.78582
6.78663
6.78782
6.78927
6.79114
6.79361
6.79665
6.80027
6.80446
6.8092
6.8145
6.82037
6.82685
6.83392
6.84157
6.84979
6.85859
6.868
6.87808
6.8889
6.9005
6.91284
6.92586
6.93951
6.95374
6.96851
6.98378
6.99952
7.01567
7.0321
7.04841
7.06365
7.07708
7.08848
7.0981
7.10637
7.11371
7.12046
7.12685
7.133
7.13899
7.14483
7.15052
7.156
7.1611
7.16554
7.16915
7.17198
7.1742
7.17598
7.17748
7.17879
7.17996
7.18101
7.18189
7.18258
7.1831
7.18349
7.18379
7.18404
7.18425
7.18443
7.18458
7.1847
7.18478
7.18485
7.18489
7.18493
7.18496
7.18499
7.18501
7.18502
7.18503
7.18504
7.18504
7.18505
7.18505
7.18505
7.18506
7.18506
7.18506
7.18506
7.18506
7.18506
7.18506
7.18506
7.18506
7.18506
7.18506
7.18506
7.18506
7.18506
7.18506
7.18506
7.18506
7.18506
7.18506
7.18506
7.18506
7.18506
7.18506
7.18506
7.18506
7.18506
7.18506
7.18506
7.18506
7.18506
7.18506
7.18506
7.18506
7.18506
7.18506
7.18506
7.18506
7.18506
7.18506
7.18506
7.18506
7.18506
7.18506
7.18506
7.18506
7.18385
7.18369
7.18351
7.18332
7.1831
7.18286
7.18259
7.18228
7.18191
7.18147
7.18096
7.18036
7.17968
7.17892
7.17809
7.17719
7.1762
7.1751
7.17382
7.17229
7.17044
7.16825
7.16571
7.16284
7.15964
7.15614
7.15234
7.14823
7.14367
7.13826
7.13149
7.12303
7.11281
7.10096
7.08766
7.07313
7.05761
7.04129
7.02425
7.00598
6.98472
6.95804
6.92486
6.88577
6.84215
6.79554
6.74737
6.69889
6.65116
6.60501
6.56101
6.5193
6.47987
6.44084
6.39453
6.33437
6.26405
6.19048
6.11833
6.05003
5.98711
5.93061
5.88088
5.83769
5.80053
5.7692
5.74364
5.72327
5.70697
5.69361
5.68251
5.67332
5.66577
5.65961
5.65477
5.65157
5.64947
5.64841
5.64769
5.64727
5.64704
5.64799
5.64991
5.65214
5.65546
5.66096
5.6677
5.67595
5.68572
5.69707
5.71005
5.72469
5.74121
5.75976
5.78024
5.80264
5.82725
5.85422
5.88373
5.91619
5.95201
5.99127
6.0338
6.07954
6.12864
6.18139
6.23783
6.29807
6.36231
6.43044
6.501
6.56713
6.62504
6.6744
6.71677
6.75429
6.78894
6.82221
6.85499
6.88768
6.92038
6.95298
6.98533
7.0171
7.04679
7.07197
7.09161
7.10655
7.11827
7.12806
7.1367
7.14465
7.15206
7.15882
7.16459
7.16911
7.17247
7.17498
7.17691
7.17851
7.17987
7.18105
7.182
7.18272
7.18324
7.18362
7.18391
7.18415
7.18435
7.18452
7.18465
7.18475
7.18482
7.18487
7.18491
7.18494
7.18497
7.18499
7.18501
7.18502
7.18503
7.18503
7.18504
7.18504
7.18504
7.18505
7.18505
7.18505
7.18505
7.18505
7.18506
7.18506
7.18506
7.18506
7.18506
7.18506
7.18506
7.18506
7.18506
7.18506
7.18506
7.18506
7.18506
7.18506
7.18506
7.18506
7.18506
7.18505
7.18505
7.18505
7.18505
7.18506
7.18506
7.18506
7.18506
7.18506
7.18506
7.18506
7.18506
7.18506
7.18506
7.17879
7.17793
7.17697
7.17591
7.17476
7.17349
7.17207
7.17042
7.16847
7.16614
7.16341
7.16027
7.15673
7.1528
7.14849
7.14381
7.13873
7.13306
7.12637
7.11816
7.10811
7.09616
7.08241
7.06703
7.05021
7.03211
7.0129
6.99251
6.97013
6.94359
6.91036
6.86947
6.82142
6.76738
6.70869
6.6467
6.58274
6.51772
6.45213
6.38542
6.30999
6.2129
6.09517
5.966
5.83391
5.70483
5.58244
5.4688
5.36493
5.271
5.18657
5.11088
5.04268
4.97918
4.90596
4.80583
4.69511
4.58863
4.4924
4.40727
4.33345
4.27088
4.21865
4.17535
4.13942
4.11026
4.08774
4.07075
4.05741
4.04624
4.03668
4.02862
4.02188
4.0161
4.01123
4.00771
4.00543
4.00377
4.00226
4.0007
3.999
3.99891
3.99988
4.0009
4.00319
4.00769
4.01271
4.01931
4.02743
4.03725
4.04875
4.06189
4.07703
4.0946
4.11441
4.13641
4.16129
4.18931
4.2207
4.25635
4.29726
4.34355
4.39509
4.4525
4.5167
4.58887
4.66986
4.76102
4.8646
4.98238
5.11418
5.23186
5.33082
5.41581
5.49302
5.5681
5.64524
5.72715
5.81545
5.91078
6.01328
6.12327
6.24069
6.36545
6.49134
6.60139
6.68859
6.75666
6.81253
6.86165
6.90727
6.95101
6.99325
7.03265
7.06581
7.09081
7.1088
7.12224
7.13313
7.14263
7.15121
7.15884
7.16513
7.16985
7.17322
7.17566
7.17754
7.1791
7.18044
7.18156
7.18241
7.18302
7.18344
7.18375
7.184
7.18421
7.18439
7.18454
7.18466
7.18475
7.18481
7.18485
7.18488
7.1849
7.18492
7.18494
7.18495
7.18497
7.18498
7.18499
7.185
7.18501
7.18501
7.18502
7.18502
7.18502
7.18503
7.18503
7.18503
7.18503
7.18503
7.18502
7.18502
7.18502
7.18501
7.185
7.18499
7.18498
7.18497
7.18495
7.18494
7.18506
7.18506
7.18506
7.18506
7.18506
7.18506
7.18506
7.18506
7.18506
7.14913
7.14434
7.1391
7.13338
7.12712
7.12011
7.11188
7.1019
7.08987
7.07575
7.05966
7.04174
7.02218
7.00115
6.97879
6.95496
6.92871
6.89774
6.85985
6.81443
6.76208
6.70387
6.64098
6.57459
6.50582
6.43536
6.36344
6.28862
6.20122
6.091
5.96111
5.82023
5.67572
5.53287
5.39541
5.26536
5.1437
5.0304
4.92319
4.81195
4.66427
4.49624
4.33074
4.1794
4.04612
3.93113
3.8333
3.75101
3.68229
3.62496
3.57695
3.53726
3.50487
3.47881
3.45781
3.44007
3.42527
3.41353
3.40467
3.39872
3.39561
3.39488
3.39648
3.39934
3.4035
3.40918
3.41566
3.42197
3.42776
3.43311
3.43827
3.44322
3.44778
3.452
3.45609
3.46018
3.46407
3.46743
3.47034
3.47328
3.47607
3.4785
3.482
3.48587
3.4902
3.49387
3.49733
3.50157
3.50656
3.51182
3.51715
3.52279
3.52891
3.53515
3.54175
3.54917
3.55715
3.56569
3.57524
3.58589
3.59763
3.61029
3.62358
3.63731
3.65242
3.66959
3.68895
3.71011
3.73324
3.75898
3.78872
3.8227
3.86076
3.9041
3.95479
4.0151
4.08699
4.17237
4.27286
4.39027
4.52822
4.69098
4.88593
5.11123
5.30806
5.46368
5.59398
5.71601
5.84026
5.97246
6.11515
6.26875
6.42821
6.57206
6.68377
6.76657
6.83135
6.88692
6.9381
6.98656
7.03094
7.06731
7.09363
7.11187
7.12529
7.1362
7.14578
7.15437
7.16176
7.1675
7.17156
7.17434
7.17637
7.17799
7.17937
7.18057
7.18159
7.18238
7.18292
7.18329
7.18353
7.18373
7.18388
7.18402
7.18415
7.18426
7.18435
7.18444
7.18451
7.18457
7.18462
7.18467
7.1847
7.18473
7.18476
7.18477
7.18478
7.18478
7.18477
7.18477
7.18476
7.18473
7.1847
7.18465
7.18458
7.1845
7.1844
7.18428
7.18414
7.18406
7.18505
7.18504
7.01216
6.98972
6.96555
6.93979
6.91217
6.88157
6.84563
6.8025
6.75185
6.69439
6.63125
6.56358
6.49249
6.41908
6.34391
6.26722
6.18692
6.09293
5.97867
5.84865
5.71042
5.56989
5.4312
5.29726
5.1697
5.04926
4.93536
4.82511
4.70312
4.54831
4.37996
4.21593
4.06461
3.9292
3.81064
3.70808
3.61972
3.54447
3.48146
3.42883
3.38587
3.34994
3.31926
3.29331
3.27224
3.25595
3.24424
3.23671
3.23255
3.23183
3.23345
3.23674
3.24152
3.24672
3.25165
3.25597
3.25981
3.26404
3.26882
3.27374
3.27925
3.28582
3.29261
3.29954
3.3074
3.31595
3.32489
3.33371
3.34203
3.34982
3.35738
3.36458
3.3712
3.37728
3.38295
3.38834
3.39345
3.39807
3.40225
3.40643
3.4103
3.41379
3.41709
3.42138
3.42593
3.4299
3.43318
3.43779
3.4427
3.4468
3.45136
3.45726
3.4626
3.46684
3.47227
3.47898
3.48452
3.49049
3.49824
3.5051
3.51167
3.52038
3.52991
3.53671
3.54419
3.55244
3.56413
3.57419
3.5833
3.5943
3.6065
3.61872
3.6311
3.64415
3.65764
3.67112
3.68393
3.69701
3.7111
3.72687
3.74629
3.77037
3.80178
3.84142
3.88973
3.9477
4.01908
4.10841
4.21945
4.35713
4.52776
4.73973
4.99944
5.25714
5.45795
5.61674
5.7612
5.90889
6.06744
6.23817
6.41505
6.57336
6.69212
6.7771
6.84291
6.89982
6.95259
7.00198
7.0454
7.07862
7.10118
7.11653
7.12814
7.13791
7.14665
7.15452
7.16134
7.16677
7.17056
7.17303
7.1747
7.17596
7.17701
7.17793
7.17875
7.17949
7.18013
7.1807
7.18118
7.1816
7.18194
7.18223
7.18247
7.18267
7.18283
7.18293
7.18296
7.18295
7.18293
7.18288
7.18278
7.1826
7.18233
7.18194
7.18142
7.18077
7.17999
7.17908
7.17805
7.17736
6.48119
6.40614
6.32869
6.24931
6.16813
6.08231
5.98214
5.86414
5.73346
5.59677
5.45912
5.32399
5.1937
5.06955
4.95225
4.84083
4.73221
4.60794
4.45964
4.30427
4.15471
4.01675
3.8924
3.78222
3.68567
3.60129
3.5281
3.46544
3.41243
3.36835
3.33058
3.29734
3.26804
3.24296
3.22238
3.20591
3.19309
3.18389
3.17818
3.17549
3.17463
3.17401
3.17304
3.17144
3.16958
3.16827
3.16811
3.16929
3.17156
3.17525
3.1803
3.18695
3.19555
3.2038
3.21133
3.2189
3.22542
3.23226
3.23908
3.24493
3.25103
3.25823
3.26549
3.27156
3.27862
3.28649
3.29416
3.30213
3.30903
3.31623
3.32344
3.33037
3.33709
3.34364
3.35008
3.35603
3.36146
3.36641
3.3714
3.37635
3.38132
3.38564
3.38915
3.39401
3.39849
3.40243
3.40599
3.41075
3.41568
3.41987
3.42478
3.43069
3.43626
3.44057
3.44683
3.45323
3.45883
3.46622
3.47293
3.47919
3.48476
3.49322
3.5014
3.50933
3.51805
3.52398
3.5325
3.54134
3.55038
3.55983
3.56932
3.57894
3.58984
3.60136
3.61149
3.62223
3.63255
3.64301
3.65329
3.66313
3.67247
3.68051
3.69091
3.70068
3.71074
3.72286
3.73695
3.74981
3.76119
3.7743
3.79301
3.82079
3.85943
3.9092
3.97265
4.05379
4.15845
4.29398
4.46829
4.68982
4.96468
5.24644
5.46145
5.6282
5.78039
5.93714
6.10562
6.28527
6.46505
6.61479
6.71959
6.79328
6.85191
6.90411
6.95289
6.99831
7.03863
7.07084
7.09279
7.10665
7.11616
7.12367
7.13018
7.13602
7.1413
7.14604
7.15027
7.15401
7.15727
7.16007
7.16245
7.16447