/*--------------------------------*- C++ -*----------------------------------*\
| =========                 |                                                 |
| \\      /  F ield         | OpenFOAM: The Open Source CFD Toolbox           |
|  \\    /   O peration     | Version:  v1706                                 |
|   \\  /    A nd           | Web:      www.OpenFOAM.com                      |
|    \\/     M anipulation  |                                                 |
\*---------------------------------------------------------------------------*/
FoamFile
{
    version     2.0;
    format      ascii;
    class       volScalarField;
    location    "3.5e-05";
    object      p;
}
// * * * * * * * * * * * * * * * * * * * * * * * * * * * * * * * * * * * * * //

dimensions      [1 -1 -2 0 0 0 0];


internalField   nonuniform List<scalar> 
30104
(
21.9139
21.9139
21.9139
21.9139
21.9139
21.9139
21.9139
21.9139
21.9139
21.9139
21.9139
21.9139
21.9139
21.9139
21.9139
21.9139
21.9139
21.9139
21.9139
21.9139
21.9139
21.9139
21.9139
21.9139
21.9139
21.9139
21.9139
21.9139
21.9139
21.9139
21.9139
21.9139
21.9139
21.9139
21.9139
21.9139
21.9139
21.9139
21.9139
21.9139
21.9139
21.9139
21.9139
21.9139
21.9139
21.9139
21.9139
21.9139
21.9139
21.9139
21.9139
21.9139
21.9139
21.9139
21.9139
21.9139
21.9139
21.9139
21.9139
21.9139
21.9139
21.9139
21.9139
21.9139
21.9139
21.9139
21.9139
21.9139
21.9139
21.9139
21.9139
21.9139
21.9139
21.9139
21.9139
21.9139
21.9139
21.9139
21.9139
21.9139
21.9139
21.9139
21.9139
21.9139
21.9139
21.9139
21.9139
21.9139
21.9139
21.9139
21.9139
21.9139
21.9139
21.9139
21.9139
21.9139
21.9139
21.9139
21.9139
21.9139
21.9139
21.9139
21.9139
21.9139
21.9139
21.9139
21.9139
21.9139
21.9139
21.9139
21.9139
21.9139
21.9139
21.9139
21.9139
21.9139
21.9139
21.9139
21.9139
21.9139
21.9139
21.9139
21.9139
21.9139
21.9139
21.9139
21.9139
21.9139
21.9139
21.9139
21.9139
21.9139
21.9139
21.9139
21.9139
21.9139
21.9139
21.9139
21.9139
21.9139
21.9139
21.9139
21.9139
21.9139
21.9139
21.9139
21.9139
21.9139
21.9139
21.9139
21.9139
21.9139
21.9139
21.9139
21.9139
21.9139
21.9139
21.9139
21.9139
21.9139
21.9139
21.9139
21.9139
21.9139
21.9139
21.9139
21.9139
21.9139
21.9139
21.9139
21.9139
21.9139
21.9139
21.9139
21.9139
21.9139
21.9139
21.9139
21.9139
21.9139
21.9139
21.9139
21.9139
21.9139
21.9139
21.9139
21.9139
21.9139
21.9139
21.9139
21.9139
21.9139
21.9139
21.9139
21.9139
21.9139
21.9139
21.9139
21.9139
21.9139
21.9139
21.9139
21.9139
21.9139
21.9139
21.9139
21.9139
21.9139
21.9139
21.9139
21.9139
21.9139
21.9139
21.9139
21.9139
21.9139
21.9139
21.9139
21.9139
21.9139
21.9139
21.9139
21.9139
21.9139
21.9139
21.9139
21.9139
21.9139
21.9139
21.9139
21.9139
21.9139
21.9139
21.9139
21.9139
21.9139
21.9139
21.9139
21.9139
21.9139
21.9139
21.9139
21.9139
21.9139
21.9139
21.9139
21.9139
21.9139
21.9139
21.9139
21.9139
21.9139
21.9139
21.9139
21.9139
21.9139
21.9139
21.9139
21.9139
21.9139
21.9139
21.9139
21.9139
21.9139
21.9139
21.9139
21.9139
21.9139
21.9139
21.9139
21.9139
21.9139
21.9139
21.9139
21.9139
21.9139
21.9139
21.9139
21.9139
21.9139
21.9139
21.9139
21.9139
21.9139
21.9139
21.9139
21.9139
21.9139
21.9139
21.9139
21.9139
21.9139
21.9139
21.9139
21.9139
21.9139
21.9139
21.9139
21.9139
21.9139
21.9139
21.9139
21.9139
21.9139
21.9139
21.9139
21.9139
21.9139
21.9139
21.9139
21.9139
21.9139
21.9139
21.9139
21.9139
21.9139
21.9139
21.9139
21.9139
21.9139
21.9139
21.9139
21.9139
21.9139
21.9139
21.9139
21.9139
21.9139
21.9139
21.9139
21.9139
21.9139
21.9139
21.9139
21.9139
21.9139
21.9139
21.9139
21.9139
21.9139
21.9139
21.9139
21.9139
21.9139
21.9139
21.9139
21.9139
21.9139
21.9139
21.9139
21.9139
21.9139
21.9139
21.9139
21.9139
21.9139
21.9139
21.9139
21.9139
21.9139
21.9139
21.9139
21.9139
21.9139
21.9139
21.9139
21.9139
21.9139
21.9139
21.9139
21.9139
21.9139
21.9139
21.9139
21.9139
21.9139
21.9139
21.9139
21.9139
21.9139
21.9139
21.9139
21.9139
21.9139
21.9139
21.9139
21.9139
21.9139
21.9139
21.9139
21.9139
21.9139
21.9139
21.9139
21.9139
21.9139
21.9139
21.9139
21.9139
21.9139
21.9139
21.9139
21.9139
21.9139
21.9139
21.9139
21.9139
21.9139
21.9139
21.9139
21.9139
21.9139
21.9139
21.9139
21.9139
21.9139
21.9139
21.9139
21.9139
21.9139
21.9139
21.9139
21.9139
21.9139
21.9139
21.9139
21.9139
21.9139
21.9139
21.9139
21.9139
21.9139
21.9139
21.9139
21.9139
21.9139
21.9139
21.9139
21.9139
21.9139
21.9139
21.9139
21.9139
21.9139
21.9139
21.9139
21.9139
21.9139
21.9139
21.9139
21.9139
21.9139
21.9139
21.9139
21.9139
21.9139
21.9139
21.9139
21.9139
21.9139
21.9139
21.9139
21.9139
21.9139
21.9139
21.9139
21.9139
21.9139
21.9139
21.9139
21.9139
21.9139
21.9139
21.9139
21.9139
21.9139
21.9139
21.9139
21.9139
21.9139
21.9139
21.9139
21.9139
21.9139
21.9139
21.9139
21.9139
21.9139
21.9139
21.9139
21.9139
21.9139
21.9139
21.9139
21.9139
21.9139
21.9139
21.9139
21.9139
21.9139
21.9139
21.9139
21.9139
21.9139
21.9139
21.9139
21.9139
21.9139
21.9139
21.9139
21.9139
21.9139
21.9139
21.9139
21.9139
21.9139
21.9139
21.9139
21.9139
21.9139
21.9139
21.9139
21.9139
21.9139
21.9139
21.9139
21.9139
21.9139
21.9139
21.9139
21.9139
21.9139
21.9139
21.9139
21.9139
21.9139
21.9139
21.9139
21.9139
21.9139
21.9139
21.9139
21.9139
21.9139
21.9139
21.9139
21.9139
21.9139
21.9139
21.9139
21.9139
21.9139
21.9139
21.9139
21.9139
21.9139
21.9139
21.9139
21.9139
21.9139
21.9139
21.9139
21.9139
21.9139
21.9139
21.9139
21.9139
21.9139
21.9139
21.9139
21.9139
21.9139
21.9139
21.9139
21.9139
21.9139
21.9139
21.9139
21.9139
21.9139
21.9139
21.9139
21.9139
21.9139
21.9139
21.9139
21.9139
21.9139
21.9139
21.9139
21.9139
21.9139
21.9139
21.9139
21.9139
21.9139
21.9139
21.9139
21.9139
21.9139
21.9139
21.9139
21.9139
21.9139
21.9139
21.9139
21.9139
21.9139
21.9139
21.9139
21.9139
21.9139
21.9139
21.9139
21.9139
21.9139
21.9139
21.9139
21.9139
21.9139
21.9139
21.9139
21.9139
21.9139
21.9139
21.9139
21.9139
21.9139
21.9139
21.9139
21.9139
21.9139
21.9139
21.9139
21.9139
21.9139
21.9139
21.9139
21.9139
21.9139
21.9139
21.9139
21.9139
21.9139
21.9139
21.9139
21.9139
21.9139
21.9139
21.9139
21.9139
21.9139
21.9139
21.9139
21.9139
21.9139
21.9139
21.9139
21.9139
21.9139
21.9139
21.9139
21.9139
21.9139
21.9139
21.9139
21.9139
21.9139
21.9139
21.9139
21.9139
21.9139
21.9139
21.9139
21.9139
21.9139
21.9139
21.9139
21.9139
21.9139
21.9139
21.9139
21.9139
21.9139
21.9139
21.9139
21.9139
21.9139
21.9139
21.9139
21.9139
21.9139
21.9139
21.9139
21.9139
21.9139
21.9139
21.9139
21.9139
21.9139
21.9139
21.9139
21.9139
21.9139
21.9139
21.9139
21.9139
21.9139
21.9139
21.9139
21.9139
21.9139
21.9139
21.9139
21.9139
21.9139
21.9139
21.9139
21.9139
21.9139
21.9139
21.9139
21.9139
21.9139
21.9139
21.9139
21.9139
21.9139
21.9139
21.9139
21.9139
21.9139
21.9139
21.9139
21.9139
21.9139
21.9139
21.9139
21.9139
21.9139
21.9139
21.9139
21.9139
21.9139
21.9139
21.9139
21.9139
21.9139
21.9139
21.9139
21.9139
21.9139
21.9139
21.9139
21.9139
21.9139
21.9139
21.9139
21.9139
21.9139
21.9139
21.9139
21.9139
21.9139
21.9139
21.9139
21.9139
21.9139
21.9139
21.9139
21.9139
21.9139
21.9139
21.9139
21.9139
21.9139
21.9139
21.9139
21.9139
21.9139
21.9139
21.9139
21.9139
21.9139
21.9139
21.9139
21.9139
21.9139
21.9139
21.9139
21.9139
21.9139
21.9139
21.9139
21.9139
21.9139
21.9139
21.9139
21.9139
21.9139
21.9139
21.9139
21.9139
21.9139
21.9139
21.9139
21.9139
21.9139
21.9139
21.9139
21.9139
21.9139
21.9139
21.9139
21.9139
21.9139
21.9139
21.9139
21.9139
21.9139
21.9139
21.9139
21.9139
21.9139
21.9139
21.9139
21.9139
21.9139
21.9139
21.9139
21.9139
21.9139
21.9139
21.9139
21.9139
21.9139
21.9139
21.9139
21.9139
21.9139
21.9139
21.9139
21.9139
21.9139
21.9139
21.9139
21.9139
21.9139
21.9139
21.9139
21.9139
21.9139
21.9139
21.9139
21.9139
21.9139
21.9139
21.9139
21.9139
21.9139
21.9139
21.9139
21.9139
21.9139
21.9139
21.9139
21.9139
21.9139
21.9139
21.9139
21.9139
21.9139
21.9139
21.9139
21.9139
21.9139
21.9139
21.9139
21.9139
21.9139
21.9139
21.9139
21.9139
21.9139
21.9139
21.9139
21.9139
21.9139
21.9139
21.9139
21.9139
21.9139
21.9139
21.9139
21.9139
21.9139
21.9139
21.9139
21.9139
21.9139
21.9139
21.9139
21.9139
21.9139
21.9139
21.9139
21.9139
21.9139
21.9139
21.9139
21.9139
21.9139
21.9139
21.9139
21.9139
21.9139
21.9139
21.9139
21.9139
21.9139
21.9139
21.9139
21.9139
21.9139
21.9139
21.9139
21.9139
21.9139
21.9139
21.9139
21.9139
21.9139
21.9139
21.9139
21.9139
21.9139
21.9139
21.9139
21.9139
21.9139
21.9139
21.9139
21.9139
21.9139
21.9139
21.9139
21.9139
21.9139
21.9139
21.9139
21.9139
21.9139
21.9139
21.9139
21.9139
21.9139
21.9139
21.9139
21.9139
21.9139
21.9139
21.9139
21.9139
21.9139
21.9139
21.9139
21.9139
21.9139
21.9139
21.9139
21.9139
21.9139
21.9139
21.9139
21.9139
21.9139
21.9139
21.9139
21.9139
21.9139
21.9139
21.9139
21.9139
21.9139
21.9139
21.9139
21.9139
21.9139
21.9139
21.9139
21.9139
21.9139
21.9139
21.9139
21.9139
21.9139
21.9139
21.9139
21.9139
21.9139
21.9139
21.9139
21.9139
21.9139
21.9139
21.9139
21.9139
21.9139
21.9139
21.9139
21.9139
21.9139
21.9139
21.9139
21.9139
21.9139
21.9139
21.9139
21.9139
21.9139
21.9139
21.9139
21.9139
21.9139
21.9139
21.9139
21.9139
21.9139
21.9139
21.9139
21.9139
21.9139
21.9139
21.9139
21.9139
21.9139
21.9139
21.9139
21.9139
21.9139
21.9139
21.9139
21.9139
21.9139
21.9139
21.9139
21.9139
21.9139
21.9139
21.9139
21.9139
21.9139
21.9139
21.9139
21.9139
21.9139
21.9139
21.9139
21.9139
21.9139
21.9139
21.9139
21.9139
21.9139
21.9139
21.9139
21.9139
21.9139
21.9139
21.9139
21.9139
21.9139
21.9139
21.9139
21.9139
21.9139
21.9139
21.9139
21.9139
21.9139
21.9139
21.9139
21.9139
21.9139
21.9139
21.9139
21.9139
21.9139
21.9139
21.9139
21.9139
21.9139
21.9139
21.9139
21.9139
21.9139
21.9139
21.9139
21.9139
21.9139
21.9139
21.9139
21.9139
21.9139
21.9139
21.9139
21.9139
21.9139
21.9139
21.9139
21.9139
21.9139
21.9139
21.9139
21.9139
21.9139
21.9139
21.9139
21.9139
21.9139
21.9139
21.9139
21.9139
21.9139
21.9139
21.9139
21.9139
21.9139
21.9139
21.9139
21.9139
21.9139
21.9139
21.9139
21.9139
21.9139
21.9139
21.9139
21.9139
21.9139
21.9139
21.9139
21.9139
21.9139
21.9139
21.9139
21.9139
21.9139
21.9139
21.9139
21.9139
21.9139
21.9139
21.9139
21.9139
21.9139
21.9139
21.9139
21.9139
21.9139
21.9139
21.9139
21.9139
21.9139
21.9139
21.9139
21.9139
21.9139
21.9139
21.9139
21.9139
21.9139
21.9139
21.9139
21.9139
21.9139
21.9139
21.9139
21.9139
21.9139
21.9139
21.9139
21.9139
21.9139
21.9139
21.9139
21.9139
21.9139
21.9139
21.9139
21.9139
21.9139
21.9139
21.9139
21.9139
21.9139
21.9139
21.9139
21.9139
21.9139
21.9139
21.9139
21.9139
21.9139
21.9139
21.9139
21.9139
21.9139
21.9139
21.9139
21.9139
21.9139
21.9139
21.9139
21.9139
21.9139
21.9139
21.9139
21.9139
21.9139
21.9139
21.9139
21.9139
21.9139
21.9139
21.9139
21.9139
21.9139
21.9139
21.9139
21.9139
21.9139
21.9139
21.9139
21.9139
21.9139
21.9139
21.9139
21.9139
21.9139
21.9139
21.9139
21.9139
21.9139
21.9139
21.9139
21.9139
21.9139
21.9139
21.9139
21.9139
21.9139
21.9139
21.9139
21.9139
21.9139
21.9139
21.9139
21.9139
21.9139
21.9139
21.9139
21.9139
21.9139
21.9139
21.9139
21.9139
21.9139
21.9139
21.9139
21.9139
21.9139
21.9139
21.9139
21.9139
21.9139
21.9139
21.9139
21.9139
21.9139
21.9139
21.9139
21.9139
21.9139
21.9139
21.9139
21.9139
21.9139
21.9139
21.9139
21.9139
21.9139
21.9139
21.9139
21.9139
21.9139
21.9139
21.9139
21.9139
21.9139
21.9139
21.9139
21.9139
21.9139
21.9139
21.9139
21.9139
21.9139
21.9139
21.9139
21.9139
21.9139
21.9139
21.9139
21.9139
21.9139
21.9139
21.9139
21.9139
21.9139
21.9139
21.9139
21.9139
21.9139
21.9139
21.9139
21.9139
21.9139
21.9139
21.9139
21.9139
21.9139
21.9139
21.9139
21.9139
21.9139
21.9139
21.9139
21.9139
21.9139
21.9139
21.9139
21.9139
21.914
21.9139
21.9139
21.9139
21.9139
21.9139
21.9139
21.9139
21.9139
21.9139
21.9139
21.9139
21.9139
21.9139
21.9139
21.9139
21.9139
21.9139
21.9139
21.9139
21.9139
21.9139
21.9139
21.9139
21.9139
21.9139
21.9139
21.9139
21.9139
21.9139
21.9139
21.9139
21.9139
21.9139
21.9139
21.9139
21.9139
21.9139
21.9139
21.9139
21.9139
21.9139
21.9139
21.9139
21.9139
21.9139
21.9139
21.9139
21.9139
21.9139
21.9139
21.9139
21.9139
21.9139
21.9139
21.9139
21.9139
21.9139
21.9139
21.9139
21.9139
21.9139
21.9139
21.9139
21.9139
21.9139
21.9139
21.9139
21.9139
21.9139
21.9139
21.9139
21.9139
21.9139
21.9139
21.9139
21.9139
21.9139
21.9139
21.9139
21.9139
21.9139
21.9139
21.9139
21.9139
21.9139
21.9139
21.9139
21.9139
21.9139
21.9139
21.9139
21.9139
21.9139
21.9139
21.9139
21.9139
21.9139
21.9139
21.9139
21.9139
21.9139
21.9139
21.9139
21.9139
21.9139
21.9139
21.9139
21.9139
21.9139
21.9139
21.9139
21.9139
21.9139
21.9139
21.9139
21.9139
21.9139
21.9139
21.9139
21.9139
21.9139
21.9139
21.9139
21.9139
21.9139
21.9139
21.9139
21.9139
21.9139
21.9139
21.9139
21.9139
21.9139
21.9139
21.9139
21.9139
21.9139
21.9139
21.9139
21.9139
21.9139
21.9139
21.9139
21.9139
21.9139
21.9139
21.9139
21.9139
21.9139
21.9139
21.9139
21.9139
21.9139
21.9139
21.9139
21.9139
21.9139
21.9139
21.9139
21.9139
21.9139
21.9139
21.9139
21.9139
21.9139
21.9139
21.9139
21.9139
21.9139
21.9139
21.9139
21.9139
21.9139
21.9139
21.9139
21.9139
21.914
21.914
21.914
21.914
21.914
21.914
21.914
21.914
21.914
21.914
21.914
21.9141
21.9141
21.9141
21.9141
21.9141
21.9141
21.9141
21.9142
21.9142
21.9142
21.9142
21.9142
21.9142
21.9142
21.9142
21.9142
21.9142
21.9142
21.9142
21.9142
21.9142
21.9142
21.9142
21.9142
21.9142
21.9142
21.9142
21.9142
21.9142
21.9142
21.9142
21.9142
21.9142
21.9142
21.9142
21.9142
21.9142
21.9142
21.9142
21.9141
21.9141
21.9141
21.9141
21.9141
21.9141
21.9141
21.9141
21.9141
21.9141
21.9141
21.914
21.914
21.914
21.914
21.914
21.914
21.914
21.914
21.914
21.914
21.914
21.9139
21.9139
21.9139
21.9139
21.9139
21.9139
21.9139
21.9139
21.9139
21.9139
21.9139
21.9139
21.9139
21.9139
21.9139
21.9139
21.9139
21.9139
21.9139
21.9139
21.9139
21.9139
21.9139
21.9139
21.9139
21.9139
21.9139
21.9139
21.9139
21.9139
21.9139
21.9139
21.9139
21.9139
21.9139
21.9139
21.9139
21.9139
21.9139
21.9139
21.9139
21.9139
21.9139
21.9139
21.9139
21.9139
21.9139
21.9139
21.9139
21.9139
21.9139
21.9139
21.9139
21.9139
21.9139
21.9139
21.9139
21.9139
21.9139
21.9139
21.9139
21.9139
21.9139
21.9139
21.9139
21.9139
21.9139
21.9139
21.9139
21.9139
21.9139
21.9139
21.9139
21.9139
21.9139
21.9139
21.9139
21.9139
21.9139
21.9139
21.9139
21.9139
21.9139
21.9139
21.9139
21.9139
21.9139
21.9139
21.9139
21.9139
21.9139
21.9139
21.9139
21.9139
21.9139
21.9139
21.9139
21.9139
21.9139
21.9139
21.9139
21.9139
21.9139
21.9139
21.9139
21.9139
21.9139
21.9139
21.9139
21.9139
21.9139
21.9139
21.9139
21.9139
21.9139
21.9139
21.9139
21.9139
21.9139
21.9139
21.9139
21.914
21.914
21.914
21.914
21.914
21.914
21.914
21.914
21.9141
21.9141
21.9141
21.9141
21.9142
21.9142
21.9142
21.9143
21.9143
21.9144
21.9144
21.9145
21.9145
21.9146
21.9147
21.9147
21.9148
21.9149
21.9149
21.915
21.9151
21.9152
21.9154
21.9155
21.9156
21.9157
21.9157
21.9158
21.9159
21.9159
21.916
21.916
21.916
21.916
21.916
21.916
21.916
21.916
21.916
21.916
21.916
21.916
21.916
21.916
21.916
21.9159
21.9159
21.9159
21.9159
21.9158
21.9158
21.9158
21.9157
21.9157
21.9156
21.9156
21.9156
21.9155
21.9155
21.9154
21.9153
21.9153
21.9152
21.9152
21.9151
21.915
21.915
21.9149
21.9148
21.9148
21.9147
21.9146
21.9146
21.9145
21.9144
21.9144
21.9143
21.9143
21.9142
21.9142
21.9141
21.9141
21.9141
21.9141
21.914
21.914
21.914
21.914
21.914
21.914
21.9139
21.9139
21.9139
21.9139
21.9139
21.9139
21.9139
21.9139
21.9139
21.9139
21.9139
21.9139
21.9139
21.9139
21.9139
21.9139
21.9139
21.9139
21.9139
21.9139
21.9139
21.9139
21.9139
21.9139
21.9139
21.9139
21.9139
21.9139
21.9139
21.9139
21.9139
21.9139
21.9139
21.9139
21.9139
21.9139
21.9139
21.9139
21.9139
21.9139
21.9139
21.9139
21.9139
21.9139
21.9139
21.9139
21.9139
21.9139
21.9139
21.9139
21.9139
21.9139
21.9139
21.9139
21.9139
21.9139
21.9139
21.9139
21.9139
21.9139
21.9139
21.9139
21.9139
21.9139
21.9139
21.9139
21.9139
21.9139
21.9139
21.9139
21.9139
21.9139
21.9139
21.9139
21.9139
21.9139
21.9139
21.9139
21.9139
21.9139
21.9139
21.9139
21.9139
21.9139
21.9139
21.9139
21.9139
21.9139
21.9139
21.9139
21.9139
21.9139
21.9139
21.9139
21.914
21.914
21.914
21.914
21.914
21.914
21.914
21.914
21.914
21.9141
21.9141
21.9141
21.9141
21.9142
21.9142
21.9142
21.9143
21.9143
21.9144
21.9145
21.9145
21.9146
21.9147
21.9148
21.915
21.9151
21.9153
21.9154
21.9157
21.9159
21.9162
21.9165
21.9169
21.9172
21.9176
21.918
21.9183
21.9187
21.919
21.9194
21.9199
21.9204
21.921
21.9217
21.9223
21.923
21.9237
21.9243
21.9248
21.9254
21.9258
21.9262
21.9265
21.9267
21.9269
21.9271
21.9272
21.9273
21.9273
21.9273
21.9273
21.9273
21.9273
21.9273
21.9272
21.9271
21.927
21.9269
21.9268
21.9267
21.9266
21.9264
21.9262
21.926
21.9258
21.9256
21.9253
21.9251
21.9248
21.9245
21.9242
21.9239
21.9236
21.9232
21.9229
21.9225
21.9221
21.9217
21.9213
21.9208
21.9204
21.92
21.9195
21.919
21.9186
21.9181
21.9177
21.9173
21.9169
21.9165
21.9162
21.9159
21.9157
21.9155
21.9153
21.9151
21.915
21.9148
21.9147
21.9146
21.9144
21.9143
21.9143
21.9142
21.9141
21.9141
21.9141
21.914
21.914
21.914
21.914
21.914
21.9139
21.9139
21.9139
21.9139
21.9139
21.9139
21.9139
21.9139
21.9139
21.9139
21.9139
21.9139
21.9139
21.9139
21.9139
21.9139
21.9139
21.9139
21.9139
21.9139
21.9139
21.9139
21.9139
21.9139
21.9139
21.9139
21.9139
21.9139
21.9139
21.9139
21.9139
21.9139
21.9139
21.9139
21.9139
21.9139
21.9139
21.9139
21.9139
21.9139
21.9139
21.9139
21.9139
21.9139
21.9139
21.9139
21.9139
21.9139
21.9139
21.9139
21.9139
21.9139
21.9139
21.9139
21.9139
21.9139
21.9139
21.9139
21.9139
21.9139
21.9139
21.9139
21.9139
21.9139
21.9139
21.9139
21.9139
21.9139
21.9139
21.9139
21.914
21.914
21.914
21.914
21.914
21.914
21.914
21.914
21.914
21.914
21.9141
21.9141
21.9141
21.9141
21.9142
21.9142
21.9142
21.9143
21.9143
21.9144
21.9145
21.9145
21.9146
21.9147
21.9148
21.915
21.9151
21.9152
21.9154
21.9156
21.9158
21.9161
21.9165
21.9169
21.9173
21.9178
21.9184
21.919
21.9196
21.9204
21.9212
21.9221
21.9233
21.9246
21.9262
21.928
21.9299
21.932
21.9341
21.9363
21.9385
21.9406
21.9428
21.945
21.9475
21.9504
21.9539
21.9579
21.9622
21.9666
21.971
21.9752
21.9792
21.9828
21.9861
21.9889
21.9913
21.9932
21.9948
21.9961
21.9971
21.9978
21.9984
21.9987
21.9989
21.999
21.9989
21.9988
21.9986
21.9984
21.998
21.9976
21.9971
21.9966
21.9959
21.9951
21.9942
21.9932
21.9921
21.9908
21.9894
21.9879
21.9863
21.9846
21.9829
21.981
21.979
21.9769
21.9747
21.9724
21.97
21.9675
21.9649
21.9621
21.9593
21.9565
21.9535
21.9505
21.9474
21.9444
21.9413
21.9383
21.9355
21.9329
21.9306
21.9286
21.9269
21.9254
21.9241
21.9229
21.9218
21.9208
21.9199
21.919
21.9181
21.9174
21.9168
21.9163
21.9158
21.9155
21.9152
21.915
21.9148
21.9146
21.9145
21.9143
21.9142
21.9142
21.9141
21.9141
21.914
21.914
21.914
21.914
21.9139
21.9139
21.9139
21.9139
21.9139
21.9139
21.9139
21.9139
21.9139
21.9139
21.9139
21.9139
21.9139
21.9139
21.9139
21.9139
21.9139
21.9139
21.9139
21.9139
21.9139
21.9139
21.9139
21.9139
21.9139
21.9139
21.9139
21.9139
21.9139
21.9139
21.9139
21.9139
21.9139
21.9139
21.9139
21.9139
21.9139
21.9139
21.9139
21.9139
21.9139
21.9139
21.9139
21.9139
21.9139
21.9139
21.9139
21.9139
21.9139
21.9139
21.9139
21.9139
21.9139
21.9139
21.9139
21.9139
21.9139
21.9139
21.9139
21.9139
21.9141
21.9141
21.9142
21.9142
21.9143
21.9143
21.9144
21.9144
21.9145
21.9145
21.9146
21.9147
21.9148
21.9149
21.9151
21.9152
21.9154
21.9156
21.9158
21.9161
21.9163
21.9166
21.917
21.9175
21.918
21.9186
21.9193
21.92
21.9209
21.9218
21.9228
21.9239
21.9253
21.9269
21.9289
21.9312
21.9338
21.9368
21.94
21.9436
21.9474
21.9516
21.9563
21.9621
21.9693
21.9779
21.988
21.9992
22.0114
22.0242
22.0373
22.0505
22.0635
22.0762
22.0888
22.1018
22.1165
22.1341
22.1548
22.178
22.2029
22.2287
22.2543
22.2791
22.3023
22.3236
22.3426
22.3592
22.3733
22.385
22.3944
22.4021
22.4082
22.4132
22.417
22.4198
22.4216
22.4225
22.4229
22.4228
22.4222
22.4213
22.42
22.4185
22.4163
22.4137
22.4105
22.4066
22.4019
22.3964
22.3901
22.383
22.3753
22.3668
22.3576
22.3477
22.3372
22.326
22.3141
22.3016
22.2884
22.2743
22.2595
22.2439
22.2275
22.2106
22.193
22.175
22.1566
22.1377
22.1186
22.0992
22.0801
22.0618
22.045
22.0302
22.0174
22.0063
21.9966
21.9879
21.98
21.9728
21.9659
21.9594
21.9532
21.9472
21.9417
21.9367
21.9325
21.929
21.9263
21.9241
21.9224
21.9209
21.9196
21.9185
21.9175
21.9168
21.9161
21.9157
21.9153
21.915
21.9148
21.9146
21.9144
21.9143
21.9142
21.9141
21.9141
21.914
21.914
21.914
21.914
21.9139
21.9139
21.9139
21.9139
21.9139
21.9139
21.9139
21.9139
21.9139
21.9139
21.9139
21.9139
21.9139
21.9139
21.9139
21.9139
21.9139
21.9139
21.9139
21.9139
21.9139
21.9139
21.9139
21.9139
21.9139
21.9139
21.9139
21.9139
21.9139
21.9139
21.9139
21.9139
21.9139
21.9139
21.9139
21.9139
21.9139
21.9139
21.9139
21.9139
21.9139
21.9139
21.9139
21.9139
21.9139
21.9139
21.9139
21.9139
21.9139
21.9139
21.9139
21.9139
21.9139
21.9154
21.9156
21.9158
21.9161
21.9163
21.9166
21.917
21.9173
21.9178
21.9183
21.9189
21.9196
21.9204
21.9213
21.9224
21.9235
21.9247
21.926
21.9275
21.9293
21.9315
21.934
21.9369
21.9403
21.9441
21.9483
21.9529
21.9579
21.9635
21.97
21.978
21.9878
21.9997
22.0137
22.0298
22.0476
22.067
22.0877
22.1096
22.1334
22.1609
22.1944
22.2357
22.2854
22.343
22.4075
22.4773
22.5506
22.6258
22.7013
22.7759
22.8489
22.9204
22.9941
23.0803
23.1887
23.3206
23.4698
23.6282
23.7888
23.9462
24.096
24.2349
24.3611
24.4738
24.5721
24.6554
24.7242
24.7802
24.8261
24.8636
24.8943
24.919
24.9385
24.9529
24.9616
24.9669
24.9691
24.9694
24.9677
24.9645
24.9587
24.9505
24.94
24.9259
24.9068
24.8828
24.8543
24.8212
24.7837
24.7417
24.6953
24.6442
24.5883
24.5281
24.4634
24.3944
24.3206
24.2419
24.1578
24.068
23.9726
23.8721
23.7672
23.6582
23.5453
23.4287
23.3089
23.1863
23.0615
22.9367
22.818
22.7113
22.6195
22.5421
22.4768
22.4203
22.3698
22.3231
22.2789
22.2366
22.1957
22.1563
22.1185
22.0835
22.0529
22.0279
22.0081
21.9926
21.9799
21.9693
21.96
21.9517
21.9442
21.9378
21.9325
21.9284
21.9254
21.923
21.9212
21.9197
21.9184
21.9174
21.9166
21.916
21.9155
21.9152
21.9149
21.9147
21.9145
21.9143
21.9142
21.9142
21.9141
21.9141
21.914
21.914
21.914
21.914
21.9139
21.9139
21.9139
21.9139
21.9139
21.9139
21.9139
21.9139
21.9139
21.9139
21.9139
21.9139
21.9139
21.9139
21.9139
21.9139
21.9139
21.9139
21.9139
21.9139
21.9139
21.9139
21.9139
21.9139
21.9139
21.9139
21.9139
21.9139
21.9139
21.9139
21.9139
21.9139
21.9139
21.9139
21.9139
21.9139
21.9139
21.9139
21.9139
21.9139
21.9139
21.9139
21.9139
21.9139
21.9218
21.9229
21.9241
21.9255
21.9269
21.9285
21.9303
21.9324
21.9348
21.9376
21.9409
21.9447
21.949
21.9539
21.9593
21.9652
21.9717
21.9789
21.9873
21.9974
22.0097
22.0244
22.0416
22.0612
22.083
22.1068
22.1326
22.1604
22.1911
22.2272
22.2715
22.326
22.3918
22.4692
22.5576
22.6559
22.7626
22.8766
22.9974
23.1275
23.2796
23.4736
23.7215
24.0225
24.3681
24.7469
25.1479
25.5609
25.9771
26.3889
26.7911
27.1806
27.5568
27.9381
28.3826
28.939
29.5994
30.3311
31.1001
31.8777
32.6383
33.3599
34.0276
34.6342
35.1776
35.654
36.0584
36.3935
36.6708
36.9036
37.1011
37.2684
37.4095
37.5279
37.6249
37.6971
37.7456
37.7777
37.8028
37.8213
37.8352
37.8314
37.8127
37.789
37.75
37.6821
37.5894
37.4724
37.3313
37.1658
36.9767
36.7633
36.5233
36.2561
35.9639
35.6472
35.3042
34.9342
34.5358
34.1051
33.6401
33.1424
32.6151
32.0609
31.4817
30.8788
30.2543
29.6092
28.9452
28.2678
27.5945
26.9817
26.4562
26.0145
25.6392
25.3113
25.0143
24.736
24.4684
24.2069
23.9496
23.6959
23.4462
23.202
22.9717
22.7718
22.6119
22.4896
22.3957
22.3204
22.2565
22.1996
22.1475
22.1005
22.0604
22.0289
22.0052
21.9875
21.9736
21.9622
21.9524
21.9439
21.9369
21.9314
21.9273
21.9244
21.9222
21.9204
21.919
21.9178
21.9168
21.9162
21.9157
21.9153
21.915
21.9148
21.9146
21.9144
21.9143
21.9142
21.9142
21.9141
21.9141
21.9141
21.914
21.914
21.914
21.914
21.914
21.914
21.914
21.914
21.9139
21.9139
21.9139
21.9139
21.9139
21.9139
21.9139
21.9139
21.9139
21.9139
21.9139
21.9139
21.9139
21.914
21.914
21.914
21.914
21.914
21.914
21.9139
21.9139
21.9139
21.9139
21.9139
21.9139
21.9139
21.9139
21.9139
21.9139
21.9549
21.9604
21.9666
21.9735
21.981
21.9893
21.9987
22.0095
22.0223
22.0378
22.0562
22.0774
22.1016
22.1284
22.1578
22.1896
22.2241
22.2625
22.3072
22.3612
22.4265
22.5043
22.5948
22.6978
22.8126
22.9381
23.0737
23.2196
23.3806
23.5733
23.8196
24.1319
24.5111
24.9509
25.4428
25.9775
26.546
27.1417
27.7601
28.4126
29.1647
30.122
31.3208
32.7442
34.3508
36.0919
37.9202
39.7935
41.6757
43.538
45.3584
47.125
48.8302
50.5067
52.6349
55.9584
60.2401
65.0485
70.0813
75.1949
80.2726
85.1804
89.8153
94.126
98.1064
101.716
104.878
107.583
109.91
111.953
113.761
115.35
116.741
117.975
119.075
120.005
120.763
121.408
121.98
122.518
123.066
123.47
123.719
123.915
124.018
123.896
123.587
123.104
122.456
121.619
120.575
119.339
117.897
116.208
114.295
112.196
109.86
107.274
104.468
101.411
98.0417
94.3751
90.4894
86.4276
82.1747
77.7042
73.0714
68.3301
63.4796
58.5242
53.5363
49.4523
46.3272
43.9254
42.0003
40.3524
38.8449
37.3995
35.9787
34.569
33.1696
31.783
30.4132
29.0663
27.8031
26.7565
25.9568
25.3485
24.8625
24.4487
24.0761
23.7281
23.3981
23.091
22.8276
22.6235
22.4752
22.3674
22.2843
22.215
22.1541
22.1007
22.0568
22.0236
21.9998
21.9824
21.9689
21.9578
21.9482
21.9401
21.9337
21.929
21.9256
21.9232
21.9214
21.9199
21.9187
21.9176
21.9168
21.9162
21.9157
21.9155
21.9152
21.9151
21.9149
21.9148
21.9147
21.9146
21.9145
21.9144
21.9144
21.9143
21.9143
21.9142
21.9142
21.9142
21.9142
21.9142
21.9142
21.9142
21.9142
21.9142
21.9142
21.9142
21.9143
21.9143
21.9144
21.9145
21.9146
21.9147
21.9148
21.9139
21.9139
21.9139
21.9139
21.9139
21.9139
21.9139
21.914
21.914
22.1521
22.1848
22.2206
22.2597
22.3023
22.3499
22.4053
22.4714
22.5503
22.6431
22.7502
22.8716
23.0065
23.1542
23.3142
23.4871
23.6792
23.9087
24.1964
24.5527
24.9778
25.4661
26.0107
26.604
27.2388
27.9107
28.6191
29.3867
30.2966
31.4468
32.8693
34.5557
36.4808
38.61
40.9059
43.3365
45.8759
48.5132
51.249
54.437
59.4823
66.5422
75.1958
85.0316
95.739
107.082
118.862
130.872
142.93
154.974
166.966
178.707
190.077
200.567
209.526
217.227
223.889
229.759
234.977
239.46
243.241
246.51
249.254
251.58
253.447
254.784
255.757
256.603
257.442
258.244
258.919
259.46
259.922
260.32
260.614
260.752
260.757
260.736
260.741
260.716
260.656
260.435
260.092
259.725
259.423
259.03
258.535
257.889
257.071
256.218
255.333
254.297
253.058
251.808
250.411
248.755
247.011
245.092
242.84
240.336
237.715
234.802
231.523
228.039
224.44
220.454
215.785
210.495
204.969
199.063
191.813
183.235
173.792
163.834
153.532
142.98
132.19
121.111
109.876
98.6484
87.4384
76.4484
65.7505
55.7928
48.5598
43.7857
40.5116
38.003
35.8573
33.8841
32.0029
30.1897
28.4902
27.0747
26.0329
25.2871
24.7214
24.2528
23.8362
23.4525
23.1041
22.814
22.5988
22.4492
22.3429
22.2608
22.1917
22.1312
22.0796
22.0395
22.011
21.9912
21.9768
21.9653
21.9555
21.9469
21.9396
21.9337
21.9295
21.9266
21.9246
21.9232
21.9221
21.9211
21.9202
21.9195
21.9188
21.9182
21.9177
21.9173
21.9169
21.9166
21.9164
21.9162
21.916
21.9159
21.9159
21.9159
21.9159
21.9159
21.916
21.9161
21.9163
21.9167
21.9171
21.9176
21.9183
21.9191
21.92
21.9207
21.914
21.914
23.078
23.235
23.4072
23.5945
23.7982
24.0264
24.2989
24.6354
25.0446
25.5262
26.0747
26.6834
27.3454
28.0543
28.8061
29.6024
30.4724
31.5035
32.7717
34.2973
36.0729
38.0805
40.2954
42.691
45.2442
47.9399
50.7833
53.8008
57.6326
63.5094
71.4336
81.0836
92.1847
104.533
117.921
132.179
147.227
162.84
178.76
194.73
209.506
223.167
235.931
247.777
258.568
268.206
276.596
283.667
289.59
294.37
298.109
301.098
303.641
305.976
308.121
310.087
311.941
313.438
314.392
315.04
315.414
315.367
315.138
314.886
314.485
313.949
313.315
312.713
312.178
311.668
311.095
310.466
309.849
309.293
308.816
308.362
307.864
307.329
306.773
306.249
305.892
305.583
305.018
304.267
303.689
303.283
302.702
302.023
301.524
301.002
300.184
299.406
298.89
298.234
297.28
296.484
295.661
294.549
293.515
292.659
291.55
290.068
289.081
288.151
286.822
284.903
283.173
282.011
280.514
278.472
276.005
273.153
269.753
265.546
260.56
254.984
249.25
243.54
237.814
231.73
225.453
218.714
210.302
199.834
186.607
171.299
154.937
138.372
122.037
105.95
90.3049
75.3705
61.4864
50.8687
44.289
40.1979
37.2862
34.868
32.6571
30.5674
28.6407
27.0679
25.9543
25.1864
24.6138
24.1391
23.715
23.327
22.9852
22.7169
22.5307
22.406
22.3167
22.2451
22.1832
22.1282
22.0807
22.0431
22.0166
21.9992
21.9874
21.9785
21.9711
21.9647
21.9589
21.9538
21.9492
21.9452
21.9417
21.9387
21.9362
21.9341
21.9323
21.9308
21.9296
21.9288
21.9285
21.9286
21.9287
21.929
21.9297
21.9309
21.9327
21.9353
21.9388
21.9432
21.9486
21.9547
21.9617
21.9671
27.432
28.1623
28.9464
29.7812
30.6722
31.6554
32.8181
34.2175
35.8661
37.7578
39.8774
42.2043
44.7175
47.3981
50.2357
53.2392
56.4568
60.7503
66.9633
74.9925
84.5553
95.4439
107.52
120.627
134.619
149.448
164.947
180.974
197.01
211.961
225.905
239.187
252.03
264.206
275.369
285.465
294.496
302.341
309.106
314.808
319.158
322.26
324.805
327.248
329.491
331.427
333.015
334.257
335.241
335.893
336.127
335.876
335.384
334.652
333.497
332.513
331.507
330.307
329.267
328.302
327.031
325.567
324.552
323.515
322.23
321.083
319.912
318.887
318.111
317.416
316.748
316.019
315.274
314.575
313.965
313.431
312.888
312.28
311.606
310.977
310.501
310.181
309.561
308.779
308.196
307.746
307.098
306.458
305.997
305.504
304.65
303.892
303.392
302.689
301.803
301.115
300.227
299.247
298.534
298.001
297.045
295.803
294.921
294.18
293.69
292.899
291.828
290.978
290.18
289.377
288.611
287.877
287.12
286.405
285.473
284.292
282.938
281.373
279.61
277.668
275.583
273.033
270.882
269.053
266.429
262.424
256.621
249.822
242.558
235.103
227.284
217.874
206.22
191.503
173.732
154.3
134.428
114.81
96.054
78.6361
62.9282
51.0411
44.0359
39.8543
36.8927
34.4057
32.1226
29.989
28.0912
26.643
25.6771
25.0191
24.5152
24.0849
23.6954
23.3401
23.0251
22.7675
22.5863
22.4716
22.3965
22.3405
22.2937
22.2524
22.2153
22.182
22.1525
22.1264
22.1038
22.0844
22.0679
22.0541
22.0425
22.0327
22.025
22.0199
22.0183
22.0186
22.0198
22.0226
22.0281
22.0373
22.0512