/*--------------------------------*- C++ -*----------------------------------*\
| =========                 |                                                 |
| \\      /  F ield         | OpenFOAM: The Open Source CFD Toolbox           |
|  \\    /   O peration     | Version:  v1706                                 |
|   \\  /    A nd           | Web:      www.OpenFOAM.com                      |
|    \\/     M anipulation  |                                                 |
\*---------------------------------------------------------------------------*/
FoamFile
{
    version     2.0;
    format      ascii;
    class       volVectorField;
    location    "3.5e-05";
    object      U;
}
// * * * * * * * * * * * * * * * * * * * * * * * * * * * * * * * * * * * * * //

dimensions      [0 1 -1 0 0 0 0];


internalField   nonuniform List<vector> 
30104
(
(1760 -6.52381e-11 3.27948e-15)
(1760 -6.49888e-11 5.45471e-15)
(1760 -6.48914e-11 4.89033e-15)
(1760 -6.47472e-11 2.99111e-15)
(1760 -6.46622e-11 4.48251e-15)
(1760 -6.48922e-11 3.77287e-15)
(1760 -6.49158e-11 8.76014e-16)
(1760 -6.49544e-11 1.05197e-15)
(1760 -6.51627e-11 3.20469e-15)
(1760 -6.50118e-11 6.73798e-15)
(1760 -6.45653e-11 5.01585e-15)
(1760 -6.40434e-11 4.09121e-15)
(1760 -6.42253e-11 9.0007e-16)
(1760 -6.44555e-11 2.06748e-15)
(1760 -6.49045e-11 4.64854e-15)
(1760 -6.61989e-11 4.83715e-15)
(1760 -6.64393e-11 4.8687e-15)
(1760 -1.43179e-10 2.91206e-15)
(1760 -1.45171e-10 4.02275e-15)
(1760 -1.43927e-10 3.58258e-15)
(1760 -1.39975e-10 3.19025e-15)
(1760 -1.29274e-10 2.93817e-15)
(1760 -1.17583e-10 2.60363e-15)
(1760 -9.98823e-11 2.19989e-15)
(1760 -8.459e-11 3.54517e-15)
(1760 -5.92009e-11 3.45847e-15)
(1760 -2.21348e-11 1.05238e-15)
(1760 8.13042e-13 2.42742e-15)
(1760 2.35743e-11 1.41839e-15)
(1760 4.42647e-11 4.15948e-15)
(1760 6.12293e-11 4.26456e-15)
(1760 8.28678e-11 3.09828e-16)
(1760 1.03978e-10 1.64375e-15)
(1760 1.29638e-10 1.67644e-15)
(1760 1.40719e-10 2.12634e-15)
(1760 1.42038e-10 3.99829e-15)
(1760 1.30266e-10 1.08666e-15)
(1760 1.09752e-10 3.50344e-15)
(1760 7.3147e-11 4.96812e-15)
(1760 2.93935e-11 1.61613e-15)
(1760 7.32266e-12 1.87996e-15)
(1760 -9.11726e-12 1.8058e-15)
(1760 -3.58049e-11 2.23245e-15)
(1760 -9.57198e-11 2.12998e-15)
(1760 -1.41463e-10 2.43133e-15)
(1760 -1.72635e-10 2.27768e-15)
(1760 -1.99192e-10 2.63236e-15)
(1760 -2.20016e-10 9.11611e-16)
(1760 -2.40975e-10 2.84282e-15)
(1760 -2.62366e-10 3.81822e-15)
(1760 -2.97229e-10 2.29584e-15)
(1760 -3.37447e-10 1.24736e-15)
(1760 -3.85119e-10 4.27501e-16)
(1760 -3.78766e-10 4.171e-15)
(1760 -3.34192e-10 1.57235e-15)
(1760 -2.77464e-10 2.63312e-15)
(1760 -1.98473e-10 3.6901e-15)
(1760 5.41897e-11 2.73871e-15)
(1760 3.07726e-10 4.67354e-15)
(1760 3.8156e-10 4.46045e-15)
(1760 4.39145e-10 5.27338e-15)
(1760 5.00537e-10 5.91206e-15)
(1760 5.66678e-10 4.56857e-15)
(1760 6.39323e-10 4.36704e-15)
(1760 7.29008e-10 3.59811e-15)
(1760 8.2619e-10 4.77171e-15)
(1760 9.31685e-10 2.24753e-15)
(1760 1.04016e-09 5.72617e-15)
(1760 1.15386e-09 4.31506e-15)
(1760 1.27016e-09 2.6971e-15)
(1760 1.38693e-09 3.48659e-15)
(1760 1.48451e-09 4.67818e-15)
(1760 1.55428e-09 1.65769e-15)
(1760 1.62198e-09 4.14542e-15)
(1760 1.6811e-09 3.90583e-15)
(1760 1.74272e-09 3.39069e-15)
(1760 1.80995e-09 3.14503e-15)
(1760 1.86896e-09 2.52455e-15)
(1760 1.9358e-09 4.53174e-15)
(1760 1.99626e-09 4.12105e-15)
(1760 2.05236e-09 2.94182e-15)
(1760 2.10368e-09 5.59937e-15)
(1760 2.15069e-09 4.60917e-15)
(1760 2.19697e-09 3.75579e-15)
(1760 2.23771e-09 4.30048e-15)
(1760 2.27567e-09 3.73561e-15)
(1760 2.3054e-09 4.20575e-15)
(1760 2.33198e-09 3.41931e-15)
(1760 2.35068e-09 3.44124e-15)
(1760 2.373e-09 2.97285e-15)
(1760 2.38116e-09 2.47373e-15)
(1760 2.37851e-09 4.01699e-15)
(1760 2.3716e-09 4.43362e-15)
(1760 2.36774e-09 4.24249e-15)
(1760 2.37345e-09 2.60226e-15)
(1760 2.35017e-09 -1.32061e-15)
(1760 2.32695e-09 4.29341e-15)
(1760 2.31143e-09 1.22032e-15)
(1760 2.3021e-09 2.8823e-15)
(1760 2.28498e-09 2.66655e-15)
(1760 2.24765e-09 2.28262e-16)
(1760 2.22069e-09 4.73092e-15)
(1760 2.19594e-09 5.39789e-15)
(1760 2.17725e-09 4.08082e-15)
(1760 2.15345e-09 2.46777e-15)
(1760 2.11503e-09 2.62314e-15)
(1760 2.07661e-09 4.3188e-15)
(1760 2.0433e-09 3.82033e-15)
(1760 2.00924e-09 4.27433e-15)
(1760 1.97256e-09 5.04694e-15)
(1760 1.93895e-09 4.34224e-15)
(1760 1.90208e-09 2.83969e-16)
(1760 1.86461e-09 3.7346e-15)
(1760 1.81938e-09 1.96646e-15)
(1760 1.78492e-09 1.42587e-16)
(1760 1.74474e-09 3.55974e-15)
(1760 1.71315e-09 3.12617e-15)
(1760 1.67468e-09 3.1866e-15)
(1760 1.63407e-09 3.3891e-15)
(1760 1.58799e-09 2.59855e-15)
(1760 1.54672e-09 2.93022e-15)
(1760 1.51107e-09 2.47967e-15)
(1760 1.46832e-09 3.57581e-15)
(1760 1.43189e-09 2.11279e-15)
(1760 1.39247e-09 1.38271e-15)
(1760 1.35327e-09 3.97477e-15)
(1760 1.3077e-09 4.45604e-15)
(1760 1.2401e-09 3.70156e-15)
(1760 1.15838e-09 4.04491e-15)
(1760 1.07006e-09 3.66061e-15)
(1760 9.76832e-10 3.58403e-15)
(1760 8.78597e-10 2.18665e-15)
(1760 7.9149e-10 2.76751e-15)
(1760 6.93865e-10 3.55258e-15)
(1760 6.15144e-10 3.68414e-15)
(1760 5.3539e-10 3.6755e-15)
(1760 4.61558e-10 3.12985e-15)
(1760 3.84562e-10 3.77444e-15)
(1760 3.39817e-10 1.84641e-15)
(1760 2.52018e-10 4.02014e-15)
(1760 1.01421e-10 3.66078e-15)
(1760 -1.53515e-10 1.08159e-15)
(1760 -3.11056e-10 -1.95541e-16)
(1760 -4.24513e-10 3.60776e-16)
(1760 -4.75824e-10 6.65711e-16)
(1760 -4.87953e-10 9.85177e-16)
(1760 -4.77136e-10 6.39411e-16)
(1760 -4.40421e-10 5.96434e-16)
(1760 -3.93698e-10 1.21029e-15)
(1760 -3.39064e-10 7.19196e-16)
(1760 -2.55047e-10 1.31862e-15)
(1760 -1.73947e-10 5.38612e-16)
(1760 -8.14694e-11 1.62343e-15)
(1760 4.00173e-11 -3.8439e-16)
(1760 1.46886e-10 1.81046e-15)
(1760 2.03439e-10 1.77149e-15)
(1760 2.0492e-10 1.47367e-15)
(1760 1.91601e-10 2.66615e-15)
(1760 1.48979e-10 3.25731e-15)
(1760 8.83104e-11 2.10531e-15)
(1760 2.40727e-11 2.47202e-15)
(1760 -5.32873e-11 1.13767e-15)
(1760 -1.19086e-10 1.14035e-15)
(1760 -1.6346e-10 3.1575e-15)
(1760 -1.82323e-10 2.414e-15)
(1760 -1.81077e-10 7.96163e-16)
(1760 -1.57502e-10 1.5565e-16)
(1760 -1.24829e-10 2.16561e-15)
(1760 -8.14923e-11 4.81818e-16)
(1760 -2.99865e-11 1.24611e-15)
(1760 7.43082e-12 9.64778e-16)
(1760 2.49853e-11 1.31567e-15)
(1760 3.32414e-11 1.89523e-15)
(1760 2.19569e-11 1.5771e-15)
(1760 8.57027e-12 2.34535e-15)
(1760 -1.65898e-11 1.1727e-15)
(1760 -4.58815e-11 1.38163e-15)
(1760 -7.55489e-11 5.08229e-16)
(1760 -9.99279e-11 2.31154e-15)
(1760 -1.08841e-10 3.89124e-16)
(1760 -1.11452e-10 1.65087e-15)
(1760 -1.09778e-10 1.66043e-15)
(1760 -1.02992e-10 1.39236e-15)
(1760 -9.16992e-11 3.23748e-15)
(1760 -7.77714e-11 1.19631e-15)
(1760 -5.66694e-11 7.83759e-16)
(1760 -4.10462e-11 -4.11124e-16)
(1760 -2.64819e-11 9.84072e-16)
(1760 -1.41274e-11 1.40341e-15)
(1760 -6.36454e-12 1.85697e-15)
(1760 -6.86409e-12 9.25101e-16)
(1760 -9.38701e-12 1.07178e-15)
(1760 -1.62297e-11 3.08517e-16)
(1760 -1.93835e-11 1.47122e-15)
(1760 -2.11963e-11 1.0867e-15)
(1760 -2.46167e-11 4.44269e-16)
(1760 -2.66332e-11 9.68489e-16)
(1760 -2.97927e-11 3.61222e-16)
(1760 -3.59495e-11 1.02683e-15)
(1760 -4.00066e-11 1.81265e-15)
(1760 -4.38393e-11 1.05688e-15)
(1760 -4.84558e-11 1.82146e-15)
(1760 -5.28088e-11 1.44694e-15)
(1760 -5.68342e-11 1.07895e-15)
(1760 -6.17396e-11 1.54909e-15)
(1760 -6.58729e-11 1.93254e-15)
(1760 -6.62103e-11 1.29966e-15)
(1760 -6.40132e-11 1.11269e-15)
(1760 -6.13769e-11 1.10705e-15)
(1760 -5.77108e-11 1.09009e-15)
(1760 -1.97018e-10 1.30377e-14)
(1760 -1.96845e-10 1.51513e-14)
(1760 -1.95637e-10 1.14017e-14)
(1760 -1.95956e-10 1.0591e-14)
(1760 -1.95621e-10 1.12803e-14)
(1760 -1.95832e-10 1.14099e-14)
(1760 -1.96393e-10 9.2843e-15)
(1760 -1.95681e-10 1.08932e-14)
(1760 -1.95321e-10 1.35547e-14)
(1760 -1.95025e-10 1.11804e-14)
(1760 -1.96209e-10 1.02339e-14)
(1760 -1.95456e-10 1.46589e-14)
(1760 -1.94339e-10 1.60578e-14)
(1760 -1.92952e-10 1.46968e-14)
(1760 -1.91583e-10 1.43069e-14)
(1760 -1.90239e-10 1.53234e-14)
(1760 -1.90364e-10 1.10617e-14)
(1760 9.42606e-11 3.95918e-15)
(1760 9.2966e-11 5.96846e-15)
(1760 8.2925e-11 8.92197e-15)
(1760 5.71786e-11 9.42148e-15)
(1760 2.01205e-11 8.88422e-15)
(1760 -3.0626e-11 9.82415e-15)
(1760 -9.04473e-11 7.15624e-15)
(1760 -1.29666e-10 8.85952e-15)
(1760 -1.75546e-10 1.02534e-14)
(1760 -2.45616e-10 7.06705e-15)
(1760 -3.01636e-10 4.91498e-15)
(1760 -3.48538e-10 6.79177e-15)
(1760 -3.9045e-10 7.07594e-15)
(1760 -4.27799e-10 6.36536e-15)
(1760 -4.69342e-10 4.21718e-15)
(1760 -5.07932e-10 4.45274e-15)
(1760 -5.50193e-10 5.4871e-15)
(1760 -5.88136e-10 6.46082e-15)
(1760 -6.33373e-10 8.95983e-15)
(1760 -6.13532e-10 8.40035e-15)
(1760 -5.52307e-10 9.45901e-15)
(1760 -4.14461e-10 9.98382e-15)
(1760 -7.14958e-11 9.8684e-15)
(1760 5.42731e-12 9.91766e-15)
(1760 9.05436e-11 9.66165e-15)
(1760 2.26981e-10 9.70006e-15)
(1760 4.16791e-10 9.73149e-15)
(1760 5.76601e-10 9.53605e-15)
(1760 7.11538e-10 9.22107e-15)
(1760 8.41392e-10 1.01308e-14)
(1760 9.49939e-10 8.47161e-15)
(1760 1.07801e-09 1.12324e-14)
(1760 1.22884e-09 1.04861e-14)
(1760 1.41386e-09 9.98298e-15)
(1760 1.60944e-09 7.30139e-15)
(1760 1.77842e-09 1.00354e-14)
(1760 1.95256e-09 1.12115e-14)
(1760 2.13672e-09 8.03593e-15)
(1760 2.32915e-09 8.73751e-15)
(1760 2.42788e-09 1.08619e-14)
(1760 2.44892e-09 9.61422e-15)
(1760 2.65778e-09 1.08285e-14)
(1760 2.93819e-09 8.59239e-15)
(1760 3.26237e-09 8.74059e-15)
(1760 3.62238e-09 1.13437e-14)
(1760 4.00588e-09 9.2057e-15)
(1760 4.43555e-09 7.16618e-15)
(1760 4.91145e-09 6.91955e-15)
(1760 5.4292e-09 1.02258e-14)
(1760 5.98767e-09 7.12555e-15)
(1760 6.57726e-09 8.85472e-15)
(1760 7.18829e-09 9.36884e-15)
(1760 7.81367e-09 8.58317e-15)
(1760 8.45636e-09 8.45013e-15)
(1760 9.12308e-09 6.49889e-15)
(1760 9.82825e-09 6.6899e-15)
(1760 1.05704e-08 8.83318e-15)
(1760 1.13549e-08 8.49515e-15)
(1760 1.22134e-08 1.01044e-14)
(1760 1.31652e-08 8.2884e-15)
(1760 1.42183e-08 6.86235e-15)
(1760 1.53805e-08 7.56173e-15)
(1760 1.6641e-08 8.06614e-15)
(1760 1.79574e-08 7.78037e-15)
(1760 1.92748e-08 9.71669e-15)
(1760 2.05388e-08 9.49589e-15)
(1760 2.17063e-08 7.31113e-15)
(1760 2.27558e-08 6.83623e-15)
(1760 2.36522e-08 8.78315e-15)
(1760 2.43905e-08 8.00543e-15)
(1760 2.4977e-08 7.50261e-15)
(1760 2.54289e-08 7.52788e-15)
(1760 2.57405e-08 6.92119e-15)
(1760 2.59123e-08 8.07713e-15)
(1760 2.59642e-08 9.59572e-15)
(1760 2.59557e-08 8.30003e-15)
(1760 2.59267e-08 6.90399e-15)
(1760 2.57911e-08 7.40523e-15)
(1760 2.55833e-08 5.04526e-15)
(1760 2.53717e-08 6.72956e-15)
(1760 2.5062e-08 4.10384e-15)
(1760 2.46865e-08 4.80737e-15)
(1760 2.43094e-08 6.66199e-15)
(1760 2.39651e-08 7.69946e-15)
(1760 2.36089e-08 7.87003e-15)
(1760 2.31813e-08 8.30382e-15)
(1760 2.26933e-08 6.96513e-15)
(1760 2.21882e-08 6.02106e-15)
(1760 2.17331e-08 7.61479e-15)
(1760 2.12965e-08 7.89234e-15)
(1760 2.08048e-08 8.37378e-15)
(1760 2.02579e-08 8.82048e-15)
(1760 1.97051e-08 6.97785e-15)
(1760 1.91705e-08 7.26251e-15)
(1760 1.86219e-08 2.85794e-15)
(1760 1.80606e-08 6.63049e-15)
(1760 1.7506e-08 4.3773e-15)
(1760 1.69508e-08 4.8019e-15)
(1760 1.63706e-08 8.21028e-15)
(1760 1.57695e-08 5.42896e-15)
(1760 1.51507e-08 6.70116e-15)
(1760 1.45289e-08 5.43604e-15)
(1760 1.38977e-08 5.41345e-15)
(1760 1.32545e-08 7.18584e-15)
(1760 1.25958e-08 7.34489e-15)
(1760 1.19406e-08 6.63147e-15)
(1760 1.12814e-08 5.06199e-15)
(1760 1.0613e-08 6.80399e-15)
(1760 9.95736e-09 6.32455e-15)
(1760 9.31315e-09 6.32129e-15)
(1760 8.66207e-09 8.88554e-15)
(1760 8.0319e-09 1.01709e-14)
(1760 7.42336e-09 5.74797e-15)
(1760 6.80056e-09 6.72602e-15)
(1760 6.18149e-09 7.01446e-15)
(1760 5.58479e-09 5.0707e-15)
(1760 5.00298e-09 7.87497e-15)
(1760 4.45467e-09 9.32578e-15)
(1760 3.95017e-09 6.93335e-15)
(1760 3.48248e-09 7.14518e-15)
(1760 3.02068e-09 5.47094e-15)
(1760 2.65703e-09 4.51163e-15)
(1760 2.19181e-09 8.64928e-15)
(1760 1.97801e-09 7.89541e-15)
(1760 2.07494e-09 6.29581e-15)
(1760 1.90974e-09 6.07781e-15)
(1760 1.65119e-09 5.81418e-15)
(1760 1.3956e-09 6.04087e-15)
(1760 1.16197e-09 5.68354e-15)
(1760 9.37857e-10 5.54384e-15)
(1760 7.3577e-10 8.32444e-15)
(1760 5.54713e-10 4.40979e-15)
(1760 4.26162e-10 5.38511e-15)
(1760 1.71055e-10 5.9883e-15)
(1760 -7.62571e-11 5.68904e-15)
(1760 -4.5459e-10 6.79093e-15)
(1760 -6.76125e-10 4.83201e-15)
(1760 -7.71363e-10 3.73405e-15)
(1760 -7.69685e-10 3.85288e-15)
(1760 -7.39003e-10 4.71957e-15)
(1760 -6.53058e-10 5.12103e-15)
(1760 -5.0523e-10 5.6176e-15)
(1760 -3.61123e-10 5.51493e-15)
(1760 -1.67441e-10 5.17873e-15)
(1760 4.29415e-11 6.03946e-15)
(1760 1.44572e-10 6.17938e-15)
(1760 1.8313e-10 5.04486e-15)
(1760 1.67187e-10 6.51894e-15)
(1760 9.97887e-11 5.46249e-15)
(1760 1.03217e-11 4.73001e-15)
(1760 -9.14984e-11 5.79536e-15)
(1760 -2.14341e-10 5.20207e-15)
(1760 -2.87695e-10 6.48319e-15)
(1760 -3.31323e-10 6.50587e-15)
(1760 -3.51985e-10 6.20418e-15)
(1760 -3.33609e-10 6.16886e-15)
(1760 -2.91477e-10 5.3702e-15)
(1760 -2.53242e-10 5.65158e-15)
(1760 -1.88065e-10 6.22716e-15)
(1760 -1.13951e-10 2.84216e-15)
(1760 -4.79055e-11 4.86774e-15)
(1760 -1.90442e-11 4.01611e-15)
(1760 -1.86005e-11 4.12195e-15)
(1760 -3.015e-11 4.79471e-15)
(1760 -6.01089e-11 3.67001e-15)
(1760 -8.98436e-11 4.16545e-15)
(1760 -1.2406e-10 5.12346e-15)
(1760 -1.73474e-10 7.30685e-15)
(1760 -2.18073e-10 6.07369e-15)
(1760 -2.44084e-10 4.75774e-15)
(1760 -2.64203e-10 5.93115e-15)
(1760 -2.77086e-10 2.07718e-15)
(1760 -2.72663e-10 3.97599e-15)
(1760 -2.66174e-10 4.34395e-15)
(1760 -2.51575e-10 3.00705e-15)
(1760 -2.38577e-10 4.33676e-15)
(1760 -2.26417e-10 3.91216e-15)
(1760 -2.16367e-10 3.61938e-15)
(1760 -1.98145e-10 3.58282e-15)
(1760 -1.91827e-10 3.90766e-15)
(1760 -1.84862e-10 3.95153e-15)
(1760 -1.76288e-10 4.77973e-15)
(1760 -1.73848e-10 4.33759e-15)
(1760 -1.67382e-10 4.15113e-15)
(1760 -1.59038e-10 2.74673e-15)
(1760 -1.5355e-10 1.83336e-15)
(1760 -1.46679e-10 4.78465e-15)
(1760 -1.41207e-10 5.22814e-15)
(1760 -1.4197e-10 5.77525e-15)
(1760 -1.45656e-10 6.16863e-15)
(1760 -1.53426e-10 6.9651e-15)
(1760 -1.57433e-10 4.69126e-15)
(1760 -1.67458e-10 3.784e-15)
(1760 -3.32088e-10 1.83184e-14)
(1760 -3.30034e-10 2.15653e-14)
(1760 -3.28567e-10 2.04755e-14)
(1760 -3.27608e-10 2.07223e-14)
(1760 -3.27067e-10 2.30963e-14)
(1760 -3.26451e-10 2.07905e-14)
(1760 -3.27164e-10 1.89836e-14)
(1760 -3.28041e-10 1.9585e-14)
(1760 -3.27895e-10 1.98655e-14)
(1760 -3.29079e-10 2.00997e-14)
(1760 -3.3049e-10 2.17017e-14)
(1760 -3.32158e-10 2.302e-14)
(1760 -3.33235e-10 1.8555e-14)
(1760 -3.3383e-10 1.69621e-14)
(1760 -3.34291e-10 2.18839e-14)
(1760 -3.32831e-10 2.16766e-14)
(1760 -5.98186e-10 1.3097e-14)
(1760 -6.15525e-10 1.34228e-14)
(1760 -5.78298e-10 1.37298e-14)
(1760 -5.39098e-10 1.432e-14)
(1760 -4.6339e-10 1.45914e-14)
(1760 -1.77611e-10 1.47117e-14)
(1760 3.95269e-11 1.46855e-14)
(1760 1.24294e-10 1.74143e-14)
(1760 2.45571e-10 1.53971e-14)
(1760 3.81696e-10 1.59654e-14)
(1760 4.93209e-10 1.7089e-14)
(1760 5.99055e-10 1.59603e-14)
(1760 7.05742e-10 1.68804e-14)
(1760 8.10508e-10 1.59973e-14)
(1760 9.19607e-10 1.30904e-14)
(1760 1.04217e-09 1.35196e-14)
(1760 1.17953e-09 1.32758e-14)
(1760 1.36164e-09 1.49042e-14)
(1760 1.53361e-09 1.55825e-14)
(1760 1.71497e-09 1.26087e-14)
(1760 1.88745e-09 1.58389e-14)
(1760 1.87199e-09 1.5617e-14)
(1760 1.79587e-09 1.42817e-14)
(1760 2.02513e-09 1.44745e-14)
(1760 2.36919e-09 1.46112e-14)
(1760 2.74402e-09 1.39028e-14)
(1760 3.13946e-09 1.42673e-14)
(1760 3.5249e-09 1.36934e-14)
(1760 3.96637e-09 1.32295e-14)
(1760 4.45651e-09 1.49106e-14)
(1760 4.97269e-09 1.30598e-14)
(1760 5.53297e-09 1.41964e-14)
(1760 6.17831e-09 1.38517e-14)
(1760 6.93138e-09 1.40714e-14)
(1760 7.7521e-09 1.33319e-14)
(1760 8.6544e-09 1.61842e-14)
(1760 9.70889e-09 1.20838e-14)
(1760 1.09095e-08 1.34603e-14)
(1760 1.21302e-08 1.44665e-14)
(1760 1.32791e-08 1.37265e-14)
(1760 1.45943e-08 1.38038e-14)
(1760 1.61724e-08 1.55297e-14)
(1760 1.79724e-08 1.18961e-14)
(1760 2.00148e-08 1.34062e-14)
(1760 2.23458e-08 1.29368e-14)
(1760 2.50443e-08 1.30775e-14)
(1760 2.82004e-08 1.44718e-14)
(1760 3.18825e-08 1.4335e-14)
(1760 3.61179e-08 1.37899e-14)
(1760 4.08873e-08 1.20735e-14)
(1760 4.6094e-08 1.15224e-14)
(1760 5.16059e-08 1.25398e-14)
(1760 5.72955e-08 1.2057e-14)
(1760 6.30335e-08 1.12301e-14)
(1760 6.87698e-08 1.26235e-14)
(1760 7.45468e-08 1.4883e-14)
(1760 8.04587e-08 1.21498e-14)
(1760 8.66701e-08 1.26813e-14)
(1760 9.32898e-08 1.38545e-14)
(1760 1.00266e-07 1.34105e-14)
(1760 1.07407e-07 1.28915e-14)
(1760 1.14485e-07 1.26464e-14)
(1760 1.21347e-07 1.34659e-14)
(1760 1.27961e-07 1.33353e-14)
(1760 1.34368e-07 1.12622e-14)
(1760 1.40562e-07 1.01158e-14)
(1760 1.46461e-07 1.37603e-14)
(1760 1.51943e-07 1.19277e-14)
(1760 1.56854e-07 1.15779e-14)
(1760 1.61063e-07 1.38902e-14)
(1760 1.64515e-07 1.13109e-14)
(1760 1.67193e-07 1.11829e-14)
(1760 1.69117e-07 1.27554e-14)
(1760 1.70337e-07 1.28086e-14)
(1760 1.70784e-07 1.06087e-14)
(1760 1.70763e-07 1.08384e-14)
(1760 1.70721e-07 1.2216e-14)
(1760 1.70412e-07 1.18577e-14)
(1760 1.69204e-07 1.09121e-14)
(1760 1.67609e-07 9.69398e-15)
(1760 1.6586e-07 1.04842e-14)
(1760 1.64251e-07 1.14121e-14)
(1760 1.62654e-07 1.26488e-14)
(1760 1.6051e-07 1.16823e-14)
(1760 1.57756e-07 1.0459e-14)
(1760 1.55048e-07 1.20528e-14)
(1760 1.52555e-07 1.04995e-14)
(1760 1.4992e-07 1.06199e-14)
(1760 1.46878e-07 9.49863e-15)
(1760 1.43425e-07 1.0443e-14)
(1760 1.39866e-07 1.25843e-14)
(1760 1.36406e-07 1.22856e-14)
(1760 1.33003e-07 9.44602e-15)
(1760 1.2949e-07 1.19241e-14)
(1760 1.2577e-07 8.63776e-15)
(1760 1.2187e-07 9.74611e-15)
(1760 1.17863e-07 8.65491e-15)
(1760 1.13746e-07 1.09695e-14)
(1760 1.09524e-07 1.01678e-14)
(1760 1.0524e-07 9.30336e-15)
(1760 1.00897e-07 9.74881e-15)
(1760 9.64893e-08 1.05114e-14)
(1760 9.20302e-08 8.91845e-15)
(1760 8.74972e-08 1.1527e-14)
(1760 8.28941e-08 1.18598e-14)
(1760 7.82377e-08 8.87326e-15)
(1760 7.35541e-08 8.48659e-15)
(1760 6.887e-08 1.17513e-14)
(1760 6.42132e-08 1.02583e-14)
(1760 5.95846e-08 1.16992e-14)
(1760 5.49774e-08 1.17897e-14)
(1760 5.04548e-08 1.22197e-14)
(1760 4.60497e-08 9.3936e-15)
(1760 4.17694e-08 1.00988e-14)
(1760 3.76243e-08 1.04318e-14)
(1760 3.36377e-08 9.84358e-15)
(1760 2.98733e-08 9.92848e-15)
(1760 2.63598e-08 1.11646e-14)
(1760 2.31658e-08 9.94043e-15)
(1760 2.03404e-08 1.05901e-14)
(1760 1.78546e-08 1.0717e-14)
(1760 1.58455e-08 9.48177e-15)
(1760 1.38466e-08 1.00233e-14)
(1760 1.21264e-08 1.08325e-14)
(1760 1.0767e-08 1.00341e-14)
(1760 9.48863e-09 1.03745e-14)
(1760 8.25745e-09 8.70658e-15)
(1760 7.0449e-09 1.03398e-14)
(1760 5.92002e-09 8.56966e-15)
(1760 4.94771e-09 8.00743e-15)
(1760 4.0515e-09 1.01245e-14)
(1760 3.33883e-09 8.55153e-15)
(1760 2.684e-09 1.08384e-14)
(1760 1.9451e-09 9.77011e-15)
(1760 2.00263e-09 9.61302e-15)
(1760 1.68736e-09 1.01676e-14)
(1760 1.25296e-09 1.02253e-14)
(1760 9.36396e-10 1.02109e-14)
(1760 6.53724e-10 1.19859e-14)
(1760 3.93795e-10 1.02093e-14)
(1760 2.17507e-10 9.26031e-15)
(1760 -8.6354e-11 9.40257e-15)
(1760 -3.29768e-10 9.38867e-15)
(1760 -6.81897e-10 9.16873e-15)
(1760 -8.4943e-10 6.9538e-15)
(1760 -8.3669e-10 6.49719e-15)
(1760 -7.63483e-10 7.25595e-15)
(1760 -6.6088e-10 8.37708e-15)
(1760 -4.9007e-10 8.03464e-15)
(1760 -3.39898e-10 7.27373e-15)
(1760 -1.83258e-10 7.9246e-15)
(1760 -1.73202e-11 8.42525e-15)
(1760 1.79742e-11 9.14605e-15)
(1760 3.41604e-12 7.5654e-15)
(1760 -2.57631e-11 7.72417e-15)
(1760 -9.15067e-11 9.09845e-15)
(1760 -1.41856e-10 9.61979e-15)
(1760 -2.14033e-10 1.03976e-14)
(1760 -3.24096e-10 8.61676e-15)
(1760 -4.08682e-10 9.09913e-15)
(1760 -4.41804e-10 7.67425e-15)
(1760 -4.38926e-10 5.10705e-15)
(1760 -4.19583e-10 5.02656e-15)
(1760 -3.84512e-10 6.0482e-15)
(1760 -3.45897e-10 6.40144e-15)
(1760 -3.01698e-10 7.05399e-15)
(1760 -2.27893e-10 5.92681e-15)
(1760 -1.61844e-10 5.14578e-15)
(1760 -1.41347e-10 1.06091e-14)
(1760 -1.28244e-10 7.88769e-15)
(1760 -1.35696e-10 7.03707e-15)
(1760 -1.4771e-10 8.97189e-15)
(1760 -1.64577e-10 8.67878e-15)
(1760 -1.87966e-10 7.17317e-15)
(1760 -2.09608e-10 5.72028e-15)
(1760 -2.22713e-10 5.50412e-15)
(1760 -2.37201e-10 6.78945e-15)
(1760 -2.61583e-10 6.79284e-15)
(1760 -2.6338e-10 5.64967e-15)
(1760 -2.54395e-10 4.61862e-15)
(1760 -2.4977e-10 5.60963e-15)
(1760 -2.50515e-10 5.86634e-15)
(1760 -2.54558e-10 6.12907e-15)
(1760 -2.69513e-10 7.57674e-15)
(1760 -2.77196e-10 4.94454e-15)
(1760 -2.91735e-10 1.05354e-14)
(1760 -2.95517e-10 6.28741e-15)
(1760 -2.9338e-10 6.27202e-15)
(1760 -2.89749e-10 7.77091e-15)
(1760 -2.88381e-10 6.63439e-15)
(1760 -2.81542e-10 6.27306e-15)
(1760 -2.80035e-10 7.06136e-15)
(1760 -2.50177e-10 7.17575e-15)
(1760 -4.68372e-10 2.82692e-14)
(1760 -4.69298e-10 2.65284e-14)
(1760 -4.68324e-10 2.6398e-14)
(1760 -4.66508e-10 2.90139e-14)
(1760 -4.65579e-10 2.96751e-14)
(1760 -4.62359e-10 2.39558e-14)
(1760 -4.59969e-10 2.61549e-14)
(1760 -4.57828e-10 2.64636e-14)
(1760 -4.53129e-10 2.55906e-14)
(1760 -4.50271e-10 2.75328e-14)
(1760 -4.47611e-10 3.1359e-14)
(1760 -4.45917e-10 2.96421e-14)
(1760 -4.44353e-10 2.7797e-14)
(1760 -4.42671e-10 2.60689e-14)
(1760 -4.41768e-10 2.64918e-14)
(1760 -4.40794e-10 2.61075e-14)
(1760 1.47018e-09 2.23354e-14)
(1760 1.65045e-09 2.08411e-14)
(1760 1.81174e-09 2.09949e-14)
(1760 1.99911e-09 2.03071e-14)
(1760 2.093e-09 2.22204e-14)
(1760 2.01407e-09 2.16826e-14)
(1760 2.1414e-09 1.87136e-14)
(1760 2.42013e-09 1.97883e-14)
(1760 2.74305e-09 2.17641e-14)
(1760 3.08239e-09 2.18147e-14)
(1760 3.4075e-09 2.05715e-14)
(1760 3.76992e-09 2.10514e-14)
(1760 4.18272e-09 1.94848e-14)
(1760 4.63495e-09 2.01981e-14)
(1760 5.13124e-09 2.10848e-14)
(1760 5.69582e-09 1.92198e-14)
(1760 6.35355e-09 1.96908e-14)
(1760 7.11352e-09 1.83791e-14)
(1760 7.9695e-09 1.75048e-14)
(1760 8.97558e-09 1.97181e-14)
(1760 9.99608e-09 2.11368e-14)
(1760 1.1113e-08 2.18111e-14)
(1760 1.2573e-08 2.0932e-14)
(1760 1.42587e-08 1.92672e-14)
(1760 1.59003e-08 1.78159e-14)
(1760 1.75684e-08 1.82983e-14)
(1760 1.94636e-08 1.86885e-14)
(1760 2.16831e-08 1.81263e-14)
(1760 2.41915e-08 2.08726e-14)
(1760 2.69174e-08 1.93726e-14)
(1760 2.9879e-08 1.64877e-14)
(1760 3.31972e-08 1.95931e-14)
(1760 3.7025e-08 1.78095e-14)
(1760 4.14794e-08 1.83154e-14)
(1760 4.66622e-08 1.9144e-14)
(1760 5.27634e-08 1.93598e-14)
(1760 6.00029e-08 1.93678e-14)
(1760 6.85064e-08 2.05253e-14)
(1760 7.81959e-08 1.87604e-14)
(1760 8.90837e-08 1.64536e-14)
(1760 1.01221e-07 1.89171e-14)
(1760 1.14527e-07 1.7178e-14)
(1760 1.28989e-07 1.74878e-14)
(1760 1.44917e-07 1.82339e-14)
(1760 1.62761e-07 1.80044e-14)
(1760 1.82807e-07 1.77376e-14)
(1760 2.05047e-07 1.74301e-14)
(1760 2.29248e-07 1.66213e-14)
(1760 2.55162e-07 1.79061e-14)
(1760 2.8273e-07 1.47971e-14)
(1760 3.12031e-07 1.48719e-14)
(1760 3.43037e-07 1.79575e-14)
(1760 3.75585e-07 1.7575e-14)
(1760 4.09554e-07 1.68638e-14)
(1760 4.44936e-07 1.76884e-14)
(1760 4.81873e-07 1.81026e-14)
(1760 5.20872e-07 1.61929e-14)
(1760 5.63006e-07 1.67831e-14)
(1760 6.09882e-07 1.79932e-14)
(1760 6.63194e-07 1.77095e-14)
(1760 7.23986e-07 1.81429e-14)
(1760 7.91843e-07 1.72921e-14)
(1760 8.64631e-07 1.63285e-14)
(1760 9.3916e-07 1.70427e-14)
(1760 1.01219e-06 1.46424e-14)
(1760 1.08103e-06 1.44323e-14)
(1760 1.14376e-06 1.81358e-14)
(1760 1.19912e-06 1.69105e-14)
(1760 1.24651e-06 1.63667e-14)
(1760 1.28575e-06 1.70514e-14)
(1760 1.31715e-06 1.62649e-14)
(1760 1.34126e-06 1.58837e-14)
(1760 1.3586e-06 1.61439e-14)
(1760 1.36948e-06 1.60059e-14)
(1760 1.37393e-06 1.593e-14)
(1760 1.37418e-06 1.58644e-14)
(1760 1.37309e-06 1.63103e-14)
(1760 1.36974e-06 1.48395e-14)
(1760 1.36159e-06 1.74252e-14)
(1760 1.3504e-06 1.50063e-14)
(1760 1.33746e-06 1.84284e-14)
(1760 1.32281e-06 1.57967e-14)
(1760 1.30581e-06 1.56923e-14)
(1760 1.2877e-06 1.50244e-14)
(1760 1.26983e-06 1.59204e-14)
(1760 1.25138e-06 1.6289e-14)
(1760 1.23053e-06 1.42767e-14)
(1760 1.2072e-06 1.45649e-14)
(1760 1.18283e-06 1.27403e-14)
(1760 1.15844e-06 1.52296e-14)
(1760 1.13359e-06 1.64035e-14)
(1760 1.10726e-06 1.5713e-14)
(1760 1.07914e-06 1.44507e-14)
(1760 1.04989e-06 1.6562e-14)
(1760 1.02028e-06 1.38572e-14)
(1760 9.90628e-07 1.37734e-14)
(1760 9.60837e-07 1.28909e-14)
(1760 9.30607e-07 1.41697e-14)
(1760 8.99701e-07 1.49926e-14)
(1760 8.68047e-07 1.2883e-14)
(1760 8.35517e-07 1.41362e-14)
(1760 8.02146e-07 1.40909e-14)
(1760 7.68055e-07 1.35413e-14)
(1760 7.33306e-07 1.46761e-14)
(1760 6.97944e-07 1.41474e-14)
(1760 6.62055e-07 1.29056e-14)
(1760 6.2577e-07 1.43466e-14)
(1760 5.89176e-07 1.48227e-14)
(1760 5.52353e-07 1.3799e-14)
(1760 5.15386e-07 1.25469e-14)
(1760 4.78384e-07 1.3891e-14)
(1760 4.41461e-07 1.62768e-14)
(1760 4.04805e-07 1.32416e-14)
(1760 3.68611e-07 1.29988e-14)
(1760 3.33183e-07 1.35928e-14)
(1760 2.98792e-07 1.19713e-14)
(1760 2.65775e-07 1.28517e-14)
(1760 2.3425e-07 1.34881e-14)
(1760 2.04339e-07 1.40862e-14)
(1760 1.75983e-07 1.72263e-14)
(1760 1.4934e-07 1.46606e-14)
(1760 1.25037e-07 1.26842e-14)
(1760 1.03253e-07 1.34633e-14)
(1760 8.47399e-08 1.47425e-14)
(1760 6.96853e-08 1.3097e-14)
(1760 5.75369e-08 1.44738e-14)
(1760 4.76614e-08 1.18787e-14)
(1760 3.93987e-08 1.24011e-14)
(1760 3.24365e-08 1.531e-14)
(1760 2.66139e-08 1.32552e-14)
(1760 2.16747e-08 1.36193e-14)
(1760 1.78931e-08 1.29518e-14)
(1760 1.46459e-08 1.23379e-14)
(1760 1.20901e-08 1.21857e-14)
(1760 1.03208e-08 1.25666e-14)
(1760 8.62555e-09 1.24345e-14)
(1760 7.00288e-09 1.42788e-14)
(1760 5.62838e-09 1.41144e-14)
(1760 4.4002e-09 1.25714e-14)
(1760 3.44955e-09 1.29718e-14)
(1760 2.58203e-09 1.11458e-14)
(1760 1.70814e-09 1.16675e-14)
(1760 1.69222e-09 1.30581e-14)
(1760 1.34021e-09 1.3513e-14)
(1760 9.57398e-10 1.14369e-14)
(1760 6.0599e-10 1.44199e-14)
(1760 3.70855e-10 1.32456e-14)
(1760 1.49551e-10 1.37141e-14)
(1760 -1.20493e-10 1.27528e-14)
(1760 -4.1423e-10 1.25131e-14)
(1760 -7.56988e-10 1.36487e-14)
(1760 -9.13578e-10 9.1916e-15)
(1760 -9.15271e-10 9.059e-15)
(1760 -8.65663e-10 8.20958e-15)
(1760 -7.72691e-10 9.45695e-15)
(1760 -6.23933e-10 8.89568e-15)
(1760 -5.27379e-10 9.33643e-15)
(1760 -3.4752e-10 1.0733e-14)
(1760 -1.53985e-10 1.15218e-14)
(1760 -9.06573e-11 1.08765e-14)
(1760 -7.99838e-11 1.29649e-14)
(1760 -1.04294e-10 1.19576e-14)
(1760 -1.7894e-10 1.23102e-14)
(1760 -2.39308e-10 1.0612e-14)
(1760 -3.09347e-10 1.10467e-14)
(1760 -3.99708e-10 1.1076e-14)
(1760 -4.91361e-10 1.07915e-14)
(1760 -5.26364e-10 8.72992e-15)
(1760 -5.51114e-10 9.56147e-15)
(1760 -5.50949e-10 8.56629e-15)
(1760 -5.44036e-10 1.12882e-14)
(1760 -5.28951e-10 1.0101e-14)
(1760 -5.06436e-10 1.03386e-14)
(1760 -4.84711e-10 1.15855e-14)
(1760 -4.63039e-10 1.11327e-14)
(1760 -4.6049e-10 9.86495e-15)
(1760 -4.58095e-10 1.08822e-14)
(1760 -4.60018e-10 1.00312e-14)
(1760 -4.66885e-10 9.13236e-15)
(1760 -4.53121e-10 9.0969e-15)
(1760 -4.28689e-10 9.14992e-15)
(1760 -4.00189e-10 9.97937e-15)
(1760 -3.75312e-10 7.09023e-15)
(1760 -3.48129e-10 9.57399e-15)
(1760 -3.30739e-10 8.75705e-15)
(1760 -3.22605e-10 9.18106e-15)
(1760 -3.18931e-10 8.10598e-15)
(1760 -3.21103e-10 7.70649e-15)
(1760 -3.34446e-10 8.89257e-15)
(1760 -3.38972e-10 9.93397e-15)
(1760 -3.7059e-10 9.65854e-15)
(1760 -3.96976e-10 8.92611e-15)
(1760 -4.40314e-10 8.67427e-15)
(1760 -5.90603e-10 3.34191e-14)
(1760 -5.93039e-10 3.50324e-14)
(1760 -5.96108e-10 3.88211e-14)
(1760 -5.98772e-10 3.93013e-14)
(1760 -6.01361e-10 3.49754e-14)
(1760 -6.05026e-10 3.44842e-14)
(1760 -6.08164e-10 3.6812e-14)
(1760 -6.12577e-10 3.68546e-14)
(1760 -6.17373e-10 3.5429e-14)
(1760 -6.21599e-10 3.95353e-14)
(1760 -6.23742e-10 4.11651e-14)
(1760 -6.26178e-10 3.55445e-14)
(1760 -6.27183e-10 3.79848e-14)
(1760 -6.2668e-10 3.30936e-14)
(1760 -6.25761e-10 3.44589e-14)
(1760 7.31463e-09 2.78317e-14)
(1760 8.03533e-09 2.6162e-14)
(1760 8.89401e-09 2.5436e-14)
(1760 9.86485e-09 2.45761e-14)
(1760 1.08386e-08 2.70491e-14)
(1760 1.20124e-08 2.49827e-14)
(1760 1.35604e-08 2.39068e-14)
(1760 1.5192e-08 2.58362e-14)
(1760 1.68717e-08 2.62017e-14)
(1760 1.87249e-08 2.69105e-14)
(1760 2.08703e-08 2.56792e-14)
(1760 2.33646e-08 2.54342e-14)
(1760 2.61626e-08 2.6889e-14)
(1760 2.92316e-08 2.72369e-14)
(1760 3.25947e-08 2.50628e-14)
(1760 3.62902e-08 2.61799e-14)
(1760 4.03352e-08 2.76185e-14)
(1760 4.47342e-08 2.48315e-14)
(1760 4.95463e-08 2.611e-14)
(1760 5.48508e-08 2.40517e-14)
(1760 6.08159e-08 2.2838e-14)
(1760 6.77347e-08 2.39954e-14)
(1760 7.57097e-08 2.35436e-14)
(1760 8.47019e-08 2.39783e-14)
(1760 9.49271e-08 2.32249e-14)
(1760 1.07043e-07 2.36363e-14)
(1760 1.21653e-07 2.44364e-14)
(1760 1.38761e-07 2.39751e-14)
(1760 1.58061e-07 2.50176e-14)
(1760 1.79421e-07 2.43221e-14)
(1760 2.02957e-07 2.35781e-14)
(1760 2.29017e-07 2.34169e-14)
(1760 2.58141e-07 2.33119e-14)
(1760 2.9097e-07 2.44766e-14)
(1760 3.28065e-07 2.39883e-14)
(1760 3.69674e-07 2.46738e-14)
(1760 4.15869e-07 2.45321e-14)
(1760 4.66664e-07 2.45699e-14)
(1760 5.22278e-07 2.35385e-14)
(1760 5.83514e-07 2.11613e-14)
(1760 6.51575e-07 2.10234e-14)
(1760 7.27772e-07 2.17882e-14)
(1760 8.13771e-07 2.23766e-14)
(1760 9.12129e-07 2.12549e-14)
(1760 1.02655e-06 1.99677e-14)
(1760 1.16182e-06 2.04555e-14)
(1760 1.32272e-06 2.09942e-14)
(1760 1.5122e-06 2.12709e-14)
(1760 1.7302e-06 2.18814e-14)
(1760 1.97285e-06 2.06841e-14)
(1760 2.23358e-06 2.24723e-14)
(1760 2.50552e-06 2.19e-14)
(1760 2.78201e-06 2.2949e-14)
(1760 3.05699e-06 2.07447e-14)
(1760 3.32813e-06 2.10861e-14)
(1760 3.59984e-06 2.23226e-14)
(1760 3.88161e-06 2.20597e-14)
(1760 4.18222e-06 2.33239e-14)
(1760 4.50376e-06 2.04555e-14)
(1760 4.83973e-06 1.80403e-14)
(1760 5.17938e-06 2.15387e-14)
(1760 5.51523e-06 2.35701e-14)
(1760 5.8464e-06 2.00676e-14)
(1760 6.17516e-06 2.00475e-14)
(1760 6.50172e-06 2.13657e-14)
(1760 6.82174e-06 2.04485e-14)
(1760 7.12717e-06 2.14463e-14)
(1760 7.40866e-06 2.0786e-14)
(1760 7.65806e-06 2.05314e-14)
(1760 7.87023e-06 2.10555e-14)
(1760 8.04347e-06 2.01638e-14)
(1760 8.17979e-06 2.05851e-14)
(1760 8.28152e-06 1.99068e-14)
(1760 8.35051e-06 2.3151e-14)
(1760 8.38941e-06 2.05224e-14)
(1760 8.39872e-06 1.92107e-14)
(1760 8.40415e-06 2.10981e-14)
(1760 8.39222e-06 1.75083e-14)
(1760 8.34437e-06 2.30044e-14)
(1760 8.30331e-06 1.90167e-14)
(1760 8.24297e-06 2.15398e-14)
(1760 8.17126e-06 1.94781e-14)