/*--------------------------------*- C++ -*----------------------------------*\
| =========                 |                                                 |
| \\      /  F ield         | OpenFOAM: The Open Source CFD Toolbox           |
|  \\    /   O peration     | Version:  v1706                                 |
|   \\  /    A nd           | Web:      www.OpenFOAM.com                      |
|    \\/     M anipulation  |                                                 |
\*---------------------------------------------------------------------------*/
FoamFile
{
    version     2.0;
    format      ascii;
    class       volScalarField;
    location    "1.7e-05";
    object      alpha;
}
// * * * * * * * * * * * * * * * * * * * * * * * * * * * * * * * * * * * * * //

dimensions      [1 -1 -1 0 0 0 0];


internalField   nonuniform List<scalar> 
29871
(
1.40482e-05
1.40482e-05
1.40483e-05
1.40483e-05
1.40483e-05
1.40483e-05
1.40484e-05
1.40484e-05
1.40484e-05
1.40484e-05
1.40485e-05
1.40485e-05
1.40485e-05
1.40485e-05
1.40485e-05
1.40486e-05
1.40486e-05
1.40486e-05
1.40486e-05
1.40486e-05
1.40486e-05
1.40486e-05
1.40486e-05
1.40486e-05
1.40486e-05
1.40486e-05
1.40486e-05
1.40486e-05
1.40486e-05
1.40486e-05
1.40486e-05
1.40486e-05
1.40486e-05
1.40486e-05
1.40486e-05
1.40486e-05
1.40485e-05
1.40485e-05
1.40485e-05
1.40485e-05
1.40485e-05
1.40485e-05
1.40484e-05
1.40484e-05
1.40484e-05
1.40484e-05
1.40483e-05
1.40483e-05
1.40483e-05
1.40483e-05
1.40483e-05
1.40482e-05
1.40482e-05
1.40482e-05
1.40482e-05
1.40482e-05
1.40482e-05
1.40481e-05
1.40481e-05
1.40481e-05
1.40481e-05
1.40481e-05
1.40481e-05
1.40481e-05
1.40481e-05
1.4048e-05
1.4048e-05
1.4048e-05
1.4048e-05
1.4048e-05
1.4048e-05
1.4048e-05
1.4048e-05
1.4048e-05
1.4048e-05
1.4048e-05
1.4048e-05
1.4048e-05
1.4048e-05
1.4048e-05
1.4048e-05
1.4048e-05
1.4048e-05
1.4048e-05
1.4048e-05
1.4048e-05
1.4048e-05
1.4048e-05
1.4048e-05
1.4048e-05
1.4048e-05
1.40481e-05
1.40481e-05
1.40481e-05
1.40481e-05
1.40481e-05
1.40481e-05
1.40481e-05
1.40481e-05
1.40481e-05
1.40481e-05
1.40481e-05
1.40481e-05
1.40481e-05
1.40481e-05
1.40502e-05
1.40503e-05
1.40505e-05
1.40506e-05
1.40508e-05
1.40509e-05
1.40511e-05
1.40512e-05
1.40514e-05
1.40515e-05
1.40517e-05
1.40518e-05
1.40519e-05
1.4052e-05
1.40522e-05
1.40523e-05
1.40524e-05
1.40525e-05
1.40526e-05
1.40527e-05
1.40527e-05
1.40528e-05
1.40528e-05
1.40529e-05
1.40529e-05
1.40529e-05
1.40529e-05
1.40529e-05
1.40529e-05
1.40529e-05
1.40528e-05
1.40528e-05
1.40527e-05
1.40526e-05
1.40526e-05
1.40525e-05
1.40524e-05
1.40523e-05
1.40522e-05
1.40521e-05
1.40519e-05
1.40518e-05
1.40517e-05
1.40516e-05
1.40514e-05
1.40513e-05
1.40512e-05
1.40511e-05
1.40509e-05
1.40508e-05
1.40507e-05
1.40506e-05
1.40504e-05
1.40503e-05
1.40502e-05
1.40501e-05
1.405e-05
1.40499e-05
1.40499e-05
1.40498e-05
1.40497e-05
1.40496e-05
1.40496e-05
1.40495e-05
1.40495e-05
1.40494e-05
1.40494e-05
1.40493e-05
1.40493e-05
1.40493e-05
1.40493e-05
1.40493e-05
1.40492e-05
1.40492e-05
1.40492e-05
1.40492e-05
1.40492e-05
1.40492e-05
1.40492e-05
1.40493e-05
1.40493e-05
1.40493e-05
1.40493e-05
1.40493e-05
1.40493e-05
1.40493e-05
1.40494e-05
1.40494e-05
1.40494e-05
1.40494e-05
1.40494e-05
1.40495e-05
1.40495e-05
1.40495e-05
1.40495e-05
1.40496e-05
1.40496e-05
1.40496e-05
1.40496e-05
1.40497e-05
1.40497e-05
1.40497e-05
1.40497e-05
1.40498e-05
1.40498e-05
1.40548e-05
1.40553e-05
1.40557e-05
1.40562e-05
1.40566e-05
1.40571e-05
1.40575e-05
1.4058e-05
1.40585e-05
1.40589e-05
1.40594e-05
1.40598e-05
1.40602e-05
1.40606e-05
1.4061e-05
1.40614e-05
1.40618e-05
1.40621e-05
1.40624e-05
1.40627e-05
1.40629e-05
1.40631e-05
1.40633e-05
1.40635e-05
1.40636e-05
1.40637e-05
1.40637e-05
1.40637e-05
1.40637e-05
1.40637e-05
1.40636e-05
1.40635e-05
1.40633e-05
1.40631e-05
1.40629e-05
1.40627e-05
1.40624e-05
1.40622e-05
1.40618e-05
1.40615e-05
1.40612e-05
1.40608e-05
1.40604e-05
1.40601e-05
1.40597e-05
1.40593e-05
1.40589e-05
1.40585e-05
1.40581e-05
1.40577e-05
1.40573e-05
1.4057e-05
1.40566e-05
1.40562e-05
1.40559e-05
1.40556e-05
1.40552e-05
1.40549e-05
1.40547e-05
1.40544e-05
1.40542e-05
1.40539e-05
1.40537e-05
1.40535e-05
1.40533e-05
1.40532e-05
1.40531e-05
1.40529e-05
1.40528e-05
1.40527e-05
1.40527e-05
1.40526e-05
1.40526e-05
1.40526e-05
1.40525e-05
1.40525e-05
1.40525e-05
1.40526e-05
1.40526e-05
1.40526e-05
1.40526e-05
1.40527e-05
1.40527e-05
1.40528e-05
1.40528e-05
1.40529e-05
1.4053e-05
1.4053e-05
1.40531e-05
1.40532e-05
1.40533e-05
1.40533e-05
1.40534e-05
1.40535e-05
1.40536e-05
1.40536e-05
1.40537e-05
1.40538e-05
1.40539e-05
1.4054e-05
1.40541e-05
1.40542e-05
1.40543e-05
1.40544e-05
1.40545e-05
1.40546e-05
1.40667e-05
1.40679e-05
1.40691e-05
1.40703e-05
1.40715e-05
1.40727e-05
1.40739e-05
1.40751e-05
1.40764e-05
1.40776e-05
1.40788e-05
1.40799e-05
1.4081e-05
1.40821e-05
1.40832e-05
1.40842e-05
1.40851e-05
1.4086e-05
1.40868e-05
1.40875e-05
1.40882e-05
1.40888e-05
1.40893e-05
1.40897e-05
1.409e-05
1.40902e-05
1.40903e-05
1.40904e-05
1.40903e-05
1.40902e-05
1.409e-05
1.40896e-05
1.40892e-05
1.40888e-05
1.40882e-05
1.40876e-05
1.40869e-05
1.40861e-05
1.40853e-05
1.40845e-05
1.40835e-05
1.40826e-05
1.40816e-05
1.40806e-05
1.40796e-05
1.40786e-05
1.40775e-05
1.40765e-05
1.40755e-05
1.40744e-05
1.40734e-05
1.40724e-05
1.40715e-05
1.40705e-05
1.40696e-05
1.40688e-05
1.4068e-05
1.40672e-05
1.40664e-05
1.40657e-05
1.40651e-05
1.40645e-05
1.4064e-05
1.40635e-05
1.4063e-05
1.40626e-05
1.40623e-05
1.4062e-05
1.40617e-05
1.40615e-05
1.40614e-05
1.40612e-05
1.40611e-05
1.40611e-05
1.40611e-05
1.40611e-05
1.40611e-05
1.40612e-05
1.40613e-05
1.40614e-05
1.40615e-05
1.40616e-05
1.40618e-05
1.4062e-05
1.40622e-05
1.40624e-05
1.40626e-05
1.40628e-05
1.4063e-05
1.40632e-05
1.40635e-05
1.40637e-05
1.40639e-05
1.40642e-05
1.40644e-05
1.40647e-05
1.4065e-05
1.40652e-05
1.40655e-05
1.40658e-05
1.40661e-05
1.40664e-05
1.40667e-05
1.4067e-05
1.40674e-05
1.40677e-05
1.40928e-05
1.40957e-05
1.40986e-05
1.41015e-05
1.41045e-05
1.41075e-05
1.41105e-05
1.41136e-05
1.41166e-05
1.41196e-05
1.41225e-05
1.41254e-05
1.41283e-05
1.4131e-05
1.41337e-05
1.41362e-05
1.41387e-05
1.41409e-05
1.4143e-05
1.4145e-05
1.41467e-05
1.41483e-05
1.41496e-05
1.41508e-05
1.41517e-05
1.41524e-05
1.41529e-05
1.41532e-05
1.41532e-05
1.4153e-05
1.41526e-05
1.4152e-05
1.41512e-05
1.41502e-05
1.4149e-05
1.41476e-05
1.41461e-05
1.41443e-05
1.41425e-05
1.41405e-05
1.41384e-05
1.41361e-05
1.41338e-05
1.41315e-05
1.4129e-05
1.41265e-05
1.4124e-05
1.41215e-05
1.4119e-05
1.41164e-05
1.4114e-05
1.41115e-05
1.41091e-05
1.41068e-05
1.41045e-05
1.41023e-05
1.41003e-05
1.40983e-05
1.40964e-05
1.40946e-05
1.4093e-05
1.40914e-05
1.409e-05
1.40887e-05
1.40876e-05
1.40865e-05
1.40856e-05
1.40848e-05
1.40842e-05
1.40836e-05
1.40832e-05
1.40828e-05
1.40826e-05
1.40825e-05
1.40824e-05
1.40825e-05
1.40826e-05
1.40827e-05
1.4083e-05
1.40832e-05
1.40836e-05
1.4084e-05
1.40844e-05
1.40849e-05
1.40854e-05
1.4086e-05
1.40866e-05
1.40872e-05
1.40878e-05
1.40884e-05
1.40891e-05
1.40898e-05
1.40904e-05
1.40911e-05
1.40919e-05
1.40926e-05
1.40934e-05
1.40941e-05
1.40949e-05
1.40957e-05
1.40966e-05
1.40974e-05
1.40983e-05
1.40992e-05
1.41002e-05
1.41011e-05
1.41021e-05
1.41576e-05
1.41643e-05
1.41712e-05
1.41782e-05
1.41852e-05
1.41923e-05
1.41994e-05
1.42064e-05
1.42135e-05
1.42204e-05
1.42273e-05
1.4234e-05
1.42405e-05
1.42468e-05
1.42529e-05
1.42587e-05
1.42642e-05
1.42694e-05
1.42741e-05
1.42785e-05
1.42824e-05
1.42858e-05
1.42888e-05
1.42913e-05
1.42933e-05
1.42947e-05
1.42957e-05
1.42961e-05
1.4296e-05
1.42954e-05
1.42944e-05
1.42929e-05
1.42908e-05
1.42883e-05
1.42854e-05
1.42821e-05
1.42784e-05
1.42743e-05
1.42699e-05
1.42652e-05
1.42602e-05
1.4255e-05
1.42496e-05
1.42441e-05
1.42384e-05
1.42326e-05
1.42268e-05
1.4221e-05
1.42152e-05
1.42094e-05
1.42037e-05
1.41981e-05
1.41926e-05
1.41873e-05
1.41822e-05
1.41772e-05
1.41725e-05
1.4168e-05
1.41637e-05
1.41597e-05
1.4156e-05
1.41526e-05
1.41494e-05
1.41466e-05
1.4144e-05
1.41418e-05
1.41398e-05
1.41382e-05
1.41368e-05
1.41357e-05
1.41349e-05
1.41343e-05
1.4134e-05
1.41339e-05
1.4134e-05
1.41343e-05
1.41347e-05
1.41354e-05
1.41362e-05
1.41371e-05
1.41382e-05
1.41393e-05
1.41406e-05
1.4142e-05
1.41435e-05
1.4145e-05
1.41466e-05
1.41483e-05
1.415e-05
1.41518e-05
1.41536e-05
1.41555e-05
1.41574e-05
1.41593e-05
1.41613e-05
1.41633e-05
1.41654e-05
1.41676e-05
1.41698e-05
1.4172e-05
1.41743e-05
1.41767e-05
1.41792e-05
1.41817e-05
1.41843e-05
1.4187e-05
1.41897e-05
1.42625e-05
1.42768e-05
1.42915e-05
1.43065e-05
1.43219e-05
1.43375e-05
1.43533e-05
1.43691e-05
1.4385e-05
1.44008e-05
1.44165e-05
1.44319e-05
1.44472e-05
1.44621e-05
1.44766e-05
1.44906e-05
1.45041e-05
1.4517e-05
1.45293e-05
1.45408e-05
1.45515e-05
1.45613e-05
1.45702e-05
1.45781e-05
1.4585e-05
1.45908e-05
1.45956e-05
1.45993e-05
1.46018e-05
1.46033e-05
1.46035e-05
1.46028e-05
1.46011e-05
1.45983e-05
1.45945e-05
1.45897e-05
1.45839e-05
1.45773e-05
1.45698e-05
1.45614e-05
1.45524e-05
1.45427e-05
1.45323e-05
1.45215e-05
1.45101e-05
1.44984e-05
1.44864e-05
1.44741e-05
1.44616e-05
1.4449e-05
1.44363e-05
1.44237e-05
1.44112e-05
1.43989e-05
1.43867e-05
1.43749e-05
1.43634e-05
1.43523e-05
1.43416e-05
1.43315e-05
1.43219e-05
1.43128e-05
1.43043e-05
1.42965e-05
1.42893e-05
1.42828e-05
1.42769e-05
1.42717e-05
1.42672e-05
1.42634e-05
1.42602e-05
1.42577e-05
1.42558e-05
1.42545e-05
1.42538e-05
1.42538e-05
1.4254e-05
1.42548e-05
1.4256e-05
1.42577e-05
1.42597e-05
1.42622e-05
1.42649e-05
1.42679e-05
1.42712e-05
1.42748e-05
1.42785e-05
1.42825e-05
1.42866e-05
1.42908e-05
1.42952e-05
1.42997e-05
1.43043e-05
1.4309e-05
1.43138e-05
1.43188e-05
1.43238e-05
1.4329e-05
1.43342e-05
1.43396e-05
1.43451e-05
1.43508e-05
1.43566e-05
1.43626e-05
1.43687e-05
1.43751e-05
1.43816e-05
1.43883e-05
1.43953e-05
1.44024e-05
1.45387e-05
1.45696e-05
1.46011e-05
1.46332e-05
1.46656e-05
1.46984e-05
1.47312e-05
1.4764e-05
1.47966e-05
1.48288e-05
1.48604e-05
1.48914e-05
1.49216e-05
1.49509e-05
1.49791e-05
1.50061e-05
1.50319e-05
1.50563e-05
1.50792e-05
1.51006e-05
1.51203e-05
1.51382e-05
1.51543e-05
1.51684e-05
1.51804e-05
1.51904e-05
1.51982e-05
1.52039e-05
1.52074e-05
1.52086e-05
1.52079e-05
1.52053e-05
1.52007e-05
1.51941e-05
1.51856e-05
1.51752e-05
1.5163e-05
1.51491e-05
1.51336e-05
1.51167e-05
1.50984e-05
1.50788e-05
1.50581e-05
1.50364e-05
1.50138e-05
1.49905e-05
1.49667e-05
1.49423e-05
1.49177e-05
1.48928e-05
1.48679e-05
1.48431e-05
1.48185e-05
1.47942e-05
1.47703e-05
1.4747e-05
1.47244e-05
1.47026e-05
1.46816e-05
1.46616e-05
1.46427e-05
1.46249e-05
1.46083e-05
1.45931e-05
1.45792e-05
1.45667e-05
1.45556e-05
1.45459e-05
1.45377e-05
1.45309e-05
1.45256e-05
1.45217e-05
1.45191e-05
1.45179e-05
1.4518e-05
1.45189e-05
1.45209e-05
1.4524e-05
1.4528e-05
1.4533e-05
1.45388e-05
1.45454e-05
1.45526e-05
1.45605e-05
1.45689e-05
1.45778e-05
1.45871e-05
1.45969e-05
1.46069e-05
1.46173e-05
1.4628e-05
1.46389e-05
1.46501e-05
1.46615e-05
1.46731e-05
1.4685e-05
1.46971e-05
1.47095e-05
1.47221e-05
1.4735e-05
1.47482e-05
1.47617e-05
1.47756e-05
1.47898e-05
1.48044e-05
1.48195e-05
1.48349e-05
1.48509e-05
1.48674e-05
1.48843e-05
1.51069e-05
1.51672e-05
1.52281e-05
1.52896e-05
1.53513e-05
1.54128e-05
1.54738e-05
1.55338e-05
1.55926e-05
1.56499e-05
1.57054e-05
1.57589e-05
1.58102e-05
1.58591e-05
1.59055e-05
1.59492e-05
1.59902e-05
1.60283e-05
1.60635e-05
1.60956e-05
1.61246e-05
1.61503e-05
1.61729e-05
1.61921e-05
1.62078e-05
1.622e-05
1.62288e-05
1.62342e-05
1.62359e-05
1.62347e-05
1.62303e-05
1.62228e-05
1.62124e-05
1.61988e-05
1.61822e-05
1.61629e-05
1.6141e-05
1.61165e-05
1.60895e-05
1.60603e-05
1.60289e-05
1.59956e-05
1.59606e-05
1.59239e-05
1.58858e-05
1.58465e-05
1.58062e-05
1.5765e-05
1.57232e-05
1.56809e-05
1.56384e-05
1.55958e-05
1.55535e-05
1.55117e-05
1.54705e-05
1.54302e-05
1.53911e-05
1.53534e-05
1.53172e-05
1.52828e-05
1.52503e-05
1.522e-05
1.51919e-05
1.51662e-05
1.5143e-05
1.51223e-05
1.51043e-05
1.50889e-05
1.50763e-05
1.50664e-05
1.50593e-05
1.50548e-05
1.50534e-05
1.50542e-05
1.50567e-05
1.50617e-05
1.50688e-05
1.5078e-05
1.5089e-05
1.51018e-05
1.51161e-05
1.51319e-05
1.51489e-05
1.5167e-05
1.51861e-05
1.52061e-05
1.52269e-05
1.52482e-05
1.52702e-05
1.52926e-05
1.53154e-05
1.53385e-05
1.53621e-05
1.53859e-05
1.54102e-05
1.54347e-05
1.54596e-05
1.54849e-05
1.55106e-05
1.55367e-05
1.55633e-05
1.55904e-05
1.56181e-05
1.56463e-05
1.56753e-05
1.57049e-05
1.57353e-05
1.57664e-05
1.57984e-05
1.58313e-05
1.61421e-05
1.62403e-05
1.63375e-05
1.64334e-05
1.65276e-05
1.66197e-05
1.6709e-05
1.67952e-05
1.68778e-05
1.69564e-05
1.70307e-05
1.71006e-05
1.71659e-05
1.72264e-05
1.7282e-05
1.73327e-05
1.73786e-05
1.74196e-05
1.74561e-05
1.7488e-05
1.75154e-05
1.75386e-05
1.75578e-05
1.7573e-05
1.7584e-05
1.75907e-05
1.75924e-05
1.75908e-05
1.75857e-05
1.75767e-05
1.75644e-05
1.75492e-05
1.75301e-05
1.75074e-05
1.74816e-05
1.74528e-05
1.74211e-05
1.73866e-05
1.73493e-05
1.73096e-05
1.72676e-05
1.72233e-05
1.7177e-05
1.7129e-05
1.70793e-05
1.70282e-05
1.69757e-05
1.6922e-05
1.68674e-05
1.6812e-05
1.67561e-05
1.67001e-05
1.6644e-05
1.65882e-05
1.6533e-05
1.64787e-05
1.64256e-05
1.63741e-05
1.63245e-05
1.62771e-05
1.62324e-05
1.61907e-05
1.61524e-05
1.61176e-05
1.60868e-05
1.606e-05
1.60374e-05
1.60191e-05
1.60052e-05
1.59957e-05
1.59911e-05
1.59913e-05
1.59943e-05
1.60008e-05
1.60114e-05
1.60254e-05
1.60426e-05
1.6063e-05
1.60861e-05
1.61118e-05
1.61397e-05
1.61696e-05
1.62013e-05
1.62345e-05
1.6269e-05
1.63046e-05
1.63411e-05
1.63783e-05
1.64161e-05
1.64544e-05
1.64931e-05
1.6532e-05
1.65712e-05
1.66106e-05
1.66502e-05
1.669e-05
1.673e-05
1.67702e-05
1.68107e-05
1.68516e-05
1.68929e-05
1.69346e-05
1.69767e-05
1.70193e-05
1.70625e-05
1.71063e-05
1.71507e-05
1.71958e-05
1.72416e-05
1.7288e-05
1.76514e-05
1.77701e-05
1.78836e-05
1.79921e-05
1.80959e-05
1.81944e-05
1.82864e-05
1.83713e-05
1.84489e-05
1.85192e-05
1.85822e-05
1.86381e-05
1.86874e-05
1.87302e-05
1.87667e-05
1.87971e-05
1.8822e-05
1.88413e-05
1.88555e-05
1.88649e-05
1.88697e-05
1.88699e-05
1.88679e-05
1.8863e-05
1.88547e-05
1.88431e-05
1.88285e-05
1.88113e-05
1.87921e-05
1.87722e-05
1.87486e-05
1.87226e-05
1.86949e-05
1.86653e-05
1.86342e-05
1.86011e-05
1.85665e-05
1.85307e-05
1.84933e-05
1.84541e-05
1.84134e-05
1.83715e-05
1.83282e-05
1.82832e-05
1.82367e-05
1.81891e-05
1.81403e-05
1.80905e-05
1.80396e-05
1.79878e-05
1.79354e-05
1.78828e-05
1.78302e-05
1.7778e-05
1.77265e-05
1.76761e-05
1.76271e-05
1.75799e-05
1.75347e-05
1.7492e-05
1.7452e-05
1.74152e-05
1.73819e-05
1.73526e-05
1.73275e-05
1.73066e-05
1.72903e-05
1.72788e-05
1.72726e-05
1.72726e-05
1.72769e-05
1.72858e-05
1.73e-05
1.73185e-05
1.7341e-05
1.73675e-05
1.73975e-05
1.74305e-05
1.74662e-05
1.75042e-05
1.75441e-05
1.75856e-05
1.76284e-05
1.76722e-05
1.77169e-05
1.77621e-05
1.78078e-05
1.78536e-05
1.78994e-05
1.79447e-05
1.79893e-05
1.80331e-05
1.80761e-05
1.81183e-05
1.81596e-05
1.82e-05
1.82396e-05
1.82783e-05
1.83161e-05
1.83532e-05
1.83894e-05
1.8425e-05
1.84598e-05
1.8494e-05
1.85275e-05
1.85604e-05
1.85927e-05
1.86244e-05
1.86555e-05
1.86859e-05
1.91582e-05
1.92503e-05
1.93311e-05
1.94008e-05
1.94603e-05
1.95097e-05
1.95501e-05
1.95821e-05
1.96068e-05
1.96249e-05
1.96373e-05
1.96445e-05
1.9646e-05
1.96446e-05
1.964e-05
1.96315e-05
1.96197e-05
1.9605e-05
1.95878e-05
1.95687e-05
1.95475e-05
1.95246e-05
1.95006e-05
1.94763e-05
1.94506e-05
1.94252e-05
1.93987e-05
1.93698e-05
1.93405e-05
1.93131e-05
1.92863e-05
1.92571e-05
1.92267e-05
1.91967e-05
1.91664e-05
1.91354e-05
1.91048e-05
1.90749e-05
1.90445e-05
1.90139e-05
1.89842e-05
1.8955e-05
1.89256e-05
1.88962e-05
1.88675e-05
1.88394e-05
1.88113e-05
1.87833e-05
1.87553e-05
1.87274e-05
1.86999e-05
1.86728e-05
1.86458e-05
1.86191e-05
1.85926e-05
1.85667e-05
1.85415e-05
1.85172e-05
1.84944e-05
1.84734e-05
1.84545e-05
1.84382e-05
1.84249e-05
1.8415e-05
1.84087e-05
1.84071e-05
1.84087e-05
1.84141e-05
1.84233e-05
1.8435e-05
1.8451e-05
1.84717e-05
1.84935e-05
1.85176e-05
1.85445e-05
1.85734e-05
1.86038e-05
1.8635e-05
1.86668e-05
1.86986e-05
1.87305e-05
1.8762e-05
1.87928e-05
1.88228e-05
1.88518e-05
1.88794e-05
1.89057e-05
1.89307e-05
1.89544e-05
1.89766e-05
1.89978e-05
1.90178e-05
1.90369e-05
1.90551e-05
1.90723e-05
1.90888e-05
1.91046e-05
1.91198e-05
1.91343e-05
1.91484e-05
1.91618e-05
1.91748e-05
1.91873e-05
1.91993e-05
1.92108e-05
1.92219e-05
1.92326e-05
1.92428e-05
1.92527e-05
1.92622e-05
1.92713e-05
2.01432e-05
2.01575e-05
2.01645e-05
2.01649e-05
2.0162e-05
2.01549e-05
2.01435e-05
2.01285e-05
2.01107e-05
2.00904e-05
2.00681e-05
2.0044e-05
2.00184e-05
1.99921e-05
1.9965e-05
1.99372e-05
1.9909e-05
1.98798e-05
1.98521e-05
1.98218e-05
1.97884e-05
1.97574e-05
1.97266e-05
1.96947e-05
1.96641e-05
1.96352e-05
1.96033e-05
1.95698e-05
1.95373e-05
1.95084e-05
1.94785e-05
1.94471e-05
1.94162e-05
1.93854e-05
1.93546e-05
1.93249e-05
1.92953e-05
1.92651e-05
1.92361e-05
1.9209e-05
1.9182e-05
1.91553e-05
1.91298e-05
1.91054e-05
1.90815e-05
1.90586e-05
1.9037e-05
1.90162e-05
1.89961e-05
1.89774e-05
1.89597e-05
1.89434e-05
1.8929e-05
1.89166e-05
1.8906e-05
1.88975e-05
1.8891e-05
1.88866e-05
1.88843e-05
1.88842e-05
1.88857e-05
1.88895e-05
1.88955e-05
1.89039e-05
1.89148e-05
1.89281e-05
1.89431e-05
1.89614e-05
1.89805e-05
1.90011e-05
1.90246e-05
1.90493e-05
1.90736e-05
1.90983e-05
1.9123e-05
1.9147e-05
1.91699e-05
1.91918e-05
1.92127e-05
1.92325e-05
1.92507e-05
1.92675e-05
1.92836e-05
1.92985e-05
1.93121e-05
1.93248e-05
1.93366e-05
1.93472e-05
1.93569e-05
1.93659e-05
1.93742e-05
1.93817e-05
1.93886e-05
1.93949e-05
1.94006e-05
1.94058e-05
1.94104e-05
1.94147e-05
1.94184e-05
1.94218e-05
1.94248e-05
1.94275e-05
1.94299e-05
1.94321e-05
1.94341e-05
1.94359e-05
1.94375e-05
1.94391e-05
1.94404e-05
1.94417e-05
1.94429e-05
1.9444e-05
1.9445e-05
2.05126e-05
2.04903e-05
2.04658e-05
2.04398e-05
2.04131e-05
2.03855e-05
2.03568e-05
2.03287e-05
2.02993e-05
2.02649e-05
2.02322e-05
2.01996e-05
2.01656e-05
2.0131e-05
2.00963e-05
2.00618e-05
2.00271e-05
1.99924e-05
1.99584e-05
1.99238e-05
1.98884e-05
1.98537e-05
1.98192e-05
1.97846e-05
1.97511e-05
1.97183e-05
1.96844e-05
1.96496e-05
1.96167e-05
1.95857e-05
1.95541e-05
1.95221e-05
1.94906e-05
1.94596e-05
1.94299e-05
1.94002e-05
1.93698e-05
1.93412e-05
1.93149e-05
1.92885e-05
1.92623e-05
1.92393e-05
1.92171e-05
1.91944e-05
1.91735e-05
1.91555e-05
1.91375e-05
1.91198e-05
1.91035e-05
1.90882e-05
1.90743e-05
1.90625e-05
1.90523e-05
1.90437e-05
1.90371e-05
1.90326e-05
1.90307e-05
1.9031e-05
1.90326e-05
1.90375e-05
1.90452e-05
1.90552e-05
1.90675e-05
1.9082e-05
1.90987e-05
1.9117e-05
1.91369e-05
1.91584e-05
1.918e-05
1.92026e-05
1.92254e-05
1.92479e-05
1.92714e-05
1.92942e-05
1.9315e-05
1.93353e-05
1.93544e-05
1.93721e-05
1.93881e-05
1.94028e-05
1.94162e-05
1.94289e-05
1.94396e-05
1.94493e-05
1.94582e-05
1.94662e-05
1.94727e-05
1.94787e-05
1.94841e-05
1.94887e-05
1.94923e-05
1.94951e-05
1.94975e-05
1.94996e-05
1.95013e-05
1.95026e-05
1.95036e-05
1.95042e-05
1.95047e-05
1.9505e-05
1.95052e-05
1.95053e-05
1.95053e-05
1.95053e-05
1.95052e-05
1.9505e-05
1.95047e-05
1.95044e-05
1.9504e-05
1.95035e-05
1.9503e-05
1.95025e-05
1.9502e-05
2.07216e-05
2.0693e-05
2.06613e-05
2.06259e-05
2.05915e-05
2.05572e-05
2.05223e-05
2.04871e-05
2.04516e-05
2.04164e-05
2.03807e-05
2.03442e-05
2.03078e-05
2.02716e-05
2.02353e-05
2.01987e-05
2.01623e-05
2.01262e-05
2.00902e-05
2.00545e-05
2.00195e-05
1.99842e-05
1.99488e-05
1.99138e-05
1.98787e-05
1.98435e-05
1.98096e-05
1.9776e-05
1.97415e-05
1.97064e-05
1.96735e-05
1.96418e-05
1.96095e-05
1.95774e-05
1.95455e-05
1.95144e-05
1.94849e-05
1.94552e-05
1.94245e-05
1.93965e-05
1.93705e-05
1.93438e-05
1.93181e-05
1.92958e-05
1.92736e-05
1.92508e-05
1.92311e-05
1.92132e-05
1.91959e-05
1.91773e-05
1.91607e-05
1.91467e-05
1.91343e-05
1.91236e-05
1.91152e-05
1.91092e-05
1.91052e-05
1.91042e-05
1.9105e-05
1.91075e-05
1.91119e-05
1.91184e-05
1.91271e-05
1.91379e-05
1.91505e-05
1.9165e-05
1.91809e-05
1.91983e-05
1.92172e-05
1.92369e-05
1.9257e-05
1.92778e-05
1.92986e-05
1.93199e-05
1.93417e-05
1.93607e-05
1.93791e-05
1.93976e-05
1.94139e-05
1.94287e-05
1.94438e-05
1.94581e-05
1.94699e-05
1.94802e-05
1.94906e-05
1.95003e-05
1.95081e-05
1.95143e-05
1.95208e-05
1.95268e-05
1.95313e-05
1.95348e-05
1.95381e-05
1.95408e-05
1.95431e-05
1.95448e-05
1.9546e-05
1.95468e-05
1.9547e-05
1.9547e-05
1.95468e-05
1.95464e-05
1.95458e-05
1.9545e-05
1.9544e-05
1.9543e-05
1.95419e-05
1.95408e-05
1.95395e-05
1.95381e-05
1.95368e-05
1.95354e-05
1.9534e-05
1.95326e-05
1.95312e-05
2.08043e-05
2.07691e-05
2.07331e-05
2.06962e-05
2.06595e-05
2.06231e-05
2.05865e-05
2.05499e-05
2.05133e-05
2.04769e-05
2.04401e-05
2.04031e-05
2.03662e-05
2.03293e-05
2.02923e-05
2.02552e-05
2.02183e-05
2.01816e-05
2.0145e-05
2.0109e-05
2.00732e-05
2.00373e-05
2.00017e-05
1.99664e-05
1.99309e-05
1.98954e-05
1.98613e-05
1.98271e-05
1.97921e-05
1.97568e-05
1.97242e-05
1.96923e-05
1.96599e-05
1.96279e-05
1.95958e-05
1.95651e-05
1.95363e-05
1.95067e-05
1.94762e-05
1.94496e-05
1.94242e-05
1.93976e-05
1.93732e-05
1.93514e-05
1.93288e-05
1.93066e-05
1.92871e-05
1.92688e-05
1.92522e-05
1.92332e-05
1.92166e-05
1.92022e-05
1.91896e-05
1.91792e-05
1.91712e-05
1.91651e-05
1.91609e-05
1.91596e-05
1.91601e-05
1.91621e-05
1.91662e-05
1.91723e-05
1.91805e-05
1.91908e-05
1.92029e-05
1.92167e-05
1.92317e-05
1.92479e-05
1.9265e-05
1.92822e-05
1.93e-05
1.93183e-05
1.93366e-05
1.93553e-05
1.93748e-05
1.93915e-05
1.94074e-05
1.94237e-05
1.94387e-05
1.94523e-05
1.94667e-05
1.94806e-05
1.94923e-05
1.95022e-05
1.95122e-05
1.95233e-05
1.9532e-05
1.95394e-05
1.9545e-05
1.95513e-05
1.9557e-05
1.95614e-05
1.95652e-05
1.95676e-05
1.95692e-05
1.95707e-05
1.95723e-05
1.95731e-05
1.95731e-05
1.95729e-05
1.95724e-05
1.95716e-05
1.95707e-05
1.95697e-05
1.95685e-05
1.95673e-05
1.9566e-05
1.95646e-05
1.95632e-05
1.95618e-05
1.95603e-05
1.95589e-05
1.95575e-05
1.95561e-05
1.95549e-05
1.95537e-05
2.1114e-05
2.10798e-05
2.10442e-05
2.10079e-05
2.09719e-05
2.0936e-05
2.08999e-05
2.08638e-05
2.08275e-05
2.07906e-05
2.07534e-05
2.07163e-05
2.06792e-05
2.06421e-05
2.0605e-05
2.0568e-05
2.05307e-05
2.04932e-05
2.04557e-05
2.04183e-05
2.0381e-05
2.03436e-05
2.03061e-05
2.02689e-05
2.02318e-05
2.0195e-05
2.01588e-05
2.01228e-05
2.00871e-05
2.00517e-05
2.00165e-05
1.9981e-05
1.99457e-05
1.99116e-05
1.98773e-05
1.98421e-05
1.98072e-05
1.97754e-05
1.97435e-05
1.97113e-05
1.96797e-05
1.96477e-05
1.96179e-05
1.95897e-05
1.95603e-05
1.95309e-05
1.95054e-05
1.948e-05
1.94541e-05
1.94311e-05
1.941e-05
1.93872e-05
1.93657e-05
1.93461e-05
1.93276e-05
1.93109e-05
1.92927e-05
1.92761e-05
1.92614e-05
1.92489e-05
1.92389e-05
1.92308e-05
1.92245e-05
1.92199e-05
1.92178e-05
1.9218e-05
1.92194e-05
1.92225e-05
1.92275e-05
1.92342e-05
1.92426e-05
1.92525e-05
1.92638e-05
1.92764e-05
1.929e-05
1.93042e-05
1.93189e-05
1.93343e-05
1.935e-05
1.93657e-05
1.93818e-05
1.93988e-05
1.94145e-05
1.94282e-05
1.94419e-05
1.94566e-05
1.94702e-05
1.94834e-05
1.94963e-05
1.95081e-05
1.95189e-05
1.95291e-05
1.95398e-05
1.95493e-05
1.95579e-05
1.95652e-05
1.95712e-05
1.95767e-05
1.95824e-05
1.95871e-05
1.95909e-05
1.95933e-05
1.95955e-05
1.95975e-05
1.95988e-05
1.95994e-05
1.95995e-05
1.95994e-05
1.95992e-05
1.95986e-05
1.95976e-05
1.95964e-05
1.95951e-05
1.95936e-05
1.9592e-05
1.95904e-05
1.95887e-05
1.95871e-05
1.95855e-05
1.9584e-05
1.95826e-05
1.95812e-05
1.95801e-05
2.11709e-05
2.11354e-05
2.10993e-05
2.10627e-05
2.10262e-05
2.09897e-05
2.09533e-05
2.09167e-05
2.08797e-05
2.08423e-05
2.08047e-05
2.07672e-05
2.07297e-05
2.06922e-05
2.06547e-05
2.06173e-05
2.05797e-05
2.05422e-05
2.05048e-05
2.04675e-05
2.04303e-05
2.03931e-05
2.03559e-05
2.0319e-05
2.02822e-05
2.02458e-05
2.02099e-05
2.01742e-05
2.01388e-05
2.01039e-05
2.00691e-05
2.00338e-05
1.9999e-05
1.99654e-05
1.99314e-05
1.98962e-05
1.98625e-05
1.98314e-05
1.97995e-05
1.9768e-05
1.9737e-05
1.97054e-05
1.96769e-05
1.96492e-05
1.962e-05
1.95924e-05
1.95676e-05
1.95418e-05
1.95174e-05
1.94953e-05
1.94745e-05
1.94513e-05
1.94303e-05
1.94109e-05
1.93918e-05
1.93744e-05
1.93575e-05
1.93414e-05
1.93271e-05
1.93149e-05
1.93048e-05
1.92965e-05
1.92897e-05
1.92845e-05
1.92812e-05
1.92803e-05
1.92808e-05
1.92826e-05
1.9286e-05
1.92909e-05
1.92973e-05
1.9305e-05
1.93139e-05
1.93238e-05
1.93346e-05
1.93461e-05
1.9358e-05
1.93705e-05
1.93831e-05
1.93961e-05
1.94098e-05
1.94238e-05
1.94383e-05
1.9451e-05
1.94627e-05
1.94756e-05
1.94891e-05
1.95019e-05
1.95143e-05
1.95261e-05
1.95372e-05
1.95478e-05
1.95584e-05
1.95686e-05
1.9578e-05
1.95866e-05
1.95935e-05
1.95997e-05
1.96064e-05
1.96121e-05
1.96164e-05
1.96194e-05
1.96222e-05
1.96248e-05
1.96267e-05
1.96278e-05
1.96283e-05
1.96283e-05
1.96281e-05
1.96275e-05
1.96266e-05
1.96255e-05
1.96242e-05
1.96228e-05
1.96214e-05
1.96198e-05
1.96183e-05
1.96168e-05
1.96154e-05
1.9614e-05
1.96127e-05
1.96115e-05
1.96105e-05
2.12211e-05
2.11851e-05
2.11485e-05
2.11116e-05
2.10746e-05
2.10377e-05
2.10008e-05
2.09638e-05
2.09266e-05
2.08892e-05
2.08518e-05
2.08145e-05
2.07771e-05
2.07398e-05
2.07026e-05
2.06653e-05
2.06281e-05
2.05911e-05
2.05541e-05
2.05173e-05
2.04806e-05
2.04439e-05
2.04075e-05
2.03712e-05
2.03351e-05
2.02994e-05
2.02641e-05
2.0229e-05
2.01942e-05
2.01599e-05
2.01257e-05
2.00909e-05
2.0057e-05
2.00242e-05
1.99907e-05
1.99557e-05
1.99239e-05
1.98934e-05
1.98617e-05
1.98313e-05
1.98011e-05
1.97703e-05
1.9743e-05
1.97157e-05
1.96872e-05
1.96614e-05
1.96367e-05
1.96107e-05
1.95881e-05
1.95667e-05
1.95459e-05
1.95225e-05
1.95016e-05
1.94822e-05
1.94631e-05
1.94453e-05
1.9429e-05
1.94137e-05
1.93997e-05
1.93876e-05
1.93773e-05
1.93685e-05
1.93612e-05
1.93553e-05
1.9351e-05
1.93485e-05
1.93479e-05
1.93484e-05
1.93501e-05
1.93531e-05
1.93573e-05
1.93627e-05
1.93691e-05
1.93764e-05
1.93844e-05
1.93931e-05
1.94023e-05
1.94119e-05
1.94218e-05
1.94323e-05
1.94434e-05
1.94549e-05
1.94669e-05
1.94789e-05
1.94897e-05
1.95003e-05
1.95127e-05
1.95254e-05
1.95376e-05
1.95492e-05
1.95603e-05
1.95709e-05
1.95815e-05
1.95923e-05
1.96025e-05
1.96121e-05
1.96198e-05
1.96266e-05
1.96337e-05
1.96404e-05
1.96456e-05
1.96495e-05
1.96531e-05
1.96563e-05
1.96588e-05
1.96605e-05
1.96616e-05
1.96621e-05
1.96622e-05
1.9662e-05
1.96615e-05
1.96608e-05
1.96597e-05
1.96585e-05
1.96572e-05
1.96558e-05
1.96544e-05
1.9653e-05
1.96517e-05
1.96504e-05
1.96493e-05
1.96482e-05
1.96473e-05
2.12652e-05
2.12288e-05
2.11922e-05
2.11555e-05
2.11187e-05
2.10819e-05
2.10451e-05
2.10083e-05
2.09713e-05
2.09344e-05
2.08975e-05
2.08606e-05
2.08238e-05
2.07871e-05
2.07504e-05
2.07138e-05
2.06773e-05
2.06409e-05
2.06047e-05
2.05686e-05
2.05327e-05
2.04968e-05
2.04613e-05
2.04259e-05
2.03907e-05
2.03559e-05
2.03215e-05
2.02873e-05
2.02533e-05
2.02199e-05
2.01865e-05
2.01524e-05
2.01198e-05
2.0088e-05
2.0055e-05
2.00211e-05
1.99911e-05
1.9961e-05
1.99298e-05
1.9901e-05
1.98715e-05
1.98422e-05
1.98158e-05
1.97885e-05
1.97619e-05
1.97376e-05
1.97127e-05
1.96882e-05
1.9666e-05
1.96447e-05
1.96244e-05
1.96009e-05
1.95797e-05
1.95602e-05
1.95413e-05
1.95236e-05
1.95077e-05
1.94929e-05
1.94792e-05
1.9467e-05
1.94563e-05
1.94471e-05
1.94391e-05
1.94324e-05
1.9427e-05
1.94231e-05
1.94207e-05
1.94198e-05
1.94199e-05
1.9421e-05
1.94231e-05
1.94262e-05
1.94302e-05
1.94349e-05
1.94404e-05
1.94464e-05
1.9453e-05
1.946e-05
1.94674e-05
1.94754e-05
1.9484e-05
1.94933e-05
1.9503e-05
1.95136e-05
1.95235e-05
1.95329e-05
1.95432e-05
1.95555e-05
1.95676e-05
1.95789e-05
1.95898e-05
1.96003e-05
1.96102e-05
1.96216e-05
1.96327e-05
1.96432e-05
1.96516e-05
1.96592e-05
1.96668e-05
1.96742e-05
1.96801e-05
1.96849e-05
1.96894e-05
1.96935e-05
1.96968e-05
1.96993e-05
1.97012e-05
1.97024e-05
1.97032e-05
1.97035e-05
1.97034e-05
1.97031e-05
1.97024e-05
1.97016e-05
1.97006e-05
1.96995e-05
1.96984e-05
1.96972e-05
1.96961e-05
1.96951e-05
1.96942e-05
1.96934e-05
1.96928e-05
1.96923e-05
1.9692e-05
2.13056e-05
2.12695e-05
2.12332e-05
2.11969e-05
2.11605e-05
2.11242e-05
2.10879e-05
2.10516e-05
2.10152e-05
2.09789e-05
2.09427e-05
2.09065e-05
2.08705e-05
2.08345e-05
2.07987e-05
2.07629e-05
2.07273e-05
2.06918e-05
2.06565e-05
2.06214e-05
2.05864e-05
2.05517e-05
2.05172e-05
2.04829e-05
2.04488e-05
2.04152e-05
2.03819e-05
2.03487e-05
2.03158e-05
2.02836e-05
2.02511e-05
2.0218e-05
2.01871e-05
2.01563e-05
2.01238e-05
2.0092e-05
2.00635e-05
2.00336e-05
2.00038e-05
1.99764e-05
1.99475e-05
1.99202e-05
1.98945e-05
1.98676e-05
1.98431e-05
1.98201e-05
1.97954e-05
1.97717e-05
1.97498e-05
1.97285e-05
1.97084e-05
1.96856e-05
1.96645e-05
1.9645e-05
1.96262e-05
1.96089e-05
1.95933e-05
1.95788e-05
1.95652e-05
1.95528e-05
1.95416e-05
1.95318e-05
1.95231e-05
1.95155e-05
1.95091e-05
1.9504e-05
1.95e-05
1.94974e-05
1.94958e-05
1.94952e-05
1.94954e-05
1.94963e-05
1.9498e-05
1.95004e-05
1.95034e-05
1.9507e-05
1.95111e-05
1.95158e-05
1.95209e-05
1.95266e-05
1.9533e-05
1.95401e-05
1.95479e-05
1.95564e-05
1.95656e-05
1.9574e-05
1.95827e-05
1.95937e-05
1.96053e-05
1.96161e-05
1.96267e-05
1.96374e-05
1.96468e-05
1.96576e-05
1.96696e-05
1.9681e-05
1.96906e-05
1.96986e-05
1.97066e-05
1.97147e-05
1.97217e-05
1.97278e-05
1.97334e-05
1.97385e-05
1.97429e-05
1.97465e-05
1.97493e-05
1.97515e-05
1.97531e-05
1.97542e-05
1.97548e-05
1.9755e-05
1.97549e-05
1.97546e-05
1.97541e-05
1.97534e-05
1.97527e-05
1.97519e-05
1.97512e-05
1.97506e-05
1.975e-05
1.97497e-05
1.97495e-05
1.97495e-05
1.97496e-05
2.13441e-05
2.13083e-05
2.12726e-05
2.12368e-05
2.12011e-05
2.11654e-05
2.11298e-05
2.10941e-05
2.10586e-05
2.10231e-05
2.09877e-05
2.09524e-05
2.09173e-05
2.08823e-05
2.08474e-05
2.08127e-05
2.07781e-05
2.07438e-05
2.07096e-05
2.06756e-05
2.06418e-05
2.06083e-05
2.05751e-05
2.05421e-05
2.05093e-05
2.0477e-05
2.0445e-05
2.0413e-05
2.03815e-05
2.03507e-05
2.03192e-05
2.02876e-05
2.02585e-05
2.02287e-05
2.0197e-05
2.01679e-05
2.01404e-05
2.01108e-05
2.00832e-05
2.00568e-05
2.0029e-05
2.00036e-05
1.99783e-05
1.9953e-05
1.99298e-05
1.9908e-05
1.98838e-05
1.98606e-05
1.98392e-05
1.9818e-05
1.97975e-05
1.97761e-05
1.97556e-05
1.97361e-05
1.97178e-05
1.97009e-05
1.96854e-05
1.9671e-05
1.96574e-05
1.96447e-05
1.96331e-05
1.96226e-05
1.96132e-05
1.96048e-05
1.95975e-05
1.95911e-05
1.95859e-05
1.95817e-05
1.95784e-05
1.9576e-05
1.95744e-05
1.95733e-05
1.95731e-05
1.95734e-05
1.95742e-05
1.95756e-05
1.95775e-05
1.958e-05