/*--------------------------------*- C++ -*----------------------------------*\
| =========                 |                                                 |
| \\      /  F ield         | OpenFOAM: The Open Source CFD Toolbox           |
|  \\    /   O peration     | Version:  v1706                                 |
|   \\  /    A nd           | Web:      www.OpenFOAM.com                      |
|    \\/     M anipulation  |                                                 |
\*---------------------------------------------------------------------------*/
FoamFile
{
    version     2.0;
    format      ascii;
    class       volScalarField;
    location    "1.7e-05";
    object      kappatr;
}
// * * * * * * * * * * * * * * * * * * * * * * * * * * * * * * * * * * * * * //

dimensions      [1 1 -3 -1 0 0 0];


internalField   nonuniform List<scalar> 
29871
(
0.0145934
0.0145935
0.0145935
0.0145935
0.0145935
0.0145936
0.0145936
0.0145936
0.0145936
0.0145937
0.0145937
0.0145937
0.0145937
0.0145938
0.0145938
0.0145938
0.0145938
0.0145938
0.0145938
0.0145939
0.0145939
0.0145939
0.0145939
0.0145939
0.0145939
0.0145939
0.0145939
0.0145939
0.0145939
0.0145939
0.0145939
0.0145939
0.0145939
0.0145938
0.0145938
0.0145938
0.0145938
0.0145938
0.0145938
0.0145937
0.0145937
0.0145937
0.0145937
0.0145937
0.0145936
0.0145936
0.0145936
0.0145936
0.0145935
0.0145935
0.0145935
0.0145935
0.0145935
0.0145934
0.0145934
0.0145934
0.0145934
0.0145934
0.0145934
0.0145933
0.0145933
0.0145933
0.0145933
0.0145933
0.0145933
0.0145933
0.0145933
0.0145933
0.0145933
0.0145933
0.0145933
0.0145932
0.0145932
0.0145932
0.0145932
0.0145932
0.0145932
0.0145932
0.0145932
0.0145932
0.0145932
0.0145933
0.0145933
0.0145933
0.0145933
0.0145933
0.0145933
0.0145933
0.0145933
0.0145933
0.0145933
0.0145933
0.0145933
0.0145933
0.0145933
0.0145933
0.0145933
0.0145933
0.0145933
0.0145933
0.0145933
0.0145933
0.0145933
0.0145933
0.0145933
0.0145955
0.0145957
0.0145958
0.014596
0.0145961
0.0145963
0.0145964
0.0145966
0.0145967
0.0145969
0.014597
0.0145972
0.0145973
0.0145974
0.0145976
0.0145977
0.0145978
0.0145979
0.014598
0.0145981
0.0145981
0.0145982
0.0145982
0.0145983
0.0145983
0.0145983
0.0145983
0.0145983
0.0145983
0.0145983
0.0145982
0.0145982
0.0145981
0.014598
0.014598
0.0145979
0.0145978
0.0145977
0.0145976
0.0145974
0.0145973
0.0145972
0.0145971
0.0145969
0.0145968
0.0145967
0.0145965
0.0145964
0.0145963
0.0145961
0.014596
0.0145959
0.0145958
0.0145957
0.0145955
0.0145954
0.0145953
0.0145952
0.0145952
0.0145951
0.014595
0.0145949
0.0145949
0.0145948
0.0145947
0.0145947
0.0145947
0.0145946
0.0145946
0.0145946
0.0145945
0.0145945
0.0145945
0.0145945
0.0145945
0.0145945
0.0145945
0.0145945
0.0145945
0.0145945
0.0145945
0.0145946
0.0145946
0.0145946
0.0145946
0.0145946
0.0145946
0.0145947
0.0145947
0.0145947
0.0145947
0.0145947
0.0145948
0.0145948
0.0145948
0.0145948
0.0145949
0.0145949
0.0145949
0.0145949
0.014595
0.014595
0.014595
0.0145951
0.0145951
0.0146003
0.0146008
0.0146012
0.0146017
0.0146022
0.0146027
0.0146031
0.0146036
0.0146041
0.0146046
0.014605
0.0146055
0.0146059
0.0146064
0.0146068
0.0146072
0.0146075
0.0146079
0.0146082
0.0146085
0.0146087
0.014609
0.0146091
0.0146093
0.0146094
0.0146095
0.0146096
0.0146096
0.0146096
0.0146095
0.0146094
0.0146093
0.0146091
0.014609
0.0146087
0.0146085
0.0146082
0.0146079
0.0146076
0.0146073
0.0146069
0.0146065
0.0146062
0.0146058
0.0146054
0.014605
0.0146045
0.0146041
0.0146037
0.0146033
0.0146029
0.0146025
0.0146021
0.0146018
0.0146014
0.0146011
0.0146008
0.0146004
0.0146001
0.0145999
0.0145996
0.0145994
0.0145992
0.014599
0.0145988
0.0145986
0.0145985
0.0145984
0.0145982
0.0145982
0.0145981
0.014598
0.014598
0.014598
0.0145979
0.0145979
0.0145979
0.014598
0.014598
0.014598
0.014598
0.0145981
0.0145981
0.0145982
0.0145983
0.0145983
0.0145984
0.0145985
0.0145985
0.0145986
0.0145987
0.0145988
0.0145988
0.0145989
0.014599
0.0145991
0.0145992
0.0145993
0.0145994
0.0145995
0.0145996
0.0145997
0.0145998
0.0145999
0.0146
0.0146001
0.0146127
0.0146139
0.0146151
0.0146164
0.0146176
0.0146189
0.0146202
0.0146214
0.0146227
0.0146239
0.0146252
0.0146264
0.0146276
0.0146287
0.0146298
0.0146308
0.0146318
0.0146327
0.0146335
0.0146343
0.014635
0.0146356
0.0146361
0.0146365
0.0146368
0.0146371
0.0146372
0.0146372
0.0146372
0.014637
0.0146368
0.0146365
0.0146361
0.0146356
0.014635
0.0146343
0.0146336
0.0146328
0.014632
0.0146311
0.0146302
0.0146292
0.0146282
0.0146271
0.0146261
0.014625
0.0146239
0.0146228
0.0146217
0.0146207
0.0146196
0.0146186
0.0146176
0.0146166
0.0146157
0.0146148
0.014614
0.0146131
0.0146124
0.0146117
0.014611
0.0146104
0.0146098
0.0146093
0.0146088
0.0146084
0.0146081
0.0146077
0.0146075
0.0146073
0.0146071
0.014607
0.0146069
0.0146068
0.0146068
0.0146068
0.0146069
0.0146069
0.014607
0.0146071
0.0146072
0.0146074
0.0146076
0.0146077
0.0146079
0.0146081
0.0146084
0.0146086
0.0146088
0.014609
0.0146093
0.0146095
0.0146098
0.01461
0.0146103
0.0146106
0.0146109
0.0146111
0.0146114
0.0146117
0.014612
0.0146124
0.0146127
0.014613
0.0146134
0.0146137
0.0146398
0.0146427
0.0146457
0.0146488
0.0146519
0.014655
0.0146582
0.0146613
0.0146645
0.0146676
0.0146707
0.0146737
0.0146766
0.0146795
0.0146823
0.0146849
0.0146874
0.0146898
0.0146919
0.014694
0.0146958
0.0146974
0.0146988
0.0147
0.014701
0.0147017
0.0147022
0.0147025
0.0147025
0.0147023
0.0147019
0.0147013
0.0147005
0.0146994
0.0146982
0.0146967
0.0146951
0.0146933
0.0146914
0.0146893
0.0146871
0.0146848
0.0146824
0.0146799
0.0146774
0.0146748
0.0146722
0.0146696
0.0146669
0.0146643
0.0146617
0.0146592
0.0146567
0.0146543
0.0146519
0.0146497
0.0146475
0.0146454
0.0146435
0.0146417
0.0146399
0.0146383
0.0146369
0.0146355
0.0146343
0.0146333
0.0146323
0.0146315
0.0146308
0.0146302
0.0146298
0.0146294
0.0146292
0.014629
0.014629
0.014629
0.0146291
0.0146293
0.0146295
0.0146298
0.0146302
0.0146306
0.0146311
0.0146316
0.0146321
0.0146327
0.0146333
0.0146339
0.0146346
0.0146352
0.0146359
0.0146366
0.0146373
0.014638
0.0146388
0.0146396
0.0146403
0.0146412
0.014642
0.0146428
0.0146437
0.0146446
0.0146455
0.0146464
0.0146474
0.0146484
0.0146495
0.0147071
0.0147141
0.0147212
0.0147284
0.0147357
0.0147431
0.0147505
0.0147578
0.0147651
0.0147724
0.0147795
0.0147864
0.0147932
0.0147998
0.0148061
0.0148121
0.0148178
0.0148232
0.0148281
0.0148326
0.0148367
0.0148403
0.0148434
0.014846
0.014848
0.0148495
0.0148505
0.0148509
0.0148508
0.0148503
0.0148492
0.0148476
0.0148455
0.0148429
0.0148399
0.0148364
0.0148325
0.0148283
0.0148237
0.0148188
0.0148137
0.0148083
0.0148027
0.0147969
0.014791
0.014785
0.014779
0.0147729
0.0147669
0.0147609
0.014755
0.0147492
0.0147435
0.0147379
0.0147326
0.0147274
0.0147225
0.0147179
0.0147134
0.0147093
0.0147054
0.0147019
0.0146986
0.0146956
0.014693
0.0146907
0.0146886
0.0146869
0.0146855
0.0146843
0.0146835
0.0146829
0.0146826
0.0146825
0.0146826
0.0146829
0.0146833
0.014684
0.0146848
0.0146858
0.0146869
0.0146881
0.0146895
0.0146909
0.0146924
0.014694
0.0146957
0.0146974
0.0146992
0.014701
0.0147029
0.0147049
0.0147068
0.0147089
0.0147109
0.014713
0.0147152
0.0147174
0.0147197
0.0147221
0.0147245
0.0147269
0.0147295
0.0147321
0.0147348
0.0147376
0.0147405
0.014816
0.0148309
0.0148462
0.0148618
0.0148778
0.014894
0.0149103
0.0149268
0.0149433
0.0149597
0.014976
0.0149921
0.0150079
0.0150234
0.0150384
0.015053
0.0150671
0.0150805
0.0150932
0.0151051
0.0151162
0.0151264
0.0151357
0.0151439
0.0151511
0.0151571
0.0151621
0.0151659
0.0151685
0.01517
0.0151703
0.0151695
0.0151678
0.0151649
0.0151609
0.0151559
0.0151499
0.015143
0.0151352
0.0151266
0.0151172
0.0151071
0.0150964
0.0150851
0.0150733
0.0150611
0.0150486
0.0150358
0.0150229
0.0150098
0.0149966
0.0149835
0.0149705
0.0149577
0.0149451
0.0149328
0.0149209
0.0149093
0.0148983
0.0148877
0.0148777
0.0148683
0.0148595
0.0148514
0.0148439
0.0148371
0.014831
0.0148257
0.014821
0.014817
0.0148137
0.014811
0.0148091
0.0148077
0.014807
0.014807
0.0148073
0.014808
0.0148093
0.014811
0.0148132
0.0148157
0.0148185
0.0148217
0.0148251
0.0148288
0.0148327
0.0148368
0.014841
0.0148454
0.01485
0.0148547
0.0148594
0.0148644
0.0148694
0.0148745
0.0148797
0.0148851
0.0148906
0.0148962
0.0149019
0.0149078
0.0149138
0.01492
0.0149264
0.014933
0.0149398
0.0149468
0.014954
0.0149614
0.015103
0.015135
0.0151678
0.0152011
0.0152348
0.0152689
0.015303
0.015337
0.0153708
0.0154043
0.0154372
0.0154694
0.0155007
0.0155311
0.0155604
0.0155885
0.0156153
0.0156407
0.0156645
0.0156867
0.0157071
0.0157258
0.0157424
0.0157571
0.0157696
0.01578
0.0157881
0.015794
0.0157976
0.0157988
0.0157981
0.0157954
0.0157907
0.0157838
0.0157749
0.0157641
0.0157515
0.0157371
0.015721
0.0157034
0.0156843
0.015664
0.0156425
0.0156199
0.0155965
0.0155723
0.0155475
0.0155223
0.0154967
0.0154709
0.015445
0.0154192
0.0153936
0.0153684
0.0153436
0.0153194
0.0152959
0.0152732
0.0152514
0.0152306
0.015211
0.0151925
0.0151753
0.0151595
0.015145
0.015132
0.0151205
0.0151104
0.0151019
0.0150949
0.0150894
0.0150853
0.0150826
0.0150814
0.0150815
0.0150824
0.0150845
0.0150877
0.0150919
0.0150971
0.0151031
0.0151099
0.0151174
0.0151256
0.0151343
0.0151436
0.0151533
0.0151634
0.0151739
0.0151846
0.0151957
0.0152071
0.0152187
0.0152305
0.0152426
0.015255
0.0152675
0.0152804
0.0152935
0.0153069
0.0153206
0.0153346
0.015349
0.0153638
0.015379
0.0153946
0.0154107
0.0154273
0.0154444
0.015462
0.0156932
0.0157558
0.0158191
0.015883
0.0159471
0.016011
0.0160743
0.0161367
0.0161978
0.0162573
0.016315
0.0163705
0.0164238
0.0164746
0.0165228
0.0165682
0.0166108
0.0166504
0.016687
0.0167203
0.0167504
0.0167772
0.0168006
0.0168205
0.0168368
0.0168496
0.0168586
0.0168643
0.016866
0.0168647
0.0168603
0.0168525
0.0168416
0.0168275
0.0168103
0.0167903
0.0167674
0.016742
0.016714
0.0166836
0.016651
0.0166164
0.01658
0.0165419
0.0165024
0.0164615
0.0164196
0.0163768
0.0163334
0.0162895
0.0162453
0.0162011
0.0161572
0.0161137
0.0160709
0.0160291
0.0159884
0.0159492
0.0159117
0.0158759
0.0158422
0.0158107
0.0157815
0.0157548
0.0157307
0.0157092
0.0156905
0.0156745
0.0156614
0.0156512
0.0156438
0.0156391
0.0156376
0.0156385
0.0156411
0.0156463
0.0156537
0.0156632
0.0156747
0.0156879
0.0157028
0.0157192
0.0157368
0.0157557
0.0157755
0.0157963
0.0158178
0.0158401
0.0158628
0.0158861
0.0159098
0.0159339
0.0159583
0.0159831
0.0160082
0.0160338
0.0160596
0.0160859
0.0161126
0.0161397
0.0161673
0.0161955
0.0162242
0.0162536
0.0162836
0.0163144
0.016346
0.0163783
0.0164116
0.0164457
0.0167686
0.0168707
0.0169716
0.0170712
0.0171691
0.0172647
0.0173575
0.0174471
0.0175328
0.0176145
0.0176917
0.0177643
0.0178321
0.017895
0.0179528
0.0180054
0.018053
0.0180957
0.0181336
0.0181667
0.0181952
0.0182193
0.0182392
0.018255
0.0182664
0.0182734
0.0182751
0.0182735
0.0182682
0.0182589
0.0182461
0.0182303
0.0182105
0.0181869
0.01816
0.0181302
0.0180973
0.0180614
0.0180227
0.0179815
0.0179378
0.0178918
0.0178437
0.0177938
0.0177422
0.0176891
0.0176346
0.0175788
0.017522
0.0174645
0.0174065
0.0173482
0.01729
0.017232
0.0171747
0.0171183
0.0170631
0.0170096
0.016958
0.0169089
0.0168624
0.0168191
0.0167793
0.0167432
0.0167111
0.0166833
0.0166598
0.0166408
0.0166264
0.0166166
0.0166117
0.016612
0.016615
0.0166218
0.0166328
0.0166473
0.0166653
0.0166864
0.0167105
0.0167371
0.0167661
0.0167972
0.0168301
0.0168646
0.0169004
0.0169374
0.0169753
0.017014
0.0170533
0.0170931
0.0171332
0.0171737
0.0172144
0.0172553
0.0172964
0.0173377
0.0173793
0.0174211
0.0174632
0.0175057
0.0175485
0.0175918
0.0176356
0.0176799
0.0177248
0.0177702
0.0178164
0.0178632
0.0179107
0.017959
0.0183365
0.0184598
0.0185777
0.0186904
0.0187982
0.0189005
0.0189961
0.0190844
0.019165
0.0192379
0.0193034
0.0193615
0.0194127
0.0194572
0.0194951
0.0195267
0.0195525
0.0195726
0.0195873
0.0195971
0.019602
0.0196022
0.0196002
0.0195951
0.0195864
0.0195745
0.0195593
0.0195413
0.0195214
0.0195008
0.0194763
0.0194493
0.0194204
0.0193898
0.0193574
0.0193231
0.0192871
0.0192499
0.019211
0.0191703
0.0191281
0.0190846
0.0190395
0.0189928
0.0189445
0.018895
0.0188444
0.0187926
0.0187398
0.0186859
0.0186315
0.0185769
0.0185223
0.018468
0.0184145
0.0183621
0.0183113
0.0182622
0.0182153
0.0181709
0.0181293
0.0180911
0.0180566
0.0180261
0.018
0.0179783
0.0179613
0.0179494
0.017943
0.017943
0.0179474
0.0179566
0.0179714
0.0179906
0.0180141
0.0180415
0.0180727
0.018107
0.0181441
0.0181836
0.018225
0.0182681
0.0183126
0.0183581
0.0184045
0.0184515
0.0184989
0.0185465
0.0185941
0.0186412
0.0186875
0.018733
0.0187777
0.0188215
0.0188644
0.0189064
0.0189475
0.0189877
0.019027
0.0190655
0.0191031
0.0191401
0.0191762
0.0192117
0.0192466
0.0192808
0.0193143
0.0193472
0.0193795
0.0194112
0.0199018
0.0199975
0.0200813
0.0201538
0.0202156
0.020267
0.0203088
0.0203422
0.0203677
0.0203866
0.0203995
0.0204069
0.0204085
0.020407
0.0204022
0.0203935
0.0203811
0.0203659
0.0203481
0.0203282
0.0203062
0.0202824
0.0202575
0.0202322
0.0202055
0.0201792
0.0201516
0.0201216
0.0200912
0.0200627
0.0200348
0.0200045
0.0199729
0.0199418
0.0199103
0.019878
0.0198463
0.0198152
0.0197836
0.0197519
0.019721
0.0196907
0.0196601
0.0196295
0.0195997
0.0195706
0.0195414
0.0195123
0.0194832
0.0194543
0.0194257
0.0193975
0.0193695
0.0193417
0.0193142
0.0192873
0.0192611
0.0192359
0.0192122
0.0191904
0.0191708
0.0191538
0.01914
0.0191297
0.0191232
0.0191215
0.0191231
0.0191288
0.0191383
0.0191505
0.0191671
0.0191886
0.0192113
0.0192363
0.0192642
0.0192943
0.0193258
0.0193583
0.0193913
0.0194244
0.0194574
0.0194901
0.0195222
0.0195534
0.0195834
0.0196121
0.0196395
0.0196655
0.01969
0.0197132
0.0197351
0.0197559
0.0197758
0.0197946
0.0198126
0.0198297
0.0198461
0.0198619
0.019877
0.0198915
0.0199055
0.019919
0.019932
0.0199445
0.0199564
0.019968
0.019979
0.0199897
0.0199999
0.0200098
0.0200193
0.020925
0.0209398
0.0209471
0.0209475
0.0209446
0.0209371
0.0209253
0.0209097
0.0208913
0.0208702
0.020847
0.0208219
0.0207954
0.020768
0.0207399
0.020711
0.0206817
0.0206514
0.0206226
0.0205911
0.0205564
0.0205242
0.0204922
0.0204591
0.0204273
0.0203972
0.0203642
0.0203293
0.0202955
0.0202655
0.0202345
0.0202019
0.0201698
0.0201378
0.0201057
0.020075
0.0200442
0.0200128
0.0199827
0.0199546
0.0199265
0.0198988
0.0198723
0.0198469
0.0198221
0.0197983
0.0197759
0.0197542
0.0197334
0.0197139
0.0196955
0.0196787
0.0196637
0.0196507
0.0196398
0.0196309
0.0196242
0.0196196
0.0196173
0.0196172
0.0196187
0.0196226
0.0196289
0.0196376
0.0196489
0.0196628
0.0196783
0.0196973
0.0197172
0.0197386
0.019763
0.0197887
0.0198139
0.0198395
0.0198652
0.0198901
0.019914
0.0199367
0.0199584
0.019979
0.0199978
0.0200153
0.020032
0.0200475
0.0200617
0.0200749
0.020087
0.0200981
0.0201082
0.0201175
0.0201261
0.020134
0.0201411
0.0201477
0.0201536
0.0201589
0.0201638
0.0201682
0.0201721
0.0201756
0.0201787
0.0201815
0.020184
0.0201863
0.0201884
0.0201902
0.020192
0.0201935
0.020195
0.0201963
0.0201975
0.0201986
0.0201997
0.0213087
0.0212856
0.0212601
0.0212331
0.0212054
0.0211767
0.0211469
0.0211177
0.0210871
0.0210514
0.0210174
0.0209836
0.0209482
0.0209123
0.0208763
0.0208404
0.0208044
0.0207683
0.020733
0.020697
0.0206603
0.0206242
0.0205884
0.0205524
0.0205177
0.0204836
0.0204484
0.0204122
0.0203781
0.0203459
0.020313
0.0202798
0.020247
0.0202149
0.020184
0.0201532
0.0201216
0.0200918
0.0200646
0.0200371
0.0200099
0.0199861
0.019963
0.0199393
0.0199176
0.0198989
0.0198803
0.0198619
0.0198449
0.019829
0.0198146
0.0198024
0.0197917
0.0197828
0.019776
0.0197713
0.0197693
0.0197697
0.0197713
0.0197764
0.0197844
0.0197947
0.0198075
0.0198227
0.01984
0.019859
0.0198797
0.0199019
0.0199244
0.0199479
0.0199716
0.019995
0.0200194
0.020043
0.0200647
0.0200857
0.0201055
0.020124
0.0201406
0.0201558
0.0201698
0.0201829
0.0201941
0.0202041
0.0202134
0.0202218
0.0202284
0.0202347
0.0202403
0.0202451
0.0202488
0.0202517
0.0202542
0.0202564
0.0202582
0.0202595
0.0202605
0.0202612
0.0202617
0.020262
0.0202622
0.0202623
0.0202623
0.0202623
0.0202622
0.020262
0.0202617
0.0202614
0.020261
0.0202605
0.02026
0.0202594
0.0202589
0.0215258
0.0214961
0.0214632
0.0214264
0.0213907
0.021355
0.0213189
0.0212822
0.0212454
0.0212088
0.0211717
0.0211338
0.0210959
0.0210584
0.0210206
0.0209827
0.0209448
0.0209073
0.0208699
0.0208329
0.0207965
0.0207598
0.020723
0.0206867
0.0206503
0.0206136
0.0205784
0.0205435
0.0205077
0.0204712
0.020437
0.0204041
0.0203706
0.0203372
0.0203041
0.0202718
0.0202411
0.0202102
0.0201784
0.0201493
0.0201223
0.0200946
0.0200679
0.0200447
0.0200217
0.0199979
0.0199775
0.0199589
0.019941
0.0199216
0.0199044
0.0198898
0.0198769
0.0198658
0.0198571
0.0198508
0.0198467
0.0198456
0.0198465
0.0198491
0.0198537
0.0198604
0.0198695
0.0198806
0.0198938
0.0199088
0.0199254
0.0199435
0.0199631
0.0199835
0.0200044
0.020026
0.0200476
0.0200697
0.0200924
0.0201121
0.0201313
0.0201505
0.0201674
0.0201827
0.0201985
0.0202133
0.0202256
0.0202362
0.0202471
0.0202572
0.0202652
0.0202716
0.0202785
0.0202846
0.0202893
0.020293
0.0202964
0.0202992
0.0203016
0.0203034
0.0203046
0.0203054
0.0203057
0.0203057
0.0203055
0.020305
0.0203044
0.0203036
0.0203026
0.0203015
0.0203003
0.0202992
0.0202979
0.0202965
0.020295
0.0202936
0.0202921
0.0202907
0.0202893
0.0216117
0.0215752
0.0215378
0.0214994
0.0214613
0.0214235
0.0213855
0.0213475
0.0213095
0.0212717
0.0212335
0.021195
0.0211566
0.0211183
0.0210799
0.0210414
0.021003
0.0209649
0.0209269
0.0208894
0.0208522
0.020815
0.020778
0.0207414
0.0207045
0.0206676
0.0206321
0.0205966
0.0205602
0.0205236
0.0204898
0.0204566
0.0204229
0.0203897
0.0203564
0.0203245
0.0202945
0.0202638
0.0202321
0.0202045
0.0201781
0.0201505
0.0201251
0.0201024
0.020079
0.0200559
0.0200357
0.0200167
0.0199994
0.0199797
0.0199624
0.0199475
0.0199343
0.0199236
0.0199152
0.0199089
0.0199046
0.0199032
0.0199037
0.0199058
0.01991
0.0199164
0.019925
0.0199356
0.0199482
0.0199625
0.0199781
0.019995
0.0200127
0.0200306
0.020049
0.020068
0.0200871
0.0201065
0.0201268
0.0201442
0.0201606
0.0201776
0.0201932
0.0202073
0.0202222
0.0202366
0.0202488
0.0202592
0.0202694
0.020281
0.02029
0.0202978
0.0203035
0.0203101
0.020316
0.0203206
0.0203245
0.0203271
0.0203287
0.0203303
0.0203319
0.0203328
0.0203328
0.0203325
0.020332
0.0203312
0.0203303
0.0203292
0.020328
0.0203267
0.0203254
0.020324
0.0203225
0.020321
0.0203195
0.020318
0.0203165
0.0203151
0.0203138
0.0203126
0.0219335
0.021898
0.021861
0.0218233
0.0217858
0.0217485
0.0217111
0.0216736
0.0216358
0.0215975
0.0215589
0.0215203
0.0214818
0.0214433
0.0214048
0.0213663
0.0213276
0.0212886
0.0212496
0.0212108
0.021172
0.0211331
0.0210942
0.0210555
0.0210171
0.0209789
0.0209412
0.0209038
0.0208667
0.0208299
0.0207934
0.0207565
0.0207198
0.0206844
0.0206488
0.0206122
0.020576
0.0205429
0.0205097
0.0204763
0.0204435
0.0204102
0.0203793
0.02035
0.0203194
0.020289
0.0202624
0.0202361
0.0202092
0.0201853
0.0201633
0.0201396
0.0201173
0.020097
0.0200777
0.0200604
0.0200414
0.0200242
0.0200089
0.019996
0.0199856
0.0199771
0.0199706
0.0199659
0.0199637
0.0199639
0.0199653
0.0199686
0.0199737
0.0199807
0.0199894
0.0199997
0.0200115
0.0200245
0.0200387
0.0200535
0.0200687
0.0200847
0.0201011
0.0201173
0.0201341
0.0201517
0.020168
0.0201822
0.0201965
0.0202117
0.0202258
0.0202395
0.020253
0.0202653
0.0202765
0.0202871
0.0202981
0.0203081
0.0203169
0.0203245
0.0203308
0.0203365
0.0203424
0.0203474
0.0203512
0.0203537
0.020356
0.0203581
0.0203595
0.0203601
0.0203602
0.0203601
0.0203598
0.0203592
0.0203583
0.020357
0.0203556
0.020354
0.0203524
0.0203507
0.020349
0.0203473
0.0203457
0.0203441
0.0203426
0.0203412
0.02034
0.0219926
0.0219557
0.0219182
0.0218802
0.0218423
0.0218044
0.0217665
0.0217286
0.0216901
0.0216512
0.0216122
0.0215732
0.0215343
0.0214953
0.0214564
0.0214175
0.0213784
0.0213395
0.0213006
0.0212619
0.0212232
0.0211845
0.0211459
0.0211076
0.0210694
0.0210316
0.0209942
0.0209572
0.0209204
0.0208842
0.020848
0.0208114
0.0207752
0.0207403
0.020705
0.0206684
0.0206333
0.0206011
0.020568
0.0205352
0.0205031
0.0204702
0.0204406
0.0204118
0.0203815
0.0203528
0.020327
0.0203002
0.0202749
0.0202519
0.0202303
0.0202062
0.0201844
0.0201642
0.0201444
0.0201263
0.0201088
0.0200921
0.0200772
0.0200646
0.0200541
0.0200454
0.0200383
0.020033
0.0200295
0.0200286
0.0200291
0.020031
0.0200345
0.0200396
0.0200462
0.0200542
0.0200635
0.0200738
0.020085
0.0200969
0.0201094
0.0201223
0.0201354
0.0201489
0.0201631
0.0201777
0.0201927
0.0202059
0.0202181
0.0202315
0.0202455
0.0202588
0.0202717
0.020284
0.0202955
0.0203064
0.0203174
0.0203281
0.0203378
0.0203468
0.020354
0.0203604
0.0203673
0.0203733
0.0203778
0.0203809
0.0203838
0.0203865
0.0203884
0.0203896
0.0203901
0.0203901
0.0203899
0.0203893
0.0203883
0.0203871
0.0203858
0.0203844
0.0203829
0.0203813
0.0203797
0.0203782
0.0203767
0.0203752
0.0203739
0.0203727
0.0203716
0.0220447
0.0220073
0.0219693
0.021931
0.0218926
0.0218542
0.0218159
0.0217775
0.0217388
0.0216999
0.0216611
0.0216223
0.0215835
0.0215447
0.0215061
0.0214674
0.0214287
0.0213902
0.0213519
0.0213136
0.0212755
0.0212374
0.0211995
0.0211618
0.0211243
0.0210872
0.0210506
0.0210141
0.020978
0.0209424
0.0209068
0.0208707
0.0208354
0.0208014
0.0207665
0.0207303
0.0206972
0.0206655
0.0206325
0.020601
0.0205696
0.0205377
0.0205093
0.0204809
0.0204513
0.0204244
0.0203988
0.0203719
0.0203483
0.0203261
0.0203046
0.0202803
0.0202585
0.0202383
0.0202185
0.0202
0.020183
0.0201671
0.0201527
0.0201401
0.0201293
0.0201203
0.0201127
0.0201065
0.0201021
0.0200994
0.0200988
0.0200993
0.0201011
0.0201042
0.0201086
0.0201142
0.0201208
0.0201284
0.0201368
0.0201458
0.0201553
0.0201653
0.0201756
0.0201865
0.020198
0.02021
0.0202224
0.0202349
0.0202462
0.0202571
0.02027
0.0202833
0.0202959
0.020308
0.0203195
0.0203305
0.0203415
0.0203527
0.0203633
0.0203733
0.0203813
0.0203884
0.0203957
0.0204027
0.0204081
0.0204122
0.0204159
0.0204192
0.0204218
0.0204236
0.0204247
0.0204252
0.0204253
0.0204251
0.0204246
0.0204238
0.0204227
0.0204215
0.0204201
0.0204187
0.0204172
0.0204158
0.0204144
0.0204131
0.0204119
0.0204108
0.0204099
0.0220905
0.0220527
0.0220147
0.0219766
0.0219383
0.0219001
0.0218619
0.0218236
0.0217853
0.0217469
0.0217086
0.0216703
0.021632
0.0215939
0.0215558
0.0215177
0.0214798
0.021442
0.0214044
0.0213669
0.0213296
0.0212924
0.0212554
0.0212187
0.0211821
0.0211459
0.0211102
0.0210746
0.0210394
0.0210047
0.02097
0.0209346
0.0209006
0.0208676
0.0208333
0.0207981
0.020767
0.0207357
0.0207033
0.0206733
0.0206427
0.0206123
0.0205849
0.0205566
0.0205289
0.0205037
0.0204778
0.0204523
0.0204292
0.0204071
0.020386
0.0203617
0.0203396
0.0203194
0.0202997
0.0202813
0.0202648
0.0202495
0.0202353
0.0202225
0.0202115
0.0202019
0.0201936
0.0201866
0.020181
0.0201769
0.0201745
0.0201735
0.0201737
0.0201748
0.0201769
0.0201802
0.0201843
0.0201892
0.0201949
0.0202012
0.020208
0.0202152
0.0202229
0.0202312
0.0202402
0.0202498
0.0202599
0.020271
0.0202812
0.020291
0.0203017
0.0203145
0.020327
0.0203387
0.0203501
0.020361
0.0203713
0.0203831
0.0203947
0.0204056
0.0204143
0.0204222
0.0204301
0.0204378
0.0204439
0.0204489
0.0204536
0.0204578
0.0204613
0.0204639
0.0204658
0.0204671
0.0204679
0.0204682
0.0204681
0.0204678
0.0204671
0.0204662
0.0204652
0.0204641
0.0204629
0.0204617
0.0204606
0.0204595
0.0204586
0.0204577
0.0204571
0.0204566
0.0204563
0.0221325
0.022095
0.0220573
0.0220196
0.0219818
0.0219441
0.0219063
0.0218686
0.0218309
0.0217932
0.0217555
0.021718
0.0216805
0.0216432
0.0216059
0.0215687
0.0215317
0.0214949
0.0214582
0.0214217
0.0213854
0.0213493
0.0213135
0.0212779
0.0212425
0.0212075
0.0211729
0.0211384
0.0211043
0.0210709
0.0210371
0.0210027
0.0209706
0.0209386
0.0209048
0.0208718
0.0208422
0.0208111
0.0207802
0.0207517
0.0207217
0.0206934
0.0206666
0.0206387
0.0206132
0.0205894
0.0205637
0.0205391
0.0205164
0.0204942
0.0204734
0.0204496
0.0204277
0.0204074
0.0203879
0.02037
0.0203538
0.0203387
0.0203246
0.0203116
0.0203
0.0202898
0.0202808
0.020273
0.0202663
0.0202609
0.0202569
0.0202541
0.0202524
0.0202518
0.020252
0.020253
0.0202547
0.0202572
0.0202603
0.0202641
0.0202684
0.0202732
0.0202785
0.0202844
0.0202911
0.0202985
0.0203066
0.0203154
0.0203249
0.0203337
0.0203427
0.0203541
0.0203663
0.0203775
0.0203884
0.0203995
0.0204093
0.0204205
0.0204331
0.0204449
0.0204549
0.0204631
0.0204715
0.0204798
0.0204872
0.0204935
0.0204993
0.0205046
0.0205091
0.0205129
0.0205158
0.0205181
0.0205198
0.0205209
0.0205215
0.0205217
0.0205216
0.0205213
0.0205208
0.0205201
0.0205193
0.0205185
0.0205178
0.0205171
0.0205166
0.0205162
0.020516
0.020516
0.0205161
0.0221725
0.0221353
0.0220982
0.022061
0.0220239
0.0219869
0.0219498
0.0219128
0.0218759
0.021839
0.0218023
0.0217656
0.0217291
0.0216928
0.0216565
0.0216204
0.0215845
0.0215488
0.0215134
0.0214781
0.021443
0.0214082
0.0213737
0.0213393
0.0213053
0.0212718
0.0212385
0.0212052
0.0211726
0.0211406
0.0211079
0.021075
0.0210447
0.0210138
0.0209809
0.0209507
0.020922
0.0208914
0.0208627
0.0208352
0.0208064
0.02078
0.0207536
0.0207274
0.0207033
0.0206807
0.0206555
0.0206314
0.0206092
0.0205871
0.0205659
0.0205437
0.0205223
0.0205021
0.0204831
0.0204655
0.0204495
0.0204345
0.0204204
0.0204071
0.0203951
0.0203842
0.0203744
0.0203657
0.0203581
0.0203515
0.020346
0.0203416
0.0203382
0.0203358
0.0203341
0.020333
0.0203328
0.0203331
0.0203339
0.0203353
0.0203374
0.0203399
0.0203431
0.0203468
0.0203514
0.0203568
0.020363
0.0203699
0.0203783
0.0203863
0.020394
0.0204038
0.0204152
0.0204259
0.0204362
0.0204471
0.0204571
0.0204673
0.0204805
0.020493
0.0205044
0.0205135
0.0205224
0.0205316
0.0205403
0.0205481
0.0205553
0.0205618
0.0205676
0.0205726
0.0205768
0.0205803
0.020583
0.0205852
0.0205868
0.0205879
0.0205886
0.020589
0.0205892
0.0205892
0.0205891
0.020589
0.020589
0.020589
0.0205891
0.0205895
0.02059
0.0205908
0.0205918
0.0222474
0.022211
0.0221745
0.022138
0.0221016
0.0220652
0.022029
0.0219928
0.0219567
0.0219207
0.0218848
0.0218491
0.0218136
0.0217782
0.021743
0.0217079
0.0216731
0.0216385
0.0216041
0.02157
0.021536
0.0215024
0.0214691
0.021436
0.0214032
0.0213707
0.0213388
0.021307
0.0212751
0.0212443
0.0212138
0.0211821
0.0211514
0.0211229
0.021093
0.0210618
0.021034
0.0210062
0.0209768
0.0209503
0.0209235
0.0208965
0.0208718
0.0208463
0.0208216
0.0207989
0.0207775
0.0207531
0.0207293
0.0207076
0.0206862
0.0206649
0.0206437
0.0206232
0.0206036
0.020585
0.0205677
0.0205517
0.0205369
0.0205227
0.0205093
0.0204969
0.0204854
0.020475
0.0204655
0.0204569
0.0204493
0.0204426
0.0204368
0.0204318
0.0204277
0.0204242
0.0204214
0.0204192
0.0204175
0.0204163
0.0204157
0.0204158
0.0204163
0.0204174
0.0204192
0.0204219
0.0204255
0.0204299
0.0204353
0.020442
0.0204493
0.020456
0.0204645
0.0204751
0.0204853
0.020495
0.0205054
0.0205159
0.0205261
0.0205393
0.0205525
0.0205649
0.0205752
0.020585
0.0205952
0.0206052
0.0206146
0.0206232
0.0206313
0.0206386
0.0206452
0.020651
0.020656
0.0206602
0.0206638
0.0206667
0.0206691
0.020671
0.0206726
0.0206739
0.020675
0.0206759
0.0206769
0.0206778
0.0206789
0.02068
0.0206814
0.020683
0.0206849
0.0206871
0.0222844
0.0222487
0.022213
0.0221773
0.0221418
0.0221063
0.022071
0.0220358
0.0220008
0.0219659
0.0219312
0.0218966
0.0218623
0.0218282
0.0217943
0.0217606
0.0217272
0.021694
0.0216611
0.0216285
0.0215962
0.0215641
0.0215324
0.021501
0.0214698
0.0214391
0.0214089
0.0213787
0.0213485
0.0213196
0.0212906
0.0212603
0.0212323
0.0212052
0.0211763
0.0211476
0.0211218
0.0210948
0.0210676
0.021043
0.0210171
0.0209919
0.0209689
0.0209447
0.0209213
0.0208996
0.0208792
0.0208569
0.0208336
0.0208124
0.0207917
0.0207709
0.0207506
0.020731
0.0207122
0.0206941
0.0206772
0.0206614
0.0206467
0.0206327
0.0206192
0.0206065
0.0205946
0.0205836
0.0205734
0.0205641
0.0205555
0.0205477
0.0205407
0.0205344
0.0205287
0.0205237
0.0205192
0.0205153
0.0205118
0.0205089
0.0205065
0.0205046
0.0205033
0.0205027
0.0205029
0.0205037
0.0205056
0.0205084
0.0205122
0.0205175
0.0205234
0.0205292
0.0205369
0.0205467
0.0205563
0.0205654
0.0205755
0.0205865
0.0205973
0.0206106
0.0206244
0.0206377
0.0206491
0.0206603
0.020672
0.0206837
0.0206949
0.0207055
0.0207155
0.0207249
0.0207335
0.0207413
0.0207483
0.0207546
0.02076
0.0207648
0.0207689
0.0207725
0.0207756
0.0207784
0.0207809
0.0207833
0.0207857
0.0207881
0.0207906
0.0207933
0.0207961
0.0207992
0.0208025
0.0208061
0.02081
0.0208143
0.0223213
0.0222864
0.0222515
0.0222168
0.0221823
0.0221479
0.0221137
0.0220797
0.0220458
0.0220122
0.0219787
0.0219455
0.0219126
0.0218799
0.0218475
0.0218153
0.0217835
0.0217519
0.0217207
0.0216897
0.0216591
0.0216288
0.0215988
0.0215692
0.0215398
0.021511
0.0214826
0.021454
0.0214259
0.0213991
0.0213716
0.0213432
0.0213177
0.0212919
0.0212644
0.0212389
0.0212145
0.0211885
0.0211641
0.021141
0.0211163
0.021093
0.0210716
0.021049
0.0210269
0.0210064
0.0209864
0.0209664
0.0209443
0.0209237
0.0209039
0.020884
0.0208645
0.020846
0.0208284
0.0208114
0.0207951
0.0207797
0.0207652
0.0207513
0.0207379
0.0207251
0.0207129
0.0207015
0.0206908
0.0206808
0.0206714
0.0206627
0.0206547
0.0206472
0.0206403
0.0206339
0.020628
0.0206226
0.0206177
0.0206132
0.0206091
0.0206057
0.0206027
0.0206005
0.0205989
0.0205983
0.0205986
0.0205999
0.0206023
0.0206062
0.0206107
0.0206158
0.0206227
0.0206317
0.0206407
0.0206495
0.0206594
0.0206708
0.0206827
0.0206964
0.0207111
0.0207253
0.0207382
0.0207513
0.020765
0.0207789
0.0207924
0.0208055
0.0208181
0.02083
0.0208413
0.0208517
0.0208612
0.0208698
0.0208775
0.0208846
0.0208909
0.0208966
0.0209017
0.0209065
0.0209109
0.0209151
0.0209192
0.0209233
0.0209275
0.0209319
0.0209366
0.0209415
0.0209468
0.0209524
0.0209584
0.0209647
0.0223588
0.0223249
0.0222911
0.0222575
0.0222241
0.0221909
0.0221579
0.0221252
0.0220927
0.0220604
0.0220285
0.0219968
0.0219654
0.0219343
0.0219035
0.021873
0.0218428
0.021813
0.0217835
0.0217544
0.0217256
0.0216972
0.0216691
0.0216414
0.021614
0.0215872
0.0215607
0.021534
0.0215082
0.0214833
0.0214573
0.0214316
0.0214082
0.0213838
0.0213584
0.0213357
0.0213126
0.0212884
0.0212664
0.0212449
0.0212218
0.0212004
0.0211807
0.0211601
0.0211392
0.02112
0.0211009
0.0210821
0.0210622
0.0210427
0.0210238
0.0210049
0.0209864
0.020969
0.0209525
0.0209365
0.0209209
0.0209061
0.0208921
0.0208786
0.0208655
0.0208529
0.0208408
0.0208292
0.0208182
0.0208078
0.020798
0.0207887