/*--------------------------------*- C++ -*----------------------------------*\
| =========                 |                                                 |
| \\      /  F ield         | OpenFOAM: The Open Source CFD Toolbox           |
|  \\    /   O peration     | Version:  v1706                                 |
|   \\  /    A nd           | Web:      www.OpenFOAM.com                      |
|    \\/     M anipulation  |                                                 |
\*---------------------------------------------------------------------------*/
FoamFile
{
    version     2.0;
    format      ascii;
    class       volScalarField;
    location    "1.7e-05";
    object      kappave;
}
// * * * * * * * * * * * * * * * * * * * * * * * * * * * * * * * * * * * * * //

dimensions      [1 1 -3 -1 0 0 0];


internalField   nonuniform List<scalar> 
29871
(
1.46042e-10
1.46042e-10
1.46043e-10
1.46043e-10
1.46043e-10
1.46043e-10
1.46044e-10
1.46044e-10
1.46044e-10
1.46044e-10
1.46045e-10
1.46045e-10
1.46045e-10
1.46045e-10
1.46045e-10
1.46046e-10
1.46046e-10
1.46046e-10
1.46046e-10
1.46046e-10
1.46046e-10
1.46046e-10
1.46047e-10
1.46047e-10
1.46047e-10
1.46047e-10
1.46047e-10
1.46047e-10
1.46047e-10
1.46046e-10
1.46046e-10
1.46046e-10
1.46046e-10
1.46046e-10
1.46046e-10
1.46046e-10
1.46046e-10
1.46045e-10
1.46045e-10
1.46045e-10
1.46045e-10
1.46045e-10
1.46044e-10
1.46044e-10
1.46044e-10
1.46044e-10
1.46043e-10
1.46043e-10
1.46043e-10
1.46043e-10
1.46043e-10
1.46042e-10
1.46042e-10
1.46042e-10
1.46042e-10
1.46042e-10
1.46041e-10
1.46041e-10
1.46041e-10
1.46041e-10
1.46041e-10
1.46041e-10
1.46041e-10
1.46041e-10
1.4604e-10
1.4604e-10
1.4604e-10
1.4604e-10
1.4604e-10
1.4604e-10
1.4604e-10
1.4604e-10
1.4604e-10
1.4604e-10
1.4604e-10
1.4604e-10
1.4604e-10
1.4604e-10
1.4604e-10
1.4604e-10
1.4604e-10
1.4604e-10
1.4604e-10
1.4604e-10
1.4604e-10
1.4604e-10
1.4604e-10
1.4604e-10
1.4604e-10
1.4604e-10
1.4604e-10
1.4604e-10
1.4604e-10
1.4604e-10
1.46041e-10
1.46041e-10
1.46041e-10
1.46041e-10
1.46041e-10
1.46041e-10
1.46041e-10
1.46041e-10
1.46041e-10
1.46041e-10
1.46041e-10
1.46063e-10
1.46064e-10
1.46066e-10
1.46067e-10
1.46069e-10
1.4607e-10
1.46072e-10
1.46073e-10
1.46075e-10
1.46076e-10
1.46078e-10
1.46079e-10
1.46081e-10
1.46082e-10
1.46083e-10
1.46084e-10
1.46086e-10
1.46087e-10
1.46087e-10
1.46088e-10
1.46089e-10
1.4609e-10
1.4609e-10
1.4609e-10
1.46091e-10
1.46091e-10
1.46091e-10
1.46091e-10
1.46091e-10
1.4609e-10
1.4609e-10
1.46089e-10
1.46089e-10
1.46088e-10
1.46087e-10
1.46086e-10
1.46085e-10
1.46084e-10
1.46083e-10
1.46082e-10
1.46081e-10
1.4608e-10
1.46078e-10
1.46077e-10
1.46076e-10
1.46074e-10
1.46073e-10
1.46072e-10
1.4607e-10
1.46069e-10
1.46068e-10
1.46067e-10
1.46065e-10
1.46064e-10
1.46063e-10
1.46062e-10
1.46061e-10
1.4606e-10
1.46059e-10
1.46058e-10
1.46058e-10
1.46057e-10
1.46056e-10
1.46056e-10
1.46055e-10
1.46055e-10
1.46054e-10
1.46054e-10
1.46054e-10
1.46053e-10
1.46053e-10
1.46053e-10
1.46053e-10
1.46053e-10
1.46053e-10
1.46053e-10
1.46053e-10
1.46053e-10
1.46053e-10
1.46053e-10
1.46053e-10
1.46053e-10
1.46053e-10
1.46054e-10
1.46054e-10
1.46054e-10
1.46054e-10
1.46054e-10
1.46054e-10
1.46055e-10
1.46055e-10
1.46055e-10
1.46055e-10
1.46056e-10
1.46056e-10
1.46056e-10
1.46056e-10
1.46057e-10
1.46057e-10
1.46057e-10
1.46057e-10
1.46058e-10
1.46058e-10
1.46058e-10
1.46059e-10
1.46111e-10
1.46115e-10
1.4612e-10
1.46125e-10
1.4613e-10
1.46134e-10
1.46139e-10
1.46144e-10
1.46149e-10
1.46153e-10
1.46158e-10
1.46163e-10
1.46167e-10
1.46171e-10
1.46175e-10
1.46179e-10
1.46183e-10
1.46186e-10
1.4619e-10
1.46192e-10
1.46195e-10
1.46197e-10
1.46199e-10
1.46201e-10
1.46202e-10
1.46203e-10
1.46203e-10
1.46204e-10
1.46203e-10
1.46203e-10
1.46202e-10
1.46201e-10
1.46199e-10
1.46197e-10
1.46195e-10
1.46193e-10
1.4619e-10
1.46187e-10
1.46184e-10
1.4618e-10
1.46177e-10
1.46173e-10
1.46169e-10
1.46165e-10
1.46161e-10
1.46157e-10
1.46153e-10
1.46149e-10
1.46145e-10
1.46141e-10
1.46137e-10
1.46133e-10
1.46129e-10
1.46126e-10
1.46122e-10
1.46118e-10
1.46115e-10
1.46112e-10
1.46109e-10
1.46106e-10
1.46104e-10
1.46101e-10
1.46099e-10
1.46097e-10
1.46095e-10
1.46094e-10
1.46092e-10
1.46091e-10
1.4609e-10
1.46089e-10
1.46089e-10
1.46088e-10
1.46087e-10
1.46087e-10
1.46087e-10
1.46087e-10
1.46087e-10
1.46087e-10
1.46087e-10
1.46088e-10
1.46088e-10
1.46089e-10
1.46089e-10
1.4609e-10
1.4609e-10
1.46091e-10
1.46092e-10
1.46092e-10
1.46093e-10
1.46094e-10
1.46094e-10
1.46095e-10
1.46096e-10
1.46097e-10
1.46098e-10
1.46099e-10
1.46099e-10
1.461e-10
1.46101e-10
1.46102e-10
1.46103e-10
1.46104e-10
1.46105e-10
1.46106e-10
1.46107e-10
1.46109e-10
1.46235e-10
1.46247e-10
1.46259e-10
1.46271e-10
1.46284e-10
1.46297e-10
1.46309e-10
1.46322e-10
1.46335e-10
1.46347e-10
1.4636e-10
1.46372e-10
1.46383e-10
1.46395e-10
1.46406e-10
1.46416e-10
1.46426e-10
1.46435e-10
1.46443e-10
1.46451e-10
1.46458e-10
1.46464e-10
1.46469e-10
1.46473e-10
1.46476e-10
1.46479e-10
1.4648e-10
1.4648e-10
1.4648e-10
1.46478e-10
1.46476e-10
1.46473e-10
1.46469e-10
1.46464e-10
1.46458e-10
1.46451e-10
1.46444e-10
1.46436e-10
1.46428e-10
1.46419e-10
1.46409e-10
1.464e-10
1.46389e-10
1.46379e-10
1.46368e-10
1.46358e-10
1.46347e-10
1.46336e-10
1.46325e-10
1.46315e-10
1.46304e-10
1.46294e-10
1.46284e-10
1.46274e-10
1.46265e-10
1.46256e-10
1.46247e-10
1.46239e-10
1.46232e-10
1.46224e-10
1.46218e-10
1.46212e-10
1.46206e-10
1.46201e-10
1.46196e-10
1.46192e-10
1.46188e-10
1.46185e-10
1.46183e-10
1.4618e-10
1.46179e-10
1.46177e-10
1.46176e-10
1.46176e-10
1.46176e-10
1.46176e-10
1.46176e-10
1.46177e-10
1.46178e-10
1.46179e-10
1.4618e-10
1.46182e-10
1.46183e-10
1.46185e-10
1.46187e-10
1.46189e-10
1.46191e-10
1.46193e-10
1.46196e-10
1.46198e-10
1.46201e-10
1.46203e-10
1.46206e-10
1.46208e-10
1.46211e-10
1.46213e-10
1.46216e-10
1.46219e-10
1.46222e-10
1.46225e-10
1.46228e-10
1.46231e-10
1.46235e-10
1.46238e-10
1.46241e-10
1.46245e-10
1.46506e-10
1.46535e-10
1.46565e-10
1.46596e-10
1.46627e-10
1.46658e-10
1.4669e-10
1.46721e-10
1.46753e-10
1.46784e-10
1.46815e-10
1.46845e-10
1.46875e-10
1.46903e-10
1.46931e-10
1.46957e-10
1.46982e-10
1.47006e-10
1.47028e-10
1.47048e-10
1.47066e-10
1.47082e-10
1.47096e-10
1.47108e-10
1.47118e-10
1.47125e-10
1.4713e-10
1.47133e-10
1.47133e-10
1.47132e-10
1.47128e-10
1.47121e-10
1.47113e-10
1.47102e-10
1.4709e-10
1.47076e-10
1.47059e-10
1.47041e-10
1.47022e-10
1.47001e-10
1.46979e-10
1.46956e-10
1.46932e-10
1.46907e-10
1.46882e-10
1.46856e-10
1.4683e-10
1.46804e-10
1.46778e-10
1.46751e-10
1.46726e-10
1.467e-10
1.46675e-10
1.46651e-10
1.46627e-10
1.46605e-10
1.46583e-10
1.46562e-10
1.46543e-10
1.46525e-10
1.46507e-10
1.46491e-10
1.46477e-10
1.46463e-10
1.46451e-10
1.46441e-10
1.46431e-10
1.46423e-10
1.46416e-10
1.4641e-10
1.46406e-10
1.46402e-10
1.464e-10
1.46398e-10
1.46398e-10
1.46398e-10
1.46399e-10
1.46401e-10
1.46403e-10
1.46406e-10
1.4641e-10
1.46414e-10
1.46419e-10
1.46424e-10
1.46429e-10
1.46435e-10
1.46441e-10
1.46447e-10
1.46454e-10
1.4646e-10
1.46467e-10
1.46474e-10
1.46481e-10
1.46488e-10
1.46496e-10
1.46504e-10
1.46511e-10
1.46519e-10
1.46528e-10
1.46536e-10
1.46545e-10
1.46554e-10
1.46563e-10
1.46572e-10
1.46582e-10
1.46592e-10
1.46603e-10
1.47179e-10
1.47249e-10
1.47321e-10
1.47393e-10
1.47466e-10
1.4754e-10
1.47613e-10
1.47687e-10
1.4776e-10
1.47833e-10
1.47904e-10
1.47973e-10
1.48041e-10
1.48107e-10
1.4817e-10
1.48231e-10
1.48288e-10
1.48341e-10
1.48391e-10
1.48436e-10
1.48477e-10
1.48512e-10
1.48543e-10
1.48569e-10
1.4859e-10
1.48605e-10
1.48615e-10
1.48619e-10
1.48618e-10
1.48612e-10
1.48602e-10
1.48585e-10
1.48564e-10
1.48538e-10
1.48508e-10
1.48473e-10
1.48435e-10
1.48392e-10
1.48346e-10
1.48298e-10
1.48246e-10
1.48192e-10
1.48136e-10
1.48078e-10
1.48019e-10
1.47959e-10
1.47899e-10
1.47838e-10
1.47778e-10
1.47718e-10
1.47659e-10
1.476e-10
1.47543e-10
1.47488e-10
1.47435e-10
1.47383e-10
1.47334e-10
1.47287e-10
1.47243e-10
1.47201e-10
1.47163e-10
1.47127e-10
1.47094e-10
1.47065e-10
1.47038e-10
1.47015e-10
1.46995e-10
1.46977e-10
1.46963e-10
1.46952e-10
1.46943e-10
1.46937e-10
1.46934e-10
1.46933e-10
1.46934e-10
1.46937e-10
1.46942e-10
1.46948e-10
1.46956e-10
1.46966e-10
1.46977e-10
1.4699e-10
1.47003e-10
1.47017e-10
1.47033e-10
1.47049e-10
1.47065e-10
1.47083e-10
1.471e-10
1.47119e-10
1.47138e-10
1.47157e-10
1.47177e-10
1.47197e-10
1.47218e-10
1.47239e-10
1.47261e-10
1.47283e-10
1.47306e-10
1.47329e-10
1.47353e-10
1.47378e-10
1.47403e-10
1.4743e-10
1.47457e-10
1.47485e-10
1.47513e-10
1.4827e-10
1.48418e-10
1.48571e-10
1.48728e-10
1.48887e-10
1.4905e-10
1.49213e-10
1.49378e-10
1.49543e-10
1.49707e-10
1.4987e-10
1.50031e-10
1.50189e-10
1.50344e-10
1.50495e-10
1.50641e-10
1.50782e-10
1.50916e-10
1.51043e-10
1.51163e-10
1.51274e-10
1.51376e-10
1.51468e-10
1.51551e-10
1.51622e-10
1.51683e-10
1.51733e-10
1.51771e-10
1.51797e-10
1.51812e-10
1.51814e-10
1.51807e-10
1.5179e-10
1.51761e-10
1.51721e-10
1.51671e-10
1.51611e-10
1.51542e-10
1.51464e-10
1.51378e-10
1.51283e-10
1.51182e-10
1.51075e-10
1.50962e-10
1.50844e-10
1.50722e-10
1.50597e-10
1.50469e-10
1.50339e-10
1.50208e-10
1.50077e-10
1.49946e-10
1.49816e-10
1.49687e-10
1.49561e-10
1.49438e-10
1.49319e-10
1.49203e-10
1.49093e-10
1.48987e-10
1.48887e-10
1.48793e-10
1.48705e-10
1.48623e-10
1.48549e-10
1.48481e-10
1.4842e-10
1.48366e-10
1.48319e-10
1.48279e-10
1.48246e-10
1.4822e-10
1.482e-10
1.48187e-10
1.48179e-10
1.48179e-10
1.48182e-10
1.4819e-10
1.48202e-10
1.4822e-10
1.48241e-10
1.48266e-10
1.48295e-10
1.48326e-10
1.48361e-10
1.48397e-10
1.48436e-10
1.48477e-10
1.4852e-10
1.48564e-10
1.48609e-10
1.48656e-10
1.48704e-10
1.48753e-10
1.48803e-10
1.48855e-10
1.48907e-10
1.48961e-10
1.49015e-10
1.49072e-10
1.49129e-10
1.49188e-10
1.49248e-10
1.4931e-10
1.49374e-10
1.4944e-10
1.49508e-10
1.49578e-10
1.4965e-10
1.49725e-10
1.51141e-10
1.51462e-10
1.5179e-10
1.52123e-10
1.52461e-10
1.52801e-10
1.53143e-10
1.53483e-10
1.53822e-10
1.54156e-10
1.54486e-10
1.54808e-10
1.55122e-10
1.55426e-10
1.55719e-10
1.56e-10
1.56268e-10
1.56522e-10
1.5676e-10
1.56983e-10
1.57187e-10
1.57374e-10
1.57541e-10
1.57687e-10
1.57812e-10
1.57916e-10
1.57997e-10
1.58056e-10
1.58093e-10
1.58105e-10
1.58098e-10
1.58071e-10
1.58023e-10
1.57955e-10
1.57866e-10
1.57758e-10
1.57631e-10
1.57487e-10
1.57326e-10
1.5715e-10
1.56959e-10
1.56755e-10
1.5654e-10
1.56315e-10
1.5608e-10
1.55838e-10
1.5559e-10
1.55337e-10
1.55081e-10
1.54823e-10
1.54564e-10
1.54306e-10
1.5405e-10
1.53797e-10
1.53549e-10
1.53307e-10
1.53072e-10
1.52845e-10
1.52627e-10
1.52419e-10
1.52222e-10
1.52037e-10
1.51865e-10
1.51707e-10
1.51562e-10
1.51432e-10
1.51316e-10
1.51216e-10
1.5113e-10
1.5106e-10
1.51005e-10
1.50964e-10
1.50937e-10
1.50925e-10
1.50926e-10
1.50935e-10
1.50956e-10
1.50988e-10
1.5103e-10
1.51082e-10
1.51142e-10
1.51211e-10
1.51286e-10
1.51368e-10
1.51455e-10
1.51548e-10
1.51645e-10
1.51746e-10
1.5185e-10
1.51958e-10
1.52069e-10
1.52183e-10
1.52299e-10
1.52418e-10
1.52539e-10
1.52662e-10
1.52788e-10
1.52917e-10
1.53048e-10
1.53182e-10
1.53319e-10
1.53459e-10
1.53604e-10
1.53751e-10
1.53903e-10
1.5406e-10
1.54221e-10
1.54387e-10
1.54558e-10
1.54734e-10
1.57048e-10
1.57674e-10
1.58308e-10
1.58947e-10
1.59588e-10
1.60228e-10
1.60862e-10
1.61486e-10
1.62098e-10
1.62693e-10
1.6327e-10
1.63826e-10
1.64359e-10
1.64868e-10
1.6535e-10
1.65805e-10
1.66231e-10
1.66627e-10
1.66993e-10
1.67326e-10
1.67627e-10
1.67895e-10
1.6813e-10
1.68329e-10
1.68493e-10
1.6862e-10
1.68711e-10
1.68767e-10
1.68785e-10
1.68772e-10
1.68727e-10
1.68649e-10
1.6854e-10
1.68399e-10
1.68227e-10
1.68026e-10
1.67798e-10
1.67543e-10
1.67263e-10
1.66959e-10
1.66633e-10
1.66287e-10
1.65922e-10
1.65541e-10
1.65145e-10
1.64737e-10
1.64317e-10
1.63889e-10
1.63454e-10
1.63015e-10
1.62573e-10
1.62131e-10
1.61691e-10
1.61256e-10
1.60828e-10
1.60409e-10
1.60002e-10
1.5961e-10
1.59234e-10
1.58876e-10
1.58539e-10
1.58224e-10
1.57932e-10
1.57665e-10
1.57423e-10
1.57208e-10
1.57021e-10
1.56861e-10
1.5673e-10
1.56627e-10
1.56553e-10
1.56507e-10
1.56492e-10
1.565e-10
1.56527e-10
1.56578e-10
1.56652e-10
1.56747e-10
1.56862e-10
1.56995e-10
1.57144e-10
1.57308e-10
1.57484e-10
1.57673e-10
1.57872e-10
1.58079e-10
1.58295e-10
1.58517e-10
1.58745e-10
1.58978e-10
1.59215e-10
1.59456e-10
1.59701e-10
1.59949e-10
1.60201e-10
1.60456e-10
1.60715e-10
1.60978e-10
1.61245e-10
1.61516e-10
1.61792e-10
1.62074e-10
1.62362e-10
1.62656e-10
1.62956e-10
1.63265e-10
1.6358e-10
1.63904e-10
1.64237e-10
1.64578e-10
1.6781e-10
1.68831e-10
1.69842e-10
1.70838e-10
1.71817e-10
1.72774e-10
1.73703e-10
1.74599e-10
1.75458e-10
1.76275e-10
1.77048e-10
1.77774e-10
1.78453e-10
1.79082e-10
1.7966e-10
1.80187e-10
1.80664e-10
1.81091e-10
1.81469e-10
1.81801e-10
1.82086e-10
1.82328e-10
1.82527e-10
1.82685e-10
1.82799e-10
1.82869e-10
1.82886e-10
1.8287e-10
1.82817e-10
1.82723e-10
1.82596e-10
1.82438e-10
1.8224e-10
1.82003e-10
1.81734e-10
1.81436e-10
1.81106e-10
1.80747e-10
1.8036e-10
1.79947e-10
1.7951e-10
1.7905e-10
1.78569e-10
1.78069e-10
1.77553e-10
1.77022e-10
1.76476e-10
1.75918e-10
1.7535e-10
1.74774e-10
1.74193e-10
1.7361e-10
1.73027e-10
1.72447e-10
1.71874e-10
1.71309e-10
1.70757e-10
1.70221e-10
1.69705e-10
1.69213e-10
1.68749e-10
1.68315e-10
1.67916e-10
1.67555e-10
1.67234e-10
1.66956e-10
1.66721e-10
1.66531e-10
1.66387e-10
1.66288e-10
1.66239e-10
1.66242e-10
1.66273e-10
1.66341e-10
1.66451e-10
1.66596e-10
1.66776e-10
1.66987e-10
1.67228e-10
1.67494e-10
1.67785e-10
1.68096e-10
1.68425e-10
1.6877e-10
1.69129e-10
1.69499e-10
1.69878e-10
1.70265e-10
1.70658e-10
1.71057e-10
1.71458e-10
1.71863e-10
1.72271e-10
1.7268e-10
1.73092e-10
1.73505e-10
1.73921e-10
1.74339e-10
1.74761e-10
1.75186e-10
1.75615e-10
1.76048e-10
1.76486e-10
1.76929e-10
1.77378e-10
1.77833e-10
1.78295e-10
1.78764e-10
1.79239e-10
1.79723e-10
1.83501e-10
1.84734e-10
1.85914e-10
1.87042e-10
1.88121e-10
1.89145e-10
1.90101e-10
1.90984e-10
1.91791e-10
1.92521e-10
1.93176e-10
1.93758e-10
1.9427e-10
1.94715e-10
1.95095e-10
1.95411e-10
1.95669e-10
1.9587e-10
1.96018e-10
1.96115e-10
1.96165e-10
1.96167e-10
1.96147e-10
1.96096e-10
1.96009e-10
1.95889e-10
1.95737e-10
1.95558e-10
1.95358e-10
1.95152e-10
1.94906e-10
1.94636e-10
1.94348e-10
1.94041e-10
1.93717e-10
1.93373e-10
1.93014e-10
1.92641e-10
1.92252e-10
1.91845e-10
1.91422e-10
1.90986e-10
1.90536e-10
1.90068e-10
1.89585e-10
1.8909e-10
1.88583e-10
1.88065e-10
1.87536e-10
1.86997e-10
1.86453e-10
1.85906e-10
1.85359e-10
1.84817e-10
1.84281e-10
1.83757e-10
1.83248e-10
1.82757e-10
1.82287e-10
1.81843e-10
1.81427e-10
1.81044e-10
1.80699e-10
1.80394e-10
1.80133e-10
1.79915e-10
1.79746e-10
1.79626e-10
1.79563e-10
1.79562e-10
1.79607e-10
1.79699e-10
1.79847e-10
1.80039e-10
1.80273e-10
1.80549e-10
1.8086e-10
1.81203e-10
1.81575e-10
1.8197e-10
1.82385e-10
1.82816e-10
1.83261e-10
1.83717e-10
1.84181e-10
1.84651e-10
1.85126e-10
1.85602e-10
1.86078e-10
1.86549e-10
1.87013e-10
1.87468e-10
1.87915e-10
1.88353e-10
1.88783e-10
1.89203e-10
1.89615e-10
1.90017e-10
1.9041e-10
1.90795e-10
1.91172e-10
1.91542e-10
1.91904e-10
1.92259e-10
1.92608e-10
1.9295e-10
1.93285e-10
1.93615e-10
1.93938e-10
1.94255e-10
1.99164e-10
2.00122e-10
2.00961e-10
2.01687e-10
2.02305e-10
2.02819e-10
2.03238e-10
2.03572e-10
2.03828e-10
2.04016e-10
2.04145e-10
2.04219e-10
2.04236e-10
2.04221e-10
2.04173e-10
2.04085e-10
2.03962e-10
2.03809e-10
2.03631e-10
2.03432e-10
2.03212e-10
2.02974e-10
2.02724e-10
2.02471e-10
2.02205e-10
2.0194e-10
2.01665e-10
2.01364e-10
2.0106e-10
2.00775e-10
2.00496e-10
2.00192e-10
1.99876e-10
1.99565e-10
1.99249e-10
1.98927e-10
1.9861e-10
1.98299e-10
1.97982e-10
1.97664e-10
1.97355e-10
1.97052e-10
1.96746e-10
1.9644e-10
1.96142e-10
1.9585e-10
1.95558e-10
1.95267e-10
1.94976e-10
1.94686e-10
1.944e-10
1.94118e-10
1.93838e-10
1.9356e-10
1.93285e-10
1.93015e-10
1.92753e-10
1.92501e-10
1.92263e-10
1.92045e-10
1.91849e-10
1.91679e-10
1.91541e-10
1.91438e-10
1.91373e-10
1.91356e-10
1.91372e-10
1.91429e-10
1.91524e-10
1.91646e-10
1.91812e-10
1.92028e-10
1.92255e-10
1.92505e-10
1.92784e-10
1.93085e-10
1.93401e-10
1.93726e-10
1.94056e-10
1.94387e-10
1.94718e-10
1.95045e-10
1.95366e-10
1.95678e-10
1.95979e-10
1.96266e-10
1.9654e-10
1.968e-10
1.97045e-10
1.97277e-10
1.97497e-10
1.97705e-10
1.97904e-10
1.98092e-10
1.98272e-10
1.98443e-10
1.98608e-10
1.98765e-10
1.98916e-10
1.99062e-10
1.99202e-10
1.99337e-10
1.99467e-10
1.99592e-10
1.99712e-10
1.99827e-10
1.99938e-10
2.00044e-10
2.00147e-10
2.00246e-10
2.0034e-10
2.09405e-10
2.09553e-10
2.09626e-10
2.09629e-10
2.096e-10
2.09526e-10
2.09407e-10
2.09251e-10
2.09067e-10
2.08856e-10
2.08624e-10
2.08373e-10
2.08107e-10
2.07833e-10
2.07552e-10
2.07262e-10
2.0697e-10
2.06666e-10
2.06378e-10
2.06063e-10
2.05716e-10
2.05394e-10
2.05073e-10
2.04741e-10
2.04423e-10
2.04123e-10
2.03792e-10
2.03443e-10
2.03105e-10
2.02805e-10
2.02495e-10
2.02168e-10
2.01846e-10
2.01527e-10
2.01206e-10
2.00898e-10
2.00589e-10
2.00276e-10
1.99974e-10
1.99693e-10
1.99412e-10
1.99134e-10
1.9887e-10
1.98615e-10
1.98367e-10
1.98129e-10
1.97905e-10
1.97688e-10
1.9748e-10
1.97285e-10
1.97101e-10
1.96932e-10
1.96782e-10
1.96652e-10
1.96543e-10
1.96454e-10
1.96387e-10
1.96341e-10
1.96317e-10
1.96316e-10
1.96332e-10
1.96371e-10
1.96434e-10
1.96521e-10
1.96634e-10
1.96773e-10
1.96928e-10
1.97119e-10
1.97317e-10
1.97531e-10
1.97776e-10
1.98033e-10
1.98285e-10
1.98541e-10
1.98798e-10
1.99048e-10
1.99286e-10
1.99514e-10
1.99731e-10
1.99937e-10
2.00126e-10
2.00301e-10
2.00468e-10
2.00623e-10
2.00765e-10
2.00897e-10
2.01019e-10
2.01129e-10
2.0123e-10
2.01324e-10
2.01409e-10
2.01488e-10
2.0156e-10
2.01625e-10
2.01685e-10
2.01738e-10
2.01787e-10
2.0183e-10
2.0187e-10
2.01905e-10
2.01936e-10
2.01964e-10
2.01989e-10
2.02012e-10
2.02033e-10
2.02051e-10
2.02068e-10
2.02084e-10
2.02099e-10
2.02112e-10
2.02124e-10
2.02135e-10
2.02146e-10
2.13244e-10
2.13013e-10
2.12758e-10
2.12488e-10
2.1221e-10
2.11923e-10
2.11625e-10
2.11332e-10
2.11027e-10
2.1067e-10
2.10329e-10
2.09991e-10
2.09637e-10
2.09277e-10
2.08917e-10
2.08558e-10
2.08198e-10
2.07837e-10
2.07483e-10
2.07123e-10
2.06755e-10
2.06394e-10
2.06036e-10
2.05676e-10
2.05328e-10
2.04987e-10
2.04635e-10
2.04273e-10
2.03931e-10
2.03609e-10
2.0328e-10
2.02948e-10
2.0262e-10
2.02298e-10
2.01989e-10
2.0168e-10
2.01364e-10
2.01066e-10
2.00794e-10
2.00519e-10
2.00247e-10
2.00008e-10
1.99777e-10
1.99541e-10
1.99323e-10
1.99136e-10
1.98949e-10
1.98765e-10
1.98595e-10
1.98436e-10
1.98292e-10
1.9817e-10
1.98063e-10
1.97974e-10
1.97906e-10
1.97858e-10
1.97839e-10
1.97842e-10
1.97859e-10
1.9791e-10
1.9799e-10
1.98093e-10
1.98221e-10
1.98373e-10
1.98546e-10
1.98736e-10
1.98943e-10
1.99166e-10
1.99391e-10
1.99626e-10
1.99863e-10
2.00097e-10
2.00341e-10
2.00578e-10
2.00795e-10
2.01005e-10
2.01204e-10
2.01388e-10
2.01555e-10
2.01707e-10
2.01847e-10
2.01978e-10
2.0209e-10
2.0219e-10
2.02284e-10
2.02367e-10
2.02434e-10
2.02496e-10
2.02552e-10
2.026e-10
2.02638e-10
2.02667e-10
2.02692e-10
2.02713e-10
2.02731e-10
2.02745e-10
2.02755e-10
2.02762e-10
2.02766e-10
2.02769e-10
2.02772e-10
2.02773e-10
2.02773e-10
2.02773e-10
2.02772e-10
2.0277e-10
2.02767e-10
2.02763e-10
2.02759e-10
2.02754e-10
2.02749e-10
2.02744e-10
2.02738e-10
2.15417e-10
2.1512e-10
2.1479e-10
2.14422e-10
2.14065e-10
2.13708e-10
2.13346e-10
2.12979e-10
2.1261e-10
2.12244e-10
2.11873e-10
2.11494e-10
2.11115e-10
2.10739e-10
2.10361e-10
2.09981e-10
2.09603e-10
2.09227e-10
2.08853e-10
2.08483e-10
2.08118e-10
2.07751e-10
2.07383e-10
2.07019e-10
2.06655e-10
2.06288e-10
2.05936e-10
2.05587e-10
2.05228e-10
2.04863e-10
2.04521e-10
2.04192e-10
2.03856e-10
2.03522e-10
2.03191e-10
2.02867e-10
2.0256e-10
2.02252e-10
2.01932e-10
2.01642e-10
2.01372e-10
2.01094e-10
2.00827e-10
2.00595e-10
2.00364e-10
2.00127e-10
1.99922e-10
1.99736e-10
1.99557e-10
1.99363e-10
1.9919e-10
1.99044e-10
1.98915e-10
1.98804e-10
1.98718e-10
1.98655e-10
1.98614e-10
1.98603e-10
1.98611e-10
1.98638e-10
1.98683e-10
1.9875e-10
1.98841e-10
1.98953e-10
1.99084e-10
1.99235e-10
1.994e-10
1.99582e-10
1.99778e-10
1.99983e-10
2.00192e-10
2.00408e-10
2.00624e-10
2.00845e-10
2.01072e-10
2.0127e-10
2.01461e-10
2.01653e-10
2.01823e-10
2.01976e-10
2.02134e-10
2.02282e-10
2.02405e-10
2.02512e-10
2.0262e-10
2.02721e-10
2.02802e-10
2.02866e-10
2.02934e-10
2.02996e-10
2.03043e-10
2.0308e-10
2.03114e-10
2.03142e-10
2.03166e-10
2.03184e-10
2.03196e-10
2.03204e-10
2.03207e-10
2.03206e-10
2.03205e-10
2.032e-10
2.03194e-10
2.03185e-10
2.03175e-10
2.03164e-10
2.03153e-10
2.03141e-10
2.03128e-10
2.03114e-10
2.031e-10
2.03085e-10
2.03071e-10
2.03056e-10
2.03042e-10
2.16277e-10
2.15911e-10
2.15537e-10
2.15153e-10
2.14772e-10
2.14393e-10
2.14013e-10
2.13632e-10
2.13252e-10
2.12873e-10
2.12491e-10
2.12106e-10
2.11722e-10
2.11339e-10
2.10955e-10
2.10569e-10
2.10185e-10
2.09803e-10
2.09423e-10
2.09048e-10
2.08676e-10
2.08303e-10
2.07933e-10
2.07567e-10
2.07198e-10
2.06828e-10
2.06474e-10
2.06118e-10
2.05754e-10
2.05387e-10
2.05049e-10
2.04717e-10
2.0438e-10
2.04047e-10
2.03714e-10
2.03395e-10
2.03095e-10
2.02787e-10
2.0247e-10
2.02194e-10
2.0193e-10
2.01653e-10
2.01399e-10
2.01172e-10
2.00938e-10
2.00707e-10
2.00504e-10
2.00314e-10
2.00141e-10
1.99944e-10
1.99771e-10
1.99622e-10
1.9949e-10
1.99383e-10
1.99299e-10
1.99236e-10
1.99193e-10
1.99178e-10
1.99184e-10
1.99205e-10
1.99247e-10
1.99311e-10
1.99397e-10
1.99503e-10
1.99629e-10
1.99772e-10
1.99928e-10
2.00097e-10
2.00274e-10
2.00454e-10
2.00638e-10
2.00828e-10
2.01019e-10
2.01213e-10
2.01416e-10
2.0159e-10
2.01755e-10
2.01924e-10
2.02081e-10
2.02222e-10
2.02371e-10
2.02516e-10
2.02637e-10
2.02741e-10
2.02844e-10
2.02959e-10
2.0305e-10
2.03127e-10
2.03185e-10
2.03251e-10
2.0331e-10
2.03356e-10
2.03395e-10
2.03421e-10
2.03437e-10
2.03452e-10
2.03469e-10
2.03478e-10
2.03478e-10
2.03475e-10
2.0347e-10
2.03462e-10
2.03452e-10
2.03442e-10
2.0343e-10
2.03417e-10
2.03404e-10
2.0339e-10
2.03375e-10
2.0336e-10
2.03345e-10
2.0333e-10
2.03315e-10
2.03301e-10
2.03288e-10
2.03276e-10
2.19497e-10
2.19141e-10
2.18771e-10
2.18394e-10
2.18019e-10
2.17646e-10
2.17271e-10
2.16896e-10
2.16518e-10
2.16134e-10
2.15748e-10
2.15362e-10
2.14977e-10
2.14591e-10
2.14205e-10
2.13821e-10
2.13433e-10
2.13043e-10
2.12653e-10
2.12265e-10
2.11876e-10
2.11487e-10
2.11098e-10
2.10711e-10
2.10326e-10
2.09943e-10
2.09566e-10
2.09193e-10
2.08821e-10
2.08453e-10
2.08087e-10
2.07718e-10
2.07351e-10
2.06997e-10
2.0664e-10
2.06274e-10
2.05912e-10
2.05581e-10
2.05249e-10
2.04914e-10
2.04586e-10
2.04253e-10
2.03943e-10
2.0365e-10
2.03344e-10
2.03039e-10
2.02774e-10
2.0251e-10
2.02241e-10
2.02002e-10
2.01782e-10
2.01545e-10
2.01321e-10
2.01118e-10
2.00925e-10
2.00752e-10
2.00562e-10
2.0039e-10
2.00237e-10
2.00108e-10
2.00003e-10
1.99919e-10
1.99853e-10
1.99806e-10
1.99784e-10
1.99786e-10
1.99801e-10
1.99833e-10
1.99885e-10
1.99954e-10
2.00041e-10
2.00145e-10
2.00262e-10
2.00393e-10
2.00535e-10
2.00683e-10
2.00835e-10
2.00995e-10
2.01159e-10
2.01321e-10
2.01489e-10
2.01665e-10
2.01829e-10
2.01971e-10
2.02114e-10
2.02266e-10
2.02408e-10
2.02545e-10
2.02679e-10
2.02802e-10
2.02914e-10
2.0302e-10
2.03131e-10
2.03231e-10
2.03319e-10
2.03395e-10
2.03458e-10
2.03515e-10
2.03574e-10
2.03624e-10
2.03662e-10
2.03688e-10
2.0371e-10
2.03731e-10
2.03745e-10
2.03751e-10
2.03752e-10
2.03751e-10
2.03749e-10
2.03743e-10
2.03733e-10
2.0372e-10
2.03706e-10
2.03691e-10
2.03674e-10
2.03657e-10
2.0364e-10
2.03623e-10
2.03607e-10
2.03591e-10
2.03576e-10
2.03562e-10
2.0355e-10
2.20088e-10
2.19719e-10
2.19344e-10
2.18964e-10
2.18584e-10
2.18205e-10
2.17825e-10
2.17446e-10
2.17061e-10
2.16672e-10
2.16281e-10
2.15892e-10
2.15502e-10
2.15111e-10
2.14722e-10
2.14333e-10
2.13942e-10
2.13552e-10
2.13163e-10
2.12776e-10
2.12389e-10
2.12002e-10
2.11615e-10
2.11232e-10
2.10849e-10
2.10471e-10
2.10097e-10
2.09727e-10
2.09359e-10
2.08996e-10
2.08634e-10
2.08267e-10
2.07905e-10
2.07556e-10
2.07202e-10
2.06836e-10
2.06486e-10
2.06163e-10
2.05831e-10
2.05504e-10
2.05182e-10
2.04853e-10
2.04556e-10
2.04269e-10
2.03965e-10
2.03678e-10
2.0342e-10
2.03152e-10
2.02899e-10
2.02669e-10
2.02452e-10
2.02211e-10
2.01993e-10
2.01791e-10
2.01593e-10
2.01412e-10
2.01236e-10
2.01069e-10
2.0092e-10
2.00794e-10
2.00689e-10
2.00602e-10
2.00531e-10
2.00477e-10
2.00443e-10
2.00434e-10
2.00439e-10
2.00458e-10
2.00493e-10
2.00544e-10
2.0061e-10
2.0069e-10
2.00783e-10
2.00886e-10
2.00998e-10
2.01117e-10
2.01242e-10
2.01371e-10
2.01503e-10
2.01638e-10
2.0178e-10
2.01926e-10
2.02076e-10
2.02208e-10
2.0233e-10
2.02465e-10
2.02604e-10
2.02738e-10
2.02867e-10
2.02989e-10
2.03104e-10
2.03214e-10
2.03324e-10
2.0343e-10
2.03528e-10
2.03618e-10
2.0369e-10
2.03755e-10
2.03823e-10
2.03883e-10
2.03928e-10
2.03959e-10
2.03989e-10
2.04015e-10
2.04035e-10
2.04046e-10
2.04051e-10
2.04052e-10
2.04049e-10
2.04043e-10
2.04034e-10
2.04022e-10
2.04009e-10
2.03994e-10
2.03979e-10
2.03964e-10
2.03948e-10
2.03932e-10
2.03917e-10
2.03903e-10
2.03889e-10
2.03877e-10
2.03866e-10
2.2061e-10
2.20236e-10
2.19855e-10
2.19472e-10
2.19087e-10
2.18703e-10
2.1832e-10
2.17935e-10
2.17548e-10
2.1716e-10
2.16771e-10
2.16382e-10
2.15994e-10
2.15606e-10
2.15219e-10
2.14832e-10
2.14446e-10
2.1406e-10
2.13676e-10
2.13294e-10
2.12912e-10
2.12531e-10
2.12151e-10
2.11774e-10
2.11399e-10
2.11028e-10
2.10661e-10
2.10296e-10
2.09935e-10
2.09578e-10
2.09223e-10
2.08861e-10
2.08508e-10
2.08167e-10
2.07819e-10
2.07455e-10
2.07124e-10
2.06807e-10
2.06477e-10
2.06162e-10
2.05848e-10
2.05528e-10
2.05244e-10
2.0496e-10
2.04664e-10
2.04395e-10
2.04139e-10
2.03869e-10
2.03634e-10
2.03411e-10
2.03195e-10
2.02952e-10
2.02734e-10
2.02532e-10
2.02335e-10
2.02149e-10
2.01979e-10
2.0182e-10
2.01675e-10
2.01549e-10
2.01442e-10
2.01351e-10
2.01275e-10
2.01214e-10
2.01169e-10
2.01143e-10
2.01136e-10
2.01142e-10
2.01159e-10
2.0119e-10
2.01234e-10
2.0129e-10
2.01357e-10
2.01432e-10
2.01516e-10
2.01606e-10
2.01702e-10
2.01802e-10
2.01905e-10
2.02013e-10
2.02129e-10
2.02249e-10
2.02374e-10
2.02498e-10
2.02611e-10
2.02721e-10
2.02849e-10
2.02982e-10
2.03109e-10
2.0323e-10
2.03345e-10
2.03455e-10
2.03565e-10
2.03677e-10
2.03783e-10
2.03883e-10
2.03963e-10
2.04034e-10
2.04108e-10
2.04177e-10
2.04232e-10
2.04272e-10
2.04309e-10
2.04343e-10
2.04369e-10
2.04386e-10
2.04397e-10
2.04403e-10
2.04404e-10
2.04402e-10
2.04397e-10
2.04389e-10
2.04378e-10
2.04366e-10
2.04352e-10
2.04337e-10
2.04323e-10
2.04308e-10
2.04295e-10
2.04281e-10
2.04269e-10
2.04259e-10
2.04249e-10
2.21068e-10
2.2069e-10
2.2031e-10
2.19928e-10
2.19545e-10
2.19163e-10
2.1878e-10
2.18398e-10
2.18014e-10
2.1763e-10
2.17246e-10
2.16863e-10
2.1648e-10
2.16098e-10
2.15717e-10
2.15336e-10
2.14957e-10
2.14579e-10
2.14202e-10
2.13827e-10
2.13453e-10
2.13081e-10
2.12711e-10
2.12343e-10
2.11977e-10
2.11616e-10
2.11258e-10
2.10902e-10
2.10549e-10
2.10202e-10
2.09855e-10
2.095e-10
2.09161e-10
2.0883e-10
2.08487e-10
2.08135e-10
2.07824e-10
2.0751e-10
2.07186e-10
2.06886e-10
2.0658e-10
2.06275e-10
2.06001e-10
2.05717e-10
2.0544e-10
2.05188e-10
2.04929e-10
2.04674e-10
2.04443e-10
2.04222e-10
2.04011e-10
2.03767e-10
2.03546e-10
2.03344e-10
2.03147e-10
2.02963e-10
2.02798e-10
2.02644e-10
2.02502e-10
2.02375e-10
2.02264e-10
2.02168e-10
2.02085e-10
2.02015e-10
2.01959e-10
2.01918e-10
2.01893e-10
2.01884e-10
2.01886e-10
2.01896e-10
2.01918e-10
2.0195e-10
2.01992e-10
2.02041e-10
2.02098e-10
2.02161e-10
2.02229e-10
2.02302e-10
2.02379e-10
2.02461e-10
2.02551e-10
2.02648e-10
2.02749e-10
2.0286e-10
2.02962e-10
2.03059e-10
2.03167e-10
2.03295e-10
2.0342e-10
2.03537e-10
2.03651e-10
2.0376e-10
2.03863e-10
2.03982e-10
2.04097e-10
2.04206e-10
2.04294e-10
2.04373e-10
2.04452e-10
2.04528e-10
2.0459e-10
2.0464e-10
2.04687e-10
2.04729e-10
2.04763e-10
2.0479e-10
2.04809e-10
2.04822e-10
2.0483e-10
2.04833e-10
2.04832e-10
2.04829e-10
2.04822e-10
2.04813e-10
2.04803e-10
2.04792e-10
2.0478e-10
2.04768e-10
2.04757e-10
2.04746e-10
2.04736e-10
2.04728e-10
2.04722e-10
2.04717e-10
2.04713e-10
2.21489e-10
2.21113e-10
2.20736e-10
2.20358e-10
2.1998e-10
2.19603e-10
2.19225e-10
2.18848e-10
2.1847e-10
2.18093e-10
2.17716e-10
2.1734e-10
2.16965e-10
2.16592e-10
2.16219e-10
2.15847e-10
2.15477e-10
2.15108e-10
2.14741e-10
2.14376e-10
2.14012e-10
2.13651e-10
2.13293e-10
2.12936e-10
2.12582e-10
2.12232e-10
2.11886e-10
2.1154e-10
2.11199e-10
2.10864e-10
2.10527e-10
2.10182e-10
2.09861e-10
2.0954e-10
2.09203e-10
2.08873e-10
2.08576e-10
2.08265e-10
2.07955e-10
2.0767e-10
2.0737e-10
2.07087e-10
2.06819e-10
2.0654e-10
2.06285e-10
2.06046e-10
2.05788e-10
2.05542e-10
2.05315e-10
2.05093e-10
2.04885e-10
2.04647e-10
2.04428e-10
2.04225e-10
2.0403e-10
2.0385e-10
2.03688e-10
2.03537e-10
2.03396e-10
2.03266e-10
2.0315e-10
2.03048e-10
2.02958e-10
2.02879e-10
2.02813e-10
2.02759e-10
2.02718e-10
2.02691e-10
2.02674e-10
2.02667e-10
2.0267e-10
2.02679e-10
2.02696e-10
2.02721e-10
2.02753e-10
2.0279e-10
2.02834e-10
2.02882e-10
2.02935e-10
2.02994e-10
2.0306e-10
2.03135e-10
2.03215e-10
2.03304e-10
2.03399e-10
2.03487e-10
2.03577e-10
2.03691e-10
2.03813e-10
2.03925e-10
2.04035e-10
2.04146e-10
2.04243e-10
2.04356e-10
2.04481e-10
2.046e-10
2.047e-10
2.04782e-10
2.04866e-10
2.04949e-10
2.05023e-10
2.05086e-10
2.05144e-10
2.05197e-10
2.05243e-10
2.0528e-10
2.0531e-10
2.05332e-10
2.05349e-10
2.0536e-10
2.05367e-10
2.05369e-10
2.05368e-10
2.05364e-10
2.05359e-10
2.05352e-10
2.05344e-10
2.05336e-10
2.05329e-10
2.05322e-10
2.05317e-10
2.05313e-10
2.05311e-10
2.05311e-10
2.05313e-10
2.21889e-10
2.21517e-10
2.21146e-10
2.20774e-10
2.20402e-10
2.20032e-10
2.19661e-10
2.19291e-10
2.18921e-10
2.18552e-10
2.18184e-10
2.17818e-10
2.17452e-10
2.17089e-10
2.16726e-10
2.16365e-10
2.16006e-10
2.15648e-10
2.15293e-10
2.1494e-10
2.14589e-10
2.14241e-10
2.13895e-10
2.13552e-10
2.13211e-10
2.12876e-10
2.12543e-10
2.12209e-10
2.11883e-10
2.11562e-10
2.11235e-10
2.10906e-10
2.10603e-10
2.10294e-10
2.09964e-10
2.09662e-10
2.09375e-10
2.09068e-10
2.08781e-10
2.08506e-10
2.08218e-10
2.07954e-10
2.0769e-10
2.07428e-10
2.07186e-10
2.0696e-10
2.06708e-10
2.06467e-10
2.06244e-10
2.06024e-10
2.05811e-10
2.05588e-10
2.05375e-10
2.05172e-10
2.04982e-10
2.04806e-10
2.04646e-10
2.04496e-10
2.04354e-10
2.04222e-10
2.04101e-10
2.03992e-10
2.03895e-10
2.03808e-10
2.03731e-10
2.03665e-10
2.03611e-10
2.03567e-10
2.03533e-10
2.03508e-10
2.03491e-10
2.0348e-10
2.03478e-10
2.03481e-10
2.03489e-10
2.03503e-10