/*--------------------------------*- C++ -*----------------------------------*\
| =========                 |                                                 |
| \\      /  F ield         | OpenFOAM: The Open Source CFD Toolbox           |
|  \\    /   O peration     | Version:  v1706                                 |
|   \\  /    A nd           | Web:      www.OpenFOAM.com                      |
|    \\/     M anipulation  |                                                 |
\*---------------------------------------------------------------------------*/
FoamFile
{
    version     2.0;
    format      ascii;
    class       volScalarField;
    location    "1.7e-05";
    object      Mach;
}
// * * * * * * * * * * * * * * * * * * * * * * * * * * * * * * * * * * * * * //

dimensions      [0 0 0 0 0 0 0];


internalField   nonuniform List<scalar> 
29871
(
3.99487
3.99486
3.99485
3.99485
3.99484
3.99483
3.99483
3.99482
3.99481
3.99481
3.9948
3.9948
3.99479
3.99478
3.99478
3.99477
3.99477
3.99477
3.99476
3.99476
3.99476
3.99475
3.99475
3.99475
3.99475
3.99475
3.99475
3.99475
3.99475
3.99475
3.99476
3.99476
3.99476
3.99476
3.99477
3.99477
3.99478
3.99478
3.99479
3.99479
3.9948
3.9948
3.99481
3.99481
3.99482
3.99483
3.99483
3.99484
3.99484
3.99485
3.99485
3.99486
3.99486
3.99487
3.99487
3.99488
3.99488
3.99489
3.99489
3.99489
3.9949
3.9949
3.9949
3.9949
3.99491
3.99491
3.99491
3.99491
3.99491
3.99491
3.99491
3.99492
3.99492
3.99492
3.99492
3.99492
3.99492
3.99492
3.99492
3.99492
3.99491
3.99491
3.99491
3.99491
3.99491
3.99491
3.99491
3.99491
3.99491
3.99491
3.99491
3.99491
3.99491
3.99491
3.9949
3.9949
3.9949
3.9949
3.9949
3.9949
3.9949
3.9949
3.9949
3.9949
3.99489
3.99433
3.99429
3.99425
3.99421
3.99418
3.99414
3.9941
3.99406
3.99402
3.99398
3.99395
3.99391
3.99388
3.99384
3.99381
3.99378
3.99376
3.99373
3.99371
3.99369
3.99367
3.99366
3.99365
3.99364
3.99364
3.99363
3.99363
3.99364
3.99364
3.99365
3.99366
3.99368
3.99369
3.99371
3.99373
3.99376
3.99378
3.99381
3.99384
3.99387
3.9939
3.99393
3.99397
3.994
3.99403
3.99407
3.9941
3.99413
3.99417
3.9942
3.99423
3.99426
3.99429
3.99432
3.99435
3.99437
3.9944
3.99442
3.99444
3.99446
3.99448
3.9945
3.99451
3.99453
3.99454
3.99455
3.99456
3.99457
3.99458
3.99458
3.99459
3.99459
3.99459
3.99459
3.9946
3.99459
3.99459
3.99459
3.99459
3.99459
3.99458
3.99458
3.99458
3.99457
3.99457
3.99456
3.99456
3.99455
3.99455
3.99454
3.99454
3.99453
3.99453
3.99452
3.99451
3.99451
3.9945
3.99449
3.99449
3.99448
3.99447
3.99447
3.99446
3.99445
3.99444
3.99308
3.99296
3.99285
3.99273
3.99261
3.99249
3.99236
3.99224
3.99212
3.992
3.99189
3.99177
3.99166
3.99155
3.99145
3.99135
3.99126
3.99118
3.9911
3.99103
3.99097
3.99091
3.99087
3.99083
3.9908
3.99078
3.99077
3.99077
3.99078
3.9908
3.99083
3.99086
3.9909
3.99096
3.99101
3.99108
3.99115
3.99123
3.99131
3.9914
3.9915
3.99159
3.99169
3.99179
3.9919
3.992
3.9921
3.99221
3.99231
3.99241
3.99252
3.99261
3.99271
3.9928
3.99289
3.99297
3.99305
3.99313
3.9932
3.99327
3.99333
3.99339
3.99344
3.99349
3.99354
3.99357
3.99361
3.99364
3.99366
3.99368
3.9937
3.99371
3.99372
3.99373
3.99373
3.99373
3.99372
3.99372
3.99371
3.9937
3.99369
3.99368
3.99367
3.99365
3.99364
3.99362
3.9936
3.99358
3.99356
3.99354
3.99352
3.9935
3.99348
3.99346
3.99344
3.99342
3.99339
3.99337
3.99335
3.99332
3.99329
3.99327
3.99324
3.99321
3.99319
3.99316
3.98987
3.98956
3.98924
3.98892
3.9886
3.98828
3.98795
3.98763
3.98731
3.987
3.98669
3.98638
3.98609
3.98581
3.98554
3.98528
3.98505
3.98483
3.98462
3.98444
3.98428
3.98414
3.98402
3.98393
3.98386
3.98381
3.98379
3.9838
3.98382
3.98387
3.98394
3.98403
3.98415
3.98429
3.98444
3.98462
3.98481
3.98501
3.98523
3.98546
3.98571
3.98596
3.98622
3.98648
3.98675
3.98703
3.9873
3.98757
3.98784
3.98811
3.98837
3.98863
3.98888
3.98912
3.98935
3.98957
3.98979
3.98999
3.99017
3.99035
3.99051
3.99066
3.9908
3.99092
3.99103
3.99113
3.99121
3.99128
3.99134
3.99139
3.99143
3.99145
3.99147
3.99148
3.99147
3.99147
3.99145
3.99144
3.99141
3.99138
3.99134
3.9913
3.99125
3.99121
3.99116
3.9911
3.99105
3.99099
3.99093
3.99087
3.99081
3.99074
3.99068
3.99061
3.99054
3.99047
3.9904
3.99033
3.99025
3.99018
3.9901
3.99002
3.98993
3.98984
3.98976
3.98966
3.98281
3.98206
3.9813
3.98052
3.97974
3.97895
3.97815
3.97736
3.97657
3.97578
3.97501
3.97426
3.97352
3.97281
3.97212
3.97147
3.97085
3.97028
3.96974
3.96925
3.96882
3.96843
3.9681
3.96783
3.96761
3.96745
3.96735
3.96731
3.96734
3.96741
3.96755
3.96772
3.96796
3.96825
3.96859
3.96898
3.96942
3.96989
3.9704
3.97095
3.97152
3.97212
3.97274
3.97338
3.97403
3.97469
3.97535
3.97602
3.97668
3.97734
3.97799
3.97862
3.97924
3.97984
3.98042
3.98098
3.98151
3.98202
3.98249
3.98294
3.98335
3.98374
3.98409
3.98441
3.9847
3.98495
3.98517
3.98536
3.98552
3.98565
3.98575
3.98582
3.98586
3.98588
3.98588
3.98585
3.98582
3.98576
3.98569
3.9856
3.9855
3.98539
3.98526
3.98513
3.98498
3.98483
3.98468
3.98451
3.98434
3.98417
3.98399
3.98381
3.98363
3.98344
3.98324
3.98304
3.98284
3.98263
3.98242
3.9822
3.98197
3.98174
3.9815
3.98125
3.981
3.98074
3.98047
3.96544
3.96366
3.96184
3.96001
3.95815
3.9563
3.95444
3.95259
3.95076
3.94896
3.94719
3.94546
3.94379
3.94217
3.94063
3.93917
3.93779
3.93652
3.93534
3.93428
3.93334
3.93252
3.93182
3.93126
3.93083
3.93053
3.93036
3.93034
3.93044
3.93067
3.93103
3.93146
3.93205
3.93276
3.93358
3.9345
3.93551
3.93662
3.9378
3.93906
3.94037
3.94175
3.94316
3.94462
3.9461
3.9476
3.94911
3.95063
3.95213
3.95363
3.9551
3.95654
3.95795
3.95932
3.96063
3.9619
3.9631
3.96424
3.96531
3.96631
3.96724
3.96809
3.96886
3.96955
3.97017
3.9707
3.97116
3.97155
3.97186
3.9721
3.97227
3.97238
3.97242
3.9724
3.97233
3.97224
3.97209
3.9719
3.97166
3.97139
3.97108
3.97075
3.97039
3.97001
3.96961
3.96919
3.96876
3.96831
3.96785
3.96738
3.9669
3.9664
3.9659
3.96538
3.96486
3.96432
3.96377
3.9632
3.96262
3.96203
3.96142
3.96079
3.96014
3.95947
3.95878
3.95807
3.95733
3.93735
3.9336
3.92976
3.92584
3.92187
3.91785
3.9138
3.90975
3.9057
3.90168
3.8977
3.89378
3.88994
3.8862
3.88257
3.87907
3.87571
3.87252
3.86952
3.86671
3.86411
3.86175
3.85963
3.85776
3.85616
3.85484
3.85379
3.85302
3.85253
3.85234
3.85243
3.85279
3.85343
3.85425
3.8553
3.85665
3.85825
3.86007
3.86211
3.86434
3.86674
3.86931
3.87203
3.87487
3.87782
3.88086
3.88397
3.88714
3.89034
3.89356
3.89677
3.89997
3.90314
3.90625
3.90929
3.91226
3.91513
3.9179
3.92054
3.92306
3.92544
3.92767
3.92975
3.93167
3.93342
3.935
3.9364
3.93763
3.93869
3.93957
3.94028
3.94082
3.9412
3.94142
3.9415
3.94142
3.94121
3.94098
3.9406
3.94009
3.93949
3.9388
3.93803
3.9372
3.9363
3.93534
3.93433
3.93328
3.93219
3.93106
3.9299
3.92871
3.92749
3.92625
3.92497
3.92368
3.92235
3.92099
3.91961
3.91819
3.91673
3.91524
3.91371
3.91214
3.91052
3.90885
3.90714
3.90537
3.90354
3.90166
3.86529
3.8574
3.84936
3.84121
3.83299
3.82475
3.81653
3.80838
3.80034
3.79243
3.7847
3.77717
3.76988
3.76285
3.75611
3.74969
3.74361
3.7379
3.73258
3.72768
3.72322
3.71922
3.7157
3.71268
3.71016
3.70816
3.70667
3.7057
3.70523
3.7053
3.70585
3.7069
3.70849
3.71022
3.71249
3.71528
3.7185
3.72211
3.72609
3.7304
3.73502
3.73993
3.74508
3.75047
3.75604
3.76178
3.76765
3.77363
3.77967
3.78575
3.79184
3.79791
3.80393
3.80986
3.81567
3.82134
3.82683
3.83212
3.83718
3.84197
3.84649
3.85071
3.85461
3.85818
3.86141
3.86429
3.86681
3.86898
3.87078
3.87222
3.87332
3.87406
3.87446
3.87454
3.87429
3.87373
3.87313
3.87219
3.87098
3.86954
3.8679
3.86608
3.86411
3.862
3.85977
3.85742
3.85498
3.85246
3.84986
3.84719
3.84447
3.84168
3.83885
3.83596
3.83303
3.83004
3.82699
3.82389
3.82072
3.81749
3.81419
3.81081
3.80735
3.80379
3.80014
3.79639
3.79253
3.78855
3.78446
3.78024
3.7219
3.70733
3.69271
3.6781
3.66359
3.64925
3.63516
3.6214
3.60803
3.59511
3.58268
3.5708
3.55949
3.54878
3.53872
3.52931
3.52057
3.51253
3.50519
3.49857
3.49269
3.48755
3.48317
3.47955
3.47672
3.47468
3.47343
3.47291
3.47318
3.47411
3.4758
3.47833
3.48125
3.48456
3.4887
3.49353
3.49897
3.50496
3.51147
3.51845
3.52588
3.53372
3.54193
3.55046
3.55928
3.56834
3.57762
3.58706
3.59662
3.60626
3.61593
3.62557
3.63515
3.64461
3.6539
3.66297
3.67177
3.68026
3.68838
3.69609
3.70334
3.7101
3.71632
3.72198
3.72703
3.73147
3.73526
3.7384
3.74089
3.7427
3.74383
3.74432
3.74417
3.7434
3.74216
3.74076
3.73866
3.73606
3.73304
3.72964
3.72591
3.72188
3.71758
3.71304
3.7083
3.70339
3.69833
3.69315
3.68785
3.68245
3.67697
3.67142
3.66579
3.66009
3.65433
3.64849
3.64258
3.63658
3.63049
3.62431
3.61802
3.61161
3.60508
3.59841
3.5916
3.58463
3.5775
3.5702
3.56273
3.55507
3.47974
3.45802
3.43667
3.41574
3.39536
3.37566
3.3568
3.33887
3.32193
3.306
3.29113
3.27733
3.26459
3.25294
3.24237
3.23286
3.22438
3.21691
3.21043
3.20491
3.20034
3.19666
3.19385
3.19191
3.19084
3.19067
3.19145
3.19293
3.19513
3.19804
3.20171
3.20639
3.21071
3.21596
3.22211
3.22891
3.23627
3.24417
3.25257
3.26143
3.27072
3.28041
3.29046
3.30085
3.31155
3.32251
3.33373
3.34515
3.35675
3.36847
3.38027
3.39209
3.40388
3.41556
3.42708
3.43836
3.44932
3.45989
3.46999
3.47954
3.48847
3.4967
3.50416
3.51081
3.5166
3.52149
3.52545
3.52848
3.53053
3.53158
3.53157
3.53061
3.52867
3.52617
3.52335
3.5194
3.51469
3.50936
3.50348
3.4971
3.4903
3.48313
3.47565
3.46791
3.45997
3.45185
3.44361
3.43528
3.42689
3.41846
3.41002
3.40157
3.39311
3.38465
3.37619
3.36771
3.35921
3.35068
3.3421
3.33348
3.32479
3.31603
3.30718
3.29824
3.28919
3.28003
3.27075
3.26134
3.2518
3.24213
3.15701
3.13377
3.11172
3.09081
3.07099
3.05241
3.03536
3.01991
3.00605
2.99375
2.98294
2.97357
2.96557
2.95888
2.95346
2.94925
2.94616
2.94413
2.9431
2.94299
2.94375
2.94531
2.94738
2.95007
2.95334
2.95712
2.96154
2.96659
2.97207
2.97803
2.98283
2.98907
2.99573
3.00261
3.00979
3.01729
3.02508
3.03314
3.04145
3.05
3.05874
3.06766
3.07678
3.08612
3.09563
3.10528
3.11507
3.125
3.13508
3.14526
3.15545
3.16561
3.17568
3.18559
3.19529
3.20471
3.21378
3.22243
3.23059
3.23819
3.24514
3.25135
3.25674
3.26125
3.26482
3.2674
3.26895
3.26947
3.26895
3.26734
3.26441
3.25989
3.25625
3.25112
3.24508
3.2383
3.2309
3.22299
3.21467
3.20602
3.19711
3.18801
3.17878
3.16946
3.16011
3.15077
3.14148
3.13227
3.12319
3.11427
3.10556
3.09704
3.08871
3.08058
3.07263
3.06486
3.05727
3.04984
3.04256
3.03543
3.02842
3.02154
3.01477
3.00811
3.00157
2.99513
2.9888
2.98259
2.97649
2.97051
2.86413
2.84805
2.83421
2.8225
2.81284
2.80517
2.79934
2.7951
2.79224
2.79055
2.78989
2.79016
2.79132
2.7931
2.79552
2.79861
2.8023
2.80641
2.81086
2.81561
2.82091
2.82663
2.83266
2.83895
2.84495
2.85144
2.85725
2.86365
2.87079
2.87812
2.88473
2.89125
2.89837
2.90567
2.91276
2.91982
2.927
2.93418
2.94133
2.94846
2.95552
2.96242
2.96923
2.97596
2.98261
2.98912
2.99551
3.00184
3.00804
3.01408
3.01994
3.02562
3.03112
3.03641
3.04145
3.04616
3.05052
3.05446
3.05791
3.06082
3.06314
3.06481
3.06573
3.06586
3.06515
3.06351
3.06108
3.05779
3.05371
3.04857
3.04411
3.03817
3.03119
3.02442
3.01733
3.00986
3.0022
2.99451
2.98689
2.97942
2.97213
2.9651
2.95837
2.95196
2.9459
2.94021
2.93487
2.92987
2.92519
2.92081
2.9167
2.91283
2.90921
2.9058
2.90259
2.89954
2.89664
2.89387
2.89121
2.88866
2.88621
2.88384
2.88155
2.87932
2.87716
2.87505
2.873
2.871
2.86905
2.86714
2.86529
2.68643
2.68527
2.68531
2.68644
2.68832
2.69095
2.69419
2.69792
2.70211
2.70692
2.71224
2.71789
2.72383
2.73003
2.73644
2.74311
2.75005
2.75702
2.76472
2.77075
2.77778
2.78578
2.79299
2.80052
2.80844
2.81598
2.82254
2.83003
2.83812
2.84612
2.85296
2.86018
2.86774
2.87496
2.88204
2.88929
2.89629
2.90329
2.91013
2.91679
2.92318
2.92941
2.9354
2.94119
2.94674
2.95202
2.95707
2.96191
2.96651
2.97081
2.9748
2.97837
2.98149
2.98415
2.98638
2.98809
2.98928
2.98998
2.99008
2.98953
2.98842
2.98665
2.98416
2.98093
2.97696
2.97224
2.96697
2.96138
2.95477
2.94842
2.9417
2.93453
2.92726
2.92014
2.91322
2.90658
2.90025
2.89422
2.88855
2.88333
2.87849
2.874
2.86986
2.86612
2.86275
2.8597
2.85699
2.8546
2.85248
2.8506
2.84897
2.84757
2.84634
2.84526
2.8443
2.84344
2.84267
2.84196
2.84129
2.84065
2.84003
2.83942
2.83882
2.83822
2.83762
2.83703
2.83644
2.83585
2.83525
2.83465
2.83405
2.83346
2.83286
2.61983
2.6249
2.63056
2.63658
2.6429
2.64942
2.65612
2.66352
2.67006
2.67672
2.68469
2.69242
2.70001
2.7079
2.71589
2.72392
2.73183
2.73986
2.74794
2.7556
2.76341
2.77136
2.77909
2.78685
2.79502
2.80266
2.81012
2.8177
2.82591
2.83355
2.84079
2.84821
2.85558
2.86296
2.87033
2.8772
2.88393
2.89128
2.89805
2.90406
2.91034
2.91699
2.92245
2.92753
2.93303
2.93816
2.94217
2.94658
2.95082
2.95435
2.95776
2.96063
2.96282
2.96453
2.96575
2.96637
2.96633
2.9656
2.96422
2.96281
2.96037
2.95722
2.95345
2.94907
2.94414
2.93872
2.93293
2.92668
2.92005
2.9136
2.90645
2.89946
2.89254
2.88566
2.87916
2.8731
2.86751
2.86239
2.85748
2.85296
2.84903
2.84558
2.84214
2.83922
2.83679
2.83457
2.83262
2.831
2.82962
2.82849
2.82761
2.8269
2.82634
2.82587
2.82552
2.82526
2.82508
2.82495
2.82485
2.82476
2.82467
2.82458
2.82449
2.8244
2.82429
2.82417
2.82404
2.8239
2.82374
2.82356
2.82338
2.82319
2.82299
2.58139
2.58883
2.59507
2.60212
2.61008
2.61784
2.62557
2.63333
2.64116
2.64903
2.65671
2.66446
2.67236
2.68024
2.68813
2.69609
2.70415
2.71225
2.72035
2.72862
2.73689
2.74508
2.75329
2.76139
2.76931
2.77728
2.78553
2.79332
2.80106
2.80887
2.81713
2.82469
2.83208
2.83953
2.84674
2.85419
2.86143
2.86803
2.87454
2.88188
2.88806
2.89363
2.89998
2.90619
2.91118
2.91635
2.92194
2.92661
2.93063
2.93418
2.93859
2.94249
2.94569
2.94847
2.95086
2.95262
2.95373
2.95416
2.95399
2.95315
2.95169
2.94966
2.94697
2.9436
2.93959
2.93502
2.92996
2.92452
2.91877
2.91268
2.90642
2.90001
2.89352
2.88728
2.88061
2.87386
2.86823
2.86269
2.85708
2.85219
2.848
2.84356
2.83956
2.83607
2.83339
2.83044
2.82785
2.82571
2.82429
2.82266
2.82116
2.82009
2.8194
2.81886
2.81851
2.81827
2.81813
2.81809
2.81815
2.81828
2.81845
2.81863
2.81876
2.81884
2.81888
2.81891
2.81892
2.81891
2.81885
2.81876
2.81865
2.81852
2.81837
2.8182
2.81802
2.56746
2.57502
2.58252
2.5902
2.59802
2.60588
2.61379
2.62181
2.62996
2.63819
2.64649
2.6548
2.6631
2.6714
2.67969
2.68798
2.69628
2.70456
2.7128
2.72103
2.72914
2.73723
2.74537
2.75338
2.76122
2.76921
2.77737
2.78507
2.79271
2.80059
2.80884
2.81629
2.82375
2.83115
2.8382
2.84585
2.85301
2.85944
2.86601
2.87348
2.87947
2.88501
2.89123
2.89693
2.90157
2.90687
2.91198
2.91649
2.92069
2.92386
2.92801
2.93142
2.93436
2.93707
2.93923
2.94077
2.94172
2.94204
2.94183
2.94111
2.93983
2.93801
2.93563
2.93267
2.92915
2.92508
2.92053
2.9156
2.91039
2.9049
2.8992
2.89321
2.88726
2.8816
2.87566
2.86908
2.86384
2.85877
2.8534
2.8485
2.8446
2.84014
2.83611
2.83245
2.82971
2.82698
2.82411
2.8219
2.81967
2.81846
2.81697
2.81578
2.81488
2.814
2.81335
2.81305
2.81287
2.81273
2.81265
2.81266
2.81271
2.81277
2.81288
2.81304
2.81318
2.81333
2.81347
2.81359
2.81368
2.81375
2.8138
2.81381
2.81379
2.81375
2.81369
2.8136
2.50352
2.51072
2.51798
2.5255
2.53316
2.54088
2.54867
2.55658
2.56459
2.5727
2.58088
2.58909
2.59731
2.60556
2.61386
2.62217
2.6304
2.63865
2.6469
2.65513
2.66334
2.67153
2.67974
2.68796
2.69614
2.70434
2.71255
2.72072
2.72889
2.73705
2.74503
2.75286
2.76087
2.76893
2.77658
2.78417
2.79216
2.80021
2.80752
2.81506
2.82229
2.82918
2.83698
2.84381
2.85008
2.85692
2.86392
2.86958
2.87541
2.88146
2.88687
2.89135
2.8967
2.90148
2.906
2.91035
2.91362
2.91732
2.92033
2.9232
2.92565
2.9276
2.92904
2.92999
2.93038
2.93024
2.92965
2.92855
2.92694
2.92482
2.92221
2.9191
2.91554
2.91157
2.90728
2.90273
2.89801
2.89313
2.88791
2.88257
2.87739
2.87217
2.8661
2.8608
2.85628
2.85151
2.84671
2.8424
2.83818
2.83411
2.83052
2.82731
2.82434
2.82141
2.81891
2.8167
2.81468
2.81303
2.81186
2.81072
2.80983
2.80911
2.8087
2.80842
2.80823
2.80817
2.80823
2.80835
2.80852
2.80872
2.80892
2.80912
2.80931
2.80947
2.80962
2.80973
2.80981
2.80987
2.80989
2.80988
2.80985
2.8098
2.80972
2.49282
2.50052
2.50836
2.5163
2.5243
2.53234
2.54045
2.5486
2.5567
2.56483
2.57299
2.58113
2.58927
2.59744
2.60566
2.61392
2.62225
2.63059
2.63889
2.64716
2.65539
2.66361
2.67183
2.68004
2.68824
2.69646
2.70465
2.71278
2.72089
2.72897
2.73686
2.74459
2.75258
2.76051
2.76803
2.77549
2.78364
2.79129
2.79846
2.80604
2.81302
2.81983
2.8276
2.83408
2.8402
2.8472
2.85368
2.85911
2.86523
2.87085
2.87578
2.88024
2.88557
2.89022
2.89447
2.89872
2.90257
2.90602
2.90905
2.91168
2.91384
2.91556
2.91686
2.91773
2.91815
2.91806
2.91755
2.91662
2.91525
2.91345
2.91123
2.9086
2.90559
2.90223
2.89858
2.89471
2.89068
2.88652
2.88212
2.8775
2.87283
2.86819
2.8631
2.85781
2.85329
2.8492
2.84469
2.84026
2.83607
2.83208
2.82839
2.82494
2.82173
2.81871
2.816
2.8136
2.81126
2.80947
2.80816
2.80684
2.80569
2.80482
2.80428
2.80389
2.80362
2.8035
2.80351
2.8036
2.80373
2.80391
2.80412
2.80436
2.8046
2.80482
2.80502
2.80519
2.80532
2.80542
2.80548
2.80551
2.8055
2.80546
2.80539
2.48469
2.49256
2.50047
2.50841
2.51637
2.52436
2.53241
2.54052
2.54871
2.55695
2.56518
2.57339
2.58159
2.58982
2.59809
2.60639
2.61473
2.62306
2.63134
2.63958
2.64779
2.65597
2.66416
2.67231
2.68045
2.6886
2.69668
2.70468
2.71267
2.72062
2.72834
2.73593
2.7439
2.7516
2.75895
2.76629
2.77455
2.78164
2.78873
2.7963
2.80295
2.80982
2.81729
2.82343
2.82953
2.83641
2.84215
2.84777
2.85399
2.85932
2.86392
2.8683
2.87353
2.87811
2.8823
2.88643
2.89025
2.89364
2.89662
2.89914
2.9012
2.90283
2.90407
2.90493
2.9054
2.90543
2.90503
2.90426
2.90313
2.90164
2.89978
2.89758
2.89507
2.89226
2.88921
2.88594
2.88253
2.87901
2.87533
2.87143
2.86735
2.86321
2.85899
2.85404
2.84965
2.84556
2.84178
2.83745
2.83321
2.82925
2.82555
2.82199
2.81869
2.81558
2.81268
2.81009
2.80757
2.80557
2.80402
2.80256
2.80126
2.80028
2.79961
2.7991
2.79873
2.79854
2.7985
2.79857
2.79872
2.79893
2.79916
2.79941
2.79964
2.79986
2.80004
2.8002
2.80031
2.80039
2.80043
2.80043
2.8004
2.80033
2.80023
2.47671
2.48468
2.49271
2.50076
2.50882
2.5169
2.52502
2.5332
2.54144
2.5497
2.55795
2.56617
2.57439
2.58262
2.59087
2.59914
2.60741
2.61566
2.62386
2.63202
2.64014
2.64825
2.65633
2.66438
2.6724
2.68041
2.68833
2.69616
2.704
2.71178
2.71929
2.72672
2.73466
2.74203
2.74917
2.75658
2.76452
2.77117
2.77829
2.78568
2.792
2.79898
2.80591
2.8117
2.81816
2.82452
2.82978
2.83578
2.84144
2.84665
2.85145
2.85547
2.86051
2.86493
2.86903
2.87311
2.87688
2.88018
2.8831
2.8856
2.88764
2.88926
2.8905
2.89138
2.89191
2.89206
2.89184
2.89126
2.89035
2.88914
2.88763
2.88582
2.88375
2.88144
2.87891
2.87619
2.87334
2.87038
2.86729
2.86402
2.86055
2.85693
2.85325
2.84918
2.84463
2.84077
2.83723
2.8335
2.82925
2.82528
2.82163
2.81809
2.81466
2.81177
2.80864
2.8059
2.80323
2.80113
2.79933
2.7977
2.79619
2.79511
2.79431
2.79367
2.7932
2.79292
2.7928
2.7928
2.79289
2.79304
2.79322
2.79341
2.7936
2.79377
2.79391
2.79401
2.79408
2.7941
2.79409
2.79403
2.79393
2.79379
2.79362
2.79342
2.7932
2.46953
2.47756
2.48565
2.49376
2.50186
2.50999
2.51814
2.52632
2.53454
2.54276
2.55097
2.55916
2.56733
2.57551
2.58369
2.59187
2.60003
2.60816
2.61625
2.62429
2.63229
2.64027
2.64821
2.6561
2.66396
2.67179
2.67952
2.68714
2.69483
2.70238
2.70963
2.71694
2.72476
2.73177
2.73864
2.74628
2.75356
2.75994
2.76721
2.77412
2.78021
2.7873
2.79345
2.79934
2.80569
2.81149
2.81644
2.82234
2.8277
2.83284
2.83779
2.84178
2.84662
2.85083
2.85482
2.85879
2.86242
2.86562
2.86847
2.87096
2.87303
2.87471
2.87602
2.87698
2.87761
2.8779
2.87786
2.8775
2.87683
2.87588
2.87466
2.87322
2.87154
2.86965
2.86758
2.86534
2.86297
2.86049
2.85789
2.85513
2.85222
2.84912
2.84588
2.84249
2.83837
2.83452
2.83102
2.82781
2.82382
2.8199
2.81634
2.81297
2.80935
2.80661
2.80357
2.80066
2.79793
2.79562
2.79368
2.79188
2.79028
2.78906
2.7881
2.78732
2.78671
2.78629
2.78604
2.78591
2.78587
2.78589
2.78595
2.78602
2.78609
2.78614
2.78617
2.78616
2.78611
2.78603
2.7859
2.78573
2.78552
2.78528
2.78499
2.78468
2.78434
2.46288
2.47093
2.47902
2.48712
2.49522
2.50334
2.51147
2.51962
2.52777
2.53592
2.54405
2.55216
2.56026
2.56834
2.57642
2.58447
2.59249
2.60047
2.60841
2.6163
2.62414
2.63195
2.63972
2.64741
2.65508
2.6627
2.67019
2.67758
2.6851
2.69236
2.69933
2.70661
2.7141
2.72081
2.72747
2.73516
2.74178
2.74799
2.75532
2.76157
2.76769
2.7745
2.78014
2.78625
2.7921
2.79757
2.8021
2.80778
2.81298
2.81779
2.82263
2.82717
2.83173
2.8358
2.83972
2.84345
2.84688
2.84996
2.85273
2.8552
2.85731
2.85906
2.86045
2.86151
2.86226
2.8627
2.86283
2.86267
2.86224
2.86156
2.86063
2.8595
2.85815
2.85664
2.85497
2.85315
2.85119
2.84912
2.84694
2.84463
2.84218
2.83956
2.83676
2.83378
2.8305
2.82657
2.82315
2.82017
2.81661
2.81279
2.80938
2.80618
2.80264
2.79971
2.79706
2.794
2.79131
2.78878
2.78671
2.78481
2.7831
2.7817
2.78053
2.77955
2.77874
2.77811
2.77763
2.77727
2.77701
2.77681
2.77666
2.77654
2.77642
2.7763
2.77615
2.77599
2.77578
2.77554
2.77526
2.77493
2.77457
2.77417
2.77373
2.77326
2.77276
2.44848
2.4565
2.46454
2.4726
2.48066
2.48872
2.49679
2.50486
2.51294
2.52101
2.52906
2.53708
2.54508
2.55306
2.56102
2.56895
2.57684
2.5847
2.5925
2.60026
2.60796
2.61562
2.62322
2.63077
2.63824
2.64568
2.65307
2.66027
2.66743
2.67474
2.68166
2.68832
2.69564
2.70261
2.70905
2.71569
2.72298
2.7291
2.73537
2.74231
2.74804
2.75429
2.76063
2.76595
2.77209
2.77761
2.78291
2.78685
2.7922
2.79726
2.80191
2.80656
2.81115
2.81555
2.81962
2.82338
2.8269
2.83014
2.83309
2.83577
2.83818
2.84031
2.8421
2.84357
2.84473
2.84559
2.84616
2.84646
2.8465
2.84628
2.84584
2.84518
2.84433
2.84329
2.8421
2.84077
2.8393
2.8377
2.83599
2.83417
2.83223
2.83016
2.82795
2.82555
2.82298
2.82027
2.8167
2.81334
2.81048
2.80728
2.80366
2.80042
2.79738
2.79406
2.79099
2.78853
2.78549
2.7828
2.78013
2.77792
2.77588
2.77398
2.77232
2.77088
2.76961
2.76852
2.76758
2.7668
2.76615
2.7656
2.76514
2.76473
2.76436
2.76401
2.76366
2.76329
2.76291
2.7625
2.76206
2.76157
2.76105
2.76048
2.75987
2.75921
2.75852
2.75779
2.44225
2.45024
2.45823
2.46624
2.47424
2.48223
2.49022
2.4982
2.50617
2.51412
2.52205
2.52994
2.5378
2.54562
2.55342
2.56117
2.56888
2.57654
2.58414
2.59168
2.59917
2.6066
2.61397
2.62127
2.62848
2.63567
2.64277
2.64966
2.65661
2.66362
2.67018
2.6766
2.68383
2.69023
2.69636
2.7031
2.7097
2.71547
2.72185
2.72817
2.73359
2.73973
2.74565
2.75065
2.75643
2.76168
2.76694
2.77093
2.77577
2.78065
2.78512
2.78955
2.79403
2.7983
2.8022
2.80579
2.80913
2.8122
2.81499
2.81755
2.81988
2.82197
2.82377
2.82528
2.8265
2.82745
2.82813
2.82856
2.82875
2.82872
2.82847
2.82804
2.82742
2.82665
2.82573
2.82468
2.8235
2.82219
2.82078
2.81925
2.8176
2.81584
2.81394
2.81186
2.80964
2.80729
2.80414
2.80113
2.79836
2.79539
2.79198
2.78889
2.78598
2.78289
2.7798
2.77727
2.77434
2.77154
2.76874
2.76636
2.76412
2.76198
2.76003
2.75828
2.75671
2.7553
2.75405
2.75294
2.75197
2.7511
2.75033
2.74963
2.74897
2.74833
2.7477
2.74706
2.7464
2.74571
2.74498
2.74421
2.74338
2.7425
2.74155
2.74054
2.73945
2.73831
2.73713
2.73591
2.43604
2.44397
2.45189
2.45981
2.46772
2.47562
2.48349
2.49135
2.49919
2.50699
2.51475
2.52248
2.53016
2.5378
2.5454
2.55294
2.56043
2.56786
2.57523
2.58253
2.58977
2.59693
2.60404
2.61106
2.61798
2.6249
2.63167
2.63823
2.64497
2.65158
2.65778
2.66408
2.67092
2.67685
2.68272
2.68941
2.69527
2.70081
2.70712
2.71281
2.71801
2.72389
2.72945
2.73406
2.73939
2.7444
2.7491
2.75352
2.75776
2.76244
2.76668
2.77088
2.77515
2.77931
2.78319
2.7868
2.79005
2.79299
2.79565
2.79808
2.80029
2.80229
2.80405
2.80555
2.80679
2.80778
2.80853
2.80906
2.80936
2.80946
2.80937
2.80909
2.80866
2.80808
2.80736
2.80651
2.80554
2.80445
2.80324
2.80192
2.80049
2.79894
2.79726
2.79541
2.79344
2.79134
2.78864
2.78594
2.78327
2.78047
2.77722
2.77422
2.77138
2.76844
2.76542
2.76271
2.7598
2.7568
2.75392
2.75139
2.74896
2.74659
2.74436
2.7423
2.74042
2.7387
2.73712
2.73567
2.73434
2.73311
2.73196
2.73089
2.72985
2.72882
2.72778
2.72672
2.72561
2.72444
2.72323
2.72198
2.72069
2.71935
2.71797
2.71654
2.71508
2.71357
2.71201
2.7104
2.42972
2.43755
2.44537
2.45318
2.46096
2.46872
2.47645
2.48415
2.49182
2.49944
2.50701
2.51453
2.52201
2.52943
2.53679
2.54409
2.55133
2.55849
2.56559
2.57261
2.57956
2.58644
2.59324
2.59995
2.60656
2.61316
2.61957
2.62579
2.6323
2.63843
2.64426
2.65052
2.65669
2.66226
2.66805
2.67422
2.67954
2.68502
2.69091
2.69608
2.70106
2.70662
2.71178
2.71602
2.72085
2.72563
2.72983
2.73418
2.73827
2.74258
2.74656
2.75047
2.75441
2.75828
2.76188
2.76523
2.76836
2.77124
2.77383
2.77617
2.77832
2.78029
2.78205
2.78358
2.78488
2.78594
2.78679
2.78742
2.78786
2.78812
2.7882
2.7881
2.78783
2.78739
2.78681
2.7861
2.78527
2.78431
2.78324
2.78206
2.78077
2.77936
2.7778
2.77608
2.77428
2.77236
2.77001
2.76751
2.76495
2.76229
2.75916
2.75624
2.75342
2.75054
2.74757
2.74469
2.74167
2.73851
2.7356
2.73292
2.73026
2.72764
2.72512
2.72275
2.72051
2.71841
2.71641
2.71452
2.7127
2.71094
2.7092
2.70747
2.70578
2.70413
2.7025
2.70087
2.69923
2.6976
2.69594
2.69423
2.69249
2.6907
2.68885
2.68695
2.68499
2.68297
2.68088
2.67872
2.42312
2.43083
2.43851
2.44617
2.45379
2.46137
2.46892
2.47642
2.48388
2.49128
2.49862
2.5059
2.51312
2.52028
2.52737
2.53439
2.54134
2.54821
2.555
2.56171
2.56833
2.57488
2.58135
2.5877
2.59397
2.60021
2.60623
2.61215
2.61827
2.62395
2.62944
2.63553
2.64098
2.64618
2.65197
2.65738
2.66232
2.66766
2.67307
2.67776
2.68245
2.68767
2.69237
2.69633
2.70058
2.70507
2.70899
2.71293
2.71688
2.72084
2.72465
2.72824
2.73179
2.7353
2.73857
2.74161
2.74448
2.74715
2.74957
2.75175
2.75375
2.75557
2.75722
2.75867
2.75992
2.76096
2.7618
2.76245
2.76293
2.76324
2.76338
2.76339
2.76326
2.76301
2.76263
2.76214
2.76154
2.76084
2.76003
2.75913
2.7581
2.75685
2.75539
2.75375
2.75206
2.75029
2.74818
2.74583
2.74337
2.74084
2.73781
2.73497
2.73215
2.72921
2.72623
2.72314
2.71989
2.71671
2.71369
2.71073
2.70776
2.70479
2.70188
2.69903
2.69622
2.69341
2.69068
2.68804
2.68548
2.683
2.68061
2.6783
2.67604
2.67381
2.67161
2.66942
2.66723
2.66502
2.66277
2.66049
2.65815
2.65575
2.65329
2.65077
2.64816
2.64549
2.64274
2.63991
2.63701
2.42362
2.43112
2.43859
2.446
2.45337
2.46069
2.46795
2.47516
2.48229
2.48936
2.49636
2.50329
2.51014
2.51692
2.52362
2.53023
2.53676
2.5432
2.54955
2.55581
2.56199
2.56808
2.57404
2.57994
2.58577
2.59138
2.597
2.6026
2.60785
2.61313
2.61862
2.62357
2.62851
2.63396
2.63869
2.64327
2.64834
2.65327
2.65751
2.66181
2.66667
2.67087
2.67464
2.67824
2.68239
2.68606
2.68955
2.69323
2.69686
2.70037
2.70368
2.70686
2.70999
2.7129
2.7156
2.71817
2.72058
2.72278
2.72476
2.72655
2.72819
2.72967
2.73099
2.73213
2.73309
2.73387
2.73449
2.73495
2.73526
2.73542
2.73545
2.73535
2.73515
2.73483
2.73441
2.73388
2.73326
2.73253
2.73171
2.73077
2.72972
2.72853
2.72716
2.72571
2.72415
2.72234
2.72029
2.71807
2.7157
2.71275
2.70995
2.70708
2.70404
2.70091
2.69753
2.69398
2.69049
2.68706
2.68359
2.68005
2.67646
2.67287
2.66931
2.6658
2.66239
2.65903
2.65574
2.65252
2.64938
2.64632
2.64332
2.64036
2.63744
2.63454
2.63165
2.62876
2.62583
2.62288
2.61988
2.61682
2.6137
2.61051
2.60724
2.6039
2.60047
2.59696
2.59336
2.58969
2.41573
2.42301
2.43024
2.43741
2.44451
2.45155
2.45853
2.46543
2.47226
2.47901
2.48567
2.49226
2.49876
2.50518
2.5115
2.51774
2.52387
2.52992
2.53588
2.54173
2.54749
2.55315
2.55869
2.56417
2.56954
2.57473
2.57994
2.58501
2.58983
2.59485
2.59961
2.60409
2.60888
2.61366
2.61789
2.62206
2.62666
2.63114
2.63498
2.63878
2.64316
2.64694
2.65049
2.65346
2.65719
2.66051
2.66362
2.66686
2.67015
2.6733
2.67628
2.67909
2.68183
2.68436
2.68669
2.6889
2.69101
2.69294
2.69468
2.69624
2.69766
2.69894
2.70007
2.70105
2.70188
2.70256
2.70309
2.70348
2.70374
2.70387
2.70388
2.70377
2.70356
2.70324
2.70282
2.70231
2.7017
2.70099
2.70018
2.69925
2.69821
2.69704
2.69572
2.6943
2.6928
2.69105
2.68904
2.68693
2.6847
2.68175
2.6789
2.67592
2.67273
2.6694
2.66565
2.66177
2.65799
2.65417
2.65023
2.64618
2.64204
2.63787
2.6337
2.62955
2.62544
2.62136
2.61733
2.61335
2.60944
2.60558
2.60177
2.59801
2.59429
2.59058
2.58689
2.58318
2.57946
2.57571
2.5719
2.56805
2.56412
2.56012
2.55605
2.55189
2.54764
2.5433
2.53887
2.53436
2.41397
2.4209
2.42777
2.43456
2.44128
2.44791
2.45446
2.46093
2.4673
2.47359
2.47978
2.48587
2.49188
2.49778
2.50358
2.50928
2.51489
2.52039
2.52578
2.53108
2.53627
2.54135
2.54634
2.55122
2.55596
2.56066
2.5652
2.56964
2.57409
2.57828
2.58233
2.58677
2.59077
2.59463
2.59837
2.60224
2.60624
2.60977
2.61305
2.61674
2.62018
2.6234
2.62585
2.62905
2.63196
2.63466
2.63736
2.64026
2.64302
2.64558
2.64799
2.65032
2.65246
2.65437
2.65619
2.65794
2.65955
2.66099
2.66228
2.66344
2.66448
2.66539
2.66617
2.66682
2.66734
2.66773
2.66801
2.66816
2.66821
2.66815
2.66799
2.66773
2.66738
2.66693
2.66638
2.66574
2.66501
2.66417
2.66321
2.66213
2.66091
2.65955
2.65809
2.65653
2.65473
2.65268
2.65058
2.64827
2.64525
2.6423
2.6391
2.63567
2.632
2.62788
2.62376
2.6196
2.61529
2.61081
2.60618
2.60144
2.59662
2.59176
2.58686
2.58197
2.57708
2.57222
2.56739
2.56262
2.55789
2.55322
2.54859
2.544
2.53943
2.53487
2.53032
2.52574
2.52114
2.51649
2.51179
2.50701
2.50217
2.49724
2.49222
2.48712
2.48192
2.47663
2.47125
2.41036
2.41687
2.42329
2.42962
2.43586
2.442
2.44805
2.454
2.45984
2.46558
2.47122
2.47675
2.48218
2.4875
2.49271
2.49782
2.50281
2.5077
2.51248
2.51715
2.5217
2.52616
2.53051
2.53474
2.53887
2.54287
2.54684
2.55066
2.55429
2.558
2.5617
2.56508
2.56849
2.57184
2.5749
2.57823
2.58149
2.58425
2.58712
2.59022
2.59298
2.595
2.59761
2.60004
2.60227
2.60441
2.60677
2.60916
2.61125
2.61316
2.61505
2.61679
2.61827
2.61964
2.62097
2.62221
2.62331
2.62427
2.62513
2.62589
2.62654
2.62707
2.62749
2.62781
2.62802
2.62813
2.62814
2.62805
2.62788
2.62762
2.62727
2.62683
2.62631
2.62569
2.62499
2.62418
2.62328
2.62225
2.62109
2.61979
2.61833
2.61679
2.6151
2.61316
2.61099
2.60883
2.60628
2.60313
2.59995
2.59644
2.59271
2.58856
2.5841
2.5796
2.57495
2.57007
2.56498
2.5597
2.55427
2.54873
2.54309
2.53739
2.53166
2.52591
2.52018
2.51448
2.50881
2.5032
2.49764
2.49212
2.48665
2.4812
2.47578
2.47036
2.46492
2.45945
2.45395
2.44838
2.44275
2.43705
2.43126
2.42539
2.41943
2.41338
2.40723
2.401
2.39467
2.38826
2.39839
2.40448
2.41047
2.41636
2.42215
2.42782
2.43339
2.43885
2.4442
2.44943
2.45455
2.45956
2.46446
2.46924
2.4739
2.47845
2.48289
2.48721
2.49143
2.49552
2.4995
2.50338
2.50714
2.5108
2.51433
2.51777
2.52113
2.52435
2.52742
2.53059
2.53355
2.53636
2.53924
2.542
2.54442
2.54704
2.54982
2.55202
2.55418
2.55673
2.55899
2.56058
2.56257
2.56447
2.56622
2.56772
2.56944