/*--------------------------------*- C++ -*----------------------------------*\
| =========                 |                                                 |
| \\      /  F ield         | OpenFOAM: The Open Source CFD Toolbox           |
|  \\    /   O peration     | Version:  v1706                                 |
|   \\  /    A nd           | Web:      www.OpenFOAM.com                      |
|    \\/     M anipulation  |                                                 |
\*---------------------------------------------------------------------------*/
FoamFile
{
    version     2.0;
    format      ascii;
    class       volScalarField;
    location    "1.7e-05";
    object      mu;
}
// * * * * * * * * * * * * * * * * * * * * * * * * * * * * * * * * * * * * * //

dimensions      [1 -1 -1 0 0 0 0];


internalField   nonuniform List<scalar> 
29871
(
1.03513e-05
1.03513e-05
1.03513e-05
1.03514e-05
1.03514e-05
1.03514e-05
1.03514e-05
1.03514e-05
1.03515e-05
1.03515e-05
1.03515e-05
1.03515e-05
1.03515e-05
1.03515e-05
1.03516e-05
1.03516e-05
1.03516e-05
1.03516e-05
1.03516e-05
1.03516e-05
1.03516e-05
1.03516e-05
1.03516e-05
1.03516e-05
1.03516e-05
1.03516e-05
1.03516e-05
1.03516e-05
1.03516e-05
1.03516e-05
1.03516e-05
1.03516e-05
1.03516e-05
1.03516e-05
1.03516e-05
1.03516e-05
1.03516e-05
1.03515e-05
1.03515e-05
1.03515e-05
1.03515e-05
1.03515e-05
1.03515e-05
1.03515e-05
1.03514e-05
1.03514e-05
1.03514e-05
1.03514e-05
1.03514e-05
1.03514e-05
1.03513e-05
1.03513e-05
1.03513e-05
1.03513e-05
1.03513e-05
1.03513e-05
1.03513e-05
1.03513e-05
1.03512e-05
1.03512e-05
1.03512e-05
1.03512e-05
1.03512e-05
1.03512e-05
1.03512e-05
1.03512e-05
1.03512e-05
1.03512e-05
1.03512e-05
1.03512e-05
1.03512e-05
1.03512e-05
1.03512e-05
1.03512e-05
1.03512e-05
1.03512e-05
1.03512e-05
1.03512e-05
1.03512e-05
1.03512e-05
1.03512e-05
1.03512e-05
1.03512e-05
1.03512e-05
1.03512e-05
1.03512e-05
1.03512e-05
1.03512e-05
1.03512e-05
1.03512e-05
1.03512e-05
1.03512e-05
1.03512e-05
1.03512e-05
1.03512e-05
1.03512e-05
1.03512e-05
1.03512e-05
1.03512e-05
1.03512e-05
1.03512e-05
1.03512e-05
1.03512e-05
1.03512e-05
1.03512e-05
1.03528e-05
1.03529e-05
1.0353e-05
1.03531e-05
1.03532e-05
1.03533e-05
1.03534e-05
1.03535e-05
1.03536e-05
1.03537e-05
1.03539e-05
1.0354e-05
1.0354e-05
1.03541e-05
1.03542e-05
1.03543e-05
1.03544e-05
1.03545e-05
1.03545e-05
1.03546e-05
1.03546e-05
1.03547e-05
1.03547e-05
1.03547e-05
1.03548e-05
1.03548e-05
1.03548e-05
1.03548e-05
1.03548e-05
1.03547e-05
1.03547e-05
1.03547e-05
1.03546e-05
1.03546e-05
1.03545e-05
1.03545e-05
1.03544e-05
1.03543e-05
1.03542e-05
1.03541e-05
1.03541e-05
1.0354e-05
1.03539e-05
1.03538e-05
1.03537e-05
1.03536e-05
1.03535e-05
1.03534e-05
1.03533e-05
1.03532e-05
1.03531e-05
1.0353e-05
1.0353e-05
1.03529e-05
1.03528e-05
1.03527e-05
1.03527e-05
1.03526e-05
1.03525e-05
1.03525e-05
1.03524e-05
1.03524e-05
1.03523e-05
1.03523e-05
1.03522e-05
1.03522e-05
1.03522e-05
1.03521e-05
1.03521e-05
1.03521e-05
1.03521e-05
1.03521e-05
1.03521e-05
1.03521e-05
1.03521e-05
1.03521e-05
1.03521e-05
1.03521e-05
1.03521e-05
1.03521e-05
1.03521e-05
1.03521e-05
1.03521e-05
1.03521e-05
1.03521e-05
1.03522e-05
1.03522e-05
1.03522e-05
1.03522e-05
1.03522e-05
1.03522e-05
1.03522e-05
1.03523e-05
1.03523e-05
1.03523e-05
1.03523e-05
1.03523e-05
1.03523e-05
1.03524e-05
1.03524e-05
1.03524e-05
1.03524e-05
1.03524e-05
1.03525e-05
1.03525e-05
1.03562e-05
1.03565e-05
1.03568e-05
1.03572e-05
1.03575e-05
1.03578e-05
1.03582e-05
1.03585e-05
1.03589e-05
1.03592e-05
1.03595e-05
1.03599e-05
1.03602e-05
1.03605e-05
1.03608e-05
1.0361e-05
1.03613e-05
1.03615e-05
1.03618e-05
1.0362e-05
1.03622e-05
1.03623e-05
1.03625e-05
1.03626e-05
1.03627e-05
1.03627e-05
1.03628e-05
1.03628e-05
1.03627e-05
1.03627e-05
1.03626e-05
1.03626e-05
1.03625e-05
1.03623e-05
1.03622e-05
1.0362e-05
1.03618e-05
1.03616e-05
1.03614e-05
1.03611e-05
1.03609e-05
1.03606e-05
1.03603e-05
1.036e-05
1.03598e-05
1.03595e-05
1.03592e-05
1.03589e-05
1.03586e-05
1.03583e-05
1.0358e-05
1.03578e-05
1.03575e-05
1.03572e-05
1.0357e-05
1.03567e-05
1.03565e-05
1.03563e-05
1.03561e-05
1.03559e-05
1.03557e-05
1.03555e-05
1.03554e-05
1.03552e-05
1.03551e-05
1.0355e-05
1.03549e-05
1.03548e-05
1.03547e-05
1.03547e-05
1.03546e-05
1.03546e-05
1.03545e-05
1.03545e-05
1.03545e-05
1.03545e-05
1.03545e-05
1.03545e-05
1.03545e-05
1.03545e-05
1.03546e-05
1.03546e-05
1.03546e-05
1.03547e-05
1.03547e-05
1.03548e-05
1.03548e-05
1.03549e-05
1.03549e-05
1.0355e-05
1.0355e-05
1.03551e-05
1.03551e-05
1.03552e-05
1.03553e-05
1.03553e-05
1.03554e-05
1.03554e-05
1.03555e-05
1.03556e-05
1.03556e-05
1.03557e-05
1.03558e-05
1.03559e-05
1.03559e-05
1.0356e-05
1.0365e-05
1.03658e-05
1.03667e-05
1.03676e-05
1.03685e-05
1.03694e-05
1.03703e-05
1.03712e-05
1.03721e-05
1.03729e-05
1.03738e-05
1.03747e-05
1.03755e-05
1.03763e-05
1.03771e-05
1.03778e-05
1.03785e-05
1.03792e-05
1.03798e-05
1.03803e-05
1.03808e-05
1.03812e-05
1.03816e-05
1.03819e-05
1.03821e-05
1.03823e-05
1.03824e-05
1.03824e-05
1.03823e-05
1.03822e-05
1.03821e-05
1.03818e-05
1.03815e-05
1.03812e-05
1.03808e-05
1.03803e-05
1.03798e-05
1.03793e-05
1.03787e-05
1.0378e-05
1.03774e-05
1.03767e-05
1.03759e-05
1.03752e-05
1.03744e-05
1.03737e-05
1.03729e-05
1.03721e-05
1.03714e-05
1.03706e-05
1.03699e-05
1.03692e-05
1.03685e-05
1.03678e-05
1.03671e-05
1.03665e-05
1.03659e-05
1.03653e-05
1.03647e-05
1.03642e-05
1.03638e-05
1.03633e-05
1.03629e-05
1.03626e-05
1.03622e-05
1.03619e-05
1.03617e-05
1.03615e-05
1.03613e-05
1.03611e-05
1.0361e-05
1.03609e-05
1.03608e-05
1.03608e-05
1.03608e-05
1.03608e-05
1.03608e-05
1.03609e-05
1.03609e-05
1.0361e-05
1.03611e-05
1.03612e-05
1.03613e-05
1.03615e-05
1.03616e-05
1.03617e-05
1.03619e-05
1.0362e-05
1.03622e-05
1.03624e-05
1.03625e-05
1.03627e-05
1.03629e-05
1.03631e-05
1.03633e-05
1.03635e-05
1.03637e-05
1.03639e-05
1.03641e-05
1.03643e-05
1.03645e-05
1.03647e-05
1.0365e-05
1.03652e-05
1.03654e-05
1.03657e-05
1.03842e-05
1.03863e-05
1.03884e-05
1.03906e-05
1.03928e-05
1.0395e-05
1.03972e-05
1.03995e-05
1.04017e-05
1.04039e-05
1.04061e-05
1.04082e-05
1.04103e-05
1.04124e-05
1.04143e-05
1.04162e-05
1.0418e-05
1.04196e-05
1.04212e-05
1.04226e-05
1.04239e-05
1.0425e-05
1.0426e-05
1.04269e-05
1.04276e-05
1.04281e-05
1.04285e-05
1.04286e-05
1.04287e-05
1.04285e-05
1.04283e-05
1.04278e-05
1.04272e-05
1.04265e-05
1.04256e-05
1.04246e-05
1.04234e-05
1.04221e-05
1.04208e-05
1.04193e-05
1.04177e-05
1.04161e-05
1.04144e-05
1.04127e-05
1.04109e-05
1.0409e-05
1.04072e-05
1.04053e-05
1.04034e-05
1.04016e-05
1.03998e-05
1.0398e-05
1.03962e-05
1.03945e-05
1.03928e-05
1.03912e-05
1.03897e-05
1.03882e-05
1.03868e-05
1.03855e-05
1.03843e-05
1.03832e-05
1.03821e-05
1.03812e-05
1.03803e-05
1.03796e-05
1.03789e-05
1.03783e-05
1.03778e-05
1.03774e-05
1.03771e-05
1.03768e-05
1.03767e-05
1.03766e-05
1.03765e-05
1.03766e-05
1.03766e-05
1.03767e-05
1.03769e-05
1.03771e-05
1.03774e-05
1.03777e-05
1.0378e-05
1.03784e-05
1.03788e-05
1.03792e-05
1.03796e-05
1.038e-05
1.03805e-05
1.03809e-05
1.03814e-05
1.03819e-05
1.03824e-05
1.0383e-05
1.03835e-05
1.0384e-05
1.03846e-05
1.03852e-05
1.03857e-05
1.03863e-05
1.03869e-05
1.03876e-05
1.03882e-05
1.03889e-05
1.03896e-05
1.03903e-05
1.0391e-05
1.04319e-05
1.04369e-05
1.04419e-05
1.04471e-05
1.04522e-05
1.04575e-05
1.04627e-05
1.04679e-05
1.04731e-05
1.04782e-05
1.04833e-05
1.04882e-05
1.0493e-05
1.04977e-05
1.05022e-05
1.05064e-05
1.05105e-05
1.05143e-05
1.05178e-05
1.0521e-05
1.05239e-05
1.05264e-05
1.05286e-05
1.05304e-05
1.05319e-05
1.0533e-05
1.05337e-05
1.0534e-05
1.05339e-05
1.05335e-05
1.05327e-05
1.05316e-05
1.05301e-05
1.05282e-05
1.05261e-05
1.05236e-05
1.05209e-05
1.05179e-05
1.05146e-05
1.05112e-05
1.05075e-05
1.05037e-05
1.04997e-05
1.04956e-05
1.04915e-05
1.04872e-05
1.04829e-05
1.04786e-05
1.04743e-05
1.04701e-05
1.04659e-05
1.04618e-05
1.04577e-05
1.04538e-05
1.045e-05
1.04464e-05
1.04429e-05
1.04396e-05
1.04364e-05
1.04335e-05
1.04307e-05
1.04282e-05
1.04259e-05
1.04238e-05
1.04219e-05
1.04203e-05
1.04188e-05
1.04176e-05
1.04166e-05
1.04158e-05
1.04152e-05
1.04148e-05
1.04145e-05
1.04145e-05
1.04145e-05
1.04147e-05
1.04151e-05
1.04155e-05
1.04161e-05
1.04168e-05
1.04176e-05
1.04185e-05
1.04194e-05
1.04204e-05
1.04215e-05
1.04226e-05
1.04238e-05
1.04251e-05
1.04263e-05
1.04276e-05
1.0429e-05
1.04303e-05
1.04317e-05
1.04332e-05
1.04346e-05
1.04361e-05
1.04377e-05
1.04393e-05
1.04409e-05
1.04425e-05
1.04442e-05
1.0446e-05
1.04478e-05
1.04497e-05
1.04516e-05
1.04536e-05
1.04556e-05
1.05092e-05
1.05197e-05
1.05306e-05
1.05417e-05
1.0553e-05
1.05645e-05
1.05761e-05
1.05878e-05
1.05995e-05
1.06111e-05
1.06226e-05
1.06341e-05
1.06453e-05
1.06563e-05
1.06669e-05
1.06773e-05
1.06872e-05
1.06968e-05
1.07058e-05
1.07143e-05
1.07221e-05
1.07294e-05
1.07359e-05
1.07418e-05
1.07468e-05
1.07511e-05
1.07546e-05
1.07573e-05
1.07592e-05
1.07603e-05
1.07605e-05
1.07599e-05
1.07587e-05
1.07567e-05
1.07538e-05
1.07503e-05
1.0746e-05
1.07411e-05
1.07356e-05
1.07295e-05
1.07228e-05
1.07157e-05
1.0708e-05
1.07e-05
1.06917e-05
1.0683e-05
1.06742e-05
1.06651e-05
1.06559e-05
1.06466e-05
1.06373e-05
1.0628e-05
1.06188e-05
1.06097e-05
1.06008e-05
1.0592e-05
1.05836e-05
1.05754e-05
1.05675e-05
1.056e-05
1.05529e-05
1.05463e-05
1.054e-05
1.05343e-05
1.0529e-05
1.05242e-05
1.05198e-05
1.0516e-05
1.05127e-05
1.05099e-05
1.05075e-05
1.05057e-05
1.05043e-05
1.05033e-05
1.05028e-05
1.05028e-05
1.0503e-05
1.05035e-05
1.05044e-05
1.05057e-05
1.05072e-05
1.0509e-05
1.0511e-05
1.05132e-05
1.05157e-05
1.05183e-05
1.0521e-05
1.05239e-05
1.05269e-05
1.05301e-05
1.05333e-05
1.05366e-05
1.054e-05
1.05435e-05
1.0547e-05
1.05507e-05
1.05544e-05
1.05582e-05
1.05621e-05
1.0566e-05
1.05701e-05
1.05743e-05
1.05786e-05
1.0583e-05
1.05875e-05
1.05922e-05
1.0597e-05
1.06019e-05
1.0607e-05
1.06123e-05
1.07127e-05
1.07355e-05
1.07587e-05
1.07823e-05
1.08063e-05
1.08304e-05
1.08546e-05
1.08787e-05
1.09027e-05
1.09265e-05
1.09498e-05
1.09726e-05
1.09949e-05
1.10164e-05
1.10372e-05
1.10571e-05
1.10761e-05
1.10941e-05
1.1111e-05
1.11268e-05
1.11413e-05
1.11545e-05
1.11663e-05
1.11767e-05
1.11856e-05
1.11929e-05
1.11987e-05
1.12029e-05
1.12054e-05
1.12063e-05
1.12058e-05
1.12039e-05
1.12005e-05
1.11957e-05
1.11894e-05
1.11817e-05
1.11727e-05
1.11625e-05
1.11511e-05
1.11386e-05
1.11251e-05
1.11107e-05
1.10954e-05
1.10794e-05
1.10628e-05
1.10457e-05
1.10281e-05
1.10101e-05
1.0992e-05
1.09737e-05
1.09553e-05
1.0937e-05
1.09189e-05
1.0901e-05
1.08834e-05
1.08662e-05
1.08496e-05
1.08335e-05
1.0818e-05
1.08033e-05
1.07893e-05
1.07762e-05
1.0764e-05
1.07528e-05
1.07426e-05
1.07333e-05
1.07251e-05
1.0718e-05
1.0712e-05
1.0707e-05
1.07031e-05
1.07002e-05
1.06983e-05
1.06974e-05
1.06975e-05
1.06981e-05
1.06996e-05
1.07019e-05
1.07049e-05
1.07085e-05
1.07128e-05
1.07176e-05
1.0723e-05
1.07288e-05
1.0735e-05
1.07415e-05
1.07484e-05
1.07556e-05
1.0763e-05
1.07707e-05
1.07785e-05
1.07866e-05
1.07948e-05
1.08032e-05
1.08118e-05
1.08205e-05
1.08295e-05
1.08386e-05
1.08479e-05
1.08574e-05
1.08671e-05
1.0877e-05
1.08873e-05
1.08977e-05
1.09085e-05
1.09196e-05
1.0931e-05
1.09428e-05
1.09549e-05
1.09674e-05
1.11314e-05
1.11758e-05
1.12207e-05
1.1266e-05
1.13115e-05
1.13568e-05
1.14017e-05
1.1446e-05
1.14893e-05
1.15315e-05
1.15724e-05
1.16118e-05
1.16496e-05
1.16856e-05
1.17198e-05
1.17521e-05
1.17823e-05
1.18104e-05
1.18363e-05
1.18599e-05
1.18813e-05
1.19003e-05
1.19169e-05
1.1931e-05
1.19426e-05
1.19516e-05
1.1958e-05
1.1962e-05
1.19633e-05
1.19624e-05
1.19592e-05
1.19537e-05
1.19459e-05
1.19359e-05
1.19238e-05
1.19095e-05
1.18934e-05
1.18753e-05
1.18554e-05
1.18339e-05
1.18108e-05
1.17862e-05
1.17604e-05
1.17334e-05
1.17053e-05
1.16764e-05
1.16466e-05
1.16163e-05
1.15855e-05
1.15543e-05
1.1523e-05
1.14917e-05
1.14605e-05
1.14296e-05
1.13993e-05
1.13696e-05
1.13408e-05
1.1313e-05
1.12863e-05
1.1261e-05
1.12371e-05
1.12147e-05
1.1194e-05
1.11751e-05
1.1158e-05
1.11428e-05
1.11295e-05
1.11181e-05
1.11088e-05
1.11016e-05
1.10963e-05
1.1093e-05
1.1092e-05
1.10926e-05
1.10944e-05
1.10981e-05
1.11034e-05
1.11101e-05
1.11182e-05
1.11276e-05
1.11382e-05
1.11498e-05
1.11623e-05
1.11757e-05
1.11898e-05
1.12045e-05
1.12198e-05
1.12355e-05
1.12517e-05
1.12682e-05
1.1285e-05
1.13021e-05
1.13194e-05
1.1337e-05
1.13548e-05
1.13729e-05
1.13913e-05
1.14099e-05
1.14288e-05
1.14481e-05
1.14677e-05
1.14877e-05
1.1508e-05
1.15289e-05
1.15502e-05
1.1572e-05
1.15944e-05
1.16174e-05
1.16409e-05
1.16652e-05
1.18942e-05
1.19666e-05
1.20382e-05
1.21088e-05
1.21782e-05
1.22461e-05
1.23119e-05
1.23754e-05
1.24363e-05
1.24942e-05
1.2549e-05
1.26005e-05
1.26486e-05
1.26931e-05
1.27341e-05
1.27715e-05
1.28053e-05
1.28355e-05
1.28624e-05
1.28859e-05
1.29061e-05
1.29232e-05
1.29373e-05
1.29485e-05
1.29566e-05
1.29616e-05
1.29628e-05
1.29616e-05
1.29579e-05
1.29512e-05
1.29422e-05
1.2931e-05
1.2917e-05
1.29002e-05
1.28811e-05
1.286e-05
1.28366e-05
1.28112e-05
1.27837e-05
1.27545e-05
1.27235e-05
1.26909e-05
1.26568e-05
1.26214e-05
1.25848e-05
1.25471e-05
1.25084e-05
1.24689e-05
1.24286e-05
1.23878e-05
1.23466e-05
1.23053e-05
1.2264e-05
1.22229e-05
1.21822e-05
1.21422e-05
1.21031e-05
1.20651e-05
1.20285e-05
1.19937e-05
1.19607e-05
1.193e-05
1.19017e-05
1.18761e-05
1.18534e-05
1.18337e-05
1.1817e-05
1.18035e-05
1.17933e-05
1.17863e-05
1.17829e-05
1.17831e-05
1.17853e-05
1.17901e-05
1.17979e-05
1.18082e-05
1.18209e-05
1.18359e-05
1.18529e-05
1.18718e-05
1.18924e-05
1.19144e-05
1.19378e-05
1.19622e-05
1.19877e-05
1.20139e-05
1.20408e-05
1.20682e-05
1.20961e-05
1.21243e-05
1.21528e-05
1.21815e-05
1.22104e-05
1.22394e-05
1.22686e-05
1.22979e-05
1.23273e-05
1.2357e-05
1.23869e-05
1.2417e-05
1.24474e-05
1.24781e-05
1.25091e-05
1.25406e-05
1.25724e-05
1.26047e-05
1.26374e-05
1.26706e-05
1.27043e-05
1.27385e-05
1.30063e-05
1.30938e-05
1.31774e-05
1.32574e-05
1.33338e-05
1.34064e-05
1.34742e-05
1.35368e-05
1.3594e-05
1.36457e-05
1.36921e-05
1.37333e-05
1.37697e-05
1.38012e-05
1.38281e-05
1.38505e-05
1.38688e-05
1.38831e-05
1.38935e-05
1.39005e-05
1.3904e-05
1.39041e-05
1.39027e-05
1.38991e-05
1.38929e-05
1.38844e-05
1.38737e-05
1.38609e-05
1.38468e-05
1.38321e-05
1.38148e-05
1.37956e-05
1.37752e-05
1.37534e-05
1.37304e-05
1.37061e-05
1.36806e-05
1.36542e-05
1.36266e-05
1.35978e-05
1.35678e-05
1.35369e-05
1.3505e-05
1.34718e-05
1.34376e-05
1.34025e-05
1.33665e-05
1.33298e-05
1.32923e-05
1.32542e-05
1.32156e-05
1.31768e-05
1.31381e-05
1.30996e-05
1.30617e-05
1.30245e-05
1.29884e-05
1.29536e-05
1.29203e-05
1.28888e-05
1.28593e-05
1.28322e-05
1.28077e-05
1.27862e-05
1.27676e-05
1.27522e-05
1.27402e-05
1.27317e-05
1.27272e-05
1.27272e-05
1.27303e-05
1.27369e-05
1.27474e-05
1.2761e-05
1.27776e-05
1.27971e-05
1.28192e-05
1.28435e-05
1.28698e-05
1.28978e-05
1.29272e-05
1.29578e-05
1.29893e-05
1.30216e-05
1.30546e-05
1.30879e-05
1.31215e-05
1.31553e-05
1.3189e-05
1.32224e-05
1.32553e-05
1.32876e-05
1.33192e-05
1.33503e-05
1.33807e-05
1.34105e-05
1.34397e-05
1.34682e-05
1.34961e-05
1.35234e-05
1.35501e-05
1.35763e-05
1.3602e-05
1.36271e-05
1.36518e-05
1.36761e-05
1.36999e-05
1.37232e-05
1.37461e-05
1.37686e-05
1.41166e-05
1.41845e-05
1.42439e-05
1.42954e-05
1.43391e-05
1.43756e-05
1.44053e-05
1.44289e-05
1.44471e-05
1.44605e-05
1.44696e-05
1.44749e-05
1.4476e-05
1.44749e-05
1.44715e-05
1.44653e-05
1.44566e-05
1.44458e-05
1.44331e-05
1.4419e-05
1.44034e-05
1.43866e-05
1.43689e-05
1.43509e-05
1.4332e-05
1.43133e-05
1.42938e-05
1.42725e-05
1.42509e-05
1.42307e-05
1.42109e-05
1.41894e-05
1.4167e-05
1.41449e-05
1.41226e-05
1.40997e-05
1.40773e-05
1.40552e-05
1.40328e-05
1.40102e-05
1.39883e-05
1.39668e-05
1.39452e-05
1.39235e-05
1.39023e-05
1.38817e-05
1.3861e-05
1.38403e-05
1.38197e-05
1.37991e-05
1.37789e-05
1.37589e-05
1.3739e-05
1.37193e-05
1.36998e-05
1.36807e-05
1.36621e-05
1.36443e-05
1.36274e-05
1.3612e-05
1.35981e-05
1.3586e-05
1.35762e-05
1.35689e-05
1.35643e-05
1.35631e-05
1.35643e-05
1.35683e-05
1.3575e-05
1.35837e-05
1.35955e-05
1.36107e-05
1.36268e-05
1.36445e-05
1.36643e-05
1.36857e-05
1.37081e-05
1.37311e-05
1.37545e-05
1.37779e-05
1.38014e-05
1.38246e-05
1.38473e-05
1.38694e-05
1.38908e-05
1.39111e-05
1.39305e-05
1.3949e-05
1.39664e-05
1.39828e-05
1.39984e-05
1.40131e-05
1.40272e-05
1.40406e-05
1.40533e-05
1.40655e-05
1.40771e-05
1.40883e-05
1.4099e-05
1.41093e-05
1.41193e-05
1.41288e-05
1.4138e-05
1.41469e-05
1.41554e-05
1.41635e-05
1.41714e-05
1.41789e-05
1.41862e-05
1.41932e-05
1.41999e-05
1.48424e-05
1.48529e-05
1.48581e-05
1.48583e-05
1.48562e-05
1.4851e-05
1.48426e-05
1.48315e-05
1.48184e-05
1.48035e-05
1.4787e-05
1.47692e-05
1.47504e-05
1.4731e-05
1.47111e-05
1.46905e-05
1.46698e-05
1.46483e-05
1.46279e-05
1.46055e-05
1.45809e-05
1.45581e-05
1.45354e-05
1.45119e-05
1.44893e-05
1.4468e-05
1.44446e-05
1.44199e-05
1.43959e-05
1.43746e-05
1.43526e-05
1.43295e-05
1.43067e-05
1.4284e-05
1.42613e-05
1.42394e-05
1.42176e-05
1.41953e-05
1.4174e-05
1.4154e-05
1.41341e-05
1.41144e-05
1.40957e-05
1.40776e-05
1.406e-05
1.40432e-05
1.40273e-05
1.40119e-05
1.39972e-05
1.39833e-05
1.39703e-05
1.39583e-05
1.39477e-05
1.39385e-05
1.39308e-05
1.39245e-05
1.39197e-05
1.39165e-05
1.39148e-05
1.39147e-05
1.39158e-05
1.39186e-05
1.3923e-05
1.39292e-05
1.39372e-05
1.3947e-05
1.39581e-05
1.39716e-05
1.39856e-05
1.40008e-05
1.40181e-05
1.40363e-05
1.40542e-05
1.40724e-05
1.40906e-05
1.41083e-05
1.41252e-05
1.41413e-05
1.41568e-05
1.41713e-05
1.41847e-05
1.41971e-05
1.4209e-05
1.422e-05
1.423e-05
1.42393e-05
1.4248e-05
1.42558e-05
1.4263e-05
1.42696e-05
1.42757e-05
1.42813e-05
1.42864e-05
1.4291e-05
1.42952e-05
1.4299e-05
1.43024e-05
1.43055e-05
1.43083e-05
1.43108e-05
1.4313e-05
1.4315e-05
1.43168e-05
1.43184e-05
1.43199e-05
1.43212e-05
1.43224e-05
1.43235e-05
1.43245e-05
1.43255e-05
1.43263e-05
1.43271e-05
1.43279e-05
1.51145e-05
1.50981e-05
1.50801e-05
1.50609e-05
1.50412e-05
1.50209e-05
1.49997e-05
1.4979e-05
1.49574e-05
1.49321e-05
1.49079e-05
1.48839e-05
1.48588e-05
1.48334e-05
1.48078e-05
1.47824e-05
1.47568e-05
1.47312e-05
1.47062e-05
1.46807e-05
1.46546e-05
1.4629e-05
1.46036e-05
1.45781e-05
1.45534e-05
1.45293e-05
1.45043e-05
1.44786e-05
1.44544e-05
1.44316e-05
1.44083e-05
1.43847e-05
1.43615e-05
1.43387e-05
1.43167e-05
1.42949e-05
1.42725e-05
1.42514e-05
1.42321e-05
1.42126e-05
1.41933e-05
1.41764e-05
1.416e-05
1.41432e-05
1.41278e-05
1.41146e-05
1.41013e-05
1.40883e-05
1.40762e-05
1.4065e-05
1.40548e-05
1.40461e-05
1.40385e-05
1.40322e-05
1.40273e-05
1.4024e-05
1.40226e-05
1.40229e-05
1.4024e-05
1.40276e-05
1.40333e-05
1.40407e-05
1.40497e-05
1.40605e-05
1.40727e-05
1.40862e-05
1.41009e-05
1.41167e-05
1.41326e-05
1.41493e-05
1.41661e-05
1.41827e-05
1.42e-05
1.42167e-05
1.42321e-05
1.42471e-05
1.42611e-05
1.42742e-05
1.4286e-05
1.42968e-05
1.43067e-05
1.4316e-05
1.43239e-05
1.4331e-05
1.43376e-05
1.43435e-05
1.43483e-05
1.43527e-05
1.43567e-05
1.43601e-05
1.43627e-05
1.43648e-05
1.43666e-05
1.43681e-05
1.43694e-05
1.43703e-05
1.4371e-05
1.43715e-05
1.43719e-05
1.43721e-05
1.43722e-05
1.43723e-05
1.43723e-05
1.43723e-05
1.43723e-05
1.43721e-05
1.43719e-05
1.43717e-05
1.43714e-05
1.4371e-05
1.43707e-05
1.43703e-05
1.43699e-05
1.52685e-05
1.52475e-05
1.52241e-05
1.5198e-05
1.51727e-05
1.51474e-05
1.51217e-05
1.50957e-05
1.50696e-05
1.50436e-05
1.50174e-05
1.49904e-05
1.49636e-05
1.4937e-05
1.49102e-05
1.48833e-05
1.48564e-05
1.48298e-05
1.48033e-05
1.4777e-05
1.47512e-05
1.47252e-05
1.46991e-05
1.46733e-05
1.46475e-05
1.46215e-05
1.45965e-05
1.45718e-05
1.45464e-05
1.45205e-05
1.44962e-05
1.44729e-05
1.44491e-05
1.44254e-05
1.4402e-05
1.4379e-05
1.43573e-05
1.43354e-05
1.43128e-05
1.42921e-05
1.4273e-05
1.42533e-05
1.42344e-05
1.4218e-05
1.42016e-05
1.41848e-05
1.41703e-05
1.41571e-05
1.41444e-05
1.41306e-05
1.41184e-05
1.41081e-05
1.40989e-05
1.40911e-05
1.40849e-05
1.40804e-05
1.40775e-05
1.40768e-05
1.40773e-05
1.40792e-05
1.40825e-05
1.40872e-05
1.40937e-05
1.41016e-05
1.41109e-05
1.41215e-05
1.41333e-05
1.41461e-05
1.41601e-05
1.41746e-05
1.41894e-05
1.42047e-05
1.422e-05
1.42357e-05
1.42518e-05
1.42658e-05
1.42794e-05
1.4293e-05
1.4305e-05
1.43159e-05
1.4327e-05
1.43375e-05
1.43463e-05
1.43538e-05
1.43615e-05
1.43687e-05
1.43744e-05
1.43789e-05
1.43838e-05
1.43881e-05
1.43915e-05
1.43941e-05
1.43965e-05
1.43985e-05
1.44002e-05
1.44015e-05
1.44023e-05
1.44029e-05
1.44031e-05
1.44031e-05
1.44029e-05
1.44026e-05
1.44022e-05
1.44016e-05
1.44009e-05
1.44001e-05
1.43993e-05
1.43985e-05
1.43975e-05
1.43965e-05
1.43955e-05
1.43945e-05
1.43934e-05
1.43924e-05
1.43914e-05
1.53295e-05
1.53036e-05
1.5277e-05
1.52498e-05
1.52228e-05
1.5196e-05
1.5169e-05
1.5142e-05
1.51151e-05
1.50882e-05
1.50612e-05
1.50339e-05
1.50067e-05
1.49795e-05
1.49523e-05
1.49249e-05
1.48977e-05
1.48706e-05
1.48437e-05
1.48171e-05
1.47907e-05
1.47643e-05
1.47381e-05
1.47121e-05
1.4686e-05
1.46598e-05
1.46346e-05
1.46095e-05
1.45836e-05
1.45576e-05
1.45337e-05
1.45101e-05
1.44862e-05
1.44626e-05
1.4439e-05
1.44164e-05
1.43951e-05
1.43734e-05
1.43509e-05
1.43313e-05
1.43126e-05
1.4293e-05
1.4275e-05
1.42589e-05
1.42423e-05
1.42259e-05
1.42115e-05
1.41981e-05
1.41858e-05
1.41718e-05
1.41596e-05
1.4149e-05
1.41397e-05
1.41321e-05
1.41261e-05
1.41216e-05
1.41186e-05
1.41176e-05
1.41179e-05
1.41194e-05
1.41224e-05
1.4127e-05
1.4133e-05
1.41406e-05
1.41495e-05
1.41596e-05
1.41707e-05
1.41827e-05
1.41952e-05
1.4208e-05
1.4221e-05
1.42345e-05
1.4248e-05
1.42618e-05
1.42762e-05
1.42885e-05
1.43002e-05
1.43122e-05
1.43233e-05
1.43333e-05
1.43439e-05
1.43541e-05
1.43627e-05
1.43701e-05
1.43774e-05
1.43856e-05
1.4392e-05
1.43975e-05
1.44016e-05
1.44062e-05
1.44104e-05
1.44137e-05
1.44164e-05
1.44182e-05
1.44194e-05
1.44205e-05
1.44217e-05
1.44223e-05
1.44223e-05
1.44221e-05
1.44218e-05
1.44212e-05
1.44205e-05
1.44198e-05
1.44189e-05
1.4418e-05
1.44171e-05
1.44161e-05
1.4415e-05
1.4414e-05
1.44129e-05
1.44118e-05
1.44108e-05
1.44098e-05
1.44088e-05
1.4408e-05
1.55577e-05
1.55325e-05
1.55063e-05
1.54795e-05
1.5453e-05
1.54265e-05
1.54e-05
1.53733e-05
1.53466e-05
1.53194e-05
1.5292e-05
1.52646e-05
1.52373e-05
1.521e-05
1.51827e-05
1.51554e-05
1.51279e-05
1.51003e-05
1.50726e-05
1.50451e-05
1.50176e-05
1.499e-05
1.49624e-05
1.4935e-05
1.49077e-05
1.48806e-05
1.48538e-05
1.48274e-05
1.4801e-05
1.47749e-05
1.4749e-05
1.47228e-05
1.46968e-05
1.46717e-05
1.46465e-05
1.46205e-05
1.45948e-05
1.45713e-05
1.45478e-05
1.45241e-05
1.45008e-05
1.44772e-05
1.44553e-05
1.44345e-05
1.44128e-05
1.43912e-05
1.43724e-05
1.43537e-05
1.43346e-05
1.43177e-05
1.43021e-05
1.42853e-05
1.42694e-05
1.4255e-05
1.42414e-05
1.42291e-05
1.42156e-05
1.42034e-05
1.41926e-05
1.41834e-05
1.4176e-05
1.417e-05
1.41654e-05
1.41621e-05
1.41605e-05
1.41606e-05
1.41617e-05
1.4164e-05
1.41676e-05
1.41726e-05
1.41787e-05
1.41861e-05
1.41944e-05
1.42037e-05
1.42137e-05
1.42242e-05
1.4235e-05
1.42464e-05
1.42579e-05
1.42695e-05
1.42813e-05
1.42938e-05
1.43054e-05
1.43155e-05
1.43256e-05
1.43364e-05
1.43464e-05
1.43562e-05
1.43657e-05
1.43744e-05
1.43823e-05
1.43899e-05
1.43977e-05
1.44048e-05
1.44111e-05
1.44164e-05
1.44209e-05
1.44249e-05
1.44291e-05
1.44326e-05
1.44354e-05
1.44372e-05
1.44388e-05
1.44403e-05
1.44412e-05
1.44417e-05
1.44418e-05
1.44417e-05
1.44415e-05
1.44411e-05
1.44404e-05
1.44395e-05
1.44385e-05
1.44374e-05
1.44362e-05
1.4435e-05
1.44338e-05
1.44326e-05
1.44314e-05
1.44303e-05
1.44293e-05
1.44283e-05
1.44274e-05
1.55996e-05
1.55735e-05
1.55468e-05
1.55199e-05
1.5493e-05
1.54661e-05
1.54392e-05
1.54123e-05
1.53851e-05
1.53575e-05
1.53298e-05
1.53022e-05
1.52745e-05
1.52469e-05
1.52193e-05
1.51917e-05
1.5164e-05
1.51363e-05
1.51088e-05
1.50813e-05
1.50539e-05
1.50265e-05
1.49991e-05
1.49719e-05
1.49448e-05
1.49179e-05
1.48915e-05
1.48652e-05
1.48391e-05
1.48134e-05
1.47877e-05
1.47618e-05
1.47361e-05
1.47114e-05
1.46863e-05
1.46604e-05
1.46355e-05
1.46126e-05
1.45891e-05
1.45659e-05
1.45431e-05
1.45197e-05
1.44987e-05
1.44784e-05
1.44568e-05
1.44365e-05
1.44182e-05
1.43992e-05
1.43812e-05
1.4365e-05
1.43496e-05
1.43325e-05
1.43171e-05
1.43027e-05
1.42887e-05
1.42759e-05
1.42634e-05
1.42516e-05
1.4241e-05
1.42321e-05
1.42246e-05
1.42184e-05
1.42134e-05
1.42096e-05
1.42072e-05
1.42065e-05
1.42069e-05
1.42082e-05
1.42107e-05
1.42144e-05
1.4219e-05
1.42247e-05
1.42313e-05
1.42386e-05
1.42466e-05
1.4255e-05
1.42638e-05
1.4273e-05
1.42823e-05
1.42919e-05
1.43019e-05
1.43123e-05
1.43229e-05
1.43323e-05
1.4341e-05
1.43505e-05
1.43604e-05
1.43698e-05
1.4379e-05
1.43877e-05
1.43958e-05
1.44036e-05
1.44114e-05
1.44189e-05
1.44259e-05
1.44322e-05
1.44373e-05
1.44419e-05
1.44468e-05
1.4451e-05
1.44542e-05
1.44564e-05
1.44585e-05
1.44604e-05
1.44618e-05
1.44626e-05
1.4463e-05
1.4463e-05
1.44628e-05
1.44624e-05
1.44617e-05
1.44609e-05
1.44599e-05
1.44589e-05
1.44578e-05
1.44567e-05
1.44556e-05
1.44545e-05
1.44534e-05
1.44524e-05
1.44515e-05
1.44506e-05
1.44498e-05
1.56366e-05
1.56101e-05
1.55831e-05
1.55559e-05
1.55287e-05
1.55015e-05
1.54743e-05
1.5447e-05
1.54196e-05
1.5392e-05
1.53645e-05
1.5337e-05
1.53094e-05
1.52819e-05
1.52545e-05
1.52271e-05
1.51997e-05
1.51724e-05
1.51452e-05
1.5118e-05
1.5091e-05
1.50639e-05
1.50371e-05
1.50103e-05
1.49837e-05
1.49574e-05
1.49314e-05
1.49056e-05
1.488e-05
1.48547e-05
1.48295e-05
1.48039e-05
1.47788e-05
1.47547e-05
1.473e-05
1.47042e-05
1.46808e-05
1.46583e-05
1.46349e-05
1.46125e-05
1.45903e-05
1.45676e-05
1.45475e-05
1.45274e-05
1.45063e-05
1.44873e-05
1.44691e-05
1.445e-05
1.44333e-05
1.44176e-05
1.44023e-05
1.4385e-05
1.43696e-05
1.43553e-05
1.43413e-05
1.43281e-05
1.43161e-05
1.43048e-05
1.42945e-05
1.42856e-05
1.4278e-05
1.42716e-05
1.42662e-05
1.42618e-05
1.42586e-05
1.42568e-05
1.42563e-05
1.42567e-05
1.42579e-05
1.42602e-05
1.42633e-05
1.42672e-05
1.4272e-05
1.42773e-05
1.42833e-05
1.42897e-05
1.42964e-05
1.43035e-05
1.43108e-05
1.43185e-05
1.43267e-05
1.43352e-05
1.4344e-05
1.43529e-05
1.43608e-05
1.43686e-05
1.43777e-05
1.43872e-05
1.43961e-05
1.44047e-05
1.44129e-05
1.44206e-05
1.44285e-05
1.44364e-05
1.4444e-05
1.4451e-05
1.44567e-05
1.44617e-05
1.44669e-05
1.44719e-05
1.44757e-05
1.44786e-05
1.44812e-05
1.44836e-05
1.44854e-05
1.44867e-05
1.44875e-05
1.44879e-05
1.44879e-05
1.44878e-05
1.44874e-05
1.44869e-05
1.44861e-05
1.44852e-05
1.44842e-05
1.44832e-05
1.44822e-05
1.44812e-05
1.44802e-05
1.44793e-05
1.44784e-05
1.44776e-05
1.4477e-05
1.56691e-05
1.56423e-05
1.56153e-05
1.55882e-05
1.55611e-05
1.5534e-05
1.55069e-05
1.54798e-05
1.54526e-05
1.54254e-05
1.53982e-05
1.5371e-05
1.53439e-05
1.53168e-05
1.52898e-05
1.52628e-05
1.52359e-05
1.52091e-05
1.51824e-05
1.51558e-05
1.51293e-05
1.51029e-05
1.50767e-05
1.50507e-05
1.50247e-05
1.49991e-05
1.49737e-05
1.49485e-05
1.49235e-05
1.48989e-05
1.48743e-05
1.48491e-05
1.48251e-05
1.48017e-05
1.47774e-05
1.47524e-05
1.47303e-05
1.47081e-05
1.46851e-05
1.46639e-05
1.46421e-05
1.46206e-05
1.46011e-05
1.4581e-05
1.45614e-05
1.45435e-05
1.45252e-05
1.45071e-05
1.44907e-05
1.4475e-05
1.44601e-05
1.44428e-05
1.44272e-05
1.44128e-05
1.43988e-05
1.43858e-05
1.43741e-05
1.43632e-05
1.43531e-05
1.43441e-05
1.43362e-05
1.43294e-05
1.43236e-05
1.43186e-05
1.43146e-05
1.43117e-05
1.431e-05
1.43093e-05
1.43094e-05
1.43102e-05
1.43118e-05
1.4314e-05
1.4317e-05
1.43205e-05
1.43245e-05
1.43289e-05
1.43338e-05
1.43389e-05
1.43444e-05
1.43503e-05
1.43566e-05
1.43635e-05
1.43706e-05
1.43785e-05
1.43857e-05
1.43926e-05
1.44003e-05
1.44093e-05
1.44182e-05
1.44265e-05
1.44346e-05
1.44423e-05
1.44496e-05
1.4458e-05
1.44662e-05
1.44739e-05
1.44801e-05
1.44857e-05
1.44913e-05
1.44968e-05
1.45011e-05
1.45047e-05
1.4508e-05
1.4511e-05
1.45134e-05
1.45153e-05
1.45166e-05
1.45176e-05
1.45181e-05
1.45183e-05
1.45183e-05
1.4518e-05
1.45176e-05
1.4517e-05
1.45162e-05
1.45154e-05
1.45146e-05
1.45138e-05
1.45129e-05
1.45122e-05
1.45115e-05
1.45109e-05
1.45105e-05
1.45101e-05
1.45099e-05
1.56989e-05
1.56722e-05
1.56455e-05
1.56187e-05
1.5592e-05
1.55652e-05
1.55384e-05
1.55117e-05
1.54849e-05
1.54582e-05
1.54315e-05
1.54048e-05
1.53782e-05
1.53518e-05
1.53253e-05
1.5299e-05
1.52727e-05
1.52466e-05
1.52206e-05
1.51947e-05
1.51689e-05
1.51433e-05
1.51179e-05
1.50927e-05
1.50675e-05
1.50428e-05
1.50182e-05
1.49937e-05
1.49695e-05
1.49458e-05
1.49219e-05
1.48975e-05
1.48747e-05
1.4852e-05
1.48281e-05
1.48047e-05
1.47836e-05
1.47616e-05
1.47396e-05
1.47194e-05
1.46982e-05
1.46781e-05
1.46591e-05
1.46393e-05
1.46212e-05
1.46043e-05
1.45861e-05
1.45686e-05
1.45525e-05
1.45368e-05
1.4522e-05
1.45052e-05
1.44897e-05
1.44752e-05
1.44614e-05
1.44487e-05
1.44372e-05
1.44265e-05
1.44165e-05
1.44073e-05
1.43991e-05
1.43918e-05
1.43854e-05
1.43799e-05
1.43751e-05
1.43713e-05
1.43685e-05
1.43665e-05
1.43653e-05
1.43649e-05
1.4365e-05
1.43657e-05
1.43669e-05
1.43687e-05
1.43709e-05
1.43736e-05
1.43766e-05
1.438e-05
1.43838e-05
1.4388e-05
1.43927e-05
1.4398e-05
1.44037e-05
1.441e-05
1.44167e-05
1.4423e-05
1.44293e-05
1.44374e-05
1.4446e-05
1.4454e-05
1.44618e-05
1.44697e-05
1.44766e-05
1.44845e-05
1.44934e-05
1.45018e-05
1.45089e-05
1.45147e-05
1.45207e-05
1.45266e-05
1.45318e-05
1.45363e-05
1.45404e-05
1.45442e-05
1.45474e-05
1.455e-05
1.45521e-05
1.45537e-05
1.45549e-05
1.45557e-05
1.45562e-05
1.45563e-05
1.45562e-05
1.4556e-05
1.45556e-05
1.45551e-05
1.45546e-05
1.4554e-05
1.45535e-05
1.4553e-05
1.45527e-05
1.45524e-05
1.45522e-05
1.45522e-05
1.45524e-05
1.57272e-05
1.57009e-05
1.56745e-05
1.56482e-05
1.56218e-05
1.55956e-05
1.55693e-05
1.5543e-05
1.55168e-05
1.54907e-05
1.54646e-05
1.54386e-05
1.54127e-05
1.53869e-05
1.53612e-05
1.53356e-05
1.53102e-05
1.52849e-05
1.52597e-05
1.52347e-05
1.52098e-05
1.51851e-05
1.51606e-05
1.51363e-05
1.51121e-05
1.50883e-05
1.50648e-05
1.50411e-05
1.5018e-05
1.49953e-05
1.49721e-05
1.49487e-05
1.49273e-05
1.49053e-05
1.4882e-05
1.48606e-05
1.48403e-05
1.48185e-05
1.47982e-05
1.47787e-05
1.47582e-05
1.47395e-05
1.47208e-05
1.47022e-05
1.46851e-05
1.46691e-05
1.46512e-05
1.46341e-05
1.46184e-05
1.46027e-05
1.45876e-05
1.45719e-05
1.45567e-05
1.45424e-05
1.45289e-05
1.45165e-05
1.45051e-05
1.44945e-05
1.44844e-05
1.4475e-05
1.44665e-05
1.44588e-05
1.44518e-05
1.44457e-05
1.44402e-05
1.44356e-05
1.44317e-05
1.44286e-05
1.44262e-05
1.44244e-05
1.44232e-05
1.44225e-05
1.44223e-05
1.44225e-05
1.44231e-05
1.44241e-05
1.44255e-05
1.44274e-05