/*--------------------------------*- C++ -*----------------------------------*\
| =========                 |                                                 |
| \\      /  F ield         | OpenFOAM: The Open Source CFD Toolbox           |
|  \\    /   O peration     | Version:  v1706                                 |
|   \\  /    A nd           | Web:      www.OpenFOAM.com                      |
|    \\/     M anipulation  |                                                 |
\*---------------------------------------------------------------------------*/
FoamFile
{
    version     2.0;
    format      ascii;
    class       volScalarField;
    location    "1.7e-05";
    object      p;
}
// * * * * * * * * * * * * * * * * * * * * * * * * * * * * * * * * * * * * * //

dimensions      [1 -1 -2 0 0 0 0];


internalField   nonuniform List<scalar> 
29871
(
21.9153
21.9154
21.9155
21.9156
21.9157
21.9158
21.9158
21.9159
21.916
21.9161
21.9162
21.9163
21.9163
21.9164
21.9165
21.9165
21.9166
21.9166
21.9167
21.9167
21.9168
21.9168
21.9168
21.9168
21.9169
21.9169
21.9169
21.9169
21.9168
21.9168
21.9168
21.9168
21.9167
21.9167
21.9166
21.9166
21.9165
21.9165
21.9164
21.9164
21.9163
21.9162
21.9161
21.9161
21.916
21.9159
21.9158
21.9158
21.9157
21.9156
21.9156
21.9155
21.9154
21.9154
21.9153
21.9152
21.9152
21.9151
21.9151
21.915
21.915
21.9149
21.9149
21.9149
21.9148
21.9148
21.9148
21.9148
21.9148
21.9147
21.9147
21.9147
21.9147
21.9147
21.9147
21.9147
21.9147
21.9147
21.9147
21.9147
21.9147
21.9147
21.9147
21.9147
21.9148
21.9148
21.9148
21.9148
21.9148
21.9148
21.9148
21.9148
21.9148
21.9148
21.9149
21.9149
21.9149
21.9149
21.9149
21.9149
21.9149
21.9149
21.915
21.915
21.915
21.9222
21.9226
21.9232
21.9237
21.9242
21.9247
21.9252
21.9258
21.9263
21.9268
21.9273
21.9278
21.9283
21.9287
21.9292
21.9296
21.93
21.9303
21.9307
21.931
21.9312
21.9315
21.9317
21.9318
21.9319
21.932
21.932
21.932
21.932
21.9319
21.9318
21.9316
21.9314
21.9312
21.9309
21.9306
21.9303
21.93
21.9296
21.9292
21.9288
21.9284
21.9279
21.9275
21.927
21.9266
21.9261
21.9257
21.9252
21.9248
21.9243
21.9239
21.9235
21.9231
21.9227
21.9224
21.922
21.9217
21.9214
21.9211
21.9208
21.9206
21.9203
21.9201
21.9199
21.9198
21.9196
21.9195
21.9194
21.9193
21.9192
21.9192
21.9191
21.9191
21.9191
21.9191
21.9191
21.9191
21.9191
21.9192
21.9192
21.9193
21.9193
21.9194
21.9194
21.9195
21.9196
21.9196
21.9197
21.9198
21.9198
21.9199
21.92
21.9201
21.9202
21.9203
21.9204
21.9204
21.9205
21.9206
21.9207
21.9208
21.9209
21.921
21.9212
21.9381
21.9397
21.9412
21.9429
21.9445
21.9461
21.9478
21.9495
21.9511
21.9528
21.9544
21.956
21.9576
21.9591
21.9605
21.9619
21.9632
21.9645
21.9656
21.9667
21.9676
21.9685
21.9692
21.9698
21.9703
21.9707
21.971
21.9711
21.9711
21.971
21.9708
21.9704
21.97
21.9694
21.9687
21.9679
21.967
21.9661
21.965
21.9639
21.9627
21.9615
21.9602
21.9588
21.9575
21.9561
21.9547
21.9532
21.9518
21.9504
21.949
21.9477
21.9463
21.945
21.9438
21.9425
21.9414
21.9403
21.9392
21.9382
21.9373
21.9365
21.9357
21.935
21.9343
21.9337
21.9332
21.9328
21.9324
21.9321
21.9318
21.9316
21.9314
21.9313
21.9312
21.9312
21.9312
21.9313
21.9313
21.9314
21.9316
21.9317
21.9319
21.9321
21.9323
21.9325
21.9328
21.933
21.9333
21.9335
21.9338
21.9341
21.9344
21.9347
21.935
21.9353
21.9356
21.9359
21.9362
21.9366
21.9369
21.9373
21.9376
21.938
21.9384
21.9388
21.9793
21.9835
21.9877
21.9919
21.9963
22.0007
22.0051
22.0096
22.0141
22.0185
22.0229
22.0272
22.0314
22.0355
22.0394
22.0432
22.0469
22.0503
22.0534
22.0563
22.059
22.0613
22.0634
22.0651
22.0666
22.0677
22.0684
22.0688
22.0689
22.0687
22.0681
22.0671
22.0659
22.0644
22.0625
22.0604
22.0581
22.0555
22.0526
22.0496
22.0463
22.043
22.0394
22.0358
22.0321
22.0284
22.0246
22.0208
22.017
22.0132
22.0095
22.0059
22.0023
21.9989
21.9956
21.9923
21.9893
21.9864
21.9836
21.981
21.9786
21.9763
21.9742
21.9723
21.9706
21.9691
21.9677
21.9665
21.9655
21.9647
21.964
21.9635
21.9632
21.9629
21.9629
21.9629
21.963
21.9632
21.9635
21.9638
21.9643
21.9648
21.9654
21.966
21.9667
21.9674
21.9682
21.969
21.9698
21.9707
21.9716
21.9725
21.9734
21.9743
21.9753
21.9763
21.9773
21.9783
21.9794
21.9805
21.9816
21.9828
21.984
21.9852
21.9865
21.9878
22.0699
22.0802
22.0907
22.1014
22.1124
22.1234
22.1346
22.1458
22.157
22.1682
22.1793
22.1903
22.201
22.2115
22.2217
22.2314
22.2407
22.2495
22.2578
22.2654
22.2725
22.2788
22.2844
22.2893
22.2934
22.2967
22.2992
22.3008
22.3016
22.3016
22.3009
22.2993
22.297
22.2938
22.2899
22.2854
22.2801
22.2743
22.2678
22.2609
22.2534
22.2456
22.2373
22.2287
22.2199
22.2109
22.2017
22.1924
22.183
22.1737
22.1644
22.1552
22.1462
22.1373
22.1288
22.1205
22.1125
22.105
22.0978
22.091
22.0846
22.0787
22.0733
22.0683
22.0638
22.0598
22.0562
22.0531
22.0504
22.0481
22.0463
22.0449
22.0438
22.0432
22.0429
22.043
22.0432
22.0438
22.0446
22.0456
22.0469
22.0483
22.05
22.0517
22.0537
22.0557
22.0578
22.0601
22.0624
22.0648
22.0673
22.0698
22.0724
22.075
22.0778
22.0806
22.0834
22.0863
22.0893
22.0924
22.0955
22.0988
22.1021
22.1056
22.1091
22.1128
22.1166
22.2979
22.3223
22.3472
22.3727
22.3987
22.4249
22.4515
22.4781
22.5048
22.5313
22.5575
22.5834
22.6088
22.6336
22.6576
22.6808
22.7029
22.7239
22.7436
22.7619
22.7786
22.7936
22.8069
22.8184
22.8279
22.8355
22.841
22.8446
22.8461
22.8458
22.8438
22.8396
22.8335
22.8255
22.8157
22.8043
22.7913
22.7768
22.761
22.7438
22.7256
22.7064
22.6863
22.6656
22.6443
22.6225
22.6006
22.5785
22.5564
22.5344
22.5127
22.4914
22.4704
22.45
22.4302
22.4112
22.3928
22.3753
22.3587
22.3431
22.3284
22.3148
22.3022
22.2908
22.2806
22.2714
22.2635
22.2567
22.2509
22.2463
22.2428
22.2401
22.2385
22.2378
22.2379
22.2386
22.24
22.2421
22.2448
22.2482
22.252
22.2563
22.2611
22.2663
22.2718
22.2776
22.2837
22.2901
22.2967
22.3035
22.3106
22.3178
22.3251
22.3327
22.3404
22.3484
22.3565
22.3649
22.3734
22.3822
22.3913
22.4006
22.4102
22.4201
22.4303
22.4408
22.4517
22.6661
22.7191
22.774
22.8308
22.8893
22.949
23.0098
23.0713
23.1332
23.1954
23.2575
23.3194
23.3808
23.4414
23.501
23.5593
23.616
23.6706
23.7228
23.7723
23.8188
23.8621
23.9019
23.9379
23.97
23.998
24.0218
24.0414
24.0565
24.0673
24.0732
24.0746
24.0718
24.0653
24.0542
24.0387
24.0192
23.9959
23.9689
23.9386
23.905
23.8684
23.8292
23.7876
23.7437
23.6981
23.6508
23.6024
23.5529
23.5028
23.4524
23.4018
23.3514
23.3015
23.2524
23.2044
23.1577
23.1125
23.0692
23.0278
22.9886
22.9518
22.9173
22.8853
22.8559
22.829
22.8048
22.7831
22.7641
22.7477
22.7338
22.7225
22.7138
22.7074
22.7035
22.7022
22.7025
22.7047
22.7086
22.7144
22.7218
22.7307
22.741
22.7525
22.7651
22.7788
22.7933
22.8085
22.8245
22.8411
22.8583
22.876
22.8941
22.9128
22.9319
22.9515
22.9716
22.9921
23.0131
23.0346
23.0567
23.0793
23.1026
23.1265
23.1512
23.1766
23.2029
23.23
23.258
23.287
23.686
23.8071
23.9315
24.0589
24.189
24.3214
24.4558
24.5918
24.7288
24.8662
25.0032
25.1393
25.2737
25.4058
25.535
25.6608
25.7825
25.8998
26.012
26.1186
26.2189
26.3123
26.3982
26.4759
26.5449
26.6045
26.6546
26.6947
26.7245
26.7437
26.7534
26.7529
26.7444
26.7264
26.6977
26.6595
26.6125
26.557
26.4936
26.4227
26.3448
26.2606
26.1708
26.0761
25.9773
25.8751
25.77
25.6627
25.554
25.4445
25.3348
25.2257
25.1176
25.0111
24.9065
24.8044
24.7051
24.609
24.5167
24.4284
24.3446
24.2656
24.1918
24.1234
24.0608
24.0043
23.9539
23.9097
23.8718
23.84
23.8147
23.7953
23.7812
23.773
23.7705
23.7718
23.7777
23.7879
23.8022
23.8204
23.8422
23.8674
23.8958
23.927
23.9609
23.997
24.0353
24.0755
24.1175
24.1612
24.2065
24.2532
24.3012
24.3505
24.401
24.4527
24.5057
24.56
24.6157
24.6729
24.7317
24.7921
24.8543
24.9183
24.9844
25.0525
25.1229
25.1957
25.271
25.349
25.937
26.2042
26.4802
26.7646
27.0562
27.3532
27.6533
27.9547
28.2558
28.5552
28.8517
29.144
29.431
29.7117
29.985
30.2497
30.5045
30.7481
30.9788
31.1954
31.3966
31.5814
31.7488
31.8975
32.0266
32.1359
32.225
32.294
32.3429
32.3733
32.3795
32.3637
32.3336
32.2838
32.2142
32.1259
32.0202
31.8983
31.7608
31.6082
31.442
31.2636
31.0741
30.8743
30.6653
30.4486
30.2261
29.999
29.7687
29.5361
29.3026
29.0696
28.8386
28.6111
28.3887
28.1725
27.9641
27.7644
27.5742
27.3943
27.2255
27.0681
26.9228
26.7896
26.6686
26.56
26.464
26.3809
26.3108
26.2541
26.2101
26.1785
26.1624
26.1583
26.1639
26.1807
26.2077
26.2447
26.2914
26.3473
26.4115
26.4833
26.562
26.6469
26.7376
26.8333
26.9337
27.038
27.1459
27.2568
27.3704
27.4866
27.6055
27.727
27.8513
27.9782
28.1078
28.2403
28.3757
28.5143
28.6565
28.8024
28.9524
29.1069
29.2662
29.4307
29.6008
29.7768
29.959
30.1478
30.8542
31.4133
31.9831
32.5608
33.1445
33.7333
34.326
34.9202
35.5129
36.1006
36.6799
37.2476
37.8006
38.3355
38.8495
39.3402
39.806
40.246
40.6595
41.0451
41.4013
41.7268
42.0207
42.2819
42.5078
42.6933
42.834
42.9381
43.0038
43.0243
43.0069
42.9656
42.8885
42.7663
42.607
42.4153
42.1914
41.9353
41.6505
41.3415
41.0096
40.6556
40.2829
39.8966
39.4992
39.0914
38.6741
38.2492
37.8197
37.3889
36.9593
36.5322
36.1091
35.6913
35.2805
34.8787
34.4874
34.1089
33.7458
33.4006
33.0754
32.7724
32.4934
32.2404
32.0153
31.8191
31.6514
31.5118
31.4006
31.3174
31.2644
31.2417
31.2377
31.257
31.2996
31.3636
31.4485
31.5537
31.6782
31.8205
31.9795
32.154
32.3427
32.5444
32.7575
32.9811
33.2142
33.4563
33.7071
33.9664
34.2338
34.5089
34.7909
35.0797
35.3752
35.6777
35.9878
36.3059
36.6327
36.9686
37.314
37.6697
38.0363
38.4143
38.8045
39.2077
39.6245
40.0559
40.5028
40.966
40.5743
41.662
42.7718
43.9091
45.0821
46.2796
47.4763
48.6547
49.8037
50.9146
51.9809
52.9972
53.9592
54.8631
55.7056
56.4845
57.2003
57.8477
58.4212
58.9237
59.3557
59.7155
60.0184
60.2598
60.4318
60.5491
60.6106
60.6024
60.5467
60.4724
60.3315
60.1339
59.8953
59.6198
59.3085
58.9525
58.5575
58.1377
57.688
57.1967
56.6697
56.1189
55.5427
54.9316
54.288
53.6225
52.942
52.2496
51.5451
50.8288
50.107
49.3874
48.6776
47.9835
47.3094
46.6596
46.0389
45.4495
44.8914
44.366
43.8756
43.4225
43.0085
42.6346
42.3006
42.007
41.7573
41.5564
41.4062
41.3108
41.2704
41.2832
41.3519
41.4628
41.6183
41.8196
42.0648
42.3506
42.6742
43.0332
43.4249
43.8466
44.296
44.7722
45.2742
45.7999
46.3468
46.9124
47.4927
48.0808
48.6721
49.2656
49.8618
50.4606
51.0613
51.6627
52.2635
52.8633
53.4619
54.0599
54.6577
55.2558
55.8546
56.4543
57.0553
57.6578
58.2618
58.8672
59.4737
60.0807
57.5454
59.3371
61.0558
62.6873
64.2179
65.6314
66.9232
68.0917
69.1365
70.0662
70.8882
71.6063
72.2179
72.7374
73.1709
73.5119
73.7645
73.9377
74.0372
74.098
74.1086
74.06
73.97
73.8482
73.6884
73.5307
73.3558
73.1031
72.8002
72.5535
72.3372
72.0591
71.7203
71.3776
71.0241
70.6424
70.2681
69.907
69.5154
69.0946
68.6883
68.2952
67.885
67.4565
67.0375
66.6317
66.2173
65.7874
65.3406
64.8815
64.4194
63.9516
63.4701
62.9693
62.4488
61.9146
61.3716
60.8234
60.2807
59.7574
59.2627
58.8046
58.3932
58.0363
57.7374
57.5082
57.3531
57.2724
57.2516
57.2524
57.3339
57.5092
57.7168
57.9583
58.2548
58.6072
59.0053
59.4418
59.9106
60.4052
60.9236
61.4605
62.0076
62.561
63.1136
63.6566
64.1882
64.7068
65.2094
65.6961
66.1726
66.6421
67.1039
67.5565
67.9992
68.4326
68.8581
69.2769
69.6899
70.097
70.4976
70.891
71.2763
71.6535
72.0223
72.3825
72.734
73.0763
73.4091
73.7324
74.0458
77.9202
79.0148
79.9495
80.7267
81.366
81.8623
82.2184
82.4635
82.6496
82.7769
82.8408
82.85
82.8169
82.7493
82.6522
82.5274
82.3725
82.1927
82.0632
81.8615
81.5424
81.2724
80.9945
80.6597
80.3824
80.1799
79.8953
79.4891
79.0666
78.7845
78.4853
78.118
77.7381
77.3504
76.9536
76.605
76.2547
75.8439
75.4252
75.066
74.7021
74.3068
73.9202
73.5572
73.1916
72.818
72.4614
72.1152
71.7818
71.47
71.1641
70.8698
70.6024
70.3671
70.1656
69.9953
69.8526
69.738
69.6458
69.5703
69.505
69.4545
69.4223
69.412
69.4311
69.475
69.5433
69.6801
69.8268
69.9952
70.2438
70.5502
70.8644
71.205
71.5687
71.9362
72.299
72.6602
73.0226
73.3799
73.7147
74.0333
74.3558
74.6693
74.9656
75.2595
75.5481
75.8229
76.0882
76.348
76.6007
76.8433
77.0733
77.291
77.4973
77.6923
77.8757
78.0473
78.2066
78.3538
78.4899
78.6169
78.7364
78.8494
78.9566
79.0582
79.1549
79.2468
79.3344
79.4179
79.4975
79.5737
79.6467
89.2725
89.4102
89.4723
89.4742
89.4207
89.3159
89.1956
89.1224
88.9501
88.6138
88.3028
88.0042
87.6484
87.256
86.8451
86.4334
86.0114
85.5805
85.1683
84.7389
84.2798
83.8269
83.3694
82.8928
82.468
82.0861
81.665
81.1847
80.7611
80.4051
80.0326
79.6374
79.2385
78.8545
78.5179
78.1833
77.7973
77.4476
77.1744
76.8742
76.5454
76.3118
76.0973
75.8346
75.5928
75.4301
75.2571
75.0718
74.8989
74.7165
74.5444
74.4092
74.2872
74.1673
74.0532
73.9541
73.8836
73.8442
73.8363
73.8863
73.9845
74.1171
74.2842
74.4932
74.7433
75.0153
75.3133
75.6421
75.9552
76.276
76.5735
76.8533
77.1798
77.5167
77.8129
78.103
78.3919
78.6701
78.9057
79.1133
79.315
79.5255
79.693
79.8359
79.9847
80.1267
80.2311
80.3329
80.4376
80.5335
80.6087
80.6684
80.7253
80.7831
80.8382
80.8895
80.9373
80.9827
81.0267
81.0709
81.1155
81.1601
81.204
81.2466
81.2872
81.3254
81.3611
81.3942
81.4246
81.4524
81.4777
81.5009
81.522
94.656
94.5568
94.326
93.9324
93.521
93.1049
92.6631
92.1983
91.7308
91.269
90.7853
90.2671
89.7476
89.2419
88.7362
88.2255
87.7202
87.2289
86.7387
86.2589
85.7953
85.3211
84.8417
84.373
83.8913
83.3969
82.9639
82.5565
82.1097
81.618
81.2027
80.8371
80.4514
80.056
79.6528
79.2716
78.9497
78.6144
78.2183
77.9067
77.6566
77.3515
77.0473
76.8528
76.6483
76.381
76.1864
76.0734
75.9701
75.8012
75.6347
75.5228
75.4476
75.3918
75.3635
75.3714
75.4137
75.4895
75.5905
75.7121
75.852
76.0166
76.2063
76.4124
76.6354
76.8796
77.1413
77.4261
77.7444
78.073
78.3983
78.7269
79.0414
79.38
79.734
79.9918
80.2397
80.5117
80.7138
80.8653
81.0434
81.232
81.3616
81.4498
81.5579
81.6841
81.7628
81.8009
81.8677
81.9452
81.9928
82.026
82.0658
82.1113
82.1587
82.1922
82.216
82.2364
82.2549
82.2719
82.2871
82.2988
82.3055
82.3069
82.3046
82.3009
82.2964
82.2906
82.2813
82.2684
82.2544
82.2395
82.2237
82.2073
82.1903
96.6294
96.1496
95.6396
95.0937
94.5478
94.0092
93.4697
92.9322
92.4074
91.8848
91.3439
90.7899
90.2398
89.6965
89.1555
88.6159
88.0886
87.5753
87.0682
86.5767
86.0928
85.6013
85.1155
84.6396
84.1454
83.6483
83.2148
82.7979
82.3361
81.8399
81.4389
81.0699
80.6805
80.2907
79.8812
79.5093
79.2049
78.8669
78.4655
78.1916
77.9535
77.648
77.3913
77.2235
77.0185
76.7768
76.6119
76.5135
76.4395
76.2874
76.1465
76.0546
75.9875
75.9511
75.9531
75.9915
76.0613
76.1625
76.2898
76.4419
76.6224
76.8321
77.0694
77.3325
77.6196
77.9239
78.2403
78.5717
78.9068
79.2233
79.5365
79.8514
80.1459
80.4496
80.784
81.0105
81.2049
81.4275
81.6101
81.7233
81.868
82.0402
82.1563
82.2057
82.2688
82.396
82.4867
82.5336
82.5471
82.5995
82.662
82.7
82.7249
82.7282
82.7125
82.7185
82.7346
82.7416
82.7375
82.7275
82.7143
82.6979
82.6837
82.6748
82.6662
82.6567
82.6467
82.6359
82.6242
82.6114
82.5978
82.5834
82.5682
82.5526
82.5366
82.5206
101.041
100.567
100.053
99.5025
98.9452
98.3887
97.8343
97.2896
96.7421
96.1726
95.5892
95.0067
94.4275
93.8516
93.2889
92.7424
92.1931
91.6302
91.063
90.5005
89.9436
89.3889
88.8392
88.3047
87.7802
87.2617
86.7559
86.2552
85.7555
85.2699
84.7911
84.2918
83.8008
83.3722
82.9512
82.4737
81.9871
81.61
81.2388
80.8532
80.4735
80.0568
79.712
79.4258
79.0774
78.7038
78.4681
78.2267
77.9293
77.7179
77.5708
77.3645
77.1514
77.0032
76.9082
76.8481
76.7244
76.6094
76.5271
76.4735
76.4601
76.4865
76.5475
76.6389
76.7603
76.9105
77.0849
77.2851
77.51
77.7573
78.0252
78.3105
78.6094
78.9208
79.2415
79.5571
79.8643
80.1794
80.4826
80.7489
81.0113
81.3144
81.5742
81.7307
81.8853
82.0682
82.2136
82.3406
82.4728
82.5831
82.6537
82.7162
82.8037
82.8846
82.947
82.9869
83.0041
83.028
83.0722
83.1095
83.1301
83.1284
83.129
83.1398
83.1454
83.1426
83.1341
83.1236
83.1147
83.1055
83.0933
83.0781
83.0612
83.0434
83.0246
83.0049
82.9843
82.9634
82.9424
82.9215
82.9008
82.8804
82.8603
101.693
101.142
100.569
99.978
99.3823
98.7867
98.2
97.6267
97.0502
96.4591
95.8611
95.2638
94.6677
94.0776
93.5019
92.9324
92.3572
91.7793
91.205
90.6368
90.0736
89.5138
88.9644
88.4288
87.8983
87.3752
86.866
86.3631
85.8657
85.3858
84.9112
84.4145
83.9353
83.5206
83.0998
82.6056
82.1509
81.799
81.4223
81.0486
80.6793
80.2644
79.9566
79.6806
79.3242
79.0094
78.7949
78.5307
78.271
78.1019
77.9687
77.7577
77.572
77.4361
77.3291
77.2548
77.1777
77.0977
77.0354
77.0039
77.0105
77.0532
77.1277
77.2309
77.3613
77.5203
77.7038
77.9102
78.1384
78.3858
78.6501
78.9288
79.2189
79.5179
79.8201
80.1188
80.4147
80.7055
80.9736
81.2207
81.4615
81.7161
81.9891
82.1744
82.2938
82.4389
82.5979
82.7351
82.855
82.9586
83.0402
83.1097
83.1855
83.2631
83.3309
83.3832
83.4072
83.4291
83.4788
83.5205
83.539
83.5323
83.5289
83.5355
83.5387
83.5338
83.5226
83.5076
83.4907
83.4712
83.4504
83.4308
83.4125
83.394
83.3747
83.3545
83.3339
83.313
83.2918
83.2705
83.2489
83.2272
83.2055
102.027
101.444
100.847
100.238
99.6246
99.0122
98.4098
97.8123
97.2084
96.5997
95.9911
95.3839
94.7794
94.1847
93.6003
93.017
92.433
91.8534
91.2808
90.7148
90.1538
89.5994
89.0582
88.5268
87.9986
87.4809
86.9784
86.4815
85.9912
85.522
85.057
84.5649
84.1057
83.711
83.2873
82.7818
82.3847
82.0452
81.6575
81.3062
80.9482
80.5562
80.2811
80.0019
79.6607
79.4093
79.1897
78.9038
78.6893
78.5612
78.4436
78.2379
78.0634
77.9368
77.8272
77.7398
77.6812
77.6355
77.6019
77.5923
77.6152
77.6712
77.7569
77.8697
78.0079
78.1705
78.3577
78.565
78.7908
79.0336
79.2908
79.5597
79.837
80.1192
80.4025
80.684
80.9611
81.2261
81.4733
81.7088
81.9355
82.1539
82.3925
82.617
82.7541
82.8542
82.9951
83.1474
83.2766
83.3824
83.4656
83.5329
83.6048
83.6869
83.7633
83.8231
83.8495
83.8646
83.9091
83.956
83.981
83.978
83.9716
83.9723
83.9712
83.9638
83.9506
83.9339
83.9149
83.896
83.8768
83.8564
83.8345
83.8112
83.7872
83.7626
83.7376
83.7123
83.6866
83.6606
83.6343
83.6079
83.5813
102.201
101.587
100.968
100.343
99.7168
99.095
98.4808
97.8674
97.2518
96.6375
96.026
95.4174
94.8151
94.2229
93.6367
93.0521
92.4714
91.8979
91.3324
90.7738
90.2213
89.6786
89.149
88.626
88.1071
87.6017
87.112
86.6248
86.1453
85.6931
85.24
84.7528
84.3258
83.95
83.5157
83.0273
82.6875
82.3429
81.9508
81.6336
81.2862
80.9365
80.6802
80.3797
80.0862
79.8837
79.6497
79.3849
79.1987
79.0849
78.9872
78.7936
78.6225
78.5011
78.3946
78.3068
78.258
78.2369
78.2303
78.2421
78.2796
78.3454
78.4378
78.5549
78.6956
78.859
79.044
79.2489
79.4707
79.7061
79.9535
80.2104
80.4737
80.74
81.0064
81.2709
81.5298
81.7774
82.0112
82.2342
82.4467
82.6469
82.8521
83.0854
83.2545
83.3531
83.4579
83.614
83.7614
83.8769
83.965
84.0258
84.0778
84.1675
84.2605
84.3295
84.3573
84.3702
84.412
84.4569
84.4776
84.4728
84.4665
84.4651
84.4618
84.453
84.4388
84.4207
84.4001
84.3773
84.3524
84.3261
84.2985
84.2701
84.2408
84.2108
84.1801
84.1489
84.1172
84.0853
84.0531
84.0207
83.9883
83.9557
83.9229
102.224
101.594
100.963
100.331
99.7004
99.0762
98.4571
97.8391
97.2227
96.6099
96.0012
95.3977
94.8027
94.2162
93.6345
93.0568
92.4855
91.9225
91.3679
90.8206
90.2811
89.7535
89.2375
88.7269
88.2222
87.7341
87.2607
86.7847
86.3215
85.8921
85.4483
84.9714
84.5859
84.2224
83.7725
83.3398
83.0341
82.6724
82.3041
82.0165
81.675
81.3779
81.1202
80.812
80.5805
80.4107
80.1766
79.9359
79.7639
79.6505
79.5637
79.3918
79.2356
79.1209
79.0195
78.9401
78.9011
78.8953
78.9075
78.9355
78.9841
79.0569
79.154
79.2742
79.4162
79.5791
79.7614
79.9613
80.1759
80.4038
80.6416
80.8866
81.1369
81.3895
81.6417
81.8914
82.1358
82.3709
82.5949
82.8089
83.013
83.2055
83.3915
83.5994
83.8052
83.9264
84.0165
84.1576
84.3189
84.4435
84.5389
84.6081
84.6399
84.711
84.8204
84.907
84.9514
84.9565
84.9811
85.0202
85.0443
85.047
85.043
85.0391
85.0325
85.0202
85.002
84.9788
84.9515
84.9209
84.8879
84.853
84.8168
84.78
84.7424
84.7044
84.6661
84.6277
84.5892
84.5507
84.5123
84.474
84.436
84.398
84.36
102.14
101.504
100.869
100.235
99.6061
98.983
98.3643
97.7485
97.1367
96.5296
95.9278
95.3333
94.7478
94.1698
93.5973
93.0311
92.4728
91.9233
91.3825
90.8497
90.3267
89.816
89.3158
88.8209
88.3339
87.867
87.4112
86.9473
86.5086
86.1036
85.6634
85.2113
84.8666
84.5073
84.0527
83.6929
83.3973
83.0208
82.7026
82.4243
82.0962
81.8438
81.5797
81.2954
81.1002
80.96
80.7447
80.5211
80.3587
80.2382
80.1362
80.0053
79.8781
79.772
79.6813
79.6151
79.5849
79.5876
79.6113
79.6507
79.7078
79.786
79.8862
80.0079
80.15
80.3113
80.4902
80.6852
80.8937
81.1136
81.3426
81.5779
81.8184
82.0601
82.3011
82.5399
82.7743
83.0015
83.2198
83.4295
83.6308
83.8214
84.0014
84.1879
84.4099
84.5692
84.6643
84.7915
84.9607
85.0958
85.1954
85.2727
85.3073
85.3511
85.4642
85.5655
85.629
85.6441
85.6523
85.6787
85.7014
85.708
85.7032
85.6927
85.6767
85.6542
85.6252
85.5909
85.5526
85.5114
85.4682
85.4239
85.3789
85.3338
85.2887
85.2437
85.1991
85.1548
85.111
85.0675
85.0243
84.9815
84.939
84.8966
84.8543
102.615
101.976
101.339
100.704
100.072
99.4464
98.8268
98.2122
97.6025
96.998
96.3994
95.8076
95.2244
94.6501
94.0832
93.5233
92.9714
92.4284
91.8946
91.37
90.8545
90.3501
89.8578
89.3754
88.8985
88.4325
87.9892
87.5502
87.1009
86.6949
86.3102
85.8694
85.4622
85.1481
84.785
84.354
84.0531
83.7521
83.3849
83.1146
82.8329
82.5344
82.3142
82.0565
81.7905
81.6161
81.5067
81.3217
81.1076
80.9507
80.8284
80.7189
80.6112
80.511
80.4254
80.3532
80.3001
80.2772
80.2856
80.3171
80.3651
80.4294
80.5124
80.6155
80.7386
80.8808
81.0408
81.2172
81.4082
81.6118
81.8258
82.0482
82.2765
82.509
82.7432
82.9768
83.2085
83.4372
83.6596
83.8751
84.0836
84.2854
84.4779
84.6583
84.8425
85.0629
85.2505
85.3601
85.493
85.6742
85.8251
85.9285
86.0119
86.061
86.0938
86.198
86.3059
86.3813
86.409
86.4076
86.4146
86.4235
86.4218
86.4083
86.3865
86.3582
86.324
86.2842
86.2401
86.1928
86.1434
86.0928
86.0418
85.9909
85.9404
85.8904
85.841
85.7919
85.7434
85.6954
85.6479
85.6009
85.5546
85.5089
85.4642
85.4201
102.382
101.743
101.108
100.475
99.8485
99.2281
98.6141
98.0063
97.4047
96.8096
96.2216
95.6418
95.0713
94.5096
93.9563
93.4113
92.8755
92.3493
91.8329
91.3262
90.8299
90.3453
89.8725
89.4094
88.9523
88.5099
88.0908
87.6661
87.2382
86.8681
86.4959
86.0598
85.7107
85.4125
85.0386
84.6632
84.398
84.0819
83.7533
83.5176
83.2346
82.9665
82.7714
82.5348
82.2871
82.1183
82.0213
81.8752
81.6772
81.5259
81.4086
81.2989
81.1996
81.1204
81.0586
81.0059
80.9675
80.9538
80.9685
81.0068
81.0628
81.1346
81.2233
81.3302
81.4557
81.599
81.7591
81.9344
82.1235
82.3243
82.5349
82.7531
82.977
83.2048
83.4344
83.6641
83.8924
84.1182
84.3396
84.5556
84.7658
84.9696
85.165
85.3492
85.5386
85.7592
85.943
86.0699
86.2189
86.4143
86.5779
86.6823
86.7664
86.8292
86.8726
86.9647
87.0689
87.1463
87.1752
87.1688
87.1641
87.1624
87.1534
87.1336
87.105
87.0696
87.0287
86.9832
86.9339
86.882
86.8282
86.7733
86.7182
86.6632
86.6088
86.5551
86.5025
86.4513
86.4013
86.3522
86.3038
86.2562
86.2093
86.1628
86.1162
86.0693
86.0224
85.9752
102.09
101.453
100.82
100.193
99.5717
98.9579
98.3514
97.752
97.1602
96.576
96.0001
95.4335
94.8766
94.3291
93.7909
93.2622
92.7435
92.2352
91.7371
91.2494
90.7734
90.3091
89.8562
89.4135
88.9775
88.5605
88.1634
87.7512
87.3553
87.0157
86.6473
86.2361
85.9391
85.6428
85.2654
84.9636
84.709
84.3812
84.1083
83.8929
83.6154
83.371
83.2008
82.9924
82.7628
82.5978
82.4974
82.3935
82.2248
82.0803
81.9704
81.8656
81.7701
81.7005
81.6555
81.6231
81.6031
81.6014
81.6235
81.6684
81.7319
81.8111
81.906
82.0176
82.1465
82.2922
82.4538
82.6298
82.8188
83.019
83.2286
83.4459
83.6691
83.8966
84.1264
84.3568
84.5866
84.8146
85.0393
85.2593
85.4734
85.6817
85.8821
86.0732
86.2711
86.4898
86.6675
86.8069
86.9695
87.1761
87.3439
87.4486
87.5326
87.6023
87.6612
87.7487
87.846
87.9216
87.9499
87.945
87.938
87.9324
87.9204
87.8986
87.8675
87.8288
87.7844
87.7352
87.6821
87.6263
87.5694
87.513
87.4569
87.4015
87.347
87.2936
87.2412
87.1892
87.1374
87.0859
87.0348
86.9836
86.9322
86.8802
86.828
86.7755
86.7228
86.6698
101.747
101.113
100.485
99.8637
99.2498
98.6439
98.046
97.4565
96.8755
96.3032
95.7404
95.1877
94.6452
94.1128
93.5905
93.0787
92.5776
92.0876
91.6083
91.1402
90.6846
90.2402
89.8076
89.3856
88.9716
88.5799
88.2008
87.8035
87.4471
87.1266
86.7564
86.3972
86.1317
85.824
85.4745
85.2295
84.9706
84.6552
84.4272
84.2264
83.9601
83.7346
83.588
83.411
83.1997
83.0393
82.9303
82.8435
82.7241
82.5998
82.4977
82.4001
82.3101
82.2483
82.2197
82.2089
82.2059
82.2161
82.2462
82.2976
82.3674
82.4531
82.5543
82.6715
82.805
82.9545
83.1192
83.2977
83.4887
83.6905
83.9015
84.1203
84.3458
84.5761
84.8095
85.0443
85.2791
85.5128
85.7437
85.9706
86.1923
86.4088
86.6198
86.8253
87.0352
87.2516
87.4309
87.585
87.7604
87.9759
88.1446
88.2497
88.336
88.4121
88.4849
88.573
88.6667
88.7374
88.7646
88.765
88.7594
88.7511
88.7356
88.7103
88.6762
88.636
88.5905
88.5406
88.4876
88.4329
88.377
88.3193
88.2607
88.2025
88.1446
88.0869
88.0291
87.9716
87.9147
87.8582
87.8018
87.7456
87.6893
87.6332
87.577
87.5207
87.4643
87.4077
101.365
100.735
100.112
99.4978
98.8917
98.2945
97.7063
97.1273
96.5578
95.9982
95.449
94.9104
94.3826
93.8657
93.3598
92.8649
92.3816
91.9097
91.4489
91.0004
90.5647
90.1395
89.7271
89.3257
88.9339
88.5651
88.2002
87.8266
87.5058
87.1921
86.8292
86.5347
86.275
85.9499
85.662
85.4475
85.1804
84.8925
84.6982
84.5111
84.2578
84.0465
83.9184
83.7765
83.5838
83.4293
83.318
83.2316
83.1464
83.0553
82.9706
82.885
82.8017
82.7451
82.7272
82.7333
82.748
82.7722
82.8126
82.8723
82.95
83.0437
83.1528
83.2775
83.418
83.5739
83.7443
83.9283
84.1244
84.3313
84.5476
84.7715
85.0016
85.2364
85.4748
85.7152
85.9564
86.1973
86.4363
86.6721
86.9043
87.1346
87.3601
87.5824
87.8057
88.0232
88.2119
88.382
88.5726
88.8001
88.9692
89.0747
89.1657
89.2526
89.3412
89.4343
89.5192
89.5797
89.61
89.6187
89.6168
89.608
89.5916
89.567
89.5345
89.4933
89.4447
89.391
89.3336
89.2729
89.2092
89.1442
89.0792
89.0146
88.9504
88.887
88.8248
88.7638
88.7037
88.6442
88.5853
88.5268
88.4686
88.4104
88.3522
88.2937
88.235
88.1759
88.1166
100.327
99.711
99.1038
98.506
97.918
97.34
96.7721
96.2146
95.6679
95.1322
94.6079
94.095
93.5936
93.1038
92.6256
92.1596
91.7053
91.2627
90.8333
90.4161
90.0095
89.617
89.2352
88.8649
88.5147
88.164
87.8227
87.5234
87.2083
86.8819
86.6291
86.3578
86.0405
85.8147
85.6094
85.3392
85.0824
84.9141
84.74
84.5027
84.3015
84.1846
84.0774
83.9056
83.758
83.6521
83.565
83.4917
83.4308
83.3736
83.3054
83.2318
83.18
83.1684
83.1862
83.2154
83.2528
83.304
83.3727
83.4588
83.5606
83.6777
83.8101
83.9581
84.1212
84.2986
84.4893
84.6922
84.9059
85.1294
85.3611
85.5997
85.8437
86.0918
86.3428
86.5956
86.849
87.1017
87.3525
87.6001
87.843
88.0814
88.3188
88.5555
88.7804
88.9813
89.168
89.378
89.6245
89.7958
89.9032
90.0013
90.102
90.208
90.3104
90.3907
90.4441
90.475
90.4895
90.4916
90.4829
90.4635
90.4332
90.3922
90.3422
90.2857
90.224
90.1581
90.0892
90.0191
89.9491
89.8796
89.811
89.7438
89.6784
89.6147
89.5524
89.4912
89.4311
89.3716
89.3126
89.2537
89.1947
89.1355
89.076
89.0159
88.9553
88.8941
99.8992
99.2895
98.6899
98.1009
97.5224
96.9548
96.3982
95.8527
95.3188
94.7966
94.2863
93.788
93.3018
92.8276
92.3657
91.9163
91.4788
91.0537
90.6423
90.2423
89.8537
89.48
89.1166
88.7657
88.4308
88.0988
87.7876
87.4955
87.1865
86.9125
86.6688
86.3809
86.11
85.9209
85.7112
85.4495
85.2231
85.0718
84.909
84.6944
84.5013
84.3887
84.3076
84.161
84.0216
83.9253
83.844
83.7723
83.7257
83.6967
83.6519
83.591
83.5453
83.5384
83.5645
83.6048
83.6537
83.7154
83.7936
83.8882
83.9981
84.123
84.2632
84.4188
84.5895
84.7746
84.9729
85.1836
85.4054
85.6373
85.878
86.1264
86.3811
86.6409
86.9044
87.1706
87.4382
87.7059
87.9726
88.237
88.4977
88.7542
89.0093
89.2612
89.4996
89.7178
89.9251
90.1589
90.4229
90.5906
90.7023
90.8117
90.9264
91.0459
91.1557
91.2315
91.2768
91.3058
91.3216
91.3234
91.3109
91.2848
91.2465
91.198
91.1419
91.0794
91.0117
90.9406
90.8677
90.7944
90.7217
90.65
90.5801
90.5123
90.4466
90.3829
90.3208
90.2602
90.2006
90.1417
90.0832
90.0248
89.9661
89.9071
89.8475
89.7871
89.726
89.6641
98.8557
98.2639
97.6834
97.1146
96.5574
96.0119
95.4784
94.9571
94.448
93.9514
93.4672
92.9956
92.5364
92.09
91.6563
91.2348
90.8263
90.4313
90.0473
89.676
89.3196
88.9729
88.6388
88.3189
88.0087
87.7159
87.427
87.1453
86.9031
86.6516
86.3688
86.1565
85.9711
85.7511
85.5177
85.32
85.1694
85.018
84.8365
84.652
84.5371
84.4698
84.3494
84.2198
84.1348
84.0651
83.996
83.9501
83.9411
83.9233
83.8765
83.8372
83.8351
83.8685
83.9179
83.9764
84.0478
84.1352
84.2384
84.3563
84.489
84.6368
84.8001
84.9786
85.1715
85.3779
85.5969
85.8275
86.0686
86.3191
86.5779
86.8439
87.1159
87.3925
87.6727
87.9551
88.2384
88.5211
88.8022
89.0807
89.3555
89.628
89.8948
90.1484
90.3833
90.6106
90.8717
91.144
91.3023
91.4237
91.5477
91.6764
91.8076
91.9196
91.992
92.0368
92.0665
92.0825
92.083
92.0677
92.0379
91.9957
91.9436
91.8836
91.8172
91.7462
91.6725
91.5976
91.5228
91.449
91.377
91.3072
91.24
91.1751
91.1125
91.0519
90.9928
90.9348
90.8775
90.8206
90.7637
90.7065
90.6487
90.5901
90.5307
90.4703
90.4088
97.8323
97.2603
96.7008
96.1538
95.6193
95.0974
94.5882
94.0918
93.6082
93.1376
92.6798
92.2349
91.8031
91.384
90.9776
90.5846
90.2044
89.8356
89.4806
89.1393
88.8077
88.4888
88.1846
87.8927
87.6098
87.3326
87.0816
86.8474
86.5891
86.3453
86.1613
85.9639
85.7412
85.5535
85.377
85.2094
85.0745
84.9295
84.7566
84.6356
84.574
84.4751
84.3546
84.2814
84.2284
84.1667
84.1163
84.1135
84.1236
84.0917
84.0572
84.0595
84.1006
84.1587
84.2255
84.3054
84.4014
84.5129
84.6386
84.7787
84.934
85.1049
85.2911
85.4919
85.7064
85.9338
86.1732
86.4236
86.6841
86.9535
87.2309
87.5151
87.8048
88.0989
88.396
88.6946
88.9933
89.2909
89.5865
89.8784
90.1679
90.4495
90.7185
90.9691
91.2182
91.5077
91.7718
91.9247
92.0608
92.2009
92.3445
92.4858
92.5974
92.6702
92.7182
92.7502
92.7667
92.7666
92.7501
92.7188
92.675
92.6209
92.5585
92.4901
92.4175
92.3427
92.2672
92.1921
92.1186
92.0474
91.9789
91.9132
91.8503
91.7898
91.7315
91.6749
91.6195
91.5648
91.5104
91.456
91.4011
91.3455
91.289
91.2315
91.1729
91.1131
91.0522
90.9902
97.4015
96.8374
96.2868
95.7495
95.2255
94.7147
94.2171
93.7327
93.2616
92.8038
92.359
91.9275
91.5092
91.1038
90.7114
90.3325
89.9659
89.6114
89.271
88.9431
88.6251
88.3207
88.0313
87.752
87.4788
87.2206
86.987
86.7524
86.5051
86.2995
86.1189
85.9113
85.7086
85.553
85.3859
85.2097
85.0909
84.9714
84.813
84.6886
84.6314
84.5463
84.4326
84.3694
84.3367