/*--------------------------------*- C++ -*----------------------------------*\
| =========                 |                                                 |
| \\      /  F ield         | OpenFOAM: The Open Source CFD Toolbox           |
|  \\    /   O peration     | Version:  v1706                                 |
|   \\  /    A nd           | Web:      www.OpenFOAM.com                      |
|    \\/     M anipulation  |                                                 |
\*---------------------------------------------------------------------------*/
FoamFile
{
    version     2.0;
    format      ascii;
    class       volScalarField;
    location    "1.7e-05";
    object      rho;
}
// * * * * * * * * * * * * * * * * * * * * * * * * * * * * * * * * * * * * * //

dimensions      [1 -3 0 0 0 0 0];


internalField   nonuniform List<scalar> 
29871
(
0.000511322
0.000511323
0.000511324
0.000511324
0.000511325
0.000511326
0.000511327
0.000511328
0.000511328
0.000511329
0.00051133
0.000511331
0.000511331
0.000511332
0.000511333
0.000511333
0.000511334
0.000511334
0.000511335
0.000511335
0.000511335
0.000511336
0.000511336
0.000511336
0.000511336
0.000511336
0.000511336
0.000511336
0.000511336
0.000511336
0.000511336
0.000511336
0.000511335
0.000511335
0.000511335
0.000511334
0.000511334
0.000511333
0.000511333
0.000511332
0.000511331
0.000511331
0.00051133
0.000511329
0.000511329
0.000511328
0.000511328
0.000511327
0.000511326
0.000511326
0.000511325
0.000511324
0.000511324
0.000511323
0.000511322
0.000511322
0.000511321
0.000511321
0.00051132
0.00051132
0.00051132
0.000511319
0.000511319
0.000511318
0.000511318
0.000511318
0.000511318
0.000511318
0.000511317
0.000511317
0.000511317
0.000511317
0.000511317
0.000511317
0.000511317
0.000511317
0.000511317
0.000511317
0.000511317
0.000511317
0.000511317
0.000511317
0.000511317
0.000511317
0.000511317
0.000511317
0.000511317
0.000511318
0.000511318
0.000511318
0.000511318
0.000511318
0.000511318
0.000511318
0.000511318
0.000511318
0.000511318
0.000511319
0.000511319
0.000511319
0.000511319
0.000511319
0.000511319
0.000511319
0.000511319
0.000511383
0.000511388
0.000511393
0.000511397
0.000511402
0.000511407
0.000511412
0.000511417
0.000511422
0.000511427
0.000511432
0.000511437
0.000511441
0.000511446
0.00051145
0.000511455
0.000511458
0.000511462
0.000511466
0.000511469
0.000511472
0.000511474
0.000511476
0.000511478
0.000511479
0.00051148
0.000511481
0.000511481
0.000511481
0.000511481
0.00051148
0.000511479
0.000511477
0.000511475
0.000511473
0.00051147
0.000511467
0.000511464
0.000511461
0.000511457
0.000511453
0.000511449
0.000511445
0.000511441
0.000511436
0.000511432
0.000511428
0.000511423
0.000511419
0.000511415
0.000511411
0.000511406
0.000511403
0.000511399
0.000511395
0.000511392
0.000511388
0.000511385
0.000511382
0.000511379
0.000511377
0.000511374
0.000511372
0.00051137
0.000511368
0.000511366
0.000511365
0.000511363
0.000511362
0.000511361
0.000511361
0.00051136
0.00051136
0.000511359
0.000511359
0.000511359
0.000511359
0.00051136
0.00051136
0.00051136
0.00051136
0.000511361
0.000511361
0.000511362
0.000511363
0.000511363
0.000511364
0.000511365
0.000511365
0.000511366
0.000511367
0.000511368
0.000511368
0.000511369
0.00051137
0.000511371
0.000511372
0.000511373
0.000511374
0.000511375
0.000511376
0.000511377
0.000511378
0.000511379
0.00051138
0.000511528
0.000511543
0.000511558
0.000511574
0.000511589
0.000511605
0.000511621
0.000511637
0.000511654
0.00051167
0.000511686
0.000511702
0.000511717
0.000511732
0.000511746
0.00051176
0.000511773
0.000511786
0.000511798
0.000511809
0.000511819
0.000511828
0.000511836
0.000511843
0.000511849
0.000511853
0.000511857
0.000511859
0.00051186
0.00051186
0.000511859
0.000511857
0.000511853
0.000511849
0.000511843
0.000511836
0.000511828
0.00051182
0.00051181
0.0005118
0.000511789
0.000511778
0.000511766
0.000511753
0.00051174
0.000511727
0.000511714
0.0005117
0.000511687
0.000511673
0.000511659
0.000511646
0.000511633
0.00051162
0.000511607
0.000511595
0.000511584
0.000511572
0.000511562
0.000511552
0.000511543
0.000511534
0.000511526
0.000511519
0.000511512
0.000511506
0.000511501
0.000511497
0.000511493
0.000511489
0.000511486
0.000511484
0.000511482
0.000511481
0.00051148
0.00051148
0.00051148
0.00051148
0.000511481
0.000511482
0.000511483
0.000511484
0.000511486
0.000511488
0.00051149
0.000511492
0.000511495
0.000511497
0.0005115
0.000511502
0.000511505
0.000511508
0.000511511
0.000511514
0.000511517
0.00051152
0.000511523
0.000511526
0.00051153
0.000511533
0.000511536
0.00051154
0.000511544
0.000511548
0.000511552
0.000511556
0.000511905
0.000511944
0.000511984
0.000512025
0.000512067
0.000512109
0.000512153
0.000512196
0.00051224
0.000512284
0.000512327
0.00051237
0.000512413
0.000512454
0.000512495
0.000512535
0.000512572
0.000512608
0.000512642
0.000512674
0.000512703
0.00051273
0.000512753
0.000512774
0.000512791
0.000512805
0.000512816
0.000512824
0.000512828
0.000512829
0.000512827
0.000512821
0.000512812
0.0005128
0.000512784
0.000512766
0.000512745
0.000512721
0.000512695
0.000512667
0.000512636
0.000512604
0.00051257
0.000512535
0.000512499
0.000512463
0.000512425
0.000512388
0.000512351
0.000512314
0.000512277
0.000512241
0.000512205
0.000512171
0.000512138
0.000512106
0.000512075
0.000512045
0.000512017
0.00051199
0.000511965
0.000511942
0.00051192
0.0005119
0.000511882
0.000511866
0.000511851
0.000511839
0.000511828
0.000511819
0.000511812
0.000511806
0.000511802
0.000511799
0.000511798
0.000511798
0.000511798
0.0005118
0.000511803
0.000511806
0.000511811
0.000511816
0.000511821
0.000511828
0.000511835
0.000511842
0.00051185
0.000511858
0.000511866
0.000511875
0.000511884
0.000511893
0.000511903
0.000511913
0.000511923
0.000511933
0.000511943
0.000511954
0.000511965
0.000511977
0.000511988
0.000512
0.000512013
0.000512025
0.000512039
0.000512052
0.000512731
0.00051283
0.000512932
0.000513037
0.000513144
0.000513253
0.000513363
0.000513474
0.000513586
0.000513698
0.000513809
0.000513921
0.00051403
0.000514138
0.000514242
0.000514343
0.00051444
0.000514532
0.000514619
0.000514701
0.000514777
0.000514846
0.000514909
0.000514965
0.000515014
0.000515056
0.000515089
0.000515115
0.000515131
0.000515139
0.000515141
0.000515134
0.000515119
0.000515096
0.000515066
0.000515028
0.000514984
0.000514932
0.000514875
0.000514812
0.000514744
0.000514671
0.000514593
0.000514512
0.000514427
0.00051434
0.000514251
0.000514159
0.000514067
0.000513974
0.000513881
0.000513788
0.000513697
0.000513607
0.000513519
0.000513434
0.000513352
0.000513274
0.000513199
0.000513129
0.000513063
0.000513001
0.000512945
0.000512892
0.000512845
0.000512802
0.000512764
0.00051273
0.0005127
0.000512675
0.000512654
0.000512638
0.000512625
0.000512617
0.000512613
0.000512612
0.000512614
0.000512618
0.000512625
0.000512635
0.000512647
0.000512661
0.000512677
0.000512695
0.000512714
0.000512735
0.000512756
0.000512779
0.000512802
0.000512826
0.000512852
0.000512877
0.000512904
0.000512931
0.000512959
0.000512988
0.000513017
0.000513047
0.000513077
0.000513109
0.000513141
0.000513174
0.000513208
0.000513243
0.00051328
0.000513317
0.000513356
0.000514832
0.000515066
0.000515305
0.000515551
0.000515803
0.000516061
0.000516322
0.000516587
0.000516854
0.000517121
0.000517387
0.000517651
0.000517912
0.000518168
0.00051842
0.000518665
0.000518901
0.000519129
0.000519344
0.000519547
0.000519735
0.000519908
0.000520065
0.000520203
0.000520323
0.000520423
0.000520503
0.000520564
0.000520603
0.000520622
0.000520627
0.000520608
0.000520567
0.000520506
0.000520428
0.000520331
0.000520217
0.000520087
0.000519941
0.000519781
0.000519608
0.000519424
0.00051923
0.000519028
0.000518819
0.000518604
0.000518387
0.000518166
0.000517946
0.000517726
0.000517507
0.000517291
0.000517079
0.000516872
0.000516669
0.000516473
0.000516284
0.000516102
0.000515928
0.000515763
0.000515607
0.000515462
0.000515327
0.000515204
0.000515092
0.000514992
0.000514904
0.000514828
0.000514764
0.000514711
0.000514669
0.000514637
0.000514614
0.000514603
0.000514599
0.000514604
0.000514614
0.000514632
0.000514656
0.000514687
0.000514723
0.000514765
0.000514812
0.000514864
0.000514919
0.000514978
0.000515041
0.000515107
0.000515175
0.000515246
0.000515318
0.000515393
0.00051547
0.000515549
0.00051563
0.000515713
0.000515798
0.000515885
0.000515975
0.000516067
0.000516162
0.00051626
0.000516361
0.000516464
0.000516571
0.000516682
0.000516795
0.000518151
0.000518661
0.000519194
0.00051975
0.000520325
0.000520917
0.000521522
0.000522138
0.00052276
0.000523389
0.00052402
0.000524653
0.000525286
0.000525915
0.000526539
0.000527154
0.000527756
0.000528341
0.000528903
0.000529441
0.00052995
0.000530428
0.000530874
0.000531284
0.000531656
0.000531989
0.000532281
0.000532532
0.000532741
0.000532907
0.000533026
0.00053309
0.000533112
0.000533104
0.000533044
0.000532937
0.000532788
0.000532599
0.000532371
0.000532105
0.000531804
0.00053147
0.000531106
0.000530712
0.000530293
0.000529851
0.000529389
0.00052891
0.000528418
0.000527915
0.000527404
0.000526888
0.00052637
0.000525854
0.000525343
0.000524842
0.000524352
0.000523877
0.00052342
0.000522982
0.000522566
0.000522174
0.000521807
0.000521464
0.000521148
0.000520858
0.000520593
0.000520355
0.000520143
0.000519958
0.000519797
0.000519664
0.000519558
0.000519476
0.000519421
0.000519394
0.000519387
0.000519401
0.000519432
0.000519482
0.00051955
0.000519635
0.000519735
0.000519849
0.000519975
0.000520112
0.000520259
0.000520415
0.000520578
0.000520748
0.000520924
0.000521105
0.000521292
0.000521485
0.000521683
0.000521885
0.000522093
0.000522306
0.000522523
0.000522747
0.000522975
0.00052321
0.000523451
0.000523699
0.000523955
0.000524219
0.000524492
0.000524774
0.000525065
0.000525365
0.000527638
0.000528817
0.000530032
0.000531278
0.000532554
0.000533859
0.000535195
0.000536558
0.000537944
0.000539346
0.000540758
0.000542172
0.000543581
0.000544978
0.000546357
0.00054771
0.000549034
0.000550323
0.00055157
0.000552771
0.000553917
0.000555
0.000556013
0.000556948
0.000557799
0.000558556
0.000559216
0.000559774
0.000560221
0.000560564
0.0005608
0.000560919
0.000560965
0.000560913
0.000560736
0.000560452
0.000560068
0.00055959
0.000559023
0.00055837
0.000557638
0.00055683
0.000555956
0.000555023
0.000554042
0.000553018
0.000551957
0.000550868
0.000549758
0.000548635
0.000547507
0.000546381
0.000545261
0.000544153
0.000543061
0.000541989
0.00054094
0.00053992
0.000538932
0.000537982
0.000537073
0.00053621
0.000535397
0.000534639
0.00053394
0.000533305
0.000532735
0.000532231
0.000531793
0.000531421
0.000531119
0.000530881
0.000530695
0.000530573
0.000530512
0.000530498
0.000530533
0.000530609
0.000530727
0.000530888
0.000531088
0.000531327
0.000531602
0.000531909
0.000532246
0.00053261
0.000532999
0.000533411
0.000533844
0.000534299
0.000534772
0.000535264
0.000535772
0.000536294
0.000536831
0.000537382
0.000537948
0.000538529
0.000539126
0.000539741
0.000540372
0.000541023
0.000541693
0.000542384
0.000543096
0.000543832
0.000544592
0.000545377
0.000546191
0.000547033
0.000548652
0.000551333
0.00055413
0.000557042
0.000560058
0.000563154
0.000566304
0.000569488
0.00057269
0.000575897
0.000579098
0.000582283
0.000585441
0.000588561
0.000591633
0.000594643
0.000597574
0.000600408
0.000603123
0.000605701
0.000608126
0.000610385
0.000612463
0.000614343
0.000616017
0.000617487
0.000618746
0.000619788
0.000620636
0.000621279
0.000621618
0.000621701
0.000621662
0.000621406
0.000620918
0.000620213
0.000619307
0.000618215
0.00061694
0.000615485
0.000613865
0.000612098
0.000610193
0.000608154
0.000605992
0.000603727
0.000601381
0.00059897
0.000596507
0.000594003
0.000591471
0.00058893
0.000586398
0.000583896
0.000581441
0.00057905
0.00057674
0.000574524
0.000572411
0.000570408
0.000568523
0.000566763
0.000565128
0.000563622
0.000562241
0.000560987
0.000559864
0.000558875
0.000558023
0.000557316
0.000556739
0.000556293
0.000556025
0.000555897
0.000555893
0.000556004
0.000556223
0.000556554
0.000556996
0.000557544
0.000558188
0.00055892
0.000559732
0.000560616
0.000561567
0.000562579
0.000563644
0.000564758
0.000565911
0.0005671
0.000568319
0.000569568
0.000570848
0.00057216
0.000573504
0.00057488
0.000576288
0.000577727
0.0005792
0.000580709
0.000582257
0.000583848
0.000585486
0.000587174
0.000588917
0.00059072
0.000592586
0.000594518
0.000596522
0.000598599
0.000596805
0.000602657
0.00060866
0.000614775
0.000620981
0.000627284
0.000633693
0.000640194
0.000646757
0.000653342
0.000659909
0.000666419
0.000672834
0.000679114
0.000685223
0.000691133
0.000696819
0.000702272
0.000707482
0.000712426
0.000717083
0.000721427
0.00072543
0.000729086
0.000732356
0.000735166
0.00073749
0.00073937
0.000740788
0.000741648
0.000742046
0.000742198
0.000741949
0.000741133
0.000739844
0.000738152
0.000736057
0.00073355
0.00073068
0.000727505
0.000724038
0.00072028
0.000716276
0.000712094
0.00070777
0.000703306
0.000698704
0.000693991
0.000689205
0.000684389
0.000679572
0.00067477
0.000669992
0.00066525
0.000660563
0.000655949
0.000651425
0.000647019
0.000642764
0.000638692
0.000634831
0.000631206
0.000627846
0.000624775
0.000622024
0.000619608
0.00061752
0.00061575
0.000614299
0.000613165
0.000612375
0.00061192
0.000611691
0.000611735
0.000612026
0.000612557
0.000613324
0.000614326
0.000615553
0.000616992
0.000618629
0.000620451
0.000622447
0.000624599
0.00062689
0.000629308
0.000631846
0.000634498
0.000637265
0.000640149
0.000643146
0.00064625
0.000649452
0.000652745
0.000656129
0.000659611
0.000663195
0.00066689
0.0006707
0.000674632
0.000678691
0.000682883
0.000687216
0.000691698
0.000696335
0.000701138
0.000706114
0.000711275
0.000716632
0.000722197
0.000695543
0.000707744
0.000720366
0.000733497
0.000747257
0.000761493
0.000775866
0.000790151
0.000804206
0.000817923
0.00083122
0.000844026
0.000856275
0.000867921
0.000878925
0.000889256
0.000898912
0.000907813
0.000915874
0.000923123
0.000929566
0.000935183
0.000940053
0.000944161
0.000947416
0.000950033
0.000951991
0.000953041
0.000953475
0.000953668
0.000953056
0.000951715
0.000949839
0.00094749
0.000944672
0.000941252
0.000937301
0.000933017
0.000928328
0.000923062
0.000917287
0.000911172
0.000904699
0.000897721
0.00089026
0.000882461
0.000874429
0.000866207
0.000857786
0.000849159
0.000840406
0.000831634
0.000822951
0.000814438
0.000806151
0.000798148
0.000790491
0.000783206
0.000776287
0.000769741
0.000763595
0.000757873
0.000752591
0.000747757
0.00074336
0.000739409
0.000735957
0.000733078
0.000730787
0.000729107
0.000728157
0.000727882
0.000728287
0.000729193
0.000730645
0.000732671
0.000735256
0.000738358
0.000741948
0.000745998
0.000750476
0.000755349
0.000760591
0.000766192
0.000772145
0.000778423
0.000784992
0.000791817
0.000798841
0.000805971
0.000813147
0.00082036
0.000827619
0.000834923
0.000842262
0.00084962
0.00085698
0.000864333
0.000871679
0.000879024
0.000886374
0.000893736
0.000901114
0.000908514
0.000915938
0.00092339
0.000930871
0.00093838
0.000945911
0.000953456
0.000883039
0.000904632
0.000925566
0.000945665
0.000964741
0.000982583
0.000999115
0.0010143
0.0010281
0.00104061
0.00105191
0.00106204
0.00107098
0.00107879
0.00108556
0.00109124
0.00109588
0.00109955
0.00110233
0.00110469
0.00110647
0.00110749
0.00110798
0.00110803
0.0011076
0.00110718
0.00110658
0.00110499
0.00110267
0.00110104
0.00109982
0.00109784
0.00109501
0.00109208
0.00108899
0.00108551
0.00108209
0.00107882
0.00107509
0.00107091
0.00106686
0.00106297
0.0010588
0.00105433
0.00104994
0.00104569
0.00104128
0.00103661
0.00103165
0.00102646
0.00102118
0.00101575
0.00101008
0.00100406
0.000997678
0.000991013
0.000984131
0.00097707
0.000969973
0.000963032
0.000956383
0.000950132
0.000944411
0.000939329
0.000934925
0.000931332
0.000928716
0.000927046
0.00092609
0.000925307
0.000925551
0.000926974
0.000928839
0.000931091
0.000934027
0.000937696
0.000941987
0.000946804
0.000952079
0.000957729
0.00096373
0.000970013
0.000976474
0.000983065
0.000989688
0.000996225
0.00100265
0.00100894
0.00101507
0.00102102
0.00102687
0.00103268
0.00103843
0.00104408
0.00104964
0.00105509
0.00106046
0.00106577
0.00107102
0.00107621
0.00108133
0.00108636
0.00109131
0.00109615
0.0011009
0.00110554
0.00111008
0.0011145
0.0011188
0.00112297
0.00112702
0.00111718
0.00113178
0.00114462
0.00115571
0.00116508
0.00117274
0.00117873
0.00118343
0.00118751
0.00119096
0.00119366
0.00119574
0.00119732
0.00119847
0.00119926
0.00119971
0.00119974
0.0011995
0.00119987
0.00119939
0.00119743
0.00119601
0.00119443
0.0011921
0.0011905
0.00118987
0.00118824
0.00118493
0.0011813
0.00117944
0.00117739
0.00117444
0.00117124
0.0011679
0.00116442
0.00116154
0.00115864
0.00115483
0.0011508
0.0011475
0.00114411
0.00114021
0.00113632
0.0011327
0.00112897
0.00112504
0.00112124
0.00111754
0.00111396
0.00111061
0.00110725
0.00110395
0.00110092
0.00109823
0.00109591
0.00109392
0.0010922
0.00109076
0.0010895
0.00108833
0.00108719
0.00108612
0.00108515
0.00108434
0.0010838
0.00108346
0.00108337
0.00108408
0.00108489
0.00108592
0.00108796
0.00109079
0.00109376
0.0010971
0.00110078
0.00110455
0.00110833
0.00111215
0.00111605
0.00111995
0.00112362
0.00112715
0.00113078
0.00113435
0.00113777
0.00114121
0.00114465
0.00114796
0.00115119
0.00115439
0.00115755
0.0011606
0.00116351
0.00116629
0.00116893
0.00117145
0.00117384
0.00117608
0.00117816
0.0011801
0.0011819
0.0011836
0.00118519
0.00118671
0.00118816
0.00118954
0.00119086
0.00119212
0.00119332
0.00119447
0.00119557
0.00119662
0.00119764
0.00124881
0.00125258
0.00125547
0.00125765
0.00125912
0.00125995
0.00126065
0.00126197
0.00126198
0.00126009
0.00125842
0.00125689
0.00125467
0.00125195
0.00124896
0.00124593
0.00124275
0.00123943
0.0012363
0.00123295
0.00122922
0.00122551
0.00122168
0.00121757
0.00121411
0.00121121
0.0012078
0.00120357
0.0012
0.00119727
0.00119433
0.00119106
0.00118769
0.00118448
0.00118186
0.00117926
0.00117592
0.00117299
0.001171
0.0011686
0.00116574
0.00116406
0.00116261
0.00116045
0.00115846
0.00115743
0.00115624
0.00115484
0.00115352
0.00115196
0.00115043
0.00114931
0.00114826
0.00114711
0.00114588
0.00114472
0.00114379
0.00114315
0.0011429
0.00114328
0.00114418
0.00114543
0.00114701
0.00114905
0.00115155
0.00115425
0.00115721
0.00116051
0.00116353
0.00116659
0.00116926
0.00117168
0.00117472
0.00117797
0.00118074
0.00118346
0.00118626
0.00118899
0.00119122
0.00119313
0.00119505
0.00119717
0.00119879
0.00120014
0.00120163
0.00120309
0.00120411
0.00120514
0.00120626
0.00120731
0.00120813
0.00120879
0.00120944
0.00121013
0.00121081
0.00121147
0.00121211
0.00121273
0.00121335
0.00121399
0.00121464
0.0012153
0.00121595
0.00121659
0.00121721
0.00121779
0.00121835
0.00121887
0.00121936
0.00121982
0.00122024
0.00122063
0.00122099
0.00130609
0.00130716
0.00130666
0.00130423
0.00130145
0.00129858
0.00129538
0.00129188
0.00128835
0.00128485
0.00128106
0.00127684
0.00127257
0.00126845
0.00126433
0.00126012
0.00125597
0.00125196
0.00124794
0.00124402
0.00124026
0.00123635
0.00123236
0.00122846
0.00122436
0.00122007
0.00121654
0.00121335
0.00120963
0.00120528
0.00120186
0.00119906
0.00119599
0.00119276
0.00118936
0.00118623
0.00118383
0.00118124
0.00117779
0.00117539
0.00117374
0.00117131
0.00116881
0.00116768
0.00116639
0.00116419
0.00116283
0.00116257
0.0011624
0.00116134
0.00116015
0.00115958
0.00115944
0.00115946
0.00115971
0.00116034
0.00116131
0.00116257
0.00116406
0.00116573
0.00116752
0.00116952
0.00117172
0.001174
0.00117638
0.00117893
0.00118162
0.00118453
0.00118782
0.00119119
0.00119447
0.00119772
0.00120076
0.00120411
0.00120763
0.00120993
0.00121212
0.00121466
0.00121633
0.00121735
0.00121875
0.00122038
0.00122132
0.00122177
0.00122251
0.00122357
0.00122409
0.00122414
0.00122458
0.00122523
0.00122556
0.00122575
0.00122607
0.00122652
0.00122703
0.00122739
0.00122764
0.00122788
0.00122813
0.00122839
0.00122863
0.00122884
0.00122899
0.00122908
0.00122913
0.00122916
0.00122919
0.0012292
0.00122916
0.00122909
0.001229
0.00122889
0.00122878
0.00122865
0.00122851
0.00132615
0.00132258
0.00131866
0.00131429
0.00130988
0.00130553
0.00130115
0.00129679
0.00129257
0.00128835
0.00128388
0.00127923
0.00127459
0.00127002
0.00126547
0.00126093
0.00125652
0.00125227
0.00124808
0.00124404
0.00124007
0.00123597
0.00123191
0.00122795
0.00122372
0.00121943
0.00121593
0.00121265
0.00120877
0.00120439
0.00120117
0.00119834
0.00119525
0.00119209
0.00118864
0.00118562
0.00118344
0.0011808
0.00117728
0.00117534
0.00117383
0.0011714
0.00116952
0.00116876
0.0011675
0.00116565
0.00116474
0.00116474
0.00116497
0.0011642
0.00116341
0.00116318
0.0011632
0.00116349
0.00116418
0.00116527
0.00116669
0.00116836
0.00117027
0.00117244
0.00117487
0.00117758
0.00118053
0.00118371
0.00118709
0.0011906
0.00119417
0.00119787
0.00120154
0.0012049
0.00120816
0.00121139
0.0012143
0.00121731
0.00122071
0.0012227
0.00122428
0.00122624
0.00122771
0.00122825
0.0012292
0.00123059
0.00123134
0.00123122
0.00123132
0.00123228
0.00123289
0.00123295
0.00123268
0.00123293
0.00123337
0.00123356
0.00123361
0.00123345
0.00123308
0.00123304
0.00123314
0.00123318
0.00123311
0.00123299
0.00123283
0.00123265
0.00123252
0.00123247
0.00123244
0.0012324
0.00123236
0.00123232
0.00123226
0.0012322
0.00123212
0.00123202
0.00123192
0.0012318
0.00123167
0.00123153
0.00135927
0.00135587
0.00135202
0.00134772
0.00134329
0.00133883
0.00133439
0.00133006
0.00132569
0.00132105
0.00131622
0.00131137
0.00130653
0.00130171
0.00129706
0.0012926
0.0012881
0.0012834
0.00127862
0.00127386
0.00126916
0.00126447
0.00125983
0.00125536
0.00125099
0.00124666
0.00124245
0.00123826
0.00123406
0.00122999
0.00122599
0.0012217
0.00121749
0.00121407
0.00121075
0.00120667
0.00120241
0.00119949
0.00119664
0.00119359
0.00119056
0.00118701
0.00118432
0.00118236
0.00117957
0.00117639
0.00117494
0.00117339
0.00117103
0.00116973
0.00116923
0.00116797
0.00116651
0.00116586
0.00116594
0.00116638
0.00116599
0.0011656
0.00116555
0.00116576
0.00116638
0.00116745
0.0011689
0.00117067
0.0011727
0.00117499
0.00117754
0.00118034
0.00118336
0.00118658
0.00118997
0.00119349
0.0011971
0.00120078
0.00120451
0.0012081
0.00121152
0.001215
0.00121825
0.00122095
0.00122354
0.00122667
0.00122924
0.00123042
0.00123157
0.00123307
0.00123409
0.00123486
0.00123573
0.00123637
0.0012365
0.00123657
0.00123696
0.00123735
0.00123755
0.00123752
0.00123726
0.00123714
0.00123732
0.00123746
0.00123745
0.00123722
0.00123704
0.00123703
0.001237
0.00123691
0.00123677
0.00123662
0.00123651
0.00123642
0.00123632
0.0012362
0.00123606
0.00123592
0.00123578
0.00123562
0.00123546
0.00123529
0.00123511
0.00123493
0.00123474
0.00123455
0.00123435
0.00136308
0.00135877
0.0013542
0.0013494
0.00134451
0.00133959
0.00133477
0.00133011
0.00132542
0.00132055
0.00131556
0.00131056
0.00130554
0.00130059
0.0012958
0.00129107
0.00128624
0.00128135
0.00127647
0.00127164
0.00126685
0.00126209
0.00125743
0.00125293
0.00124847
0.00124406
0.00123978
0.00123555
0.00123135
0.00122735
0.00122339
0.00121912
0.00121506
0.0012118
0.00120847
0.00120416
0.00120029
0.00119768
0.00119476
0.00119184
0.00118892
0.00118538
0.00118315
0.0011813
0.00117839
0.00117595
0.00117477
0.00117292
0.00117102
0.00117028
0.00116997
0.00116868
0.0011676
0.00116713
0.00116707
0.00116737
0.00116758
0.00116768
0.00116791
0.00116843
0.00116936
0.00117069
0.00117238
0.00117438
0.00117664
0.00117913
0.00118188
0.00118487
0.00118806
0.00119142
0.0011949
0.00119849
0.00120215
0.00120585
0.00120952
0.00121308
0.00121654
0.00121988
0.00122286
0.00122548
0.00122794
0.00123058
0.00123345
0.00123514
0.00123593
0.001237
0.00123823
0.00123918
0.00123991
0.00124045
0.00124071
0.00124085
0.00124107
0.00124135
0.00124155
0.00124159
0.00124135
0.00124115
0.00124132
0.00124144
0.00124135
0.00124099
0.0012407
0.00124058
0.00124046
0.0012403
0.00124009
0.00123986
0.00123963
0.00123939
0.00123916
0.00123897
0.0012388
0.00123864
0.00123848
0.00123831
0.00123814
0.00123795
0.00123776
0.00123756
0.00123735
0.00123713
0.0012369
0.00136319
0.00135851
0.00135367
0.00134868
0.00134361
0.00133852
0.00133353
0.0013286
0.00132357
0.00131846
0.00131333
0.00130819
0.00130306
0.00129803
0.00129311
0.00128818
0.00128322
0.00127827
0.00127339
0.00126856
0.00126377
0.00125905
0.00125447
0.00124998
0.00124551
0.00124113
0.0012369
0.00123272
0.00122858
0.00122469
0.00122083
0.0012166
0.00121277
0.00120975
0.00120635
0.00120187
0.00119869
0.00119623
0.00119314
0.00119047
0.00118767
0.00118441
0.00118257
0.00118066
0.00117794
0.00117631
0.00117504
0.0011729
0.00117154
0.00117136
0.00117128
0.00117011
0.0011692
0.00116887
0.00116877
0.00116891
0.00116936
0.00116992
0.00117055
0.0011714
0.00117259
0.00117415
0.00117605
0.00117824
0.00118069
0.00118336
0.00118625
0.00118934
0.00119262
0.00119605
0.00119959
0.00120321
0.00120686
0.00121052
0.00121411
0.00121763
0.00122103
0.00122421
0.00122709
0.00122974
0.0012322
0.0012345
0.00123705
0.00123939
0.00124051
0.0012411
0.00124215
0.00124333
0.00124421
0.00124479
0.00124508
0.00124517
0.00124533
0.00124563
0.00124588
0.00124595
0.00124568
0.00124532
0.00124537
0.00124549
0.00124541
0.00124503
0.00124463
0.00124437
0.00124414
0.00124388
0.00124359
0.0012433
0.00124301
0.00124275
0.0012425
0.00124227
0.00124203
0.00124179
0.00124154
0.0012413
0.00124105
0.00124079
0.00124052
0.00124025
0.00123996
0.00123965
0.00123933
0.00136169
0.00135665
0.00135152
0.00134632
0.00134106
0.00133585
0.0013307
0.00132555
0.00132034
0.00131513
0.00130993
0.00130474
0.0012996
0.00129457
0.00128959
0.0012846
0.00127963
0.00127472
0.00126989
0.00126511
0.00126039
0.00125577
0.00125129
0.00124686
0.00124245
0.00123818
0.00123407
0.00122997
0.00122594
0.00122222
0.00121848
0.00121429
0.00121082
0.001208
0.00120442
0.00120012
0.00119763
0.00119508
0.0011919
0.00118962
0.00118693
0.00118418
0.00118256
0.00118035
0.00117819
0.00117716
0.00117571
0.00117378
0.00117282
0.00117285
0.00117304
0.00117205
0.00117122
0.00117099
0.00117093
0.00117106
0.00117162
0.00117251
0.00117352
0.0011747
0.00117614
0.00117788
0.00117992
0.00118224
0.0011848
0.00118759
0.00119058
0.00119374
0.00119707
0.00120053
0.00120408
0.00120769
0.00121132
0.00121493
0.00121848
0.00122194
0.00122527
0.0012284
0.00123128
0.00123394
0.00123639
0.0012386
0.00124084
0.00124341
0.00124509
0.00124576
0.00124644
0.00124771
0.00124886
0.00124961
0.00124998
0.00124998
0.0012499
0.00125025
0.00125068
0.0012508
0.00125048
0.00125002
0.00124999
0.00125002
0.00124982
0.00124933
0.00124885
0.00124848
0.00124815
0.0012478
0.00124743
0.00124706
0.00124669
0.00124632
0.00124596
0.0012456
0.00124525
0.0012449
0.00124455
0.0012442
0.00124384
0.00124348
0.00124311
0.00124272
0.00124233
0.00124191
0.00124149
0.00124105
0.00124059
0.0013585
0.00135324
0.00134794
0.0013426
0.00133726
0.00133198
0.00132674
0.00132148
0.00131623
0.00131099
0.00130578
0.0013006
0.00129551
0.0012905
0.00128552
0.00128056
0.00127566
0.00127083
0.00126608
0.00126139
0.00125678
0.00125229
0.00124792
0.00124359
0.0012393
0.00123519
0.00123124
0.00122722
0.00122334
0.00121987
0.00121619
0.00121209
0.00120909
0.00120638
0.00120255
0.0011989
0.0011968
0.00119399
0.00119107
0.00118911
0.00118647
0.00118434
0.00118266
0.00118032
0.00117891
0.00117827
0.00117682
0.00117519
0.00117442
0.00117446
0.00117479
0.00117409
0.00117348
0.00117336
0.00117337
0.00117359
0.00117428
0.00117537
0.00117666
0.00117809
0.00117973
0.00118162
0.00118378
0.0011862
0.00118886
0.00119172
0.00119478
0.00119799
0.00120135
0.00120481
0.00120836
0.00121196
0.00121557
0.00121915
0.00122267
0.0012261
0.00122941
0.00123253
0.00123545
0.00123816
0.00124067
0.00124293
0.00124504
0.00124741
0.00124969
0.00125076
0.00125136
0.00125252
0.00125391
0.00125482
0.00125533
0.00125543
0.00125509
0.00125522
0.00125579
0.00125609
0.00125592
0.00125531
0.00125498
0.00125487
0.00125461
0.00125413
0.00125359
0.00125309
0.00125262
0.00125213
0.00125162
0.00125109
0.00125055
0.00125001
0.00124947
0.00124893
0.00124841
0.00124789
0.00124739
0.00124688
0.00124638
0.00124588
0.00124538
0.00124487
0.00124434
0.00124381
0.00124327
0.00124271
0.00124214
0.00135409
0.00134872
0.00134332
0.00133792
0.00133255
0.00132723
0.00132194
0.00131666
0.00131141
0.00130619
0.001301
0.00129588
0.00129085
0.00128588
0.00128095
0.00127608
0.00127127
0.00126655
0.0012619
0.00125733
0.00125286
0.00124851
0.00124427
0.00124006
0.00123593
0.00123202
0.00122822
0.00122429
0.00122066
0.00121743
0.00121374
0.00120989
0.00120733
0.00120461
0.00120067
0.00119787
0.00119584
0.0011928
0.00119044
0.00118855
0.00118604
0.00118442
0.00118262
0.00118052
0.00117954
0.00117925
0.00117804
0.00117664
0.00117598
0.00117592
0.00117606
0.00117586
0.00117564
0.00117564
0.00117578
0.00117617
0.00117697
0.00117818
0.00117963
0.00118125
0.00118305
0.00118506
0.00118732
0.00118982
0.00119254
0.00119546
0.00119856
0.00120181
0.00120519
0.00120867
0.00121222
0.00121581
0.00121941
0.001223
0.00122652
0.00122996
0.00123329
0.00123646
0.00123946
0.00124227
0.00124489
0.00124728
0.00124945
0.00125165
0.00125426
0.00125595
0.00125672
0.0012578
0.00125936
0.00126047
0.00126108
0.00126132
0.001261
0.00126079
0.00126137
0.00126182
0.00126181
0.00126127
0.00126065
0.00126028
0.00125989
0.00125934
0.00125868
0.00125798
0.00125726
0.00125652
0.00125575
0.00125496
0.00125417
0.00125339
0.00125263
0.00125188
0.00125117
0.00125047
0.00124979
0.00124913
0.00124849
0.00124785
0.00124721
0.00124657
0.00124593
0.00124527
0.0012446
0.00124392
0.00124322
0.00135419
0.00134875
0.00134331
0.00133786
0.00133243
0.00132705
0.00132172
0.00131642
0.00131115
0.00130592
0.00130074
0.00129561
0.00129056
0.0012856
0.00128069
0.00127585
0.00127108
0.00126639
0.00126178
0.00125726
0.00125283
0.00124851
0.00124431
0.00124021
0.00123615
0.0012322
0.0012285
0.00122484
0.00122102
0.00121772
0.00121467
0.0012109
0.00120753
0.00120529
0.00120244
0.00119873
0.00119659
0.00119444
0.00119145
0.00118962
0.00118764
0.00118543
0.00118416
0.0011824
0.00118046
0.00117968
0.00117974
0.00117893
0.00117765
0.00117705
0.00117691
0.00117695
0.00117701
0.00117713
0.00117739
0.00117777
0.00117833
0.00117924
0.00118052
0.00118208
0.00118383
0.00118575
0.00118787
0.00119022