/*--------------------------------*- C++ -*----------------------------------*\
| =========                 |                                                 |
| \\      /  F ield         | OpenFOAM: The Open Source CFD Toolbox           |
|  \\    /   O peration     | Version:  v1706                                 |
|   \\  /    A nd           | Web:      www.OpenFOAM.com                      |
|    \\/     M anipulation  |                                                 |
\*---------------------------------------------------------------------------*/
FoamFile
{
    version     2.0;
    format      ascii;
    class       volScalarField;
    location    "1.7e-05";
    object      Tt;
}
// * * * * * * * * * * * * * * * * * * * * * * * * * * * * * * * * * * * * * //

dimensions      [0 0 0 1 0 0 0];


internalField   nonuniform List<scalar> 
29871
(
144.406
144.406
144.406
144.407
144.407
144.408
144.408
144.408
144.409
144.409
144.409
144.41
144.41
144.41
144.41
144.411
144.411
144.411
144.411
144.411
144.412
144.412
144.412
144.412
144.412
144.412
144.412
144.412
144.412
144.412
144.412
144.412
144.411
144.411
144.411
144.411
144.411
144.41
144.41
144.41
144.409
144.409
144.409
144.409
144.408
144.408
144.408
144.407
144.407
144.407
144.407
144.406
144.406
144.406
144.406
144.405
144.405
144.405
144.405
144.404
144.404
144.404
144.404
144.404
144.404
144.404
144.404
144.403
144.403
144.403
144.403
144.403
144.403
144.403
144.403
144.403
144.403
144.403
144.403
144.403
144.403
144.403
144.403
144.403
144.403
144.403
144.403
144.403
144.404
144.404
144.404
144.404
144.404
144.404
144.404
144.404
144.404
144.404
144.404
144.404
144.404
144.404
144.404
144.404
144.404
144.433
144.435
144.437
144.439
144.442
144.444
144.446
144.448
144.45
144.452
144.454
144.456
144.457
144.459
144.461
144.462
144.464
144.465
144.466
144.468
144.468
144.469
144.47
144.47
144.471
144.471
144.471
144.471
144.471
144.47
144.47
144.469
144.468
144.467
144.466
144.465
144.464
144.462
144.461
144.459
144.458
144.456
144.454
144.452
144.451
144.449
144.447
144.445
144.444
144.442
144.44
144.438
144.437
144.435
144.434
144.432
144.431
144.43
144.429
144.428
144.427
144.426
144.425
144.424
144.423
144.423
144.422
144.422
144.421
144.421
144.421
144.42
144.42
144.42
144.42
144.42
144.42
144.42
144.42
144.42
144.421
144.421
144.421
144.421
144.421
144.422
144.422
144.422
144.422
144.423
144.423
144.423
144.424
144.424
144.424
144.425
144.425
144.425
144.426
144.426
144.426
144.427
144.427
144.427
144.428
144.498
144.504
144.51
144.516
144.522
144.529
144.535
144.542
144.548
144.554
144.561
144.567
144.573
144.578
144.584
144.589
144.594
144.598
144.603
144.607
144.61
144.613
144.616
144.618
144.619
144.621
144.621
144.622
144.621
144.621
144.619
144.618
144.616
144.613
144.61
144.607
144.603
144.599
144.595
144.591
144.586
144.581
144.576
144.571
144.565
144.56
144.554
144.549
144.543
144.538
144.533
144.527
144.522
144.517
144.513
144.508
144.504
144.499
144.495
144.492
144.488
144.485
144.482
144.48
144.477
144.475
144.473
144.471
144.47
144.469
144.468
144.467
144.466
144.466
144.466
144.466
144.466
144.466
144.466
144.467
144.467
144.468
144.469
144.469
144.47
144.471
144.472
144.473
144.474
144.475
144.476
144.477
144.478
144.479
144.48
144.481
144.482
144.484
144.485
144.486
144.487
144.489
144.49
144.492
144.493
144.495
144.663
144.679
144.695
144.712
144.729
144.745
144.763
144.78
144.796
144.813
144.83
144.846
144.861
144.877
144.891
144.905
144.918
144.93
144.942
144.952
144.961
144.969
144.976
144.981
144.986
144.989
144.991
144.991
144.991
144.989
144.986
144.981
144.976
144.969
144.961
144.953
144.943
144.933
144.921
144.909
144.897
144.884
144.87
144.856
144.842
144.828
144.813
144.799
144.784
144.77
144.756
144.742
144.729
144.716
144.704
144.692
144.68
144.669
144.659
144.649
144.641
144.632
144.625
144.618
144.612
144.606
144.601
144.597
144.594
144.591
144.588
144.587
144.585
144.585
144.584
144.585
144.585
144.586
144.587
144.589
144.59
144.592
144.594
144.597
144.599
144.602
144.605
144.608
144.611
144.614
144.617
144.621
144.624
144.628
144.631
144.635
144.638
144.642
144.646
144.65
144.654
144.658
144.663
144.667
144.672
144.677
145.025
145.064
145.104
145.145
145.187
145.229
145.271
145.313
145.355
145.396
145.438
145.478
145.518
145.556
145.593
145.628
145.662
145.693
145.723
145.75
145.774
145.796
145.815
145.831
145.844
145.854
145.861
145.864
145.865
145.862
145.857
145.849
145.838
145.823
145.807
145.788
145.766
145.742
145.716
145.688
145.659
145.628
145.596
145.563
145.529
145.494
145.459
145.424
145.389
145.354
145.32
145.286
145.252
145.22
145.188
145.158
145.129
145.101
145.075
145.051
145.028
145.006
144.987
144.969
144.953
144.938
144.926
144.915
144.905
144.898
144.891
144.887
144.883
144.881
144.881
144.881
144.883
144.885
144.888
144.892
144.897
144.903
144.909
144.916
144.923
144.93
144.938
144.947
144.955
144.964
144.973
144.983
144.992
145.002
145.012
145.022
145.033
145.043
145.054
145.066
145.077
145.089
145.101
145.114
145.127
145.141
145.154
145.925
146.018
146.114
146.21
146.308
146.407
146.506
146.605
146.703
146.8
146.895
146.989
147.08
147.168
147.253
147.334
147.41
147.482
147.549
147.61
147.664
147.713
147.754
147.789
147.817
147.838
147.851
147.856
147.855
147.848
147.834
147.812
147.784
147.749
147.708
147.662
147.61
147.553
147.492
147.426
147.357
147.284
147.209
147.132
147.053
146.973
146.892
146.81
146.729
146.649
146.569
146.491
146.415
146.341
146.269
146.2
146.134
146.071
146.012
145.957
145.905
145.857
145.813
145.774
145.738
145.707
145.679
145.656
145.637
145.622
145.61
145.602
145.598
145.597
145.598
145.602
145.608
145.617
145.628
145.641
145.655
145.672
145.69
145.709
145.729
145.751
145.773
145.796
145.82
145.845
145.87
145.896
145.922
145.95
145.977
146.006
146.035
146.064
146.095
146.126
146.158
146.192
146.226
146.261
146.297
146.334
146.373
147.384
147.584
147.789
147.999
148.214
148.432
148.652
148.874
149.095
149.317
149.536
149.753
149.967
150.176
150.379
150.576
150.766
150.947
151.12
151.281
151.432
151.57
151.695
151.807
151.904
151.986
152.054
152.105
152.142
152.162
152.165
152.156
152.132
152.094
152.04
151.973
151.892
151.799
151.693
151.576
151.449
151.313
151.168
151.016
150.857
150.692
150.523
150.35
150.175
149.999
149.822
149.645
149.47
149.297
149.127
148.961
148.8
148.645
148.496
148.353
148.219
148.092
147.974
147.864
147.764
147.673
147.591
147.518
147.455
147.401
147.356
147.321
147.294
147.276
147.267
147.266
147.27
147.28
147.297
147.32
147.349
147.383
147.421
147.463
147.509
147.558
147.611
147.666
147.723
147.782
147.843
147.906
147.97
148.036
148.103
148.172
148.243
148.315
148.388
148.464
148.541
148.62
148.701
148.785
148.871
148.959
149.051
149.145
149.242
149.342
151.247
151.681
152.125
152.576
153.033
153.495
153.958
154.421
154.881
155.336
155.785
156.224
156.652
157.067
157.468
157.852
158.219
158.566
158.893
159.197
159.478
159.734
159.963
160.165
160.337
160.48
160.592
160.673
160.724
160.741
160.732
160.695
160.631
160.537
160.415
160.267
160.094
159.897
159.677
159.436
159.175
158.896
158.602
158.294
157.973
157.643
157.304
156.959
156.609
156.257
155.905
155.553
155.205
154.861
154.524
154.195
153.875
153.567
153.271
152.989
152.722
152.471
152.238
152.023
151.827
151.651
151.494
151.358
151.242
151.147
151.072
151.017
150.98
150.963
150.965
150.977
151.004
151.047
151.104
151.174
151.255
151.347
151.449
151.559
151.678
151.803
151.934
152.071
152.212
152.358
152.508
152.662
152.82
152.98
153.144
153.312
153.482
153.657
153.835
154.016
154.203
154.394
154.589
154.79
154.997
155.209
155.428
155.654
155.887
156.127
159.277
160.136
161.006
161.884
162.767
163.649
164.524
165.387
166.234
167.06
167.861
168.634
169.377
170.086
170.759
171.394
171.99
172.545
173.057
173.525
173.948
174.325
174.654
174.935
175.166
175.345
175.474
175.554
175.58
175.562
175.5
175.391
175.239
175.041
174.801
174.52
174.201
173.844
173.452
173.027
172.571
172.088
171.579
171.047
170.495
169.925
169.342
168.746
168.142
167.532
166.918
166.305
165.696
165.094
164.502
163.924
163.362
162.821
162.303
161.81
161.346
160.912
160.511
160.144
159.812
159.517
159.259
159.04
158.859
158.718
158.617
158.552
158.531
158.543
158.578
158.648
158.749
158.879
159.035
159.217
159.421
159.645
159.887
160.145
160.417
160.703
160.998
161.304
161.617
161.937
162.263
162.595
162.932
163.274
163.621
163.973
164.331
164.694
165.063
165.438
165.821
166.211
166.609
167.017
167.434
167.861
168.3
168.75
169.213
169.688
174.186
175.62
177.042
178.447
179.831
181.187
182.505
183.779
185.002
186.168
187.273
188.314
189.287
190.191
191.022
191.782
192.469
193.085
193.632
194.112
194.525
194.874
195.163
195.392
195.559
195.662
195.688
195.665
195.589
195.455
195.271
195.044
194.759
194.418
194.032
193.601
193.128
192.611
192.054
191.461
190.834
190.174
189.484
188.768
188.03
187.27
186.491
185.695
184.885
184.065
183.239
182.411
181.584
180.763
179.95
179.152
178.372
177.616
176.888
176.195
175.541
174.931
174.371
173.863
173.413
173.022
172.692
172.425
172.222
172.084
172.014
172.017
172.059
172.153
172.306
172.509
172.759
173.054
173.391
173.764
174.17
174.606
175.068
175.552
176.056
176.576
177.11
177.656
178.21
178.772
179.34
179.913
180.489
181.069
181.652
182.239
182.829
183.423
184.023
184.628
185.239
185.856
186.482
187.115
187.757
188.408
189.069
189.741
190.423
191.117
196.543
198.333
200.049
201.692
203.266
204.765
206.168
207.466
208.653
209.73
210.697
211.557
212.316
212.976
213.54
214.01
214.394
214.694
214.915
215.061
215.136
215.141
215.111
215.037
214.91
214.734
214.51
214.244
213.95
213.644
213.283
212.884
212.458
212.006
211.528
211.022
210.492
209.942
209.37
208.772
208.15
207.51
206.849
206.164
205.456
204.731
203.989
203.232
202.46
201.675
200.882
200.085
199.291
198.502
197.725
196.965
196.227
195.517
194.837
194.194
193.594
193.041
192.542
192.103
191.725
191.412
191.167
190.994
190.9
190.899
190.961
191.092
191.304
191.579
191.915
192.31
192.758
193.252
193.786
194.356
194.955
195.578
196.221
196.88
197.553
198.235
198.923
199.615
200.308
200.994
201.67
202.335
202.987
203.628
204.257
204.872
205.475
206.065
206.642
207.208
207.762
208.305
208.838
209.362
209.875
210.38
210.875
211.362
211.839
212.308
219.564
220.997
222.254
223.344
224.273
225.047
225.68
226.183
226.57
226.856
227.053
227.166
227.193
227.171
227.1
226.97
226.786
226.559
226.291
225.993
225.664
225.308
224.933
224.554
224.155
223.759
223.348
222.899
222.443
222.016
221.6
221.148
220.676
220.211
219.742
219.262
218.789
218.325
217.855
217.382
216.923
216.472
216.018
215.564
215.122
214.689
214.257
213.825
213.394
212.966
212.543
212.126
211.712
211.301
210.894
210.496
210.11
209.738
209.387
209.065
208.776
208.525
208.32
208.168
208.071
208.045
208.068
208.149
208.289
208.468
208.71
209.026
209.36
209.727
210.138
210.581
211.046
211.526
212.013
212.502
212.991
213.476
213.951
214.414
214.86
215.287
215.693
216.08
216.445
216.79
217.116
217.427
217.722
218.003
218.271
218.527
218.771
219.006
219.232
219.45
219.659
219.86
220.054
220.24
220.419
220.592
220.758
220.917
221.07
221.218
221.36
234.994
235.221
235.335
235.342
235.299
235.188
235.01
234.775
234.496
234.177
233.826
233.447
233.045
232.631
232.206
231.769
231.327
230.868
230.433
229.96
229.437
228.95
228.468
227.969
227.49
227.038
226.542
226.019
225.51
225.059
224.595
224.106
223.624
223.145
222.665
222.204
221.744
221.275
220.825
220.405
219.986
219.572
219.177
218.798
218.428
218.074
217.74
217.417
217.108
216.818
216.544
216.293
216.07
215.877
215.714
215.582
215.482
215.413
215.377
215.375
215.398
215.454
215.547
215.675
215.843
216.047
216.277
216.56
216.854
217.171
217.534
217.916
218.292
218.673
219.056
219.428
219.784
220.123
220.448
220.755
221.037
221.298
221.549
221.781
221.993
222.19
222.373
222.539
222.691
222.83
222.959
223.077
223.185
223.283
223.372
223.452
223.525
223.591
223.65
223.703
223.75
223.792
223.83
223.864
223.895
223.923
223.949
223.972
223.994
224.014
224.032
224.049
224.065
240.852
240.5
240.111
239.7
239.277
238.841
238.386
237.94
237.479
236.936
236.417
235.905
235.367
234.822
234.276
233.732
233.187
232.64
232.106
231.562
231.007
230.461
229.921
229.378
228.853
228.341
227.81
227.266
226.752
226.267
225.774
225.276
224.784
224.301
223.838
223.376
222.904
222.457
222.049
221.639
221.232
220.875
220.53
220.178
219.853
219.573
219.295
219.021
218.767
218.531
218.316
218.133
217.974
217.841
217.738
217.668
217.637
217.643
217.667
217.741
217.859
218.013
218.203
218.428
218.685
218.968
219.276
219.608
219.943
220.293
220.646
220.996
221.36
221.714
222.038
222.353
222.65
222.927
223.176
223.404
223.614
223.811
223.979
224.129
224.269
224.394
224.495
224.588
224.673
224.745
224.801
224.845
224.883
224.915
224.942
224.963
224.978
224.988
224.995
225
225.003
225.005
225.005
225.005
225.004
225.001
224.997
224.991
224.985
224.978
224.97
224.962
224.953
244.178
243.722
243.221
242.657
242.11
241.566
241.013
240.453
239.891
239.332
238.768
238.19
237.614
237.043
236.468
235.891
235.317
234.748
234.18
233.618
233.067
232.512
231.955
231.405
230.855
230.302
229.77
229.244
228.704
228.154
227.639
227.144
226.64
226.138
225.641
225.155
224.694
224.232
223.754
223.317
222.913
222.498
222.099
221.752
221.407
221.052
220.746
220.468
220.201
219.912
219.654
219.436
219.244
219.078
218.948
218.854
218.792
218.775
218.787
218.826
218.893
218.993
219.127
219.293
219.489
219.712
219.959
220.229
220.521
220.826
221.138
221.461
221.784
222.114
222.454
222.75
223.036
223.324
223.578
223.808
224.044
224.267
224.451
224.612
224.774
224.926
225.047
225.144
225.246
225.339
225.409
225.465
225.516
225.559
225.595
225.621
225.64
225.652
225.656
225.656
225.653
225.647
225.637
225.625
225.61
225.593
225.576
225.559
225.539
225.518
225.497
225.475
225.453
225.431
225.41
245.498
244.938
244.364
243.776
243.193
242.614
242.033
241.45
240.87
240.293
239.71
239.123
238.538
237.955
237.37
236.784
236.2
235.621
235.045
234.476
233.912
233.347
232.787
232.233
231.675
231.117
230.581
230.046
229.497
228.943
228.433
227.934
227.427
226.927
226.427
225.946
225.496
225.035
224.559
224.144
223.749
223.335
222.954
222.615
222.265
221.918
221.615
221.331
221.073
220.779
220.52
220.297
220.1
219.94
219.814
219.72
219.655
219.633
219.64
219.671
219.734
219.828
219.955
220.114
220.302
220.514
220.747
220.999
221.263
221.531
221.806
222.09
222.375
222.666
222.969
223.23
223.477
223.731
223.965
224.177
224.4
224.617
224.8
224.956
225.11
225.283
225.42
225.536
225.623
225.721
225.81
225.88
225.939
225.977
226.001
226.025
226.05
226.063
226.063
226.06
226.052
226.041
226.026
226.01
225.992
225.973
225.953
225.932
225.91
225.887
225.865
225.842
225.82
225.799
225.779
225.76
250.45
249.902
249.333
248.751
248.174
247.601
247.025
246.448
245.869
245.28
244.688
244.096
243.507
242.917
242.327
241.739
241.147
240.551
239.957
239.364
238.773
238.181
237.588
237
236.415
235.834
235.262
234.695
234.131
233.574
233.02
232.462
231.906
231.371
230.834
230.282
229.734
229.234
228.734
228.23
227.737
227.236
226.77
226.33
225.871
225.412
225.013
224.618
224.214
223.856
223.526
223.172
222.837
222.533
222.243
221.985
221.702
221.444
221.215
221.021
220.864
220.738
220.64
220.569
220.536
220.538
220.56
220.608
220.684
220.788
220.917
221.071
221.247
221.441
221.652
221.874
222.102
222.341
222.585
222.828
223.079
223.343
223.588
223.801
224.015
224.243
224.455
224.661
224.863
225.047
225.215
225.374
225.541
225.691
225.824
225.938
226.033
226.118
226.207
226.282
226.34
226.378
226.412
226.444
226.465
226.474
226.476
226.475
226.47
226.462
226.447
226.428
226.407
226.383
226.359
226.334
226.308
226.282
226.257
226.234
226.211
226.191
226.172
251.362
250.794
250.214
249.629
249.044
248.46
247.877
247.293
246.703
246.105
245.506
244.908
244.31
243.713
243.117
242.521
241.924
241.328
240.735
240.144
239.554
238.964
238.376
237.792
237.21
236.635
236.067
235.505
234.947
234.396
233.848
233.293
232.744
232.217
231.683
231.13
230.599
230.112
229.612
229.118
228.634
228.138
227.691
227.26
226.803
226.37
225.983
225.581
225.2
224.855
224.531
224.17
223.843
223.54
223.242
222.972
222.708
222.459
222.236
222.046
221.888
221.758
221.652
221.571
221.52
221.505
221.513
221.541
221.593
221.669
221.767
221.886
222.024
222.178
222.346
222.524
222.71
222.904
223.1
223.302
223.515
223.733
223.958
224.156
224.34
224.541
224.75
224.95
225.144
225.328
225.501
225.666
225.831
225.99
226.138
226.272
226.381
226.478
226.581
226.672
226.739
226.786
226.83
226.87
226.9
226.917
226.925
226.926
226.922
226.913
226.899
226.881
226.861
226.84
226.817
226.794
226.77
226.746
226.723
226.702
226.682
226.663
226.647
252.168
251.59
251.003
250.412
249.819
249.228
248.637
248.046
247.451
246.854
246.257
245.661
245.065
244.47
243.878
243.285
242.694
242.104
241.518
240.934
240.351
239.77
239.192
238.617
238.046
237.481
236.923
236.37
235.82
235.279
234.74
234.192
233.656
233.141
232.614
232.065
231.563
231.085
230.587
230.11
229.637
229.155
228.726
228.299
227.853
227.448
227.063
226.657
226.303
225.968
225.645
225.28
224.953
224.65
224.353
224.075
223.821
223.582
223.365
223.175
223.015
222.878
222.764
222.672
222.605
222.565
222.555
222.563
222.589
222.635
222.701
222.784
222.883
222.996
223.121
223.256
223.399
223.548
223.703
223.865
224.039
224.218
224.405
224.592
224.761
224.925
225.118
225.317
225.507
225.689
225.862
226.026
226.192
226.36
226.521
226.67
226.791
226.898
227.008
227.113
227.195
227.257
227.312
227.362
227.402
227.429
227.445
227.454
227.455
227.452
227.445
227.433
227.417
227.398
227.377
227.355
227.334
227.312
227.291
227.271
227.253
227.237
227.223
252.876
252.292
251.704
251.115
250.524
249.935
249.346
248.757
248.166
247.575
246.986
246.397
245.809
245.224
244.64
244.056
243.475
242.896
242.321
241.748
241.176
240.608
240.044
239.483
238.926
238.375
237.831
237.289
236.753
236.226
235.699
235.161
234.645
234.145
233.626
233.092
232.62
232.146
231.656
231.203
230.74
230.28
229.866
229.439
229.021
228.641
228.252
227.867
227.52
227.186
226.87
226.503
226.172
225.867
225.572
225.295
225.047
224.816
224.603
224.412
224.245
224.101
223.976
223.871
223.787
223.726
223.688
223.673
223.676
223.692
223.725
223.773
223.834
223.908
223.993
224.087
224.189
224.298
224.413
224.537
224.672
224.816
224.967
225.134
225.287
225.434
225.594
225.787
225.975
226.151
226.321
226.486
226.64
226.818
226.992
227.156
227.288
227.406
227.525
227.641
227.734
227.809
227.88
227.943
227.995
228.035
228.064
228.084
228.096
228.101
228.099
228.094
228.084
228.071
228.056
228.039
228.021
228.003
227.986
227.97
227.955
227.943
227.933
227.925
227.92
253.526
252.944
252.362
251.778
251.195
250.613
250.031
249.449
248.867
248.287
247.708
247.13
246.554
245.98
245.408
244.838
244.27
243.706
243.144
242.586
242.03
241.478
240.931
240.386
239.846
239.313
238.786
238.26
237.74
237.231
236.718
236.195
235.706
235.221
234.709
234.207
233.758
233.288
232.818
232.387
231.934
231.505
231.1
230.679
230.293
229.933
229.546
229.174
228.832
228.497
228.184
227.826
227.497
227.19
226.897
226.627
226.383
226.156
225.944
225.749
225.574
225.42
225.285
225.167
225.067
224.986
224.925
224.883
224.857
224.848
224.851
224.865
224.891
224.928
224.975
225.031
225.096
225.168
225.247
225.336
225.436
225.547
225.668
225.801
225.944
226.076
226.211
226.382
226.564
226.733
226.898
227.065
227.212
227.38
227.569
227.747
227.898
228.022
228.148
228.274
228.385
228.48
228.568
228.648
228.716
228.773
228.817
228.852
228.877
228.894
228.904
228.907
228.905
228.9
228.892
228.882
228.87
228.858
228.847
228.837
228.829
228.823
228.82
228.82
228.822
254.143
253.569
252.994
252.419
251.845
251.273
250.701
250.13
249.561
248.993
248.426
247.862
247.301
246.742
246.185
245.631
245.08
244.532
243.988
243.447
242.91
242.377
241.849
241.325
240.805
240.292
239.785
239.277
238.779
238.292
237.794
237.293
236.832
236.362
235.863
235.403
234.968
234.504
234.068
233.652
233.214
232.815
232.416
232.019
231.653
231.312
230.932
230.568
230.232
229.898
229.578
229.243
228.921
228.615
228.329
228.064
227.822
227.597
227.384
227.184
227.002
226.838
226.692
226.561
226.445
226.346
226.264
226.198
226.146
226.109
226.083
226.067
226.064
226.068
226.08
226.101
226.132
226.17
226.217
226.274
226.342
226.424
226.517
226.62
226.745
226.867
226.983
227.129
227.301
227.461
227.616
227.781
227.931
228.085
228.283
228.472
228.643
228.781
228.916
229.054
229.185
229.303
229.411
229.51
229.598
229.674
229.737
229.789
229.831
229.863
229.887
229.904
229.915
229.921
229.924
229.924
229.923
229.921
229.92
229.921
229.923
229.928
229.936
229.947
229.962
255.305
254.739
254.174
253.609
253.046
252.484
251.923
251.364
250.807
250.251
249.698
249.147
248.599
248.055
247.513
246.974
246.439
245.907
245.379
244.855
244.335
243.819
243.309
242.803
242.301
241.803
241.315
240.83
240.343
239.872
239.407
238.925
238.456
238.021
237.567
237.091
236.668
236.246
235.8
235.397
234.991
234.579
234.205
233.818
233.444
233.1
232.775
232.407
232.047
231.717
231.394
231.073
230.753
230.442
230.146
229.865
229.604
229.363
229.138
228.925
228.723
228.535
228.362
228.204
228.062
227.933
227.817
227.716
227.629
227.554
227.491
227.439
227.396
227.363
227.338
227.319
227.31
227.311
227.319
227.335
227.363
227.403
227.456
227.523
227.603
227.704
227.815
227.915
228.043
228.202
228.356
228.501
228.659
228.817
228.97
229.168
229.368
229.556
229.711
229.859
230.013
230.164
230.305
230.436
230.558
230.669
230.768
230.856
230.931
230.995
231.049
231.093
231.129
231.159
231.182
231.202
231.218
231.233
231.247
231.261
231.277
231.295
231.315
231.339
231.368
231.4
255.878
255.323
254.77
254.217
253.667
253.118
252.572
252.028
251.486
250.948
250.412
249.879
249.35
248.824
248.302
247.784
247.27
246.76
246.254
245.753
245.256
244.765
244.278
243.797
243.319
242.848
242.386
241.924
241.462
241.021
240.579
240.116
239.687
239.274
238.835
238.397
238.004
237.593
237.179
236.804
236.411
236.028
235.677
235.31
234.954
234.626
234.316
233.978
233.625
233.303
232.989
232.675
232.368
232.071
231.786
231.513
231.256
231.018
230.795
230.583
230.38
230.188
230.008
229.841
229.688
229.547
229.417
229.3
229.194
229.098
229.013
228.937
228.87
228.81
228.758
228.714
228.677
228.649
228.629
228.62
228.622
228.635
228.663
228.704
228.761
228.842
228.93
229.018
229.134
229.281
229.426
229.564
229.715
229.881
230.044
230.243
230.452
230.654
230.826
230.995
231.171
231.348
231.518
231.678
231.83
231.972
232.102
232.221
232.327
232.421
232.503
232.576
232.638
232.692
232.74
232.782
232.82
232.856
232.892
232.929
232.966
233.007
233.05
233.097
233.147
233.201
233.26
233.324
256.45
255.908
255.367
254.829
254.294
253.761
253.232
252.705
252.182
251.662
251.145
250.633
250.125
249.621
249.121
248.625
248.135
247.649
247.168
246.692
246.221
245.756
245.296
244.841
244.391
243.948
243.514
243.077
242.645
242.235
241.815
241.381
240.99
240.597
240.177
239.787
239.416
239.019
238.646
238.295
237.919
237.564
237.238
236.895
236.558
236.246
235.943
235.638
235.302
234.991
234.689
234.387
234.092
233.812
233.544
233.286
233.039
232.806
232.586
232.376
232.174
231.98
231.795
231.622
231.46
231.308
231.167
231.036
230.914
230.801
230.696
230.6
230.511
230.429
230.354
230.286
230.226
230.173
230.129
230.094
230.07
230.061
230.066
230.085
230.12
230.179
230.247
230.323
230.428
230.563
230.7
230.832
230.982
231.153
231.333
231.54
231.761
231.976
232.173
232.37
232.577
232.787
232.992
233.191
233.381
233.562
233.732
233.89
234.034
234.165
234.282
234.389
234.485
234.571
234.65
234.722
234.789
234.852
234.914
234.976
235.041
235.107
235.178
235.252
235.332
235.418
235.508
235.604
257.032
256.505
255.98
255.459
254.941
254.427
253.916
253.409
252.906
252.407
251.912
251.423
250.938
250.458
249.983
249.512
249.048
248.588
248.134
247.686
247.243
246.806
246.375
245.949
245.528
245.116
244.71
244.3
243.905
243.523
243.126
242.732
242.374
242
241.612
241.264
240.912
240.543
240.206
239.879
239.526
239.198
238.898
238.584
238.265
237.973
237.682
237.397
237.094
236.798
236.509
236.223
235.942
235.677
235.426
235.182
234.946
234.721
234.508
234.303
234.105
233.914
233.73
233.554
233.388
233.231
233.082
232.941
232.808
232.682
232.563
232.45
232.344
232.243
232.148
232.06
231.978
231.904
231.838
231.781
231.735
231.704
231.691
231.694
231.711
231.75
231.8
231.866
231.96
232.086
232.216
232.349
232.502
232.682
232.882
233.105
233.344
233.578
233.807
234.042
234.288
234.539
234.788
235.031
235.266
235.493
235.71
235.914
236.104
236.279
236.439
236.584
236.716
236.837
236.95
237.056
237.156
237.254
237.351
237.449
237.548
237.651
237.758
237.87
237.987
238.111
238.24
238.375
257.64
257.129
256.623
256.121
255.622
255.128
254.639
254.154
253.674
253.199
252.729
252.264
251.805
251.351
250.903
250.46
250.024
249.593
249.168
248.749
248.337
247.93
247.529
247.135
246.746
246.366
245.99
245.612
245.254
244.9
244.529
244.183
243.85
243.496
243.155
242.841
242.51
242.176
241.873
241.57
241.244
240.947
240.673
240.392
240.093
239.821
239.553
239.285
239.012
238.738
238.47
238.203
237.938
237.689
237.456
237.228
237.004
236.788
236.582
236.385
236.192
236.005
235.823
235.647
235.479
235.318
235.164
235.016
234.874
234.737
234.606
234.481
234.361
234.246
234.137
234.035
233.938
233.849
233.769
233.699
233.64
233.594
233.564
233.553
233.558
233.58
233.618
233.676
233.763
233.887
234.017
234.154
234.319
234.515
234.74
234.987
235.245
235.508
235.778
236.06
236.352
236.651
236.951
237.246
237.535
237.811
238.076
238.327
238.564
238.786
238.992
239.183
239.361
239.528
239.684
239.833
239.976
240.116
240.255
240.395
240.537
240.682
240.832
240.988
241.15
241.318
241.492
241.673
241.859
257.797
257.311
256.829
256.353
255.882
255.417
254.956
254.502
254.052
253.609
253.172
252.741
252.316
251.897
251.484
251.078
250.679
250.285
249.898
249.518
249.144
248.777
248.415
248.06
247.714
247.37
247.029
246.706
246.38
246.047
245.743
245.435
245.111
244.819
244.533
244.227
243.932
243.663
243.387
243.092
242.826
242.578
242.335
242.061
241.811
241.571
241.324
241.077
240.832
240.588
240.343
240.099
239.869
239.655
239.445
239.237
239.033
238.836
238.647
238.463
238.282
238.104
237.931
237.764
237.601
237.444
237.292
237.144
237
236.86
236.725
236.594
236.468
236.346
236.231
236.122
236.021
235.928
235.846
235.775
235.719
235.679
235.663
235.666
235.682
235.717
235.777
235.869
235.997
236.134
236.284
236.469
236.69
236.945
237.223
237.509
237.807
238.122
238.452
238.795
239.145
239.497
239.846
240.19
240.526
240.85
241.16
241.454
241.731
241.992
242.237
242.467
242.683
242.889
243.085
243.276
243.464
243.65
243.837
244.026
244.22
244.419
244.623
244.834
245.052
245.277
245.508
245.746
258.521
258.058
257.6
257.149
256.703
256.264
255.831
255.404
254.983
254.57
254.162
253.762
253.368
252.981
252.601
252.228
251.861
251.502
251.149
250.803
250.464
250.132
249.806
249.487
249.176
248.867
248.567
248.277
247.982
247.697
247.426
247.144
246.865
246.615
246.356
246.085
245.829
245.592
245.349
245.091
244.855
244.636
244.429
244.187
243.962
243.752
243.535
243.312
243.094
242.88
242.663
242.443
242.234
242.041
241.852
241.662
241.473
241.289
241.112
240.938
240.766
240.595
240.428
240.263
240.103
239.946
239.792
239.64
239.492
239.347
239.205
239.066
238.931
238.801
238.676
238.557
238.446
238.344
238.253
238.174
238.11
238.063
238.042
238.044
238.06
238.098
238.164
238.263
238.405
238.554
238.726
238.939
239.194
239.487
239.801
240.125
240.47
240.84
241.23
241.634
242.046
242.462
242.878
243.288
243.689
244.077
244.451
244.806
245.143
245.461
245.761
246.044
246.313
246.57
246.818
247.06
247.298
247.535
247.773
248.014
248.26
248.511
248.768
249.033
249.304
249.582
249.867
250.158
258.878
258.447
258.022
257.605
257.194
256.791
256.395
256.006
255.624
255.249
254.882
254.522
254.169
253.824
253.486
253.155
252.832
252.516
252.207
251.905
251.611
251.323
251.041
250.768
250.498
250.238
249.982
249.727
249.487
249.248
248.999
248.772
248.556
248.329
248.1
247.882
247.678
247.472
247.257
247.051
246.864
246.691
246.488
246.292
246.113
245.929
245.733
245.542
245.36
245.175
244.983
244.798
244.628
244.463
244.293
244.122
243.955
243.792
243.631
243.47
243.309
243.149
242.991
242.835
242.68
242.527
242.376
242.226
242.078
241.932
241.789
241.648
241.512
241.381
241.257
241.14
241.033
240.937
240.855
240.788
240.741
240.721
240.725
240.746
240.794
240.872
240.989
241.148
241.318
241.523
241.776
242.074
242.413
242.77
243.146
243.552
243.986
244.443
244.915
245.396
245.882
246.367
246.846
247.314
247.768
248.204
248.62
249.015
249.39
249.744
250.081
250.403
250.712
251.012
251.306
251.596
251.885
252.176
252.471
252.77
253.075
253.386
253.705
254.03
254.362
254.7
255.045
259.383
258.988
258.601
258.222
257.851
257.488
257.132
256.785
256.445
256.114
255.79
255.474
255.166
254.866
254.574
254.289
254.012
253.742
253.48
253.225
252.977
252.736
252.502
252.275
252.054
251.837
251.628
251.427
251.223
251.02
250.839
250.655
250.464
250.284
250.107
249.933
249.77
249.6
249.427
249.274
249.135
248.974
248.812
248.666
248.518
248.355
248.188
248.038
247.889
247.728
247.567
247.423
247.283
247.137
246.986
246.838
246.692
246.546
246.398
246.249
246.099
245.95
245.8
245.651
245.501
245.352
245.203
245.055
244.908
244.763
244.621
244.482
244.349
244.223
244.105
243.997
243.902
243.822
243.76
243.719
243.71
243.72
243.755
243.822
243.921
244.065
244.252
244.454
244.704
245.006
245.358
245.748
246.158
246.596
247.069
247.573
248.1
248.643
249.196
249.752
250.306
250.851
251.384
251.899
252.394
252.867
253.317
253.745
254.152
254.54
254.912
255.272
255.622
255.966
256.308
256.649
256.991
257.338
257.689
258.046
258.41
258.78
259.157
259.54
259.929
260.323
260.723
261.126
260.42
260.056
259.702
259.357
259.021
258.693
258.374
258.063
257.762
257.468
257.183
256.906
256.638
256.378
256.126
255.882
255.646
255.418
255.198
254.985
254.779
254.58
254.389
254.204
254.025
253.852
253.688
253.527
253.363
253.211
253.07
252.922
252.776
252.643
252.506
252.368
252.249
252.125
251.99
251.87
251.769
251.651
251.526
251.414
251.304
251.177