/*--------------------------------*- C++ -*----------------------------------*\
| =========                 |                                                 |
| \\      /  F ield         | OpenFOAM: The Open Source CFD Toolbox           |
|  \\    /   O peration     | Version:  v1706                                 |
|   \\  /    A nd           | Web:      www.OpenFOAM.com                      |
|    \\/     M anipulation  |                                                 |
\*---------------------------------------------------------------------------*/
FoamFile
{
    version     2.0;
    format      ascii;
    class       volVectorField;
    location    "1.8e-05";
    object      U;
}
// * * * * * * * * * * * * * * * * * * * * * * * * * * * * * * * * * * * * * //

dimensions      [0 1 -1 0 0 0 0];


internalField   nonuniform List<vector> 
30104
(
(2764.5 -4.5017e-11 2.56332e-15)
(2764.5 -4.3883e-11 4.97387e-15)
(2764.5 -4.31478e-11 4.77306e-15)
(2764.5 -4.23392e-11 3.65365e-15)
(2764.5 -4.19207e-11 4.57261e-15)
(2764.5 -4.27033e-11 3.63249e-15)
(2764.5 -4.36734e-11 5.41792e-16)
(2764.5 -4.53475e-11 8.62787e-16)
(2764.5 -4.52214e-11 4.19261e-15)
(2764.5 -4.54708e-11 4.30318e-15)
(2764.5 -4.55546e-11 3.72552e-15)
(2764.5 -4.37824e-11 4.16801e-15)
(2764.5 -4.11211e-11 1.60081e-15)
(2764.5 -3.88595e-11 3.28726e-15)
(2764.5 -3.81609e-11 4.51522e-15)
(2764.5 -3.85619e-11 4.86241e-15)
(2764.5 -3.93919e-11 4.74921e-15)
(2764.5 -3.92042e-11 1.45855e-15)
(2764.5 -4.55545e-11 4.32338e-15)
(2764.5 -5.35091e-11 3.8261e-15)
(2764.5 -5.68495e-11 3.41469e-15)
(2764.5 -5.97667e-11 2.9908e-15)
(2764.5 -6.27841e-11 2.76314e-15)
(2764.5 -6.64761e-11 2.34231e-15)
(2764.5 -7.00844e-11 4.36604e-15)
(2764.5 -7.5721e-11 3.41265e-15)
(2764.5 -7.83208e-11 2.04147e-15)
(2764.5 -8.17213e-11 2.61547e-15)
(2764.5 -8.28497e-11 2.35748e-15)
(2764.5 -8.47806e-11 4.55476e-15)
(2764.5 -8.63975e-11 3.56124e-15)
(2764.5 -8.95775e-11 1.91453e-15)
(2764.5 -9.31373e-11 2.4369e-15)
(2764.5 -9.39254e-11 2.28992e-15)
(2764.5 -9.29511e-11 2.4196e-15)
(2764.5 -9.07785e-11 4.53132e-15)
(2764.5 -8.79204e-11 1.40771e-15)
(2764.5 -8.54715e-11 3.80273e-15)
(2764.5 -8.07812e-11 4.22295e-15)
(2764.5 -7.57958e-11 2.12926e-15)
(2764.5 -7.22259e-11 1.83999e-15)
(2764.5 -6.82639e-11 1.86721e-15)
(2764.5 -6.00525e-11 1.73554e-15)
(2764.5 -5.48427e-11 1.77003e-15)
(2764.5 -4.92033e-11 2.01399e-15)
(2764.5 -3.94908e-11 2.03118e-15)
(2764.5 -3.73754e-11 1.98609e-15)
(2764.5 -3.62547e-11 1.04829e-15)
(2764.5 -3.1625e-11 2.5795e-15)
(2764.5 -2.57669e-11 3.66505e-15)
(2764.5 -2.03778e-11 2.39934e-15)
(2764.5 -1.44665e-11 1.38533e-15)
(2764.5 -9.47607e-12 7.35139e-16)
(2764.5 -4.25867e-12 3.96862e-15)
(2764.5 -1.05378e-12 8.93189e-16)
(2764.5 1.28651e-12 2.05883e-15)
(2764.5 5.71385e-12 3.11705e-15)
(2764.5 1.03742e-11 1.63303e-15)
(2764.5 1.82715e-11 1.94645e-15)
(2764.5 2.45825e-11 1.99589e-15)
(2764.5 2.58238e-11 2.77761e-15)
(2764.5 3.07531e-11 3.20451e-15)
(2764.5 3.28222e-11 2.24336e-15)
(2764.5 3.88706e-11 2.29869e-15)
(2764.5 4.47938e-11 2.23494e-15)
(2764.5 4.42399e-11 2.42643e-15)
(2764.5 4.68641e-11 1.13547e-15)
(2764.5 5.18712e-11 3.64078e-15)
(2764.5 5.02834e-11 2.39966e-15)
(2764.5 4.82032e-11 8.07718e-16)
(2764.5 4.90187e-11 1.88825e-15)
(2764.5 4.86354e-11 1.99908e-15)
(2764.5 4.61922e-11 9.22254e-16)
(2764.5 4.33917e-11 2.18905e-15)
(2764.5 3.99206e-11 2.49558e-15)
(2764.5 4.09047e-11 1.91694e-15)
(2764.5 4.66029e-11 1.16388e-15)
(2764.5 5.05838e-11 6.26418e-16)
(2764.5 5.02512e-11 2.23489e-15)
(2764.5 4.49866e-11 3.10781e-15)
(2764.5 4.36096e-11 1.59326e-15)
(2764.5 3.52686e-11 4.04977e-15)
(2764.5 2.53904e-11 3.15832e-15)
(2764.5 1.86997e-11 2.72051e-15)
(2764.5 7.32261e-12 3.44355e-15)
(2764.5 -1.48625e-12 2.81064e-15)
(2764.5 -7.01513e-12 3.12611e-15)
(2764.5 -2.01554e-11 2.57856e-15)
(2764.5 -3.57932e-11 1.80772e-15)
(2764.5 -5.34533e-11 2.68881e-15)
(2764.5 -6.98319e-11 1.61998e-16)
(2764.5 -8.42574e-11 2.62683e-15)
(2764.5 -9.93967e-11 2.96809e-15)
(2764.5 -1.07759e-10 3.52195e-15)
(2764.5 -1.14794e-10 5.65593e-16)
(2764.5 -1.16391e-10 -1.3507e-15)
(2764.5 -1.10236e-10 2.2309e-15)
(2764.5 -1.07479e-10 5.12096e-16)
(2764.5 -9.66969e-11 2.06507e-15)
(2764.5 -7.99113e-11 8.71977e-16)
(2764.5 -5.82329e-11 -7.48177e-16)
(2764.5 -3.89494e-11 3.07603e-15)
(2764.5 -2.23823e-11 2.7636e-15)
(2764.5 -1.10985e-11 2.77191e-15)
(2764.5 2.24305e-12 1.63822e-15)
(2764.5 4.74501e-12 8.24945e-16)
(2764.5 1.7731e-13 1.9784e-15)
(2764.5 -4.10121e-12 2.01007e-15)
(2764.5 -1.89715e-11 1.83836e-15)
(2764.5 -3.58421e-11 2.68152e-15)
(2764.5 -5.48484e-11 2.5236e-15)
(2764.5 -6.25381e-11 5.35034e-16)
(2764.5 -6.49592e-11 2.82233e-15)
(2764.5 -5.80192e-11 1.41972e-15)
(2764.5 -5.37383e-11 -8.12787e-16)
(2764.5 -4.87472e-11 1.74616e-15)
(2764.5 -3.85146e-11 2.43124e-15)
(2764.5 -2.14905e-11 2.35903e-15)
(2764.5 -6.8452e-12 2.45811e-15)
(2764.5 -6.12108e-12 1.86613e-15)
(2764.5 -1.30495e-11 1.71048e-15)
(2764.5 -1.96542e-11 1.65586e-15)
(2764.5 -2.60972e-11 1.73856e-15)
(2764.5 -3.6289e-11 1.00796e-15)
(2764.5 -4.81764e-11 -7.20835e-16)
(2764.5 -5.77655e-11 2.25679e-15)
(2764.5 -5.79676e-11 3.16787e-15)
(2764.5 -5.63942e-11 2.40546e-15)
(2764.5 -5.29049e-11 1.89862e-15)
(2764.5 -4.51359e-11 1.63154e-15)
(2764.5 -4.45607e-11 1.15664e-15)
(2764.5 -4.50707e-11 1.92554e-16)
(2764.5 -4.64279e-11 1.0532e-15)
(2764.5 -4.0864e-11 1.44979e-15)
(2764.5 -3.79471e-11 1.67145e-15)
(2764.5 -3.67802e-11 1.63247e-15)
(2764.5 -3.10099e-11 1.29001e-15)
(2764.5 -3.12511e-11 1.6999e-15)
(2764.5 -3.27547e-11 1.28591e-15)
(2764.5 -3.3392e-11 2.304e-15)
(2764.5 -3.76628e-11 2.00386e-15)
(2764.5 -3.75913e-11 3.85337e-16)
(2764.5 -3.97513e-11 -2.03725e-17)
(2764.5 -3.97696e-11 4.43669e-16)
(2764.5 -3.54637e-11 9.90572e-16)
(2764.5 -3.67001e-11 1.34711e-15)
(2764.5 -3.758e-11 9.87138e-16)
(2764.5 -3.48257e-11 1.34206e-15)
(2764.5 -3.65437e-11 1.6353e-15)
(2764.5 -4.04083e-11 1.51934e-15)
(2764.5 -4.30097e-11 1.69e-15)
(2764.5 -4.50388e-11 1.14822e-15)
(2764.5 -4.91667e-11 1.81474e-15)
(2764.5 -5.14005e-11 1.04614e-15)
(2764.5 -4.8947e-11 1.6513e-15)
(2764.5 -4.45673e-11 1.58848e-15)
(2764.5 -3.09024e-11 1.21889e-15)
(2764.5 -2.29726e-11 1.94152e-15)
(2764.5 -2.32849e-11 2.6737e-15)
(2764.5 -2.95489e-11 2.27182e-15)
(2764.5 -3.21277e-11 2.91205e-15)
(2764.5 -3.54236e-11 7.87654e-16)
(2764.5 -3.55495e-11 1.24896e-15)
(2764.5 -2.77784e-11 2.60472e-15)
(2764.5 -2.23793e-11 1.83287e-15)
(2764.5 -2.88696e-11 9.09518e-16)
(2764.5 -3.40488e-11 1.27927e-15)
(2764.5 -3.51014e-11 1.93611e-15)
(2764.5 -3.91677e-11 9.06418e-16)
(2764.5 -3.89456e-11 1.26114e-15)
(2764.5 -3.73351e-11 6.87866e-16)
(2764.5 -3.07472e-11 1.26404e-15)
(2764.5 -2.40502e-11 1.47233e-15)
(2764.5 -2.49459e-11 1.45758e-15)
(2764.5 -2.51363e-11 1.75643e-15)
(2764.5 -2.78087e-11 1.71129e-15)
(2764.5 -3.19984e-11 1.07527e-15)
(2764.5 -3.31368e-11 1.16919e-15)
(2764.5 -3.92261e-11 1.71798e-15)
(2764.5 -4.99072e-11 7.06821e-16)
(2764.5 -5.68462e-11 1.78985e-15)
(2764.5 -5.96296e-11 1.03061e-15)
(2764.5 -5.60525e-11 1.59853e-15)
(2764.5 -5.4228e-11 2.45115e-15)
(2764.5 -5.76192e-11 1.53561e-15)
(2764.5 -5.70149e-11 1.131e-15)
(2764.5 -5.37652e-11 2.5792e-16)
(2764.5 -4.96964e-11 1.31746e-15)
(2764.5 -4.67436e-11 1.35838e-15)
(2764.5 -4.47284e-11 1.25571e-15)
(2764.5 -3.51431e-11 9.00135e-16)
(2764.5 -3.17435e-11 6.94117e-16)
(2764.5 -3.21263e-11 8.52606e-16)
(2764.5 -3.66939e-11 1.75085e-15)
(2764.5 -4.45513e-11 1.21321e-15)
(2764.5 -4.49017e-11 6.55298e-16)
(2764.5 -4.18015e-11 9.161e-16)
(2764.5 -3.20673e-11 2.08164e-16)
(2764.5 -1.67541e-11 9.71956e-16)
(2764.5 -1.415e-11 1.71979e-15)
(2764.5 -2.00442e-11 1.24803e-15)
(2764.5 -2.55935e-11 1.12635e-15)
(2764.5 -3.80988e-11 1.74626e-15)
(2764.5 -4.68661e-11 1.15009e-15)
(2764.5 -5.32542e-11 1.90606e-15)
(2764.5 -6.09294e-11 1.96025e-15)
(2764.5 -6.90104e-11 1.67415e-15)
(2764.5 -7.16409e-11 8.66166e-16)
(2764.5 -7.60865e-11 7.83809e-16)
(2764.5 -7.76428e-11 7.03863e-16)
(2764.5 -1.24463e-10 1.42151e-14)
(2764.5 -1.25854e-10 1.36208e-14)
(2764.5 -1.25978e-10 1.0512e-14)
(2764.5 -1.27494e-10 1.03921e-14)
(2764.5 -1.27303e-10 1.31635e-14)
(2764.5 -1.23733e-10 1.10322e-14)
(2764.5 -1.20855e-10 1.04194e-14)
(2764.5 -1.22129e-10 1.37013e-14)
(2764.5 -1.23193e-10 1.3877e-14)
(2764.5 -1.23156e-10 1.11316e-14)
(2764.5 -1.24561e-10 1.10883e-14)
(2764.5 -1.26904e-10 1.03747e-14)
(2764.5 -1.30914e-10 1.67106e-14)
(2764.5 -1.32399e-10 1.73592e-14)
(2764.5 -1.30394e-10 1.38606e-14)
(2764.5 -1.28292e-10 1.49667e-14)
(2764.5 -1.26082e-10 1.13591e-14)
(2764.5 -1.14706e-10 3.11526e-15)
(2764.5 -1.00889e-10 5.6756e-15)
(2764.5 -8.82279e-11 8.83919e-15)
(2764.5 -7.61558e-11 9.0173e-15)
(2764.5 -6.78799e-11 8.1749e-15)
(2764.5 -6.00185e-11 8.77521e-15)
(2764.5 -5.11598e-11 6.9352e-15)
(2764.5 -4.29525e-11 7.54804e-15)
(2764.5 -3.78226e-11 8.78581e-15)
(2764.5 -2.96818e-11 6.8241e-15)
(2764.5 -2.76351e-11 4.97435e-15)
(2764.5 -2.11822e-11 6.67431e-15)
(2764.5 -1.20857e-11 8.0674e-15)
(2764.5 -3.14046e-12 6.00192e-15)
(2764.5 5.76054e-12 3.7739e-15)
(2764.5 8.13118e-12 4.19511e-15)
(2764.5 5.25077e-12 5.85458e-15)
(2764.5 2.63775e-12 6.41098e-15)
(2764.5 -1.72243e-12 8.47907e-15)
(2764.5 -3.63571e-12 7.85452e-15)
(2764.5 -6.31609e-12 8.98834e-15)
(2764.5 -1.54479e-11 9.46239e-15)
(2764.5 -2.04201e-11 9.21164e-15)
(2764.5 -2.47341e-11 8.83408e-15)
(2764.5 -3.69646e-11 8.35512e-15)
(2764.5 -4.91163e-11 7.89495e-15)
(2764.5 -5.63534e-11 7.66946e-15)
(2764.5 -7.12944e-11 7.30308e-15)
(2764.5 -8.00814e-11 7.33561e-15)
(2764.5 -8.67668e-11 7.63863e-15)
(2764.5 -1.0092e-10 5.62265e-15)
(2764.5 -1.21859e-10 9.16122e-15)
(2764.5 -1.36684e-10 8.35643e-15)
(2764.5 -1.54021e-10 8.03772e-15)
(2764.5 -1.63988e-10 4.77123e-15)
(2764.5 -1.71798e-10 7.15008e-15)
(2764.5 -1.75234e-10 8.46246e-15)
(2764.5 -1.81468e-10 5.71542e-15)
(2764.5 -1.85265e-10 7.0501e-15)
(2764.5 -1.94061e-10 8.64953e-15)
(2764.5 -2.07177e-10 9.13648e-15)
(2764.5 -2.14373e-10 9.79879e-15)
(2764.5 -2.14981e-10 7.71544e-15)
(2764.5 -2.14137e-10 8.67569e-15)
(2764.5 -2.14711e-10 1.04806e-14)
(2764.5 -2.20162e-10 7.90984e-15)
(2764.5 -2.23439e-10 5.74687e-15)
(2764.5 -2.24534e-10 4.65047e-15)
(2764.5 -2.2237e-10 7.42114e-15)
(2764.5 -2.28722e-10 5.80639e-15)
(2764.5 -2.36679e-10 7.38587e-15)
(2764.5 -2.30632e-10 7.0744e-15)
(2764.5 -2.32029e-10 7.048e-15)
(2764.5 -2.33233e-10 6.65574e-15)
(2764.5 -2.32903e-10 4.87461e-15)
(2764.5 -2.29519e-10 5.13615e-15)
(2764.5 -2.27707e-10 7.07045e-15)
(2764.5 -2.29376e-10 7.08606e-15)
(2764.5 -2.39189e-10 8.52663e-15)
(2764.5 -2.46205e-10 7.50558e-15)
(2764.5 -2.40995e-10 5.61313e-15)
(2764.5 -2.2723e-10 6.24002e-15)
(2764.5 -2.18773e-10 5.90926e-15)
(2764.5 -2.08313e-10 5.39747e-15)
(2764.5 -1.92042e-10 7.1521e-15)
(2764.5 -1.83967e-10 9.10071e-15)
(2764.5 -1.72921e-10 6.32503e-15)
(2764.5 -1.52024e-10 5.45754e-15)
(2764.5 -1.42228e-10 7.39391e-15)
(2764.5 -1.22855e-10 5.35127e-15)
(2764.5 -8.69415e-11 5.8349e-15)
(2764.5 -5.02786e-11 5.5773e-15)
(2764.5 -2.6399e-11 6.13612e-15)
(2764.5 -2.72319e-12 3.99901e-15)
(2764.5 2.97651e-11 7.75667e-15)
(2764.5 4.19466e-11 7.84255e-15)
(2764.5 3.84424e-11 6.07913e-15)
(2764.5 3.2638e-11 5.1098e-15)
(2764.5 1.85054e-11 5.28054e-15)
(2764.5 -4.79146e-12 5.93455e-15)
(2764.5 -3.50682e-11 3.52374e-15)
(2764.5 -7.2884e-11 3.95548e-15)
(2764.5 -1.05094e-10 4.29951e-15)
(2764.5 -1.48572e-10 6.84972e-15)
(2764.5 -1.74363e-10 7.4616e-15)
(2764.5 -1.95873e-10 7.90282e-15)
(2764.5 -2.19795e-10 5.94989e-15)
(2764.5 -2.22155e-10 4.5106e-15)
(2764.5 -2.04729e-10 7.29149e-15)
(2764.5 -1.87612e-10 6.84056e-15)
(2764.5 -1.61832e-10 7.58112e-15)
(2764.5 -1.2517e-10 8.29136e-15)
(2764.5 -8.73541e-11 7.78923e-15)
(2764.5 -6.24998e-11 6.75246e-15)
(2764.5 -5.81403e-11 2.27877e-15)
(2764.5 -7.50508e-11 4.69494e-15)
(2764.5 -8.7841e-11 3.91852e-15)
(2764.5 -9.5514e-11 4.87341e-15)
(2764.5 -1.07761e-10 7.68697e-15)
(2764.5 -1.25664e-10 5.11094e-15)
(2764.5 -1.45458e-10 5.79868e-15)
(2764.5 -1.4837e-10 3.9546e-15)
(2764.5 -1.42696e-10 4.33618e-15)
(2764.5 -1.31494e-10 5.59066e-15)
(2764.5 -1.16527e-10 5.85312e-15)
(2764.5 -1.05848e-10 5.44706e-15)
(2764.5 -8.54543e-11 4.49787e-15)
(2764.5 -7.2425e-11 5.58783e-15)
(2764.5 -7.39392e-11 5.33158e-15)
(2764.5 -8.28768e-11 5.35258e-15)
(2764.5 -9.09272e-11 7.16497e-15)
(2764.5 -1.02925e-10 9.11876e-15)
(2764.5 -1.1743e-10 5.6046e-15)
(2764.5 -1.19687e-10 6.0009e-15)
(2764.5 -1.15087e-10 5.06865e-15)
(2764.5 -1.16e-10 4.66463e-15)
(2764.5 -1.20077e-10 6.77418e-15)
(2764.5 -1.17906e-10 7.07662e-15)
(2764.5 -1.17567e-10 5.73439e-15)
(2764.5 -1.1979e-10 6.43543e-15)
(2764.5 -1.13981e-10 3.43212e-15)
(2764.5 -1.13557e-10 1.66559e-15)
(2764.5 -1.13672e-10 7.98124e-15)
(2764.5 -1.07868e-10 6.94109e-15)
(2764.5 -1.15996e-10 4.87178e-15)
(2764.5 -1.12424e-10 4.40554e-15)
(2764.5 -1.215e-10 3.88882e-15)
(2764.5 -1.22285e-10 3.64143e-15)
(2764.5 -1.15941e-10 3.19214e-15)
(2764.5 -1.14794e-10 4.258e-15)
(2764.5 -1.13923e-10 5.39551e-15)
(2764.5 -1.06833e-10 3.79837e-15)
(2764.5 -1.02094e-10 3.83367e-15)
(2764.5 -1.07506e-10 3.87354e-15)
(2764.5 -1.05323e-10 4.87486e-15)
(2764.5 -1.08939e-10 6.14242e-15)
(2764.5 -1.10639e-10 3.82627e-15)
(2764.5 -1.18839e-10 3.81306e-15)
(2764.5 -1.22474e-10 3.79085e-15)
(2764.5 -1.30063e-10 5.32147e-15)
(2764.5 -1.26666e-10 5.29775e-15)
(2764.5 -1.10558e-10 5.89939e-15)
(2764.5 -9.29107e-11 5.5655e-15)
(2764.5 -8.87931e-11 5.5637e-15)
(2764.5 -9.5542e-11 6.06738e-15)
(2764.5 -9.55264e-11 6.8403e-15)
(2764.5 -1.09504e-10 4.7744e-15)
(2764.5 -1.10059e-10 5.12621e-15)
(2764.5 -1.02691e-10 4.30105e-15)
(2764.5 -1.00586e-10 4.0776e-15)
(2764.5 -1.08643e-10 4.37858e-15)
(2764.5 -1.13315e-10 4.58206e-15)
(2764.5 -1.22461e-10 5.47465e-15)
(2764.5 -1.28026e-10 5.32919e-15)
(2764.5 -1.25989e-10 5.39797e-15)
(2764.5 -1.2271e-10 5.37924e-15)
(2764.5 -1.08939e-10 4.74067e-15)
(2764.5 -9.96637e-11 5.7551e-15)
(2764.5 -8.30695e-11 5.28768e-15)
(2764.5 -8.31898e-11 3.10089e-15)
(2764.5 -8.70619e-11 4.89483e-15)
(2764.5 -8.13948e-11 4.37132e-15)
(2764.5 -8.16659e-11 4.13287e-15)
(2764.5 -9.26314e-11 4.82689e-15)
(2764.5 -1.08504e-10 3.77388e-15)
(2764.5 -1.12067e-10 4.19948e-15)
(2764.5 -1.01976e-10 5.13074e-15)
(2764.5 -9.91727e-11 5.2143e-15)
(2764.5 -1.03546e-10 4.85276e-15)
(2764.5 -1.06221e-10 5.73517e-15)
(2764.5 -1.20189e-10 4.51475e-15)
(2764.5 -1.25454e-10 2.59428e-15)
(2764.5 -1.3626e-10 4.29794e-15)
(2764.5 -1.38794e-10 4.62745e-15)
(2764.5 -1.35625e-10 4.0688e-15)
(2764.5 -1.29515e-10 4.5827e-15)
(2764.5 -1.18519e-10 4.42259e-15)
(2764.5 -1.23865e-10 3.87073e-15)
(2764.5 -1.28868e-10 3.80402e-15)
(2764.5 -1.37307e-10 4.28086e-15)
(2764.5 -1.49497e-10 4.54893e-15)
(2764.5 -1.48017e-10 4.65262e-15)
(2764.5 -1.311e-10 4.42006e-15)
(2764.5 -1.11574e-10 3.62657e-15)
(2764.5 -1.0133e-10 6.03383e-15)
(2764.5 -8.85543e-11 8.30061e-16)
(2764.5 -9.17187e-11 3.14568e-15)
(2764.5 -8.60231e-11 5.13509e-15)
(2764.5 -8.68336e-11 6.16901e-15)
(2764.5 -8.98106e-11 6.11566e-15)
(2764.5 -1.00847e-10 6.17453e-15)
(2764.5 -1.02799e-10 5.92691e-15)
(2764.5 -1.21621e-10 4.71338e-15)
(2764.5 -2.02901e-10 1.75767e-14)
(2764.5 -2.0623e-10 2.09051e-14)
(2764.5 -2.07837e-10 2.06578e-14)
(2764.5 -2.09699e-10 1.85114e-14)
(2764.5 -2.13974e-10 2.79201e-14)
(2764.5 -2.12882e-10 1.97388e-14)
(2764.5 -2.10546e-10 1.97646e-14)
(2764.5 -2.10481e-10 2.01327e-14)
(2764.5 -2.06888e-10 2.11786e-14)
(2764.5 -2.06415e-10 2.11001e-14)
(2764.5 -2.03459e-10 2.0479e-14)
(2764.5 -2.03318e-10 2.45625e-14)
(2764.5 -2.04039e-10 1.69662e-14)
(2764.5 -2.04033e-10 1.41981e-14)
(2764.5 -2.063e-10 2.13677e-14)
(2764.5 -2.04345e-10 2.00036e-14)
(2764.5 -2.04991e-10 1.31948e-14)
(2764.5 -2.24259e-10 1.36832e-14)
(2764.5 -2.3632e-10 1.40239e-14)
(2764.5 -2.51411e-10 1.48708e-14)
(2764.5 -2.64752e-10 1.49181e-14)
(2764.5 -2.71348e-10 1.34227e-14)
(2764.5 -2.75276e-10 1.3582e-14)
(2764.5 -2.79094e-10 1.60494e-14)
(2764.5 -2.81573e-10 1.3044e-14)
(2764.5 -2.89511e-10 1.3231e-14)
(2764.5 -2.94423e-10 1.50424e-14)
(2764.5 -3.02424e-10 1.3368e-14)
(2764.5 -3.08722e-10 1.46232e-14)
(2764.5 -3.13485e-10 1.51623e-14)
(2764.5 -3.09388e-10 1.05278e-14)
(2764.5 -3.06016e-10 1.12998e-14)
(2764.5 -3.03428e-10 9.90624e-15)
(2764.5 -3.00996e-10 1.21017e-14)
(2764.5 -2.96813e-10 1.5411e-14)
(2764.5 -2.97251e-10 1.12132e-14)
(2764.5 -2.9654e-10 1.31901e-14)
(2764.5 -2.89489e-10 1.37201e-14)
(2764.5 -2.80816e-10 1.2854e-14)
(2764.5 -2.73198e-10 1.28447e-14)
(2764.5 -2.6309e-10 1.37973e-14)
(2764.5 -2.53037e-10 1.28357e-14)
(2764.5 -2.38131e-10 1.27e-14)
(2764.5 -2.25231e-10 1.29237e-14)
(2764.5 -2.14794e-10 1.17328e-14)
(2764.5 -1.96601e-10 1.28969e-14)
(2764.5 -1.78711e-10 1.17468e-14)
(2764.5 -1.73221e-10 1.25277e-14)
(2764.5 -1.63646e-10 1.24231e-14)
(2764.5 -1.55927e-10 1.19756e-14)
(2764.5 -1.51733e-10 1.12335e-14)
(2764.5 -1.43293e-10 1.56944e-14)
(2764.5 -1.31442e-10 1.12317e-14)
(2764.5 -1.20944e-10 1.15539e-14)
(2764.5 -1.11727e-10 1.29524e-14)
(2764.5 -9.48619e-11 1.17496e-14)
(2764.5 -8.75882e-11 1.31084e-14)
(2764.5 -8.64573e-11 1.42919e-14)
(2764.5 -8.93504e-11 1.19074e-14)
(2764.5 -8.70953e-11 1.36461e-14)
(2764.5 -8.15306e-11 1.10429e-14)
(2764.5 -7.4207e-11 1.13431e-14)
(2764.5 -7.19036e-11 1.28295e-14)
(2764.5 -6.87921e-11 1.40677e-14)
(2764.5 -6.13089e-11 1.23996e-14)
(2764.5 -5.23036e-11 1.07718e-14)
(2764.5 -5.14735e-11 1.0222e-14)
(2764.5 -5.10544e-11 1.08971e-14)
(2764.5 -4.53107e-11 1.04312e-14)
(2764.5 -4.99963e-11 8.77512e-15)
(2764.5 -4.55178e-11 9.28673e-15)
(2764.5 -4.70219e-11 1.3392e-14)
(2764.5 -4.87164e-11 9.35567e-15)
(2764.5 -4.85773e-11 1.00786e-14)
(2764.5 -5.35235e-11 1.20923e-14)
(2764.5 -6.83081e-11 1.15898e-14)
(2764.5 -8.39045e-11 1.17076e-14)
(2764.5 -9.66631e-11 1.16557e-14)
(2764.5 -1.00075e-10 1.25814e-14)
(2764.5 -1.13366e-10 1.34612e-14)
(2764.5 -1.21258e-10 1.01438e-14)
(2764.5 -1.37831e-10 8.74922e-15)
(2764.5 -1.53697e-10 1.2283e-14)
(2764.5 -1.79053e-10 1.19906e-14)
(2764.5 -2.08095e-10 9.69366e-15)
(2764.5 -2.57458e-10 1.37788e-14)
(2764.5 -2.89396e-10 1.18238e-14)
(2764.5 -3.1666e-10 1.03543e-14)
(2764.5 -3.41891e-10 1.27825e-14)
(2764.5 -3.61318e-10 1.24183e-14)
(2764.5 -3.66658e-10 1.03016e-14)
(2764.5 -3.52563e-10 7.87423e-15)
(2764.5 -3.31839e-10 1.08748e-14)
(2764.5 -3.0064e-10 9.84026e-15)
(2764.5 -2.74908e-10 8.51228e-15)
(2764.5 -2.4049e-10 7.77228e-15)
(2764.5 -1.97744e-10 7.53446e-15)
(2764.5 -1.53816e-10 8.36339e-15)
(2764.5 -1.08524e-10 9.60044e-15)
(2764.5 -8.1981e-11 9.85064e-15)
(2764.5 -6.69411e-11 9.49424e-15)
(2764.5 -6.00193e-11 1.05268e-14)
(2764.5 -7.66591e-11 8.48862e-15)
(2764.5 -1.01138e-10 8.63667e-15)
(2764.5 -1.23072e-10 8.31069e-15)
(2764.5 -1.53169e-10 8.05073e-15)
(2764.5 -1.88493e-10 1.25857e-14)
(2764.5 -2.24042e-10 1.05874e-14)
(2764.5 -2.39266e-10 9.54787e-15)
(2764.5 -2.37326e-10 1.02913e-14)
(2764.5 -2.29462e-10 9.14347e-15)
(2764.5 -2.17848e-10 8.81359e-15)
(2764.5 -2.04806e-10 7.53838e-15)
(2764.5 -1.82005e-10 1.0019e-14)
(2764.5 -1.56642e-10 8.04265e-15)
(2764.5 -1.48604e-10 7.17173e-15)
(2764.5 -1.4897e-10 8.15691e-15)
(2764.5 -1.51052e-10 8.56226e-15)
(2764.5 -1.53936e-10 8.80411e-15)
(2764.5 -1.61259e-10 1.02525e-14)
(2764.5 -1.75596e-10 1.02514e-14)
(2764.5 -1.94433e-10 8.9524e-15)
(2764.5 -2.06675e-10 7.4304e-15)
(2764.5 -2.05433e-10 8.6706e-15)
(2764.5 -1.94062e-10 8.35417e-15)
(2764.5 -1.84816e-10 1.00135e-14)
(2764.5 -1.71422e-10 1.17507e-14)
(2764.5 -1.58174e-10 9.95245e-15)
(2764.5 -1.57395e-10 8.61878e-15)
(2764.5 -1.5859e-10 9.51483e-15)
(2764.5 -1.6055e-10 9.52096e-15)
(2764.5 -1.63106e-10 9.92541e-15)
(2764.5 -1.769e-10 9.98895e-15)
(2764.5 -1.89465e-10 1.05855e-14)
(2764.5 -1.89377e-10 9.46213e-15)
(2764.5 -1.92635e-10 9.59147e-15)
(2764.5 -1.87729e-10 9.43061e-15)
(2764.5 -1.80592e-10 8.20534e-15)
(2764.5 -1.7672e-10 9.04266e-15)
(2764.5 -1.65381e-10 8.67487e-15)
(2764.5 -1.61646e-10 8.3991e-15)
(2764.5 -1.519e-10 8.3187e-15)
(2764.5 -1.51329e-10 6.80629e-15)
(2764.5 -1.6494e-10 9.64129e-15)
(2764.5 -1.65446e-10 5.64386e-15)
(2764.5 -1.68068e-10 6.32603e-15)
(2764.5 -1.69834e-10 6.91308e-15)
(2764.5 -1.67849e-10 5.55476e-15)
(2764.5 -1.58084e-10 8.99104e-15)
(2764.5 -1.60428e-10 9.49793e-15)
(2764.5 -1.54199e-10 8.59162e-15)
(2764.5 -1.5924e-10 8.74881e-15)
(2764.5 -1.62116e-10 8.62081e-15)
(2764.5 -1.67264e-10 8.43774e-15)
(2764.5 -1.84347e-10 1.0539e-14)
(2764.5 -1.96728e-10 9.2653e-15)
(2764.5 -2.09346e-10 9.15899e-15)
(2764.5 -2.2403e-10 8.11541e-15)
(2764.5 -2.2212e-10 9.34595e-15)
(2764.5 -2.03073e-10 8.6205e-15)
(2764.5 -1.97634e-10 8.0142e-15)
(2764.5 -1.88692e-10 7.13032e-15)
(2764.5 -1.83072e-10 9.26871e-15)
(2764.5 -1.78579e-10 9.59073e-15)
(2764.5 -1.65616e-10 8.87878e-15)
(2764.5 -1.50962e-10 7.8542e-15)
(2764.5 -1.46966e-10 8.54579e-15)
(2764.5 -1.38166e-10 8.57419e-15)
(2764.5 -1.45018e-10 9.21427e-15)
(2764.5 -1.57343e-10 8.56204e-15)
(2764.5 -1.74274e-10 7.19574e-15)
(2764.5 -2.02858e-10 8.7118e-15)
(2764.5 -2.06199e-10 8.47367e-15)
(2764.5 -2.10315e-10 1.0576e-14)
(2764.5 -2.0491e-10 8.04311e-15)
(2764.5 -1.88663e-10 8.21893e-15)
(2764.5 -1.75933e-10 7.74187e-15)
(2764.5 -1.6921e-10 6.12279e-15)
(2764.5 -1.5226e-10 4.22764e-15)
(2764.5 -1.52848e-10 5.22013e-15)
(2764.5 -1.49716e-10 7.35229e-15)
(2764.5 -1.74111e-10 7.61462e-15)
(2764.5 -1.87655e-10 7.34881e-15)
(2764.5 -1.86486e-10 6.56366e-15)
(2764.5 -1.78702e-10 9.82444e-15)
(2764.5 -1.66477e-10 7.88998e-15)
(2764.5 -1.62009e-10 6.38516e-15)
(2764.5 -1.5999e-10 8.94394e-15)
(2764.5 -1.57909e-10 8.57458e-15)
(2764.5 -1.59117e-10 7.4304e-15)
(2764.5 -1.61112e-10 6.59338e-15)
(2764.5 -1.69439e-10 5.94489e-15)
(2764.5 -1.57973e-10 7.06339e-15)
(2764.5 -1.51475e-10 6.76604e-15)
(2764.5 -1.53763e-10 5.59319e-15)
(2764.5 -1.5969e-10 5.22284e-15)
(2764.5 -1.71203e-10 5.79706e-15)
(2764.5 -1.90725e-10 5.86415e-15)
(2764.5 -1.96497e-10 6.45904e-15)
(2764.5 -1.91754e-10 6.6276e-15)
(2764.5 -1.74879e-10 7.68412e-15)
(2764.5 -1.68386e-10 7.73905e-15)
(2764.5 -1.53925e-10 5.98455e-15)
(2764.5 -1.49174e-10 5.95364e-15)
(2764.5 -1.53927e-10 8.01308e-15)
(2764.5 -1.34417e-10 7.19442e-15)
(2764.5 -1.39936e-10 6.10701e-15)
(2764.5 -1.37074e-10 7.71604e-15)
(2764.5 -1.35541e-10 7.75827e-15)
(2764.5 -2.79973e-10 2.78192e-14)
(2764.5 -2.79214e-10 2.65006e-14)
(2764.5 -2.80516e-10 2.49347e-14)
(2764.5 -2.79952e-10 2.79705e-14)
(2764.5 -2.81694e-10 2.99193e-14)
(2764.5 -2.85017e-10 2.41866e-14)
(2764.5 -2.84913e-10 2.72026e-14)
(2764.5 -2.85113e-10 2.69503e-14)
(2764.5 -2.83923e-10 2.47765e-14)
(2764.5 -2.83819e-10 2.32112e-14)
(2764.5 -2.83166e-10 2.88651e-14)
(2764.5 -2.8414e-10 3.05453e-14)
(2764.5 -2.86356e-10 2.94487e-14)
(2764.5 -2.90501e-10 2.58492e-14)
(2764.5 -2.92907e-10 2.67076e-14)
(2764.5 -2.91194e-10 2.41383e-14)
(2764.5 -2.04932e-10 1.70213e-14)
(2764.5 -1.82834e-10 1.64419e-14)
(2764.5 -1.63336e-10 1.78161e-14)
(2764.5 -1.44861e-10 1.66189e-14)
(2764.5 -1.38017e-10 1.97837e-14)
(2764.5 -1.31233e-10 2.0074e-14)
(2764.5 -1.24826e-10 1.96332e-14)
(2764.5 -1.1632e-10 1.84619e-14)
(2764.5 -9.86527e-11 2.00503e-14)
(2764.5 -9.21732e-11 2.09142e-14)
(2764.5 -7.98975e-11 1.72402e-14)
(2764.5 -7.56371e-11 1.81853e-14)
(2764.5 -6.92465e-11 1.6071e-14)
(2764.5 -5.52548e-11 1.49623e-14)
(2764.5 -4.46304e-11 1.86552e-14)
(2764.5 -3.65744e-11 1.71938e-14)
(2764.5 -2.9927e-11 1.72483e-14)
(2764.5 -3.27033e-11 1.57028e-14)
(2764.5 -3.60218e-11 1.32328e-14)
(2764.5 -3.96761e-11 1.53684e-14)
(2764.5 -4.32455e-11 1.68743e-14)
(2764.5 -5.36903e-11 1.91043e-14)
(2764.5 -6.18463e-11 1.88082e-14)
(2764.5 -6.8536e-11 1.7803e-14)
(2764.5 -8.55603e-11 1.62728e-14)
(2764.5 -1.14258e-10 1.5938e-14)
(2764.5 -1.43956e-10 1.7707e-14)
(2764.5 -1.5855e-10 1.62294e-14)
(2764.5 -1.80212e-10 1.89168e-14)
(2764.5 -1.8805e-10 1.75056e-14)
(2764.5 -1.92062e-10 1.58083e-14)
(2764.5 -1.97167e-10 1.76222e-14)
(2764.5 -2.04216e-10 1.60246e-14)
(2764.5 -2.19895e-10 1.48659e-14)
(2764.5 -2.36099e-10 1.62868e-14)
(2764.5 -2.54032e-10 1.63727e-14)
(2764.5 -2.72304e-10 1.62319e-14)
(2764.5 -3.04073e-10 1.87681e-14)
(2764.5 -3.27736e-10 1.83296e-14)
(2764.5 -3.5451e-10 1.39562e-14)
(2764.5 -3.79741e-10 1.9209e-14)
(2764.5 -3.9188e-10 1.56278e-14)
(2764.5 -4.01301e-10 1.63796e-14)
(2764.5 -4.15902e-10 1.80781e-14)
(2764.5 -4.23161e-10 1.82171e-14)
(2764.5 -4.3248e-10 1.8523e-14)
(2764.5 -4.47044e-10 1.75592e-14)
(2764.5 -4.53322e-10 1.67489e-14)
(2764.5 -4.53156e-10 1.6459e-14)
(2764.5 -4.47956e-10 1.42422e-14)
(2764.5 -4.39296e-10 1.3804e-14)
(2764.5 -4.36881e-10 1.66094e-14)
(2764.5 -4.33361e-10 1.61535e-14)
(2764.5 -4.32734e-10 1.59464e-14)
(2764.5 -4.29419e-10 1.6026e-14)
(2764.5 -4.30949e-10 1.75791e-14)
(2764.5 -4.29493e-10 1.48838e-14)
(2764.5 -4.20118e-10 1.52176e-14)
(2764.5 -4.06403e-10 1.50025e-14)
(2764.5 -4.00027e-10 1.62696e-14)
(2764.5 -3.93125e-10 1.70664e-14)
(2764.5 -3.88299e-10 1.63281e-14)
(2764.5 -3.59328e-10 1.44167e-14)
(2764.5 -3.24404e-10 1.63713e-14)
(2764.5 -2.87997e-10 1.3191e-14)
(2764.5 -2.41914e-10 1.18325e-14)
(2764.5 -1.85513e-10 1.5467e-14)
(2764.5 -1.19431e-10 1.49028e-14)
(2764.5 -6.72322e-11 1.47363e-14)
(2764.5 -2.29474e-11 1.5311e-14)
(2764.5 1.59694e-11 1.57918e-14)
(2764.5 3.65242e-11 1.44931e-14)
(2764.5 3.33344e-11 1.55757e-14)
(2764.5 2.83831e-11 1.46359e-14)
(2764.5 -7.83325e-13 1.54744e-14)
(2764.5 -3.1343e-11 1.52565e-14)
(2764.5 -7.24849e-11 1.61935e-14)
(2764.5 -1.13739e-10 1.53636e-14)
(2764.5 -1.58641e-10 1.59109e-14)
(2764.5 -2.10907e-10 1.50758e-14)
(2764.5 -2.66966e-10 1.69341e-14)
(2764.5 -3.29013e-10 1.56497e-14)
(2764.5 -3.69672e-10 1.47074e-14)
(2764.5 -4.01511e-10 1.35518e-14)
(2764.5 -4.05917e-10 1.58187e-14)
(2764.5 -3.91669e-10 1.56646e-14)
(2764.5 -3.72438e-10 1.41474e-14)
(2764.5 -3.47996e-10 1.26834e-14)
(2764.5 -3.15751e-10 1.03709e-14)
(2764.5 -2.71687e-10 1.20515e-14)
(2764.5 -2.17388e-10 1.51772e-14)
(2764.5 -1.89635e-10 1.33631e-14)
(2764.5 -1.66692e-10 1.35762e-14)
(2764.5 -1.72731e-10 1.4131e-14)
(2764.5 -1.85872e-10 1.33743e-14)
(2764.5 -2.06879e-10 1.29683e-14)
(2764.5 -2.28766e-10 1.19205e-14)
(2764.5 -2.72318e-10 1.3557e-14)
(2764.5 -3.08128e-10 1.38988e-14)
(2764.5 -3.28748e-10 1.32207e-14)
(2764.5 -3.3858e-10 1.42438e-14)
(2764.5 -3.39328e-10 1.25653e-14)
(2764.5 -3.11814e-10 1.24275e-14)
(2764.5 -2.78598e-10 1.40898e-14)
(2764.5 -2.3485e-10 1.23816e-14)
(2764.5 -2.0954e-10 1.33479e-14)
(2764.5 -2.02884e-10 1.37386e-14)
(2764.5 -2.03621e-10 1.59196e-14)
(2764.5 -2.17935e-10 1.48721e-14)
(2764.5 -2.36885e-10 1.09103e-14)
(2764.5 -2.53159e-10 1.38487e-14)
(2764.5 -2.71544e-10 1.54497e-14)
(2764.5 -2.79048e-10 1.22655e-14)
(2764.5 -2.77106e-10 1.25637e-14)
(2764.5 -2.72938e-10 1.26547e-14)
(2764.5 -2.57368e-10 1.10896e-14)
(2764.5 -2.38221e-10 1.21711e-14)
(2764.5 -2.37632e-10 1.17631e-14)
(2764.5 -2.37459e-10 1.20445e-14)
(2764.5 -2.404e-10 1.63799e-14)
(2764.5 -2.4568e-10 1.40915e-14)
(2764.5 -2.4725e-10 1.25613e-14)
(2764.5 -2.53838e-10 1.38393e-14)
(2764.5 -2.5869e-10 1.35888e-14)
(2764.5 -2.6772e-10 1.27832e-14)
(2764.5 -2.65209e-10 1.23967e-14)
(2764.5 -2.5944e-10 1.11299e-14)
(2764.5 -2.56089e-10 1.07167e-14)
(2764.5 -2.50483e-10 1.19332e-14)
(2764.5 -2.4526e-10 1.1809e-14)
(2764.5 -2.49172e-10 1.12248e-14)
(2764.5 -2.41754e-10 1.03156e-14)
(2764.5 -2.31371e-10 9.95901e-15)
(2764.5 -2.25203e-10 1.01591e-14)
(2764.5 -2.14225e-10 1.02745e-14)
(2764.5 -2.0724e-10 1.01473e-14)
(2764.5 -2.04484e-10 1.12283e-14)
(2764.5 -1.97817e-10 1.24918e-14)
(2764.5 -2.02861e-10 1.21203e-14)
(2764.5 -2.05578e-10 1.08023e-14)
(2764.5 -2.29103e-10 9.61179e-15)
(2764.5 -2.407e-10 1.02645e-14)
(2764.5 -2.55816e-10 9.89111e-15)
(2764.5 -2.61773e-10 1.04511e-14)
(2764.5 -2.6719e-10 1.04093e-14)
(2764.5 -2.77104e-10 1.20443e-14)
(2764.5 -2.85505e-10 1.11882e-14)
(2764.5 -2.85935e-10 1.11889e-14)
(2764.5 -2.95282e-10 1.10976e-14)
(2764.5 -2.90423e-10 1.06751e-14)
(2764.5 -2.78433e-10 1.17924e-14)
(2764.5 -2.52356e-10 9.71192e-15)
(2764.5 -2.23018e-10 1.00889e-14)
(2764.5 -2.07637e-10 9.38703e-15)
(2764.5 -1.95757e-10 9.70326e-15)
(2764.5 -1.96985e-10 8.86813e-15)
(2764.5 -2.18233e-10 9.47534e-15)
(2764.5 -2.39553e-10 1.13398e-14)
(2764.5 -2.49817e-10 1.14131e-14)
(2764.5 -2.49245e-10 1.05968e-14)
(2764.5 -2.55215e-10 1.11953e-14)
(2764.5 -2.34515e-10 1.13131e-14)
(2764.5 -2.22801e-10 1.1747e-14)
(2764.5 -2.04953e-10 9.08876e-15)
(2764.5 -1.87857e-10 9.58508e-15)
(2764.5 -1.90609e-10 1.00218e-14)
(2764.5 -2.07519e-10 9.36121e-15)
(2764.5 -2.23193e-10 9.15903e-15)
(2764.5 -2.46331e-10 8.8511e-15)
(2764.5 -2.54205e-10 7.47072e-15)
(2764.5 -2.54142e-10 1.17386e-14)
(2764.5 -2.46553e-10 1.00521e-14)
(2764.5 -2.50356e-10 1.0582e-14)
(2764.5 -2.52734e-10 1.12064e-14)
(2764.5 -2.55067e-10 1.04908e-14)
(2764.5 -2.62332e-10 1.02706e-14)
(2764.5 -2.68057e-10 1.09207e-14)
(2764.5 -2.56873e-10 1.00998e-14)
(2764.5 -2.436e-10 9.2695e-15)
(2764.5 -2.3111e-10 8.87905e-15)
(2764.5 -2.2426e-10 9.84349e-15)
(2764.5 -2.32206e-10 9.77283e-15)
(2764.5 -2.51294e-10 9.27428e-15)
(2764.5 -2.70965e-10 1.02685e-14)
(2764.5 -2.73137e-10 1.04285e-14)
(2764.5 -2.67177e-10 9.90514e-15)
(2764.5 -2.61785e-10 9.17347e-15)
(2764.5 -2.45849e-10 8.33153e-15)
(2764.5 -2.39651e-10 8.57856e-15)
(2764.5 -2.42114e-10 9.05927e-15)
(2764.5 -2.15876e-10 9.72636e-15)
(2764.5 -2.14924e-10 1.00497e-14)
(2764.5 -1.97379e-10 9.24579e-15)
(2764.5 -3.65919e-10 3.30694e-14)
(2764.5 -3.62032e-10 3.34595e-14)
(2764.5 -3.60481e-10 3.76963e-14)
(2764.5 -3.59896e-10 3.99799e-14)
(2764.5 -3.61144e-10 3.61819e-14)
(2764.5 -3.65065e-10 3.46655e-14)
(2764.5 -3.66792e-10 3.59915e-14)
(2764.5 -3.63447e-10 3.49502e-14)
(2764.5 -3.61255e-10 3.43075e-14)
(2764.5 -3.59804e-10 3.68363e-14)
(2764.5 -3.59884e-10 4.10692e-14)
(2764.5 -3.60876e-10 3.35565e-14)
(2764.5 -3.59202e-10 3.64065e-14)
(2764.5 -3.58921e-10 3.38187e-14)
(2764.5 -3.66475e-10 3.36269e-14)
(2764.5 -3.90716e-10 2.73052e-14)
(2764.5 -4.2726e-10 2.37992e-14)
(2764.5 -4.50645e-10 2.4447e-14)
(2764.5 -4.75776e-10 2.33574e-14)
(2764.5 -4.91996e-10 2.47098e-14)
(2764.5 -5.07065e-10 2.36005e-14)
(2764.5 -5.22505e-10 1.97432e-14)
(2764.5 -5.40605e-10 2.33437e-14)
(2764.5 -5.51959e-10 2.38067e-14)
(2764.5 -5.5636e-10 2.39948e-14)
(2764.5 -5.63229e-10 2.42416e-14)