/*--------------------------------*- C++ -*----------------------------------*\
| =========                 |                                                 |
| \\      /  F ield         | OpenFOAM: The Open Source CFD Toolbox           |
|  \\    /   O peration     | Version:  v1706                                 |
|   \\  /    A nd           | Web:      www.OpenFOAM.com                      |
|    \\/     M anipulation  |                                                 |
\*---------------------------------------------------------------------------*/
FoamFile
{
    version     2.0;
    format      ascii;
    class       volScalarField;
    location    "1.8e-05";
    object      wallHeatFlux;
}
// * * * * * * * * * * * * * * * * * * * * * * * * * * * * * * * * * * * * * //

dimensions      [1 0 -3 0 0 0 0];


internalField   uniform 0;

boundaryField
{
    cone
    {
        type            calculated;
        value           nonuniform List<scalar> 
119
(
32237.8
32091
31965.5
31859.8
31772.8
31703.8
31652.5
31618.7
31602.5
31603.8
31622.9
31659.8
31714.2
31785.9
31873.9
31977.1
32094
32222.3
32359.4
32501.7
32644.3
32780.4
32903.5
33007.6
33085.1
33124.8
33115.3
33044.5
32902.5
32683.4
32378.2
31981.9
31495.6
30926.1
30286.7
29596.3
28878.7
28161
27471.5
26836.4
26279.4
25821.2
25477.3
25258.4
25171.4
25219.9
25405
25726.5
26182.5
26770
27485.5
28325
29283.7
30356
31534.7
32810.8
34173.1
35607.1
37095.2
38616
40146.2
41658.7
43121
44498.4
45760.7
46864
47737.6
48333.1
48643.8
48677.9
48409.7
47816.9
46910.2
45703
44226.8
42534
40696.9
38803.2
36948
35220.4
33690.5
32403.4
31383.6
30633.8
30143.3
29893.2
29861.2
30028
30377.4
30895.3
31569.4
32389.1
33344.8
34426.9
35625.6
36930.9
38332.2
39820.1
41388
43033.3
44756.2
46556.6
48429.9
50365.1
52345.7
54353.8
56374.9
58399.7
60424
62443.8
64451.3
66428.3
68339.1
70135.2
71786.6
73384.3
75176.8
77626.6
81118.8
)
;
    }
    inlet
    {
        type            calculated;
        value           uniform 0;
    }
    rWedge
    {
        type            wedge;
    }
    lWedge
    {
        type            wedge;
    }
    outlet
    {
        type            calculated;
        value           uniform 0;
    }
    procBoundary0to1
    {
        type            processor;
        value           uniform 0;
    }
    procBoundary0to2
    {
        type            processor;
        value           uniform 0;
    }
}


// ************************************************************************* //
