/*--------------------------------*- C++ -*----------------------------------*\
| =========                 |                                                 |
| \\      /  F ield         | OpenFOAM: The Open Source CFD Toolbox           |
|  \\    /   O peration     | Version:  v1706                                 |
|   \\  /    A nd           | Web:      www.OpenFOAM.com                      |
|    \\/     M anipulation  |                                                 |
\*---------------------------------------------------------------------------*/
FoamFile
{
    version     2.0;
    format      ascii;
    class       volScalarField;
    location    "1.9e-05";
    object      alpha;
}
// * * * * * * * * * * * * * * * * * * * * * * * * * * * * * * * * * * * * * //

dimensions      [1 -1 -1 0 0 0 0];


internalField   nonuniform List<scalar> 
30038
(
1.40478e-05
1.40478e-05
1.40478e-05
1.40478e-05
1.40478e-05
1.40478e-05
1.40478e-05
1.40478e-05
1.40478e-05
1.40478e-05
1.40478e-05
1.40478e-05
1.40478e-05
1.40478e-05
1.40478e-05
1.40478e-05
1.40478e-05
1.40478e-05
1.40478e-05
1.40478e-05
1.40478e-05
1.40478e-05
1.40478e-05
1.40478e-05
1.40478e-05
1.40478e-05
1.40478e-05
1.40478e-05
1.40478e-05
1.40478e-05
1.40478e-05
1.40478e-05
1.40478e-05
1.40478e-05
1.40478e-05
1.40478e-05
1.40478e-05
1.40478e-05
1.40478e-05
1.40478e-05
1.40478e-05
1.40478e-05
1.40478e-05
1.40478e-05
1.40478e-05
1.40478e-05
1.40478e-05
1.40478e-05
1.40478e-05
1.40478e-05
1.40478e-05
1.40478e-05
1.40478e-05
1.40478e-05
1.40478e-05
1.40478e-05
1.40478e-05
1.40478e-05
1.40478e-05
1.40478e-05
1.40478e-05
1.40478e-05
1.40478e-05
1.40478e-05
1.40478e-05
1.40478e-05
1.40478e-05
1.40478e-05
1.40478e-05
1.40478e-05
1.40478e-05
1.40478e-05
1.40478e-05
1.40478e-05
1.40478e-05
1.40478e-05
1.40478e-05
1.40478e-05
1.40478e-05
1.40478e-05
1.40478e-05
1.40478e-05
1.40478e-05
1.40478e-05
1.40478e-05
1.40478e-05
1.40478e-05
1.40478e-05
1.40478e-05
1.40478e-05
1.40478e-05
1.40478e-05
1.40478e-05
1.40478e-05
1.40478e-05
1.40478e-05
1.40478e-05
1.40478e-05
1.40478e-05
1.40478e-05
1.40478e-05
1.40478e-05
1.40478e-05
1.40478e-05
1.40478e-05
1.40478e-05
1.40478e-05
1.40478e-05
1.40478e-05
1.40478e-05
1.40478e-05
1.40478e-05
1.40478e-05
1.40478e-05
1.40478e-05
1.40478e-05
1.40478e-05
1.40478e-05
1.40478e-05
1.40478e-05
1.40478e-05
1.40478e-05
1.40478e-05
1.40478e-05
1.40478e-05
1.40478e-05
1.40478e-05
1.40478e-05
1.40478e-05
1.40478e-05
1.40478e-05
1.40478e-05
1.40478e-05
1.40478e-05
1.40478e-05
1.40478e-05
1.40478e-05
1.40478e-05
1.40478e-05
1.40478e-05
1.40478e-05
1.40478e-05
1.40478e-05
1.40478e-05
1.40478e-05
1.40478e-05
1.40478e-05
1.40478e-05
1.40478e-05
1.40478e-05
1.40478e-05
1.40478e-05
1.40478e-05
1.40478e-05
1.40478e-05
1.40478e-05
1.40478e-05
1.40478e-05
1.40478e-05
1.40478e-05
1.40478e-05
1.40478e-05
1.40478e-05
1.40478e-05
1.40478e-05
1.40478e-05
1.40478e-05
1.40478e-05
1.40478e-05
1.40478e-05
1.40478e-05
1.40478e-05
1.40478e-05
1.40478e-05
1.40478e-05
1.40478e-05
1.40478e-05
1.40478e-05
1.40478e-05
1.40478e-05
1.40478e-05
1.40478e-05
1.40478e-05
1.40478e-05
1.40478e-05
1.40478e-05
1.40478e-05
1.40478e-05
1.40478e-05
1.40478e-05
1.40478e-05
1.40478e-05
1.40478e-05
1.40478e-05
1.40478e-05
1.40478e-05
1.40478e-05
1.40478e-05
1.40478e-05
1.40478e-05
1.40478e-05
1.40478e-05
1.40478e-05
1.40478e-05
1.40478e-05
1.40478e-05
1.40478e-05
1.40478e-05
1.40478e-05
1.40478e-05
1.40478e-05
1.40478e-05
1.40478e-05
1.40478e-05
1.40478e-05
1.40478e-05
1.40478e-05
1.40478e-05
1.40478e-05
1.40478e-05
1.40478e-05
1.40478e-05
1.40478e-05
1.40478e-05
1.40478e-05
1.40478e-05
1.40478e-05
1.40478e-05
1.40478e-05
1.40478e-05
1.40478e-05
1.40478e-05
1.40478e-05
1.40478e-05
1.40478e-05
1.40478e-05
1.40478e-05
1.40478e-05
1.40478e-05
1.40478e-05
1.40478e-05
1.40478e-05
1.40478e-05
1.40478e-05
1.40478e-05
1.40478e-05
1.40478e-05
1.40478e-05
1.40478e-05
1.40478e-05
1.40478e-05
1.40478e-05
1.40478e-05
1.40478e-05
1.40478e-05
1.40478e-05
1.40478e-05
1.40478e-05
1.40478e-05
1.40478e-05
1.40478e-05
1.40478e-05
1.40478e-05
1.40478e-05
1.40478e-05
1.40478e-05
1.40478e-05
1.40478e-05
1.40478e-05
1.40478e-05
1.40478e-05
1.40478e-05
1.40478e-05
1.40478e-05
1.40478e-05
1.40478e-05
1.40478e-05
1.40478e-05
1.40478e-05
1.40478e-05
1.40478e-05
1.40478e-05
1.40478e-05
1.40478e-05
1.40478e-05
1.40478e-05
1.40478e-05
1.40478e-05
1.40478e-05
1.40478e-05
1.40478e-05
1.40478e-05
1.40478e-05
1.40478e-05
1.40478e-05
1.40478e-05
1.40478e-05
1.40478e-05
1.40478e-05
1.40478e-05
1.40478e-05
1.40478e-05
1.40478e-05
1.40478e-05
1.40478e-05
1.40478e-05
1.40478e-05
1.40478e-05
1.40478e-05
1.40478e-05
1.40478e-05
1.40478e-05
1.40478e-05
1.40478e-05
1.40478e-05
1.40478e-05
1.40478e-05
1.40478e-05
1.40478e-05
1.40478e-05
1.40478e-05
1.40478e-05
1.40478e-05
1.40478e-05
1.40478e-05
1.40478e-05
1.40478e-05
1.40478e-05
1.40478e-05
1.40478e-05
1.40478e-05
1.40478e-05
1.40478e-05
1.40478e-05
1.40478e-05
1.40478e-05
1.40478e-05
1.40478e-05
1.40478e-05
1.40478e-05
1.40478e-05
1.40478e-05
1.40478e-05
1.40478e-05
1.40478e-05
1.40478e-05
1.40478e-05
1.40478e-05
1.40478e-05
1.40478e-05
1.40478e-05
1.40478e-05
1.40478e-05
1.40478e-05
1.40478e-05
1.40478e-05
1.40478e-05
1.40478e-05
1.40478e-05
1.40478e-05
1.40478e-05
1.40478e-05
1.40478e-05
1.40478e-05
1.40478e-05
1.40478e-05
1.40478e-05
1.40478e-05
1.40478e-05
1.40478e-05
1.40478e-05
1.40478e-05
1.40478e-05
1.40478e-05
1.40478e-05
1.40478e-05
1.40478e-05
1.40478e-05
1.40478e-05
1.40478e-05
1.40479e-05
1.40479e-05
1.40478e-05
1.40478e-05
1.40478e-05
1.40478e-05
1.40478e-05
1.40478e-05
1.40478e-05
1.40478e-05
1.40478e-05
1.40478e-05
1.40478e-05
1.40478e-05
1.40478e-05
1.40478e-05
1.40478e-05
1.40478e-05
1.40478e-05
1.40478e-05
1.40478e-05
1.40478e-05
1.40478e-05
1.40478e-05
1.40478e-05
1.40478e-05
1.40478e-05
1.40478e-05
1.40478e-05
1.40478e-05
1.40478e-05
1.40478e-05
1.40478e-05
1.40478e-05
1.40478e-05
1.40479e-05
1.40479e-05
1.40479e-05
1.4048e-05
1.40481e-05
1.40482e-05
1.40478e-05
1.40478e-05
1.40478e-05
1.40478e-05
1.40478e-05
1.40478e-05
1.40478e-05
1.40478e-05
1.40478e-05
1.40478e-05
1.40478e-05
1.40478e-05
1.40478e-05
1.40478e-05
1.40478e-05
1.40478e-05
1.40478e-05
1.40478e-05
1.40478e-05
1.40478e-05
1.40478e-05
1.40478e-05
1.40478e-05
1.40478e-05
1.40478e-05
1.40478e-05
1.40478e-05
1.40478e-05
1.40478e-05
1.40479e-05
1.40479e-05
1.40479e-05
1.40479e-05
1.4048e-05
1.40481e-05
1.40482e-05
1.40483e-05
1.40485e-05
1.40487e-05
1.40491e-05
1.40478e-05
1.40478e-05
1.40478e-05
1.40478e-05
1.40478e-05
1.40478e-05
1.40478e-05
1.40478e-05
1.40478e-05
1.40478e-05
1.40478e-05
1.40478e-05
1.40478e-05
1.40478e-05
1.40478e-05
1.40478e-05
1.40478e-05
1.40478e-05
1.40478e-05
1.40478e-05
1.40478e-05
1.40478e-05
1.40478e-05
1.40478e-05
1.40478e-05
1.40479e-05
1.40479e-05
1.40479e-05
1.4048e-05
1.4048e-05
1.40481e-05
1.40482e-05
1.40483e-05
1.40485e-05
1.40487e-05
1.40491e-05
1.40495e-05
1.40501e-05
1.4051e-05
1.40521e-05
1.40478e-05
1.40478e-05
1.40478e-05
1.40478e-05
1.40478e-05
1.40478e-05
1.40478e-05
1.40478e-05
1.40478e-05
1.40478e-05
1.40478e-05
1.40478e-05
1.40478e-05
1.40478e-05
1.40478e-05
1.40478e-05
1.40478e-05
1.40478e-05
1.40478e-05
1.40478e-05
1.40478e-05
1.40479e-05
1.40479e-05
1.40479e-05
1.4048e-05
1.4048e-05
1.40481e-05
1.40482e-05
1.40483e-05
1.40485e-05
1.40488e-05
1.40491e-05
1.40495e-05
1.40501e-05
1.40509e-05
1.4052e-05
1.40535e-05
1.40554e-05
1.40581e-05
1.40619e-05
1.40478e-05
1.40478e-05
1.40478e-05
1.40478e-05
1.40478e-05
1.40478e-05
1.40478e-05
1.40478e-05
1.40478e-05
1.40478e-05
1.40478e-05
1.40478e-05
1.40478e-05
1.40478e-05
1.40478e-05
1.40478e-05
1.40478e-05
1.40479e-05
1.40479e-05
1.40479e-05
1.4048e-05
1.4048e-05
1.40481e-05
1.40482e-05
1.40484e-05
1.40485e-05
1.40488e-05
1.40491e-05
1.40496e-05
1.40502e-05
1.4051e-05
1.4052e-05
1.40535e-05
1.40554e-05
1.40579e-05
1.40614e-05
1.4066e-05
1.40723e-05
1.40808e-05
1.40927e-05
1.40478e-05
1.40478e-05
1.40478e-05
1.40478e-05
1.40478e-05
1.40478e-05
1.40478e-05
1.40478e-05
1.40478e-05
1.40478e-05
1.40478e-05
1.40478e-05
1.40479e-05
1.40479e-05
1.40479e-05
1.40479e-05
1.4048e-05
1.4048e-05
1.40481e-05
1.40482e-05
1.40484e-05
1.40486e-05
1.40488e-05
1.40492e-05
1.40496e-05
1.40502e-05
1.4051e-05
1.40521e-05
1.40535e-05
1.40554e-05
1.4058e-05
1.40613e-05
1.40658e-05
1.40719e-05
1.40799e-05
1.40907e-05
1.41051e-05
1.41244e-05
1.41506e-05
1.41867e-05
1.40478e-05
1.40478e-05
1.40478e-05
1.40478e-05
1.40478e-05
1.40478e-05
1.40478e-05
1.40478e-05
1.40479e-05
1.40479e-05
1.40479e-05
1.4048e-05
1.4048e-05
1.40481e-05
1.40482e-05
1.40483e-05
1.40484e-05
1.40486e-05
1.40489e-05
1.40492e-05
1.40497e-05
1.40503e-05
1.40511e-05
1.40522e-05
1.40536e-05
1.40555e-05
1.4058e-05
1.40614e-05
1.40658e-05
1.40717e-05
1.40796e-05
1.409e-05
1.41039e-05
1.41224e-05
1.4147e-05
1.41797e-05
1.42231e-05
1.4281e-05
1.43584e-05
1.44629e-05
1.40478e-05
1.40478e-05
1.40478e-05
1.40479e-05
1.40479e-05
1.40479e-05
1.40479e-05
1.4048e-05
1.4048e-05
1.40481e-05
1.40482e-05
1.40483e-05
1.40485e-05
1.40487e-05
1.4049e-05
1.40493e-05
1.40498e-05
1.40504e-05
1.40513e-05
1.40523e-05
1.40538e-05
1.40557e-05
1.40582e-05
1.40615e-05
1.4066e-05
1.40718e-05
1.40795e-05
1.40897e-05
1.41033e-05
1.41212e-05
1.4145e-05
1.41764e-05
1.4218e-05
1.42728e-05
1.43451e-05
1.44402e-05
1.45649e-05
1.47279e-05
1.49404e-05
1.52177e-05
1.40479e-05
1.40479e-05
1.40479e-05
1.40479e-05
1.4048e-05
1.40481e-05
1.40481e-05
1.40482e-05
1.40484e-05
1.40485e-05
1.40488e-05
1.4049e-05
1.40494e-05
1.40499e-05
1.40506e-05
1.40514e-05
1.40526e-05
1.4054e-05
1.4056e-05
1.40585e-05
1.40619e-05
1.40663e-05
1.40721e-05
1.40797e-05
1.40898e-05
1.41031e-05
1.41206e-05
1.41438e-05
1.41742e-05
1.42143e-05
1.4267e-05
1.43363e-05
1.44269e-05
1.45452e-05
1.46988e-05
1.48972e-05
1.51515e-05
1.54747e-05
1.58812e-05
1.63866e-05
1.70053e-05
1.4048e-05
1.40481e-05
1.40482e-05
1.40483e-05
1.40484e-05
1.40486e-05
1.40489e-05
1.40492e-05
1.40496e-05
1.40501e-05
1.40508e-05
1.40517e-05
1.40528e-05
1.40544e-05
1.40564e-05
1.4059e-05
1.40624e-05
1.40668e-05
1.40727e-05
1.40803e-05
1.40904e-05
1.41035e-05
1.41208e-05
1.41435e-05
1.41732e-05
1.42122e-05
1.42632e-05
1.433e-05
1.4417e-05
1.45301e-05
1.46766e-05
1.48653e-05
1.51064e-05
1.5412e-05
1.57949e-05
1.62684e-05
1.68452e-05
1.75353e-05
1.83453e-05
1.92769e-05
2.03196e-05
1.40484e-05
1.40485e-05
1.40487e-05
1.4049e-05
1.40493e-05
1.40498e-05
1.40503e-05
1.4051e-05
1.4052e-05
1.40532e-05
1.40548e-05
1.40569e-05
1.40596e-05
1.40631e-05
1.40676e-05
1.40736e-05
1.40813e-05
1.40914e-05
1.41046e-05
1.41218e-05
1.41443e-05
1.41736e-05
1.42118e-05
1.42617e-05
1.43265e-05
1.44107e-05
1.45198e-05
1.46604e-05
1.48409e-05
1.50711e-05
1.5362e-05
1.57261e-05
1.6176e-05
1.67238e-05
1.73797e-05
1.81498e-05
1.90349e-05
2.00292e-05
2.11181e-05
2.22823e-05
2.34926e-05
2.47137e-05
1.40491e-05
1.40495e-05
1.405e-05
1.40506e-05
1.40514e-05
1.40524e-05
1.40537e-05
1.40554e-05
1.40576e-05
1.40604e-05
1.40641e-05
1.40688e-05
1.40749e-05
1.40829e-05
1.40932e-05
1.41065e-05
1.41239e-05
1.41464e-05
1.41756e-05
1.42135e-05
1.42626e-05
1.43263e-05
1.44085e-05
1.45145e-05
1.46507e-05
1.48248e-05
1.50459e-05
1.53247e-05
1.56728e-05
1.61024e-05
1.66251e-05
1.72513e-05
1.79878e-05
1.88367e-05
1.97937e-05
2.08471e-05
2.1978e-05
2.31613e-05
2.43616e-05
2.55334e-05
2.66262e-05
2.7594e-05
2.84265e-05
1.40519e-05
1.4053e-05
1.40544e-05
1.40562e-05
1.40586e-05
1.40616e-05
1.40654e-05
1.40704e-05
1.40768e-05
1.40851e-05
1.40957e-05
1.41094e-05
1.41271e-05
1.415e-05
1.41794e-05
1.42175e-05
1.42665e-05
1.43297e-05
1.44109e-05
1.4515e-05
1.46481e-05
1.48175e-05
1.50319e-05
1.53011e-05
1.56363e-05
1.6049e-05
1.65505e-05
1.71507e-05
1.78572e-05
1.8673e-05
1.95951e-05
2.06149e-05
2.17155e-05
2.28753e-05
2.40649e-05
2.52447e-05
2.63666e-05
2.73823e-05
2.82568e-05
2.89754e-05
2.95453e-05
2.99799e-05
3.03171e-05
1.40573e-05
1.40598e-05
1.40631e-05
1.40672e-05
1.40726e-05
1.40794e-05
1.40881e-05
1.40992e-05
1.41135e-05
1.41318e-05
1.41553e-05
1.41855e-05
1.42242e-05
1.42738e-05
1.43373e-05
1.44184e-05
1.45219e-05
1.46535e-05
1.48201e-05
1.503e-05
1.52924e-05
1.56178e-05
1.60173e-05
1.65015e-05
1.70802e-05
1.77608e-05
1.85471e-05
1.94378e-05
2.04252e-05
2.14956e-05
2.26292e-05
2.38019e-05
2.49799e-05
2.61206e-05
2.71766e-05
2.81069e-05
2.88882e-05
2.95168e-05
3.0005e-05
3.03736e-05
3.06445e-05
3.08427e-05
3.09827e-05
3.10876e-05
1.40696e-05
1.40754e-05
1.40827e-05
1.40921e-05
1.4104e-05
1.41191e-05
1.41384e-05
1.41629e-05
1.41942e-05
1.42342e-05
1.4285e-05
1.43497e-05
1.44319e-05
1.45361e-05
1.46679e-05
1.48337e-05
1.50415e-05
1.53e-05
1.56191e-05
1.60091e-05
1.64804e-05
1.70421e-05
1.77014e-05
1.84626e-05
1.93253e-05
2.02832e-05
2.13245e-05
2.24315e-05
2.35827e-05
2.47507e-05
2.58981e-05
2.69811e-05
2.79565e-05
2.87936e-05
2.94805e-05
3.0023e-05
3.0438e-05
3.07471e-05
3.09726e-05
3.11342e-05
3.1249e-05
3.13289e-05
3.13858e-05
3.14247e-05
3.14513e-05
1.40974e-05
1.41103e-05
1.41265e-05
1.41471e-05
1.41732e-05
1.42063e-05
1.42481e-05
1.4301e-05
1.4368e-05
1.44524e-05
1.45589e-05
1.46925e-05
1.48598e-05
1.5068e-05
1.53256e-05
1.56419e-05
1.60265e-05
1.64893e-05
1.70389e-05
1.7682e-05
1.84228e-05
1.92617e-05
2.01937e-05
2.12079e-05
2.22889e-05
2.3417e-05
2.45689e-05
2.57133e-05
2.68106e-05
2.78185e-05
2.87018e-05
2.94411e-05
3.00352e-05
3.04965e-05
3.08447e-05
3.1101e-05
3.12862e-05
3.1418e-05
3.15105e-05
3.15748e-05
3.16192e-05
3.1648e-05
3.16658e-05
3.1676e-05
3.16819e-05
3.16805e-05
1.41364e-05
1.41588e-05
1.4187e-05
1.42224e-05
1.4267e-05
1.4323e-05
1.43933e-05
1.44814e-05
1.45917e-05
1.47293e-05
1.49002e-05
1.51117e-05
1.53716e-05
1.56887e-05
1.60722e-05
1.65311e-05
1.70734e-05
1.77056e-05
1.84312e-05
1.92511e-05
2.01611e-05
2.11516e-05
2.22081e-05
2.33128e-05
2.4445e-05
2.5579e-05
2.66797e-05
2.77075e-05
2.86255e-05
2.94087e-05
3.00493e-05
3.05544e-05
3.09407e-05
3.12284e-05
3.14381e-05
3.15881e-05
3.16938e-05
3.17673e-05
3.18179e-05
3.18519e-05
3.1873e-05
3.18845e-05
3.18915e-05
3.18903e-05
3.18864e-05
3.18766e-05
3.18609e-05
3.18417e-05
1.4292e-05
1.43522e-05
1.44273e-05
1.45207e-05
1.46368e-05
1.47804e-05
1.49577e-05
1.51754e-05
1.5441e-05
1.57629e-05
1.61495e-05
1.66092e-05
1.71494e-05
1.77759e-05
1.84918e-05
1.92977e-05
2.01899e-05
2.11601e-05
2.21943e-05
2.32764e-05
2.43875e-05
2.55056e-05
2.6601e-05
2.76374e-05
2.85783e-05
2.93951e-05
3.00746e-05
3.06187e-05
3.10405e-05
3.13584e-05
3.15923e-05
3.1761e-05
3.18805e-05
3.19637e-05
3.20208e-05
3.20596e-05
3.20837e-05
3.20977e-05
3.21046e-05
3.21069e-05
3.21037e-05
3.20955e-05
3.20825e-05
3.2064e-05
3.2042e-05
3.20156e-05
3.19855e-05
3.19526e-05
1.44723e-05
1.45729e-05
1.46969e-05
1.48492e-05
1.50357e-05
1.52628e-05
1.55379e-05
1.58687e-05
1.6263e-05
1.67284e-05
1.72716e-05
1.78977e-05
1.86092e-05
1.9406e-05
2.0285e-05
2.12384e-05
2.22532e-05
2.3314e-05
2.44034e-05
2.55023e-05
2.65857e-05
2.76208e-05
2.85729e-05
2.94123e-05
3.01215e-05
3.06977e-05
3.11503e-05
3.14957e-05
3.17524e-05
3.19391e-05
3.20721e-05
3.21651e-05
3.2229e-05
3.22721e-05
3.22998e-05
3.2316e-05
3.23234e-05
3.23267e-05
3.23236e-05
3.23175e-05
3.23065e-05
3.22897e-05
3.22697e-05
3.22456e-05
3.22177e-05
3.21868e-05
3.21535e-05
3.21186e-05
3.20819e-05
3.20424e-05
1.51387e-05
1.5379e-05
1.56675e-05
1.60115e-05
1.64181e-05
1.68942e-05
1.74456e-05
1.80765e-05
1.87887e-05
1.95814e-05
2.04516e-05
2.13918e-05
2.239e-05
2.34308e-05
2.44987e-05
2.55763e-05
2.66423e-05
2.76681e-05
2.86212e-05
2.94719e-05
3.02004e-05
3.08003e-05
3.12774e-05
3.16456e-05
3.19223e-05
3.21252e-05
3.22709e-05
3.23733e-05
3.24438e-05
3.2491e-05
3.25218e-05
3.25397e-05
3.25484e-05
3.25508e-05
3.2549e-05
3.25437e-05
3.25333e-05
3.25186e-05
3.2499e-05
3.24768e-05
3.24512e-05
3.2422e-05
3.23904e-05
3.23573e-05
3.23226e-05
3.2286e-05
3.22467e-05
3.22047e-05
3.21598e-05
3.21109e-05
1.66222e-05
1.7114e-05
1.76785e-05
1.83191e-05
1.90368e-05
1.98301e-05
2.06954e-05
2.16257e-05
2.26095e-05
2.36318e-05
2.46782e-05
2.57331e-05
2.67779e-05
2.77877e-05
2.87326e-05
2.9584e-05
3.03211e-05
3.09351e-05
3.14289e-05
3.18141e-05
3.21065e-05
3.23229e-05
3.24793e-05
3.259e-05
3.26663e-05
3.27173e-05
3.27505e-05
3.27703e-05
3.27799e-05
3.27816e-05
3.278e-05
3.2774e-05
3.27646e-05
3.27506e-05
3.2732e-05
3.27107e-05
3.26863e-05
3.26587e-05
3.26283e-05
3.25962e-05
3.25631e-05
3.25285e-05
3.24918e-05
3.24527e-05
3.24112e-05
3.23668e-05
3.23191e-05
3.22676e-05
3.22124e-05
3.21521e-05
1.93611e-05
2.01587e-05
2.10226e-05
2.19457e-05
2.29168e-05
2.39216e-05
2.49465e-05
2.59773e-05
2.69977e-05
2.79859e-05
2.89144e-05
2.97566e-05
3.04918e-05
3.11098e-05
3.16116e-05
3.20068e-05
3.23095e-05
3.25354e-05
3.26999e-05
3.28169e-05
3.28979e-05
3.29521e-05
3.2987e-05
3.30083e-05
3.30182e-05
3.30196e-05
3.30167e-05
3.30108e-05
3.30012e-05
3.29873e-05
3.29696e-05
3.29478e-05
3.29243e-05
3.28979e-05
3.28684e-05
3.2837e-05
3.28046e-05
3.27711e-05
3.27362e-05
3.26992e-05
3.26602e-05
3.26189e-05
3.2575e-05
3.25279e-05
3.24773e-05
3.24232e-05
3.2365e-05
3.23024e-05
3.2236e-05
3.21652e-05
2.33167e-05
2.4304e-05
2.53067e-05
2.63118e-05
2.73048e-05
2.82665e-05
2.91715e-05
2.99954e-05
3.07186e-05
3.13305e-05
3.18311e-05
3.22284e-05
3.25352e-05
3.27659e-05
3.2935e-05
3.30559e-05
3.314e-05
3.31962e-05
3.32322e-05
3.32538e-05
3.3264e-05
3.32649e-05
3.32606e-05
3.32543e-05
3.32433e-05
3.32294e-05
3.32114e-05
3.31901e-05
3.31664e-05
3.31403e-05
3.31116e-05
3.30805e-05
3.30481e-05
3.30153e-05
3.29814e-05
3.29458e-05
3.29084e-05
3.28693e-05
3.2828e-05
3.27842e-05
3.27376e-05
3.26877e-05
3.26344e-05
3.25775e-05
3.25164e-05
3.24512e-05
3.23828e-05
3.23101e-05
3.22329e-05
3.21499e-05
2.77008e-05
2.86311e-05
2.9506e-05
3.03033e-05
3.10048e-05
3.16009e-05
3.20911e-05
3.24824e-05
3.27865e-05
3.30167e-05
3.31864e-05
3.33084e-05
3.33935e-05
3.34502e-05
3.34864e-05
3.35076e-05
3.35177e-05
3.35173e-05
3.35121e-05
3.35037e-05
3.34921e-05
3.34774e-05
3.34588e-05
3.34375e-05
3.34127e-05
3.33868e-05
3.33583e-05
3.33275e-05
3.32951e-05
3.32621e-05
3.32285e-05
3.31937e-05
3.31573e-05
3.31195e-05
3.30801e-05
3.30386e-05
3.29947e-05
3.29482e-05
3.28988e-05
3.28462e-05
3.27903e-05
3.27304e-05
3.26667e-05
3.25993e-05
3.25285e-05
3.24534e-05
3.23737e-05
3.22892e-05
3.21994e-05
3.21029e-05
3.13509e-05
3.19219e-05
3.23929e-05
3.27704e-05
3.30651e-05
3.32892e-05
3.34554e-05
3.35751e-05
3.36587e-05
3.37144e-05
3.37496e-05
3.37698e-05
3.37788e-05
3.37771e-05
3.37706e-05
3.376e-05
3.37472e-05
3.37311e-05
3.3712e-05
3.36895e-05
3.36646e-05
3.36378e-05
3.36091e-05
3.35782e-05
3.35455e-05
3.3512e-05
3.34783e-05
3.34438e-05
3.3408e-05
3.33708e-05
3.33324e-05
3.32925e-05
3.32506e-05
3.32065e-05
3.31599e-05
3.31108e-05
3.30586e-05
3.30033e-05
3.29445e-05
3.28819e-05
3.28156e-05
3.27462e-05
3.2673e-05
3.25954e-05
3.25134e-05
3.24266e-05
3.23344e-05
3.22368e-05
3.21337e-05
3.20237e-05
3.33706e-05
3.35835e-05
3.37418e-05
3.3856e-05
3.39357e-05
3.39886e-05
3.40217e-05
3.40398e-05
3.40468e-05
3.40438e-05
3.40356e-05
3.40229e-05
3.40086e-05
3.39908e-05
3.39706e-05
3.3947e-05
3.39211e-05
3.38934e-05
3.38642e-05
3.38329e-05
3.37999e-05
3.37657e-05
3.37315e-05
3.36967e-05
3.3661e-05
3.36241e-05
3.35862e-05
3.35471e-05
3.35065e-05
3.3464e-05
3.34195e-05
3.33728e-05
3.33237e-05
3.32718e-05
3.32168e-05
3.31588e-05
3.30971e-05
3.30319e-05
3.29636e-05
3.28918e-05
3.2816e-05
3.27361e-05
3.26518e-05
3.25626e-05
3.24682e-05
3.23686e-05
3.22637e-05
3.2153e-05
3.2037e-05
3.19138e-05
3.42236e-05
3.42721e-05
3.43017e-05
3.4317e-05
3.43212e-05
3.43166e-05
3.43063e-05
3.42917e-05
3.42751e-05
3.42558e-05
3.42342e-05
3.42094e-05
3.41823e-05
3.41537e-05
3.41235e-05
3.40916e-05
3.40578e-05
3.40231e-05
3.39881e-05
3.39528e-05
3.39169e-05
3.38798e-05
3.38419e-05
3.38032e-05
3.37633e-05
3.37219e-05
3.36787e-05
3.36337e-05
3.35868e-05
3.35375e-05
3.34856e-05
3.34309e-05
3.33734e-05
3.33125e-05
3.32481e-05
3.31806e-05
3.31101e-05
3.30359e-05
3.29577e-05
3.28755e-05
3.27889e-05
3.26972e-05
3.26006e-05
3.2499e-05
3.23923e-05
3.228e-05
3.21626e-05
3.20395e-05
3.19112e-05
3.1776e-05
3.46008e-05
3.45944e-05
3.45818e-05
3.45651e-05
3.45462e-05
3.45253e-05
3.45022e-05
3.44762e-05
3.44477e-05
3.44177e-05
3.43866e-05
3.43539e-05
3.43194e-05
3.42839e-05
3.42478e-05
3.4212e-05
3.41755e-05
3.41382e-05
3.41e-05
3.40612e-05
3.40215e-05
3.39807e-05
3.39383e-05
3.38945e-05
3.3849e-05
3.38015e-05
3.37519e-05
3.37e-05
3.36454e-05
3.35881e-05
3.35278e-05
3.34642e-05
3.33973e-05
3.33278e-05
3.32549e-05
3.31783e-05
3.30978e-05
3.30133e-05
3.29242e-05
3.28304e-05
3.27318e-05
3.26282e-05
3.25196e-05
3.24058e-05
3.2287e-05
3.21628e-05
3.20336e-05
3.18993e-05
3.17601e-05
3.16139e-05
3.48208e-05
3.47983e-05
3.47737e-05
3.47461e-05
3.47162e-05
3.46849e-05
3.46529e-05
3.46193e-05
3.4584e-05
3.45474e-05
3.45106e-05
3.44739e-05
3.44368e-05
3.43989e-05
3.43602e-05
3.43211e-05
3.42814e-05
3.42408e-05
3.41988e-05
3.41556e-05
3.4111e-05
3.40649e-05
3.40169e-05
3.39669e-05
3.39147e-05
3.38601e-05
3.3803e-05
3.3743e-05
3.36799e-05
3.36138e-05
3.3545e-05
3.34732e-05
3.33978e-05
3.33189e-05
3.32362e-05
3.31493e-05
3.30579e-05
3.2962e-05
3.28614e-05
3.27559e-05
3.26456e-05
3.25303e-05
3.24102e-05
3.22848e-05
3.21549e-05
3.202e-05
3.18803e-05
3.17354e-05
3.1586e-05
3.14299e-05
3.49869e-05
3.49544e-05
3.49213e-05
3.48868e-05
3.48506e-05
3.48132e-05
3.47754e-05
3.47379e-05
3.47001e-05
3.46616e-05
3.46223e-05
3.45827e-05
3.45427e-05
3.4502e-05
3.44602e-05
3.44173e-05
3.43732e-05
3.43279e-05
3.42811e-05
3.42325e-05
3.4182e-05
3.41295e-05
3.40748e-05
3.40176e-05
3.39579e-05
3.38952e-05
3.38297e-05
3.37615e-05
3.36905e-05
3.36163e-05
3.35387e-05
3.34576e-05
3.33727e-05
3.32833e-05
3.31898e-05
3.30918e-05
3.29893e-05
3.28821e-05
3.27702e-05
3.26534e-05
3.2532e-05
3.24056e-05
3.22749e-05
3.21393e-05
3.19991e-05
3.1854e-05
3.17047e-05
3.155e-05
3.13921e-05
3.12276e-05
3.51182e-05
3.508e-05
3.50415e-05
3.50031e-05
3.49646e-05
3.49254e-05
3.48856e-05
3.48455e-05
3.48051e-05
3.47641e-05
3.47222e-05
3.46793e-05
3.46356e-05
3.45907e-05
3.45446e-05
3.4497e-05
3.44478e-05
3.43969e-05
3.4344e-05
3.4289e-05
3.42318e-05
3.41722e-05
3.41098e-05
3.40447e-05
3.3977e-05
3.39068e-05
3.38335e-05
3.37571e-05
3.36773e-05
3.3594e-05
3.35066e-05
3.34152e-05
3.33196e-05
3.32197e-05
3.31153e-05
3.30064e-05
3.2893e-05
3.27749e-05
3.26523e-05
3.25251e-05
3.23937e-05
3.22572e-05
3.21166e-05
3.19712e-05
3.18217e-05
3.16673e-05
3.15098e-05
3.13471e-05
3.11821e-05
3.10111e-05
3.52293e-05
3.51895e-05
3.51492e-05
3.51085e-05
3.50676e-05
3.50263e-05
3.49843e-05
3.49414e-05
3.48976e-05
3.4853e-05
3.48074e-05
3.47605e-05
3.47121e-05
3.46623e-05
3.46109e-05
3.45577e-05
3.45024e-05
3.44451e-05
3.43854e-05
3.43232e-05
3.42585e-05
3.41913e-05
3.41217e-05
3.40492e-05
3.39738e-05
3.38952e-05
3.38134e-05
3.37277e-05
3.36382e-05
3.35447e-05
3.34471e-05
3.33454e-05
3.32393e-05
3.31289e-05
3.30141e-05
3.28947e-05
3.27711e-05
3.26431e-05
3.25108e-05
3.23737e-05
3.22328e-05
3.20871e-05
3.19374e-05
3.17832e-05
3.16257e-05
3.14636e-05
3.12995e-05
3.11306e-05
3.09601e-05
3.07845e-05
3.53296e-05
3.5288e-05
3.52457e-05
3.52026e-05
3.51589e-05
3.51144e-05
3.5069e-05
3.50225e-05
3.49748e-05
3.49258e-05
3.48755e-05
3.48236e-05
3.47699e-05
3.47144e-05
3.46569e-05
3.45972e-05
3.45351e-05
3.44706e-05
3.44039e-05
3.43348e-05
3.42631e-05
3.41885e-05
3.4111e-05
3.40304e-05
3.39463e-05
3.38585e-05
3.37669e-05
3.36715e-05
3.35721e-05
3.34686e-05
3.3361e-05
3.32491e-05
3.3133e-05
3.30125e-05
3.28881e-05
3.27592e-05
3.26262e-05
3.24887e-05
3.23474e-05
3.22014e-05
3.20517e-05
3.18976e-05
3.17402e-05
3.15785e-05
3.1415e-05
3.1247e-05
3.10776e-05
3.09045e-05
3.07304e-05
3.05523e-05
3.54622e-05
3.54184e-05
3.5374e-05
3.53288e-05
3.52826e-05
3.52354e-05
3.5187e-05
3.51375e-05
3.50866e-05
3.50342e-05
3.49801e-05
3.49243e-05
3.48667e-05
3.48069e-05
3.47448e-05
3.46806e-05
3.46143e-05
3.45457e-05
3.44746e-05
3.44008e-05
3.43244e-05
3.42449e-05
3.41621e-05
3.40758e-05
3.39861e-05
3.38926e-05
3.37954e-05
3.36943e-05
3.35892e-05
3.34801e-05
3.33669e-05
3.32496e-05
3.31282e-05
3.3003e-05
3.28733e-05
3.27397e-05
3.26018e-05
3.24602e-05
3.2314e-05
3.21643e-05
3.20104e-05
3.18534e-05
3.16921e-05
3.1529e-05
3.13618e-05
3.11932e-05
3.10211e-05
3.08484e-05
3.06729e-05
3.04974e-05
3.03188e-05
3.554e-05
3.54931e-05
3.54453e-05
3.53964e-05
3.53463e-05
3.52949e-05
3.5242e-05
3.51876e-05
3.51315e-05
3.50737e-05
3.50138e-05
3.49519e-05
3.48878e-05
3.4822e-05
3.47539e-05
3.46834e-05
3.46103e-05
3.45348e-05
3.44564e-05
3.43748e-05
3.42899e-05
3.42018e-05
3.41101e-05
3.40149e-05
3.3916e-05
3.38133e-05
3.37068e-05
3.35964e-05
3.34819e-05
3.33638e-05
3.32416e-05
3.31155e-05
3.29852e-05
3.28512e-05
3.27129e-05
3.25709e-05
3.24246e-05
3.22751e-05
3.21214e-05
3.19647e-05
3.18041e-05
3.16414e-05
3.14749e-05
3.13072e-05
3.11362e-05
3.09644e-05
3.07901e-05
3.06159e-05
3.044e-05
3.02648e-05
3.00877e-05
3.56516e-05
3.56022e-05
3.55516e-05
3.54997e-05
3.54465e-05
3.53917e-05
3.53355e-05
3.52775e-05
3.52175e-05
3.51557e-05
3.5092e-05
3.50265e-05
3.49588e-05
3.48887e-05
3.48165e-05
3.47417e-05
3.46643e-05
3.45838e-05
3.45003e-05
3.44136e-05
3.43237e-05
3.42303e-05
3.41335e-05
3.4033e-05
3.3929e-05
3.38212e-05
3.37095e-05
3.35941e-05
3.34752e-05
3.33521e-05
3.32253e-05
3.30945e-05
3.29601e-05
3.28215e-05
3.26794e-05
3.25332e-05
3.23838e-05
3.22304e-05
3.20741e-05
3.19143e-05
3.1752e-05
3.15864e-05
3.14195e-05
3.12494e-05
3.10786e-05
3.09055e-05
3.07324e-05
3.05576e-05
3.03839e-05
3.02093e-05
3.00365e-05
2.98627e-05
3.57004e-05
3.56469e-05
3.55919e-05
3.55354e-05
3.54772e-05
3.54173e-05
3.53555e-05
3.52922e-05
3.52271e-05
3.51598e-05
3.50903e-05
3.50187e-05
3.49448e-05
3.48683e-05
3.47888e-05
3.47065e-05
3.46213e-05
3.45329e-05
3.44413e-05
3.43464e-05
3.4248e-05
3.41462e-05
3.40409e-05
3.39318e-05
3.38192e-05
3.37031e-05
3.35833e-05
3.34596e-05
3.33323e-05
3.32011e-05
3.30664e-05
3.29275e-05
3.27854e-05
3.26393e-05
3.249e-05
3.23371e-05
3.21814e-05
3.20222e-05
3.18606e-05
3.1696e-05
3.15299e-05
3.13609e-05
3.11912e-05
3.10191e-05
3.08471e-05
3.06736e-05
3.05008e-05
3.03274e-05
3.01558e-05
2.99845e-05
2.98156e-05
2.96469e-05
3.57308e-05
3.56725e-05
3.56126e-05
3.55512e-05
3.54882e-05
3.54233e-05
3.53563e-05
3.52875e-05
3.52166e-05
3.51434e-05
3.50677e-05
3.49892e-05
3.49081e-05
3.48242e-05
3.47372e-05
3.46473e-05
3.45542e-05
3.44578e-05
3.43582e-05
3.42552e-05
3.41487e-05
3.40386e-05
3.39254e-05
3.38084e-05
3.36879e-05
3.35637e-05
3.3436e-05
3.33045e-05
3.31695e-05
3.30307e-05
3.28886e-05
3.27427e-05
3.25938e-05
3.24414e-05
3.22862e-05
3.21278e-05
3.19671e-05
3.18034e-05
3.16381e-05
3.14705e-05
3.13016e-05
3.11308e-05
3.09599e-05
3.07876e-05
3.06159e-05
3.04438e-05
3.0273e-05
3.01027e-05
2.99349e-05
2.97682e-05
2.96049e-05
2.94426e-05
3.5742e-05
3.56792e-05
3.56146e-05
3.55481e-05
3.54799e-05
3.54096e-05
3.53371e-05
3.52621e-05
3.51846e-05
3.51046e-05
3.50219e-05
3.49363e-05
3.4848e-05
3.47566e-05
3.46621e-05
3.45645e-05
3.44638e-05
3.43596e-05
3.42521e-05
3.41415e-05
3.40274e-05
3.39098e-05
3.37888e-05
3.36643e-05
3.35362e-05
3.34045e-05
3.32693e-05
3.31307e-05
3.29886e-05
3.28432e-05
3.26947e-05
3.25429e-05
3.23883e-05
3.22309e-05
3.20709e-05
3.19084e-05
3.17442e-05
3.15776e-05
3.14098e-05
3.12405e-05
3.10706e-05
3.08996e-05
3.07291e-05
3.05581e-05
3.03884e-05
3.02191e-05
3.0052e-05
2.98862e-05
2.97236e-05
2.95631e-05
2.94065e-05
2.92519e-05
3.57348e-05
3.56671e-05
3.55974e-05
3.55254e-05
3.54511e-05
3.53746e-05
3.52956e-05
3.52141e-05
3.51298e-05
3.50429e-05
3.49532e-05
3.48605e-05
3.47648e-05
3.46662e-05
3.45643e-05
3.44592e-05
3.43511e-05
3.42398e-05
3.4125e-05
3.4007e-05
3.38856e-05
3.37607e-05
3.36324e-05
3.35007e-05
3.33656e-05
3.32271e-05
3.30854e-05
3.29405e-05
3.27924e-05
3.26414e-05
3.24876e-05
3.23311e-05
3.21721e-05
3.20108e-05
3.18475e-05
3.16822e-05
3.15158e-05
3.13477e-05
3.1179e-05
3.10095e-05
3.08401e-05
3.06704e-05
3.05017e-05
3.03336e-05
3.01673e-05
3.00024e-05
2.98403e-05
2.96803e-05
2.95241e-05
2.93709e-05
2.92221e-05
2.90761e-05
3.57081e-05
3.56346e-05
3.55589e-05
3.54809e-05
3.54004e-05
3.53174e-05
3.52319e-05
3.51437e-05
3.50527e-05
3.49589e-05
3.48622e-05
3.47625e-05
3.46597e-05
3.4554e-05
3.44453e-05
3.43332e-05
3.42181e-05
3.40997e-05
3.3978e-05
3.38529e-05
3.37246e-05
3.35929e-05
3.3458e-05
3.33198e-05
3.31785e-05
3.30341e-05
3.28868e-05
3.27366e-05
3.25837e-05
3.24281e-05
3.22703e-05
3.21101e-05
3.1948e-05
3.17842e-05
3.1619e-05
3.14523e-05
3.1285e-05
3.11169e-05
3.09487e-05
3.07805e-05
3.06129e-05
3.0446e-05
3.02806e-05
3.01167e-05
2.99551e-05
2.97958e-05
2.96398e-05
2.94868e-05
2.93379e-05
2.91928e-05
2.90526e-05
2.89159e-05
3.56602e-05
3.55808e-05
3.5499e-05
3.54148e-05
3.5328e-05
3.52386e-05
3.51465e-05
3.50517e-05
3.4954e-05
3.48534e-05
3.475e-05
3.46437e-05
3.45343e-05
3.44218e-05
3.43063e-05
3.41876e-05
3.40657e-05
3.39406e-05
3.38123e-05
3.36808e-05
3.35462e-05
3.34085e-05
3.32677e-05
3.3124e-05
3.29775e-05
3.28282e-05
3.26762e-05
3.25218e-05
3.23652e-05
3.22063e-05
3.20456e-05
3.18831e-05
3.17192e-05
3.15542e-05
3.13883e-05
3.12216e-05
3.10549e-05
3.08881e-05
3.07217e-05
3.05561e-05
3.03918e-05
3.02288e-05
3.0068e-05
2.99094e-05
2.97537e-05
2.9601e-05
2.9452e-05
2.93068e-05
2.91661e-05
2.90298e-05
2.88986e-05
2.87715e-05
3.55059e-05
3.5418e-05
3.53276e-05
3.52345e-05
3.51387e-05
3.50402e-05
3.49389e-05
3.48349e-05
3.4728e-05
3.46181e-05
3.45054e-05
3.43896e-05
3.42707e-05
3.41487e-05
3.40237e-05
3.38955e-05
3.37643e-05
3.36301e-05
3.34929e-05
3.33528e-05
3.32099e-05
3.30642e-05
3.29159e-05
3.27651e-05
3.26119e-05
3.24565e-05
3.2299e-05
3.21397e-05
3.19788e-05
3.18164e-05
3.16529e-05
3.14885e-05
3.13235e-05
3.11582e-05
3.09929e-05
3.0828e-05
3.06637e-05
3.05005e-05
3.03387e-05
3.01788e-05
3.0021e-05
2.98658e-05
2.97135e-05
2.95645e-05
2.94192e-05
2.92781e-05
2.91412e-05
2.90092e-05
2.8882e-05
2.876e-05
2.86426e-05
3.54107e-05
3.53167e-05
3.52201e-05
3.51208e-05
3.5019e-05
3.49144e-05
3.4807e-05
3.46968e-05
3.45838e-05
3.44677e-05
3.43488e-05
3.42268e-05
3.41019e-05
3.3974e-05
3.38432e-05
3.37095e-05
3.3573e-05
3.34337e-05
3.32916e-05
3.31469e-05
3.29997e-05
3.28501e-05
3.26982e-05
3.25441e-05
3.23881e-05
3.22303e-05
3.20709e-05
3.19102e-05
3.17483e-05
3.15856e-05
3.14222e-05
3.12585e-05
3.10948e-05
3.09313e-05
3.07685e-05
3.06067e-05
3.04461e-05
3.02872e-05