/*--------------------------------*- C++ -*----------------------------------*\
| =========                 |                                                 |
| \\      /  F ield         | OpenFOAM: The Open Source CFD Toolbox           |
|  \\    /   O peration     | Version:  v1706                                 |
|   \\  /    A nd           | Web:      www.OpenFOAM.com                      |
|    \\/     M anipulation  |                                                 |
\*---------------------------------------------------------------------------*/
FoamFile
{
    version     2.0;
    format      ascii;
    class       volScalarField;
    location    "1.9e-05";
    object      kappave;
}
// * * * * * * * * * * * * * * * * * * * * * * * * * * * * * * * * * * * * * //

dimensions      [1 1 -3 -1 0 0 0];


internalField   nonuniform List<scalar> 
30038
(
1.46038e-10
1.46038e-10
1.46038e-10
1.46038e-10
1.46038e-10
1.46038e-10
1.46038e-10
1.46038e-10
1.46038e-10
1.46038e-10
1.46038e-10
1.46038e-10
1.46038e-10
1.46038e-10
1.46038e-10
1.46038e-10
1.46038e-10
1.46038e-10
1.46038e-10
1.46038e-10
1.46038e-10
1.46038e-10
1.46038e-10
1.46038e-10
1.46038e-10
1.46038e-10
1.46038e-10
1.46038e-10
1.46038e-10
1.46038e-10
1.46038e-10
1.46038e-10
1.46038e-10
1.46038e-10
1.46038e-10
1.46038e-10
1.46038e-10
1.46038e-10
1.46038e-10
1.46038e-10
1.46038e-10
1.46038e-10
1.46038e-10
1.46038e-10
1.46038e-10
1.46038e-10
1.46038e-10
1.46038e-10
1.46038e-10
1.46038e-10
1.46038e-10
1.46038e-10
1.46038e-10
1.46038e-10
1.46038e-10
1.46038e-10
1.46038e-10
1.46038e-10
1.46038e-10
1.46038e-10
1.46038e-10
1.46038e-10
1.46038e-10
1.46038e-10
1.46038e-10
1.46038e-10
1.46038e-10
1.46038e-10
1.46038e-10
1.46038e-10
1.46038e-10
1.46038e-10
1.46038e-10
1.46038e-10
1.46038e-10
1.46038e-10
1.46038e-10
1.46038e-10
1.46038e-10
1.46038e-10
1.46038e-10
1.46038e-10
1.46038e-10
1.46038e-10
1.46038e-10
1.46038e-10
1.46038e-10
1.46038e-10
1.46038e-10
1.46038e-10
1.46038e-10
1.46038e-10
1.46038e-10
1.46038e-10
1.46038e-10
1.46038e-10
1.46038e-10
1.46038e-10
1.46038e-10
1.46038e-10
1.46038e-10
1.46038e-10
1.46038e-10
1.46038e-10
1.46038e-10
1.46038e-10
1.46038e-10
1.46038e-10
1.46038e-10
1.46038e-10
1.46038e-10
1.46038e-10
1.46038e-10
1.46038e-10
1.46038e-10
1.46038e-10
1.46038e-10
1.46038e-10
1.46038e-10
1.46038e-10
1.46038e-10
1.46038e-10
1.46038e-10
1.46038e-10
1.46038e-10
1.46038e-10
1.46038e-10
1.46038e-10
1.46038e-10
1.46038e-10
1.46038e-10
1.46038e-10
1.46038e-10
1.46038e-10
1.46038e-10
1.46038e-10
1.46038e-10
1.46038e-10
1.46038e-10
1.46038e-10
1.46038e-10
1.46038e-10
1.46038e-10
1.46038e-10
1.46038e-10
1.46038e-10
1.46038e-10
1.46038e-10
1.46038e-10
1.46038e-10
1.46038e-10
1.46038e-10
1.46038e-10
1.46038e-10
1.46038e-10
1.46038e-10
1.46038e-10
1.46038e-10
1.46038e-10
1.46038e-10
1.46038e-10
1.46038e-10
1.46038e-10
1.46038e-10
1.46038e-10
1.46038e-10
1.46038e-10
1.46038e-10
1.46038e-10
1.46038e-10
1.46038e-10
1.46038e-10
1.46038e-10
1.46038e-10
1.46038e-10
1.46038e-10
1.46038e-10
1.46038e-10
1.46038e-10
1.46038e-10
1.46038e-10
1.46038e-10
1.46038e-10
1.46038e-10
1.46038e-10
1.46038e-10
1.46038e-10
1.46038e-10
1.46038e-10
1.46038e-10
1.46038e-10
1.46038e-10
1.46038e-10
1.46038e-10
1.46038e-10
1.46038e-10
1.46038e-10
1.46038e-10
1.46038e-10
1.46038e-10
1.46038e-10
1.46038e-10
1.46038e-10
1.46038e-10
1.46038e-10
1.46038e-10
1.46038e-10
1.46038e-10
1.46038e-10
1.46038e-10
1.46038e-10
1.46038e-10
1.46038e-10
1.46038e-10
1.46038e-10
1.46038e-10
1.46038e-10
1.46038e-10
1.46038e-10
1.46038e-10
1.46038e-10
1.46038e-10
1.46038e-10
1.46038e-10
1.46038e-10
1.46038e-10
1.46038e-10
1.46038e-10
1.46038e-10
1.46038e-10
1.46038e-10
1.46038e-10
1.46038e-10
1.46038e-10
1.46038e-10
1.46038e-10
1.46038e-10
1.46038e-10
1.46038e-10
1.46038e-10
1.46038e-10
1.46038e-10
1.46038e-10
1.46038e-10
1.46038e-10
1.46038e-10
1.46038e-10
1.46038e-10
1.46038e-10
1.46038e-10
1.46038e-10
1.46038e-10
1.46038e-10
1.46038e-10
1.46038e-10
1.46038e-10
1.46038e-10
1.46038e-10
1.46038e-10
1.46038e-10
1.46038e-10
1.46038e-10
1.46038e-10
1.46038e-10
1.46038e-10
1.46038e-10
1.46038e-10
1.46038e-10
1.46038e-10
1.46038e-10
1.46038e-10
1.46038e-10
1.46038e-10
1.46038e-10
1.46038e-10
1.46038e-10
1.46038e-10
1.46038e-10
1.46038e-10
1.46038e-10
1.46038e-10
1.46038e-10
1.46038e-10
1.46038e-10
1.46038e-10
1.46038e-10
1.46038e-10
1.46038e-10
1.46038e-10
1.46038e-10
1.46038e-10
1.46038e-10
1.46038e-10
1.46038e-10
1.46038e-10
1.46038e-10
1.46038e-10
1.46038e-10
1.46038e-10
1.46038e-10
1.46038e-10
1.46038e-10
1.46038e-10
1.46038e-10
1.46038e-10
1.46038e-10
1.46038e-10
1.46038e-10
1.46038e-10
1.46038e-10
1.46038e-10
1.46038e-10
1.46038e-10
1.46038e-10
1.46038e-10
1.46038e-10
1.46038e-10
1.46038e-10
1.46038e-10
1.46038e-10
1.46038e-10
1.46038e-10
1.46038e-10
1.46038e-10
1.46038e-10
1.46038e-10
1.46038e-10
1.46038e-10
1.46038e-10
1.46038e-10
1.46038e-10
1.46038e-10
1.46038e-10
1.46038e-10
1.46038e-10
1.46038e-10
1.46038e-10
1.46038e-10
1.46038e-10
1.46038e-10
1.46038e-10
1.46038e-10
1.46038e-10
1.46038e-10
1.46038e-10
1.46038e-10
1.46038e-10
1.46038e-10
1.46038e-10
1.46038e-10
1.46038e-10
1.46038e-10
1.46038e-10
1.46038e-10
1.46038e-10
1.46038e-10
1.46038e-10
1.46038e-10
1.46038e-10
1.46038e-10
1.46038e-10
1.46038e-10
1.46038e-10
1.46038e-10
1.46038e-10
1.46038e-10
1.46038e-10
1.46038e-10
1.46038e-10
1.46038e-10
1.46038e-10
1.46038e-10
1.46038e-10
1.46038e-10
1.46038e-10
1.46038e-10
1.46038e-10
1.46038e-10
1.46038e-10
1.46038e-10
1.46039e-10
1.46039e-10
1.46038e-10
1.46038e-10
1.46038e-10
1.46038e-10
1.46038e-10
1.46038e-10
1.46038e-10
1.46038e-10
1.46038e-10
1.46038e-10
1.46038e-10
1.46038e-10
1.46038e-10
1.46038e-10
1.46038e-10
1.46038e-10
1.46038e-10
1.46038e-10
1.46038e-10
1.46038e-10
1.46038e-10
1.46038e-10
1.46038e-10
1.46038e-10
1.46038e-10
1.46038e-10
1.46038e-10
1.46038e-10
1.46038e-10
1.46038e-10
1.46038e-10
1.46038e-10
1.46038e-10
1.46039e-10
1.46039e-10
1.46039e-10
1.4604e-10
1.46041e-10
1.46042e-10
1.46038e-10
1.46038e-10
1.46038e-10
1.46038e-10
1.46038e-10
1.46038e-10
1.46038e-10
1.46038e-10
1.46038e-10
1.46038e-10
1.46038e-10
1.46038e-10
1.46038e-10
1.46038e-10
1.46038e-10
1.46038e-10
1.46038e-10
1.46038e-10
1.46038e-10
1.46038e-10
1.46038e-10
1.46038e-10
1.46038e-10
1.46038e-10
1.46038e-10
1.46038e-10
1.46038e-10
1.46038e-10
1.46038e-10
1.46038e-10
1.46039e-10
1.46039e-10
1.46039e-10
1.4604e-10
1.46041e-10
1.46042e-10
1.46043e-10
1.46045e-10
1.46048e-10
1.46051e-10
1.46038e-10
1.46038e-10
1.46038e-10
1.46038e-10
1.46038e-10
1.46038e-10
1.46038e-10
1.46038e-10
1.46038e-10
1.46038e-10
1.46038e-10
1.46038e-10
1.46038e-10
1.46038e-10
1.46038e-10
1.46038e-10
1.46038e-10
1.46038e-10
1.46038e-10
1.46038e-10
1.46038e-10
1.46038e-10
1.46038e-10
1.46038e-10
1.46038e-10
1.46038e-10
1.46039e-10
1.46039e-10
1.46039e-10
1.4604e-10
1.46041e-10
1.46042e-10
1.46043e-10
1.46045e-10
1.46048e-10
1.46051e-10
1.46056e-10
1.46062e-10
1.46071e-10
1.46083e-10
1.46038e-10
1.46038e-10
1.46038e-10
1.46038e-10
1.46038e-10
1.46038e-10
1.46038e-10
1.46038e-10
1.46038e-10
1.46038e-10
1.46038e-10
1.46038e-10
1.46038e-10
1.46038e-10
1.46038e-10
1.46038e-10
1.46038e-10
1.46038e-10
1.46038e-10
1.46038e-10
1.46038e-10
1.46038e-10
1.46039e-10
1.46039e-10
1.46039e-10
1.4604e-10
1.46041e-10
1.46042e-10
1.46043e-10
1.46045e-10
1.46048e-10
1.46051e-10
1.46056e-10
1.46062e-10
1.4607e-10
1.46082e-10
1.46097e-10
1.46117e-10
1.46145e-10
1.46185e-10
1.46038e-10
1.46038e-10
1.46038e-10
1.46038e-10
1.46038e-10
1.46038e-10
1.46038e-10
1.46038e-10
1.46038e-10
1.46038e-10
1.46038e-10
1.46038e-10
1.46038e-10
1.46038e-10
1.46038e-10
1.46038e-10
1.46038e-10
1.46039e-10
1.46039e-10
1.46039e-10
1.4604e-10
1.4604e-10
1.46041e-10
1.46042e-10
1.46044e-10
1.46046e-10
1.46048e-10
1.46052e-10
1.46056e-10
1.46062e-10
1.46071e-10
1.46082e-10
1.46097e-10
1.46117e-10
1.46143e-10
1.46179e-10
1.46227e-10
1.46292e-10
1.46381e-10
1.46504e-10
1.46038e-10
1.46038e-10
1.46038e-10
1.46038e-10
1.46038e-10
1.46038e-10
1.46038e-10
1.46038e-10
1.46038e-10
1.46038e-10
1.46038e-10
1.46038e-10
1.46038e-10
1.46039e-10
1.46039e-10
1.46039e-10
1.4604e-10
1.4604e-10
1.46041e-10
1.46042e-10
1.46044e-10
1.46046e-10
1.46049e-10
1.46052e-10
1.46057e-10
1.46063e-10
1.46071e-10
1.46083e-10
1.46097e-10
1.46117e-10
1.46143e-10
1.46178e-10
1.46225e-10
1.46288e-10
1.46372e-10
1.46483e-10
1.46633e-10
1.46834e-10
1.47107e-10
1.47482e-10
1.46038e-10
1.46038e-10
1.46038e-10
1.46038e-10
1.46038e-10
1.46038e-10
1.46038e-10
1.46038e-10
1.46038e-10
1.46039e-10
1.46039e-10
1.46039e-10
1.4604e-10
1.46041e-10
1.46041e-10
1.46043e-10
1.46044e-10
1.46046e-10
1.46049e-10
1.46053e-10
1.46058e-10
1.46064e-10
1.46072e-10
1.46084e-10
1.46098e-10
1.46118e-10
1.46144e-10
1.46179e-10
1.46225e-10
1.46287e-10
1.46368e-10
1.46477e-10
1.46621e-10
1.46814e-10
1.47069e-10
1.47409e-10
1.47861e-10
1.48463e-10
1.49267e-10
1.50354e-10
1.46038e-10
1.46038e-10
1.46038e-10
1.46038e-10
1.46039e-10
1.46039e-10
1.46039e-10
1.4604e-10
1.4604e-10
1.46041e-10
1.46042e-10
1.46043e-10
1.46045e-10
1.46047e-10
1.4605e-10
1.46054e-10
1.46059e-10
1.46065e-10
1.46074e-10
1.46085e-10
1.461e-10
1.4612e-10
1.46146e-10
1.46181e-10
1.46227e-10
1.46287e-10
1.46367e-10
1.46474e-10
1.46615e-10
1.46801e-10
1.47048e-10
1.47375e-10
1.47807e-10
1.48377e-10
1.49129e-10
1.50117e-10
1.51414e-10
1.53108e-10
1.55318e-10
1.58201e-10
1.46038e-10
1.46039e-10
1.46039e-10
1.46039e-10
1.4604e-10
1.4604e-10
1.46041e-10
1.46042e-10
1.46044e-10
1.46045e-10
1.46048e-10
1.46051e-10
1.46055e-10
1.4606e-10
1.46067e-10
1.46076e-10
1.46087e-10
1.46103e-10
1.46123e-10
1.46149e-10
1.46184e-10
1.4623e-10
1.4629e-10
1.4637e-10
1.46475e-10
1.46613e-10
1.46795e-10
1.47035e-10
1.47352e-10
1.47769e-10
1.48317e-10
1.49037e-10
1.49979e-10
1.51209e-10
1.52806e-10
1.54869e-10
1.57513e-10
1.60874e-10
1.65101e-10
1.70355e-10
1.76789e-10
1.4604e-10
1.46041e-10
1.46042e-10
1.46043e-10
1.46044e-10
1.46046e-10
1.46049e-10
1.46052e-10
1.46056e-10
1.46062e-10
1.46069e-10
1.46078e-10
1.4609e-10
1.46106e-10
1.46127e-10
1.46154e-10
1.46189e-10
1.46236e-10
1.46296e-10
1.46376e-10
1.4648e-10
1.46617e-10
1.46797e-10
1.47033e-10
1.47342e-10
1.47747e-10
1.48278e-10
1.48971e-10
1.49876e-10
1.51053e-10
1.52576e-10
1.54537e-10
1.57045e-10
1.60222e-10
1.64204e-10
1.69128e-10
1.75126e-10
1.82303e-10
1.90727e-10
2.00418e-10
2.11265e-10
1.46044e-10
1.46045e-10
1.46047e-10
1.4605e-10
1.46054e-10
1.46058e-10
1.46064e-10
1.46072e-10
1.46081e-10
1.46094e-10
1.46111e-10
1.46132e-10
1.4616e-10
1.46197e-10
1.46244e-10
1.46306e-10
1.46386e-10
1.46491e-10
1.46629e-10
1.46807e-10
1.47041e-10
1.47346e-10
1.47743e-10
1.48261e-10
1.48936e-10
1.49811e-10
1.50945e-10
1.52407e-10
1.54284e-10
1.56677e-10
1.59703e-10
1.63489e-10
1.68167e-10
1.73865e-10
1.80686e-10
1.88696e-10
1.97904e-10
2.08249e-10
2.19581e-10
2.31698e-10
2.44301e-10
2.57022e-10
1.46052e-10
1.46056e-10
1.46061e-10
1.46067e-10
1.46075e-10
1.46086e-10
1.46099e-10
1.46117e-10
1.4614e-10
1.46169e-10
1.46207e-10
1.46256e-10
1.4632e-10
1.46402e-10
1.4651e-10
1.46648e-10
1.46829e-10
1.47063e-10
1.47366e-10
1.4776e-10
1.48271e-10
1.48933e-10
1.49788e-10
1.50891e-10
1.52306e-10
1.54116e-10
1.56416e-10
1.59315e-10
1.62935e-10
1.67403e-10
1.7284e-10
1.79353e-10
1.87015e-10
1.95846e-10
2.05804e-10
2.16767e-10
2.28541e-10
2.40864e-10
2.53371e-10
2.65587e-10
2.7699e-10
2.87104e-10
2.95823e-10
1.4608e-10
1.46092e-10
1.46106e-10
1.46125e-10
1.4615e-10
1.46181e-10
1.46221e-10
1.46273e-10
1.4634e-10
1.46425e-10
1.46536e-10
1.46678e-10
1.46862e-10
1.471e-10
1.47406e-10
1.47802e-10
1.48312e-10
1.48969e-10
1.49813e-10
1.50896e-10
1.5228e-10
1.54041e-10
1.5627e-10
1.5907e-10
1.62556e-10
1.66848e-10
1.72064e-10
1.78308e-10
1.85658e-10
1.94146e-10
2.03743e-10
2.14359e-10
2.25819e-10
2.379e-10
2.50297e-10
2.62602e-10
2.74313e-10
2.8493e-10
2.9409e-10
3.01641e-10
3.07661e-10
3.12289e-10
3.15932e-10
1.46136e-10
1.46163e-10
1.46197e-10
1.4624e-10
1.46295e-10
1.46366e-10
1.46456e-10
1.46572e-10
1.46721e-10
1.46912e-10
1.47156e-10
1.4747e-10
1.47872e-10
1.48387e-10
1.49047e-10
1.49891e-10
1.50968e-10
1.52336e-10
1.54069e-10
1.56251e-10
1.5898e-10
1.62365e-10
1.6652e-10
1.71557e-10
1.77577e-10
1.84659e-10
1.92841e-10
2.02112e-10
2.12392e-10
2.23539e-10
2.35352e-10
2.47577e-10
2.59866e-10
2.71778e-10
2.82821e-10
2.9257e-10
3.00783e-10
3.07425e-10
3.12623e-10
3.16598e-10
3.1958e-10
3.21832e-10
3.23511e-10
3.24877e-10
1.46265e-10
1.46325e-10
1.46401e-10
1.46498e-10
1.46622e-10
1.46779e-10
1.46979e-10
1.47235e-10
1.47561e-10
1.47976e-10
1.48504e-10
1.49177e-10
1.50032e-10
1.51116e-10
1.52486e-10
1.54211e-10
1.56371e-10
1.5906e-10
1.62379e-10
1.66436e-10
1.71339e-10
1.77183e-10
1.84044e-10
1.91966e-10
2.00947e-10
2.10923e-10
2.2177e-10
2.33307e-10
2.45313e-10
2.57502e-10
2.6949e-10
2.80821e-10
2.91048e-10
2.99852e-10
3.07113e-10
3.12891e-10
3.17365e-10
3.20764e-10
3.23322e-10
3.25249e-10
3.26727e-10
3.27885e-10
3.28855e-10
3.29698e-10
3.30509e-10
1.46553e-10
1.46687e-10
1.46856e-10
1.47071e-10
1.47342e-10
1.47686e-10
1.48121e-10
1.48671e-10
1.49367e-10
1.50246e-10
1.51352e-10
1.52742e-10
1.54482e-10
1.56648e-10
1.59327e-10
1.62617e-10
1.66619e-10
1.71434e-10
1.77152e-10
1.83846e-10
1.91558e-10
2.00293e-10
2.10001e-10
2.20568e-10
2.31839e-10
2.43608e-10
2.55636e-10
2.67598e-10
2.79086e-10
2.89661e-10
2.98956e-10
3.06776e-10
3.13107e-10
3.18081e-10
3.21907e-10
3.24809e-10
3.27008e-10
3.28694e-10
3.30019e-10
3.31105e-10
3.32047e-10
3.32897e-10
3.33712e-10
3.3454e-10
3.35433e-10
3.36423e-10
1.46959e-10
1.47192e-10
1.47485e-10
1.47853e-10
1.48317e-10
1.48899e-10
1.4963e-10
1.50547e-10
1.51694e-10
1.53125e-10
1.54903e-10
1.57103e-10
1.59806e-10
1.63106e-10
1.67096e-10
1.7187e-10
1.77515e-10
1.84096e-10
1.91651e-10
2.0019e-10
2.09672e-10
2.19996e-10
2.31016e-10
2.42546e-10
2.54376e-10
2.66237e-10
2.77769e-10
2.88561e-10
2.98231e-10
3.06522e-10
3.13353e-10
3.18803e-10
3.23048e-10
3.26302e-10
3.28784e-10
3.30692e-10
3.32191e-10
3.33415e-10
3.34469e-10
3.35428e-10
3.3634e-10
3.37251e-10
3.3823e-10
3.39248e-10
3.40379e-10
3.4161e-10
3.42969e-10
3.44591e-10
1.48578e-10
1.49204e-10
1.49984e-10
1.50956e-10
1.52163e-10
1.53658e-10
1.55502e-10
1.57766e-10
1.6053e-10
1.63879e-10
1.67902e-10
1.72687e-10
1.7831e-10
1.84833e-10
1.92289e-10
2.00685e-10
2.09985e-10
2.20102e-10
2.30894e-10
2.42196e-10
2.53812e-10
2.65517e-10
2.77004e-10
2.87898e-10
2.9782e-10
3.06477e-10
3.13733e-10
3.1961e-10
3.24248e-10
3.27844e-10
3.3061e-10
3.32746e-10
3.34427e-10
3.35797e-10
3.36968e-10
3.38033e-10
3.39041e-10
3.40053e-10
3.41112e-10
3.42262e-10
3.4351e-10
3.44879e-10
3.46392e-10
3.48063e-10
3.49938e-10
3.52039e-10
3.5442e-10
3.57272e-10
1.50453e-10
1.51499e-10
1.52789e-10
1.54373e-10
1.56314e-10
1.58677e-10
1.61539e-10
1.64981e-10
1.69085e-10
1.7393e-10
1.79587e-10
1.86107e-10
1.9352e-10
2.01825e-10
2.10991e-10
2.20939e-10
2.31535e-10
2.42622e-10
2.54021e-10
2.65536e-10
2.7691e-10
2.87805e-10
2.97861e-10
3.06772e-10
3.14358e-10
3.20594e-10
3.25581e-10
3.29493e-10
3.3253e-10
3.34891e-10
3.36756e-10
3.38275e-10
3.3957e-10
3.40739e-10
3.41853e-10
3.42963e-10
3.44113e-10
3.45371e-10
3.4673e-10
3.48246e-10
3.49921e-10
3.51771e-10
3.53849e-10
3.56177e-10
3.58788e-10
3.61726e-10
3.65037e-10
3.68774e-10
3.73015e-10
3.78029e-10
1.57387e-10
1.59887e-10
1.6289e-10
1.6647e-10
1.70704e-10
1.75661e-10
1.81405e-10
1.87977e-10
1.95401e-10
2.03668e-10
2.12747e-10
2.22563e-10
2.32994e-10
2.43882e-10
2.55068e-10
2.66374e-10
2.77582e-10
2.88396e-10
2.98482e-10
3.07534e-10
3.15346e-10
3.21857e-10
3.2713e-10
3.31315e-10
3.34598e-10
3.37172e-10
3.39215e-10
3.40883e-10
3.42305e-10
3.43582e-10
3.448e-10
3.46009e-10
3.47263e-10
3.48612e-10
3.50099e-10
3.51751e-10
3.53577e-10
3.55611e-10
3.57877e-10
3.60432e-10
3.633e-10
3.66519e-10
3.70143e-10
3.74227e-10
3.78818e-10
3.83962e-10
3.89709e-10
3.96126e-10
4.03331e-10
4.11744e-10
1.72833e-10
1.77956e-10
1.83839e-10
1.90516e-10
1.98001e-10
2.06278e-10
2.15313e-10
2.25035e-10
2.35325e-10
2.46032e-10
2.57008e-10
2.68093e-10
2.79098e-10
2.89767e-10
2.99791e-10
3.08876e-10
3.16809e-10
3.23499e-10
3.28982e-10
3.33384e-10
3.36876e-10
3.39638e-10
3.41847e-10
3.4366e-10
3.45207e-10
3.46596e-10
3.47917e-10
3.49234e-10
3.50597e-10
3.52047e-10
3.53657e-10
3.55437e-10
3.57425e-10
3.59634e-10
3.62098e-10
3.64873e-10
3.6799e-10
3.71489e-10
3.75421e-10
3.79846e-10
3.84825e-10
3.90409e-10
3.9665e-10
4.03612e-10
4.1136e-10
4.19966e-10
4.29501e-10
4.40058e-10
4.51816e-10
4.65406e-10
2.014e-10
2.0973e-10
2.18759e-10
2.28415e-10
2.38587e-10
2.49125e-10
2.59894e-10
2.70748e-10
2.81522e-10
2.91991e-10
3.01874e-10
3.10895e-10
3.18843e-10
3.25614e-10
3.31224e-10
3.35777e-10
3.39427e-10
3.42345e-10
3.447e-10
3.46647e-10
3.48317e-10
3.4982e-10
3.51249e-10
3.52679e-10
3.54153e-10
3.5572e-10
3.57448e-10
3.59376e-10
3.61523e-10
3.63913e-10
3.66585e-10
3.69574e-10
3.72945e-10
3.76729e-10
3.80972e-10
3.85739e-10
3.91098e-10
3.97109e-10
4.03833e-10
4.11333e-10
4.19685e-10
4.28967e-10
4.39257e-10
4.50641e-10
4.63209e-10
4.77061e-10
4.92299e-10
5.09055e-10
5.27593e-10
5.48855e-10
2.42834e-10
2.53209e-10
2.63768e-10
2.7438e-10
2.84897e-10
2.95121e-10
3.04794e-10
3.13664e-10
3.21529e-10
3.28285e-10
3.33934e-10
3.38565e-10
3.42318e-10
3.45352e-10
3.47827e-10
3.49893e-10
3.51682e-10
3.53299e-10
3.54842e-10
3.56387e-10
3.57987e-10
3.59682e-10
3.61543e-10
3.63629e-10
3.6594e-10
3.68527e-10
3.71411e-10
3.7464e-10
3.7827e-10
3.82345e-10
3.86911e-10
3.92029e-10
3.97773e-10
4.04215e-10
4.11419e-10
4.19453e-10
4.28398e-10
4.38338e-10
4.49363e-10
4.61564e-10
4.75041e-10
4.89897e-10
5.06246e-10
5.24206e-10
5.43896e-10
5.65452e-10
5.89036e-10
6.1482e-10
6.43158e-10
6.7538e-10
2.89253e-10
2.9919e-10
3.08593e-10
3.17233e-10
3.24925e-10
3.31573e-10
3.37175e-10
3.41811e-10
3.45608e-10
3.48715e-10
3.51282e-10
3.53451e-10
3.5535e-10
3.57082e-10
3.58746e-10
3.60417e-10
3.62157e-10
3.63994e-10
3.66013e-10
3.68259e-10
3.70764e-10
3.7356e-10
3.76678e-10
3.80168e-10
3.8407e-10
3.88459e-10
3.93369e-10
3.98861e-10
4.05011e-10
4.11898e-10
4.19594e-10
4.28172e-10
4.37715e-10
4.48316e-10
4.60071e-10
4.73079e-10
4.87444e-10
5.03283e-10
5.20715e-10
5.39866e-10
5.60874e-10
5.8387e-10
6.0901e-10
6.36459e-10
6.66387e-10
6.98959e-10
7.3436e-10
7.72836e-10
8.1488e-10
8.62343e-10
3.29064e-10
3.35519e-10
3.40995e-10
3.45567e-10
3.49353e-10
3.52491e-10
3.55121e-10
3.57377e-10
3.59379e-10
3.61229e-10
3.63022e-10
3.64834e-10
3.66726e-10
3.68728e-10
3.70927e-10
3.73361e-10
3.76082e-10
3.79114e-10
3.82496e-10
3.86267e-10
3.90486e-10
3.9521e-10
4.00495e-10
4.06395e-10
4.12983e-10
4.20345e-10
4.28564e-10
4.37715e-10
4.47883e-10
4.59165e-10
4.71667e-10
4.85493e-10
5.00755e-10
5.17575e-10
5.36082e-10
5.56411e-10
5.78704e-10
6.03113e-10
6.29795e-10
6.58914e-10
6.90651e-10
7.25211e-10
7.62773e-10
8.03534e-10
8.47709e-10
8.9552e-10
9.47202e-10
1.00309e-09
1.06386e-09
1.13208e-09
3.53599e-10
3.56732e-10
3.59401e-10
3.6173e-10
3.63832e-10
3.65806e-10
3.67741e-10
3.6971e-10
3.71774e-10
3.73972e-10
3.76379e-10
3.79035e-10
3.82006e-10
3.85307e-10
3.88987e-10
3.93082e-10
3.97653e-10
4.02758e-10
4.08461e-10
4.14813e-10
4.2189e-10
4.29775e-10
4.38562e-10
4.48331e-10
4.5917e-10
4.71178e-10
4.84467e-10
4.9915e-10
5.15344e-10
5.33174e-10
5.52778e-10
5.743e-10
5.97891e-10
6.23708e-10
6.5192e-10
6.82706e-10
7.16245e-10
7.52737e-10
7.92402e-10
8.35456e-10
8.82111e-10
9.32606e-10
9.87185e-10
1.0461e-09
1.10962e-09
1.17803e-09
1.25168e-09
1.33099e-09
1.41689e-09
1.51284e-09
3.68781e-10
3.7089e-10
3.72985e-10
3.75137e-10
3.77399e-10
3.79827e-10
3.82479e-10
3.85401e-10
3.88657e-10
3.92276e-10
3.96302e-10
4.00771e-10
4.05746e-10
4.11291e-10
4.17465e-10
4.24329e-10
4.31954e-10
4.40431e-10
4.4985e-10
4.60304e-10
4.71881e-10
4.84683e-10
4.98825e-10
5.14429e-10
5.31616e-10
5.50516e-10
5.71274e-10
5.9404e-10
6.18972e-10
6.46239e-10
6.76013e-10
7.08482e-10
7.43845e-10
7.82297e-10
8.24058e-10
8.69364e-10
9.18463e-10
9.71591e-10
1.029e-09
1.09098e-09
1.15779e-09
1.22972e-09
1.3071e-09
1.39025e-09
1.47954e-09
1.57533e-09
1.67808e-09
1.78835e-09
1.90742e-09
2.03988e-09
3.83717e-10
3.86417e-10
3.89359e-10
3.92597e-10
3.96192e-10
4.00185e-10
4.04616e-10
4.09523e-10
4.14967e-10
4.21015e-10
4.27736e-10
4.35189e-10
4.43443e-10
4.52591e-10
4.62728e-10
4.73954e-10
4.86358e-10
5.00046e-10
5.15133e-10
5.3175e-10
5.50023e-10
5.70086e-10
5.92087e-10
6.16185e-10
6.42545e-10
6.71339e-10
7.02752e-10
7.36977e-10
7.74216e-10
8.14687e-10
8.58609e-10
9.06218e-10
9.57764e-10
1.01353e-09
1.07378e-09
1.13877e-09
1.20883e-09
1.28424e-09
1.36533e-09
1.45243e-09
1.54591e-09
1.64615e-09
1.75354e-09
1.86853e-09
1.99157e-09
2.12316e-09
2.26388e-09
2.41453e-09
2.57677e-09
2.7566e-09
4.04797e-10
4.09233e-10
4.1414e-10
4.19559e-10
4.25552e-10
4.32189e-10
4.39545e-10
4.47678e-10
4.56659e-10
4.66578e-10
4.77541e-10
4.89647e-10
5.02992e-10
5.1768e-10
5.33832e-10
5.51584e-10
5.71066e-10
5.92418e-10
6.1579e-10
6.41345e-10
6.69257e-10
6.99704e-10
7.32875e-10
7.68973e-10
8.08207e-10
8.508e-10
8.96984e-10
9.47005e-10
1.00111e-09
1.05958e-09
1.12271e-09
1.1908e-09
1.26413e-09
1.34303e-09
1.42784e-09
1.51891e-09
1.61658e-09
1.72125e-09
1.83332e-09
1.95324e-09
2.08145e-09
2.21844e-09
2.36474e-09
2.52088e-09
2.68753e-09
2.86529e-09
3.05492e-09
3.25743e-09
3.47507e-09
3.71557e-09
4.37783e-10
4.45113e-10
4.53209e-10
4.62131e-10
4.71954e-10
4.82768e-10
4.94683e-10
5.07802e-10
5.22224e-10
5.38055e-10
5.5542e-10
5.74458e-10
5.95305e-10
6.18104e-10
6.43008e-10
6.70186e-10
6.99817e-10
7.32086e-10
7.67185e-10
8.05323e-10
8.46718e-10
8.916e-10
9.40208e-10
9.92794e-10
1.04962e-09
1.11097e-09
1.17712e-09
1.24841e-09
1.32514e-09
1.40764e-09
1.49627e-09
1.59137e-09
1.69332e-09
1.8025e-09
1.91933e-09
2.04424e-09
2.1777e-09
2.32017e-09
2.47219e-09
2.63429e-09
2.80705e-09
2.9911e-09
3.18716e-09
3.39587e-09
3.61805e-09
3.85453e-09
4.1063e-09
4.3746e-09
4.66261e-09
4.98002e-09
4.8974e-10
5.01594e-10
5.14612e-10
5.289e-10
5.44562e-10
5.61705e-10
5.80459e-10
6.00964e-10
6.23364e-10
6.47803e-10
6.74439e-10
7.03444e-10
7.35003e-10
7.69305e-10
8.06549e-10
8.46947e-10
8.90724e-10
9.38117e-10
9.89371e-10
1.04474e-09
1.10451e-09
1.16896e-09
1.23837e-09
1.31307e-09
1.3934e-09
1.47971e-09
1.57233e-09
1.67164e-09
1.77803e-09
1.8919e-09
2.01365e-09
2.14372e-09
2.28258e-09
2.43071e-09
2.58862e-09
2.75684e-09
2.93596e-09
3.12657e-09
3.32933e-09
3.54493e-09
3.77415e-09
4.01769e-09
4.27649e-09
4.55141e-09
4.84349e-09
5.15374e-09
5.48368e-09
5.83472e-09
6.2111e-09
6.62503e-09
5.70584e-10
5.89238e-10
6.09586e-10
6.31771e-10
6.55944e-10
6.82252e-10
7.10856e-10
7.41931e-10
7.75668e-10
8.1226e-10
8.51911e-10
8.94838e-10
9.41272e-10
9.91453e-10
1.04564e-09
1.10409e-09
1.16708e-09
1.23491e-09
1.30788e-09
1.38631e-09
1.47054e-09
1.56092e-09
1.65783e-09
1.76164e-09
1.87273e-09
1.99154e-09
2.11849e-09
2.25399e-09
2.39851e-09
2.55256e-09
2.71664e-09
2.89128e-09
3.07705e-09
3.27454e-09
3.48439e-09
3.70724e-09
3.94387e-09
4.195e-09
4.46145e-09
4.74404e-09
5.04379e-09
5.36159e-09
5.69862e-09
6.05598e-09
6.43515e-09
6.83728e-09
7.26456e-09
7.71859e-09
8.20486e-09
8.73871e-09
6.9383e-10
7.2227e-10
7.53113e-10
7.86541e-10
8.22746e-10
8.61929e-10
9.04297e-10
9.50072e-10
9.99488e-10
1.05279e-09
1.11025e-09
1.17212e-09
1.2387e-09
1.31027e-09
1.38716e-09
1.4697e-09
1.5582e-09
1.65305e-09
1.75461e-09
1.8633e-09
1.97949e-09
2.10361e-09
2.23611e-09
2.37742e-09
2.52801e-09
2.68836e-09
2.859e-09
3.04045e-09
3.23328e-09
3.43808e-09
3.65546e-09
3.88609e-09
4.13065e-09
4.38987e-09
4.66459e-09
4.95555e-09
5.26367e-09
5.58988e-09
5.93523e-09
6.30069e-09
6.68759e-09
7.09707e-09
7.5307e-09
7.9898e-09
8.47654e-09
8.99204e-09
9.53923e-09
1.01202e-08
1.07419e-08
1.14232e-08
8.38256e-10
8.77263e-10
9.1938e-10
9.64818e-10
1.0138e-09
1.06658e-09
1.1234e-09
1.18452e-09
1.25022e-09
1.3208e-09
1.39655e-09
1.4778e-09
1.56488e-09
1.65813e-09
1.75791e-09
1.86461e-09
1.97864e-09
2.10041e-09
2.23034e-09
2.36886e-09
2.51646e-09
2.67361e-09
2.84078e-09
3.01848e-09
3.20727e-09
3.4077e-09
3.62036e-09
3.84586e-09
4.08484e-09
4.33799e-09
4.60601e-09
4.88964e-09
5.18973e-09
5.50711e-09
5.84259e-09
6.19724e-09
6.57197e-09
6.96795e-09
7.38623e-09
7.82826e-09
8.29522e-09
8.78884e-09
9.31046e-09
9.86243e-09
1.0446e-08
1.1064e-08
1.17181e-08
1.24117e-08
1.31477e-08
1.39345e-08
1.47955e-08
1.08729e-09
1.14384e-09
1.20461e-09
1.26985e-09
1.33985e-09
1.41491e-09
1.49532e-09
1.58143e-09
1.67357e-09
1.77209e-09
1.87736e-09
1.98975e-09
2.10969e-09
2.23761e-09
2.37393e-09
2.5191e-09
2.67359e-09
2.83789e-09
3.0125e-09
3.19792e-09
3.39468e-09
3.60338e-09
3.82458e-09
4.05889e-09
4.30696e-09
4.56944e-09
4.84705e-09
5.14051e-09
5.45055e-09
5.77809e-09
6.12391e-09
6.48893e-09
6.87408e-09
7.28047e-09
7.70903e-09
8.16107e-09
8.63773e-09
9.14052e-09
9.67071e-09
1.02302e-08
1.08203e-08
1.14435e-08
1.21012e-08
1.27965e-08
1.35308e-08
1.43079e-08
1.51296e-08
1.60005e-08
1.69238e-08
1.79101e-08
1.89878e-08
1.36772e-09
1.44253e-09
1.52259e-09
1.60823e-09
1.69976e-09
1.79754e-09
1.90192e-09
2.01328e-09
2.13201e-09
2.25852e-09
2.39324e-09
2.53664e-09
2.68914e-09
2.85122e-09
3.0234e-09
3.20617e-09
3.40006e-09
3.60559e-09
3.82333e-09
4.05388e-09
4.29784e-09
4.55585e-09
4.82857e-09
5.11667e-09
5.4209e-09
5.742e-09
6.08073e-09
6.43796e-09
6.8146e-09
7.21146e-09
7.62958e-09
8.06994e-09
8.53369e-09
9.02184e-09
9.53583e-09
1.00768e-08
1.06464e-08
1.1246e-08
1.18775e-08
1.25425e-08
1.32433e-08
1.39816e-08
1.47607e-08
1.55819e-08
1.64493e-08
1.73647e-08
1.83326e-08
1.93554e-08
2.04387e-08
2.15863e-08
2.2811e-08
2.41471e-08
1.83455e-09
1.9386e-09
2.0495e-09
2.16763e-09
2.29338e-09
2.42718e-09
2.56945e-09
2.72066e-09
2.88128e-09
3.05177e-09
3.23263e-09
3.4244e-09
3.62761e-09
3.84279e-09
4.07048e-09
4.3113e-09
4.56587e-09
4.8348e-09
5.11877e-09
5.41845e-09
5.73453e-09
6.06778e-09
6.41898e-09
6.78887e-09
7.17837e-09
7.58836e-09
8.01975e-09
8.47345e-09
8.95059e-09
9.45216e-09
9.97936e-09
1.05333e-08
1.11156e-08
1.17273e-08
1.23702e-08
1.30458e-08
1.3756e-08
1.45025e-08
1.52878e-08
1.61137e-08
1.69833e-08
1.78984e-08
1.88631e-08
1.98792e-08
2.09514e-08
2.20823e-08
2.3277e-08
2.45388e-08
2.58739e-08
2.72875e-08
2.87942e-08
3.0435e-08
2.47591e-09
2.61776e-09
2.76837e-09
2.92823e-09
3.0978e-09
3.27756e-09
3.46801e-09
3.66969e-09
3.88315e-09
4.10893e-09
4.3476e-09
4.59972e-09
4.86594e-09
5.14691e-09
5.44325e-09
5.75565e-09
6.08484e-09
6.43151e-09
6.79644e-09
7.18043e-09
7.58426e-09
8.00882e-09
8.45506e-09
8.92384e-09
9.41614e-09
9.93301e-09
1.04755e-08
1.10448e-08
1.16421e-08
1.22686e-08
1.29259e-08
1.36152e-08
1.43384e-08
1.5097e-08
1.5893e-08
1.67284e-08
1.76054e-08
1.8526e-08
1.94936e-08
2.05101e-08
2.15792e-08
2.27034e-08
2.38873e-08
2.51335e-08
2.64475e-08
2.78324e-08
2.92943e-08
3.0837e-08
3.24681e-08
3.41933e-08
3.603e-08
3.80263e-08
3.34097e-09
3.53091e-09
3.7319e-09
3.94447e-09
4.16919e-09
4.4066e-09
4.6573e-09
4.92183e-09
5.20085e-09
5.49501e-09
5.80496e-09
6.13136e-09
6.47492e-09
6.83639e-09
7.21649e-09
7.616e-09
8.03576e-09
8.47656e-09
8.93928e-09
9.4249e-09
9.93431e-09
1.04684e-08
1.10284e-08
1.16152e-08
1.22301e-08
1.2874e-08
1.35485e-08
1.42548e-08
1.49944e-08
1.57688e-08
1.65797e-08
1.74289e-08
1.83184e-08
1.92502e-08
2.02266e-08
2.12499e-08
2.23232e-08
2.34486e-08
2.463e-08
2.58703e-08
2.71735e-08
2.85428e-08
2.99836e-08
3.14992e-08
3.30957e-08
3.47773e-08
3.65507e-08
3.84206e-08
4.03955e-08
4.24822e-08
4.47005e-08
4.71063e-08
4.48814e-09
4.73827e-09
5.00208e-09
5.28018e-09
5.57318e-09
5.88176e-09
6.20657e-09
6.54829e-09
6.90761e-09
7.28528e-09
7.68204e-09
8.09864e-09
8.53589e-09
8.99463e-09
9.47569e-09
9.97994e-09
1.05084e-08
1.10619e-08
1.16415e-08
1.22482e-08
1.2883e-08
1.35471e-08
1.42417e-08
1.4968e-08
1.57274e-08
1.65212e-08
1.7351e-08
1.82184e-08
1.91251e-08
2.00729e-08
2.10641e-08
2.21004e-08
2.31845e-08
2.43187e-08
2.55058e-08
2.67486e-08
2.80508e-08
2.94151e-08
3.08458e-08
3.23465e-08
3.3922e-08
3.55763e-08
3.73152e-08
3.91433e-08
4.1067e-08
4.30916e-08
4.52246e-08
4.74715e-08
4.98414e-08
5.23426e-08
5.49969e-08
5.7869e-08
5.98542e-09
6.30965e-09
6.6506e-09
7.00896e-09
7.38543e-09
7.78074e-09
8.19563e-09
8.6309e-09
9.0873e-09
9.56566e-09
1.00668e-08
1.05917e-08
1.11411e-08
1.1716e-08
1.23175e-08
1.29463e-08
1.36037e-08
1.42906e-08
1.50081e-08
1.57575e-08
1.65399e-08
1.73567e-08
1.82092e-08
1.90988e-08
2.00273e-08
2.09962e-08
2.20073e-08
2.30625e-08
2.41639e-08
2.53136e-08
2.65142e-08
2.7768e-08
2.90779e-08
3.0447e-08
3.18784e-08
3.33755e-08
3.49426e-08
3.6583e-08
3.83017e-08
4.01032e-08
4.19927e-08
4.39753e-08
4.60573e-08
4.82442e-08
5.05432e-08
5.29605e-08
5.55041e-08
5.81805e-08
6.09994e-08
6.39702e-08
6.71169e-08
7.05132e-08
7.91077e-09
8.32512e-09
8.75963e-09
9.21506e-09
9.69221e-09
1.01919e-08
1.07149e-08
1.12622e-08
1.18346e-08
1.2433e-08
1.30584e-08
1.37118e-08
1.4394e-08
1.51063e-08
1.58495e-08
1.66249e-08
1.74335e-08
1.82767e-08
1.91555e-08
2.00715e-08
2.1026e-08
2.20205e-08
2.30567e-08
2.41362e-08
2.52609e-08
2.64327e-08
2.76537e-08
2.89262e-08
3.02526e-08
3.16354e-08
3.30776e-08
3.45821e-08
3.61522e-08
3.77916e-08
3.9504e-08
4.12933e-08
4.31645e-08
4.51218e-08
4.71706e-08
4.93163e-08
5.15648e-08
5.3922e-08
5.6395e-08
5.89902e-08
6.17152e-08
6.45773e-08
6.75847e-08
7.07451e-08
7.40681e-08
7.75648e-08
8.12604e-08
8.52385e-08
1.08753e-08
1.14219e-08
1.19933e-08
1.25905e-08
1.32144e-08
1.38658e-08
1.45457e-08
1.52552e-08
1.59953e-08
1.67668e-08
1.7571e-08
1.84089e-08
1.92815e-08
2.01903e-08
2.11363e-08
2.21208e-08
2.31454e-08
2.42113e-08
2.53203e-08
2.64738e-08
2.76737e-08
2.89218e-08
3.022e-08
3.15706e-08
3.29758e-08
3.4438e-08
3.59599e-08
3.75443e-08
3.91943e-08
4.09132e-08
4.27045e-08
4.45722e-08
4.65203e-08
4.85533e-08
5.06759e-08
5.28935e-08
5.52112e-08
5.76351e-08
6.01713e-08
6.28264e-08
6.56073e-08
6.85216e-08
7.15764e-08
7.478e-08
7.81404e-08
8.16661e-08
8.53654e-08
8.9248e-08
9.3326e-08
9.76263e-08
1.02242e-07
1.40615e-08
1.47409e-08
1.54494e-08
1.61881e-08
1.69582e-08
1.77604e-08
1.85958e-08
1.94656e-08
2.03708e-08
2.13125e-08
2.2292e-08
2.33103e-08
2.43688e-08
2.54689e-08
2.6612e-08
2.77995e-08
2.9033e-08
3.03142e-08
3.16448e-08
3.30268e-08
3.4462e-08
3.59528e-08
3.75012e-08
3.911e-08
4.07816e-08
4.25189e-08
4.4325e-08
4.62032e-08
4.81571e-08
5.01906e-08
5.23077e-08
5.45129e-08
5.68111e-08
5.92071e-08
6.17066e-08
6.43154e-08
6.70397e-08
6.9886e-08