/*--------------------------------*- C++ -*----------------------------------*\
| =========                 |                                                 |
| \\      /  F ield         | OpenFOAM: The Open Source CFD Toolbox           |
|  \\    /   O peration     | Version:  v1706                                 |
|   \\  /    A nd           | Web:      www.OpenFOAM.com                      |
|    \\/     M anipulation  |                                                 |
\*---------------------------------------------------------------------------*/
FoamFile
{
    version     2.0;
    format      ascii;
    class       volScalarField;
    location    "1.9e-05";
    object      kappatr;
}
// * * * * * * * * * * * * * * * * * * * * * * * * * * * * * * * * * * * * * //

dimensions      [1 1 -3 -1 0 0 0];


internalField   nonuniform List<scalar> 
30038
(
0.014593
0.014593
0.014593
0.014593
0.014593
0.014593
0.014593
0.014593
0.014593
0.014593
0.014593
0.014593
0.014593
0.014593
0.014593
0.014593
0.014593
0.014593
0.014593
0.014593
0.014593
0.014593
0.014593
0.014593
0.014593
0.014593
0.014593
0.014593
0.014593
0.014593
0.014593
0.014593
0.014593
0.014593
0.014593
0.014593
0.014593
0.014593
0.014593
0.014593
0.014593
0.014593
0.014593
0.014593
0.014593
0.014593
0.014593
0.014593
0.014593
0.014593
0.014593
0.014593
0.014593
0.014593
0.014593
0.014593
0.014593
0.014593
0.014593
0.014593
0.014593
0.014593
0.014593
0.014593
0.014593
0.014593
0.014593
0.014593
0.014593
0.014593
0.014593
0.014593
0.014593
0.014593
0.014593
0.014593
0.014593
0.014593
0.014593
0.014593
0.014593
0.014593
0.014593
0.014593
0.014593
0.014593
0.014593
0.014593
0.014593
0.014593
0.014593
0.014593
0.014593
0.014593
0.014593
0.014593
0.014593
0.014593
0.014593
0.014593
0.014593
0.014593
0.014593
0.014593
0.014593
0.014593
0.014593
0.014593
0.014593
0.014593
0.014593
0.014593
0.014593
0.014593
0.014593
0.014593
0.014593
0.014593
0.014593
0.014593
0.014593
0.014593
0.014593
0.014593
0.014593
0.014593
0.014593
0.014593
0.014593
0.014593
0.014593
0.014593
0.014593
0.014593
0.014593
0.014593
0.014593
0.014593
0.014593
0.014593
0.014593
0.014593
0.014593
0.014593
0.014593
0.014593
0.014593
0.014593
0.014593
0.014593
0.014593
0.014593
0.014593
0.014593
0.014593
0.014593
0.014593
0.014593
0.014593
0.014593
0.014593
0.014593
0.014593
0.014593
0.014593
0.014593
0.014593
0.014593
0.014593
0.014593
0.014593
0.014593
0.014593
0.014593
0.014593
0.014593
0.014593
0.014593
0.014593
0.014593
0.014593
0.014593
0.014593
0.014593
0.014593
0.014593
0.014593
0.014593
0.014593
0.014593
0.014593
0.014593
0.014593
0.014593
0.014593
0.014593
0.014593
0.014593
0.014593
0.014593
0.014593
0.014593
0.014593
0.014593
0.014593
0.014593
0.014593
0.014593
0.014593
0.014593
0.014593
0.014593
0.014593
0.014593
0.014593
0.014593
0.014593
0.014593
0.014593
0.014593
0.014593
0.014593
0.014593
0.014593
0.014593
0.014593
0.014593
0.014593
0.014593
0.014593
0.014593
0.014593
0.014593
0.014593
0.014593
0.014593
0.014593
0.014593
0.014593
0.014593
0.014593
0.014593
0.014593
0.014593
0.014593
0.014593
0.014593
0.014593
0.014593
0.014593
0.014593
0.014593
0.014593
0.014593
0.014593
0.014593
0.014593
0.014593
0.014593
0.014593
0.014593
0.014593
0.014593
0.014593
0.014593
0.014593
0.014593
0.014593
0.014593
0.014593
0.014593
0.014593
0.014593
0.014593
0.014593
0.014593
0.014593
0.014593
0.014593
0.014593
0.014593
0.014593
0.014593
0.014593
0.014593
0.014593
0.014593
0.014593
0.014593
0.014593
0.014593
0.014593
0.014593
0.014593
0.014593
0.014593
0.014593
0.014593
0.014593
0.014593
0.014593
0.014593
0.014593
0.014593
0.014593
0.014593
0.014593
0.014593
0.014593
0.014593
0.014593
0.014593
0.014593
0.014593
0.014593
0.014593
0.014593
0.014593
0.014593
0.014593
0.014593
0.014593
0.014593
0.014593
0.014593
0.014593
0.014593
0.014593
0.014593
0.014593
0.014593
0.014593
0.014593
0.014593
0.014593
0.014593
0.014593
0.014593
0.014593
0.014593
0.014593
0.014593
0.014593
0.014593
0.014593
0.014593
0.014593
0.014593
0.014593
0.014593
0.014593
0.014593
0.014593
0.014593
0.014593
0.014593
0.014593
0.014593
0.014593
0.014593
0.014593
0.014593
0.014593
0.014593
0.014593
0.014593
0.014593
0.014593
0.014593
0.014593
0.014593
0.014593
0.014593
0.014593
0.014593
0.014593
0.014593
0.014593
0.0145931
0.0145931
0.0145931
0.0145931
0.014593
0.014593
0.014593
0.014593
0.014593
0.014593
0.014593
0.014593
0.014593
0.014593
0.014593
0.014593
0.014593
0.014593
0.014593
0.014593
0.014593
0.014593
0.014593
0.014593
0.014593
0.014593
0.014593
0.014593
0.014593
0.014593
0.014593
0.014593
0.014593
0.014593
0.014593
0.0145931
0.0145931
0.0145931
0.0145931
0.0145932
0.0145932
0.0145933
0.0145934
0.014593
0.014593
0.014593
0.014593
0.014593
0.014593
0.014593
0.014593
0.014593
0.014593
0.014593
0.014593
0.014593
0.014593
0.014593
0.014593
0.014593
0.014593
0.014593
0.014593
0.014593
0.014593
0.014593
0.014593
0.014593
0.014593
0.014593
0.014593
0.0145931
0.0145931
0.0145931
0.0145931
0.0145932
0.0145932
0.0145933
0.0145934
0.0145935
0.0145937
0.014594
0.0145944
0.014593
0.014593
0.014593
0.014593
0.014593
0.014593
0.014593
0.014593
0.014593
0.014593
0.014593
0.014593
0.014593
0.014593
0.014593
0.014593
0.014593
0.014593
0.014593
0.014593
0.014593
0.014593
0.014593
0.014593
0.0145931
0.0145931
0.0145931
0.0145931
0.0145932
0.0145932
0.0145933
0.0145934
0.0145936
0.0145937
0.014594
0.0145943
0.0145948
0.0145954
0.0145963
0.0145975
0.014593
0.014593
0.014593
0.014593
0.014593
0.014593
0.014593
0.014593
0.014593
0.014593
0.014593
0.014593
0.014593
0.014593
0.014593
0.014593
0.014593
0.014593
0.014593
0.014593
0.0145931
0.0145931
0.0145931
0.0145931
0.0145932
0.0145932
0.0145933
0.0145934
0.0145936
0.0145938
0.014594
0.0145944
0.0145948
0.0145954
0.0145963
0.0145974
0.0145989
0.0146009
0.0146038
0.0146077
0.014593
0.014593
0.014593
0.014593
0.014593
0.014593
0.014593
0.014593
0.014593
0.014593
0.014593
0.014593
0.014593
0.014593
0.014593
0.0145931
0.0145931
0.0145931
0.0145931
0.0145931
0.0145932
0.0145933
0.0145933
0.0145934
0.0145936
0.0145938
0.0145941
0.0145944
0.0145949
0.0145955
0.0145963
0.0145974
0.0145989
0.0146009
0.0146036
0.0146071
0.0146119
0.0146184
0.0146273
0.0146396
0.014593
0.014593
0.014593
0.014593
0.014593
0.014593
0.014593
0.014593
0.014593
0.014593
0.014593
0.0145931
0.0145931
0.0145931
0.0145931
0.0145932
0.0145932
0.0145933
0.0145934
0.0145935
0.0145936
0.0145938
0.0145941
0.0145944
0.0145949
0.0145955
0.0145964
0.0145975
0.014599
0.0146009
0.0146036
0.0146071
0.0146118
0.014618
0.0146264
0.0146375
0.0146525
0.0146726
0.0146998
0.0147373
0.014593
0.014593
0.014593
0.014593
0.014593
0.014593
0.014593
0.0145931
0.0145931
0.0145931
0.0145931
0.0145932
0.0145932
0.0145933
0.0145934
0.0145935
0.0145937
0.0145939
0.0145941
0.0145945
0.014595
0.0145956
0.0145965
0.0145976
0.0145991
0.014601
0.0146037
0.0146071
0.0146117
0.0146179
0.014626
0.0146369
0.0146513
0.0146705
0.0146961
0.01473
0.0147752
0.0148353
0.0149157
0.0150242
0.014593
0.014593
0.0145931
0.0145931
0.0145931
0.0145931
0.0145931
0.0145932
0.0145932
0.0145933
0.0145934
0.0145935
0.0145937
0.0145939
0.0145942
0.0145946
0.0145951
0.0145957
0.0145966
0.0145977
0.0145992
0.0146012
0.0146038
0.0146073
0.0146119
0.0146179
0.014626
0.0146366
0.0146507
0.0146693
0.014694
0.0147266
0.0147698
0.0148268
0.0149019
0.0150007
0.0151302
0.0152995
0.0155203
0.0158083
0.0145931
0.0145931
0.0145931
0.0145932
0.0145932
0.0145933
0.0145934
0.0145935
0.0145936
0.0145938
0.014594
0.0145943
0.0145947
0.0145952
0.0145959
0.0145968
0.014598
0.0145995
0.0146015
0.0146041
0.0146076
0.0146122
0.0146182
0.0146262
0.0146367
0.0146505
0.0146687
0.0146927
0.0147243
0.014766
0.0148208
0.0148927
0.0149868
0.0151097
0.0152693
0.0154753
0.0157396
0.0160753
0.0164976
0.0170226
0.0176653
0.0145932
0.0145933
0.0145934
0.0145935
0.0145937
0.0145939
0.0145941
0.0145944
0.0145949
0.0145954
0.0145961
0.014597
0.0145983
0.0145998
0.0146019
0.0146046
0.0146081
0.0146128
0.0146188
0.0146268
0.0146372
0.0146509
0.0146689
0.0146924
0.0147233
0.0147638
0.0148168
0.0148861
0.0149765
0.0150941
0.0152463
0.0154422
0.0156927
0.0160102
0.0164079
0.0168999
0.017499
0.0182159
0.0190573
0.0200251
0.0211082
0.0145936
0.0145938
0.014594
0.0145942
0.0145946
0.014595
0.0145956
0.0145964
0.0145974
0.0145987
0.0146003
0.0146025
0.0146053
0.0146089
0.0146136
0.0146198
0.0146278
0.0146383
0.014652
0.0146699
0.0146933
0.0147237
0.0147634
0.0148152
0.0148825
0.01497
0.0150833
0.0152294
0.0154169
0.015656
0.0159582
0.0163365
0.0168038
0.0173729
0.0180542
0.0188542
0.0197737
0.0208065
0.0219378
0.0231471
0.0244044
0.0256729
0.0145944
0.0145948
0.0145953
0.0145959
0.0145968
0.0145978
0.0145992
0.0146009
0.0146032
0.0146061
0.0146099
0.0146148
0.0146212
0.0146295
0.0146401
0.014654
0.014672
0.0146954
0.0147258
0.0147651
0.0148162
0.0148823
0.0149677
0.0150779
0.0152193
0.0154001
0.0156299
0.0159195
0.0162811
0.0167274
0.0172704
0.0179209
0.018686
0.0195678
0.020562
0.0216562
0.022831
0.0240602
0.0253071
0.0265244
0.0276596
0.0286649
0.0295298
0.0145972
0.0145984
0.0145999
0.0146018
0.0146042
0.0146073
0.0146113
0.0146165
0.0146232
0.0146317
0.0146428
0.014657
0.0146754
0.0146991
0.0147298
0.0147693
0.0148202
0.0148858
0.0149702
0.0150784
0.0152166
0.0153926
0.0156153
0.015895
0.0162432
0.0166719
0.0171928
0.0178163
0.0185502
0.0193977
0.0203556
0.021415
0.0225584
0.0237631
0.0249989
0.0262245
0.0273899
0.028445
0.0293535
0.0300999
0.030692
0.0311434
0.0314938
0.0146029
0.0146055
0.0146089
0.0146132
0.0146187
0.0146258
0.0146348
0.0146464
0.0146613
0.0146803
0.0147047
0.0147361
0.0147763
0.0148278
0.0148937
0.014978
0.0150855
0.0152223
0.0153953
0.0156133
0.0158859
0.016224
0.0166389
0.017142
0.0177431
0.0184501
0.019267
0.0201922
0.0212179
0.0223298
0.0235075
0.0247257
0.0259494
0.0271344
0.0282313
0.0291978
0.0300094
0.0306624
0.0311695
0.0315524
0.0318339
0.0320398
0.0321851
0.0322942
0.0146157
0.0146217
0.0146293
0.014639
0.0146513
0.0146671
0.0146871
0.0147126
0.0147452
0.0147866
0.0148394
0.0149066
0.014992
0.0151003
0.0152372
0.0154095
0.0156253
0.0158938
0.0162253
0.0166305
0.01712
0.0177035
0.0183884
0.0191791
0.0200753
0.0210705
0.0221521
0.0233021
0.024498
0.0257113
0.0269033
0.0280283
0.0290415
0.0299111
0.0306247
0.0311882
0.0316193
0.0319404
0.0321747
0.0323426
0.0324618
0.0325448
0.032604
0.0326443
0.032672
0.0146445
0.0146579
0.0146748
0.0146962
0.0147233
0.0147576
0.0148011
0.0148561
0.0149256
0.0150134
0.0151239
0.0152628
0.0154365
0.0156528
0.0159204
0.016249
0.0166486
0.0171293
0.0177002
0.0183683
0.0191379
0.0200093
0.0209775
0.022031
0.023154
0.0243259
0.0255225
0.0267113
0.0278512
0.0288982
0.0298157
0.0305837
0.0312009
0.0316802
0.0320418
0.0323081
0.0325005
0.0326374
0.0327335
0.0328002
0.0328464
0.0328763
0.0328948
0.0329054
0.0329115
0.03291
0.014685
0.0147083
0.0147376
0.0147744
0.0148207
0.0148789
0.0149519
0.0150435
0.015158
0.0153009
0.0154785
0.0156982
0.0159682
0.0162976
0.016696
0.0171727
0.017736
0.0183927
0.0191466
0.0199982
0.0209436
0.0219725
0.02307
0.0242176
0.0253938
0.0265718
0.0277152
0.0287829
0.0297365
0.0305501
0.0312155
0.0317403
0.0321416
0.0324405
0.0326582
0.0328141
0.0329239
0.0330003
0.0330528
0.0330882
0.03311
0.0331219
0.0331293
0.033128
0.0331239
0.0331138
0.0330975
0.0330776
0.0148467
0.0149093
0.0149873
0.0150843
0.0152048
0.0153541
0.0155383
0.0157644
0.0160403
0.0163747
0.0167763
0.0172539
0.017815
0.0184658
0.0192095
0.0200466
0.0209735
0.0219813
0.0230557
0.0241798
0.025334
0.0264955
0.0276334
0.0287101
0.0296874
0.030536
0.0312419
0.0318071
0.0322452
0.0325755
0.0328185
0.0329937
0.0331178
0.0332043
0.0332636
0.0333039
0.0333289
0.0333435
0.0333507
0.033353
0.0333497
0.0333412
0.0333277
0.0333085
0.0332856
0.0332582
0.0332269
0.0331928
0.015034
0.0151385
0.0152673
0.0154255
0.0156193
0.0158552
0.016141
0.0164845
0.0168941
0.0173776
0.0179419
0.0185923
0.0193314
0.0201592
0.0210723
0.0220627
0.0231169
0.0242189
0.0253506
0.0264921
0.0276175
0.0286928
0.0296819
0.0305539
0.0312905
0.0318891
0.0323593
0.0327181
0.0329848
0.0331787
0.0333169
0.0334135
0.0334799
0.0335246
0.0335534
0.0335703
0.0335779
0.0335814
0.0335782
0.0335718
0.0335604
0.033543
0.0335222
0.0334972
0.0334682
0.033436
0.0334015
0.0333652
0.033327
0.033286
0.0157263
0.0159759
0.0162756
0.0166329
0.0170553
0.0175499
0.0181227
0.018778
0.0195179
0.0203414
0.0212454
0.0222221
0.023259
0.0243402
0.0254495
0.0265689
0.0276764
0.0287419
0.029732
0.0306158
0.0313726
0.0319957
0.0324913
0.0328738
0.0331613
0.0333721
0.0335234
0.0336298
0.033703
0.033752
0.033784
0.0338026
0.0338117
0.0338141
0.0338123
0.0338067
0.0337959
0.0337807
0.0337603
0.0337373
0.0337106
0.0336804
0.0336476
0.0336131
0.0335771
0.033539
0.0334983
0.0334546
0.033408
0.0333572
0.0172673
0.0177782
0.0183647
0.0190301
0.0197757
0.0205997
0.0214986
0.022465
0.023487
0.024549
0.025636
0.0267319
0.0278172
0.0288662
0.0298477
0.0307322
0.031498
0.0321357
0.0326487
0.0330489
0.0333526
0.0335774
0.0337399
0.0338548
0.0339341
0.0339871
0.0340216
0.0340422
0.0340522
0.0340539
0.0340523
0.034046
0.0340363
0.0340217
0.0340024
0.0339803
0.0339549
0.0339262
0.0338947
0.0338613
0.0338269
0.033791
0.0337529
0.0337123
0.0336691
0.033623
0.0335735
0.0335199
0.0334626
0.0334
0.0201125
0.0209411
0.0218385
0.0227974
0.0238063
0.02485
0.0259147
0.0269855
0.0280455
0.029072
0.0300366
0.0309115
0.0316753
0.0323172
0.0328385
0.033249
0.0335635
0.0337982
0.033969
0.0340906
0.0341747
0.034231
0.0342673
0.0342894
0.0342997
0.0343012
0.0342982
0.034292
0.034282
0.0342676
0.0342492
0.0342265
0.0342021
0.0341747
0.0341441
0.0341115
0.0340778
0.034043
0.0340067
0.0339683
0.0339278
0.0338849
0.0338393
0.0337903
0.0337378
0.0336816
0.0336211
0.0335561
0.0334872
0.0334136
0.0242217
0.0252473
0.0262889
0.027333
0.0283646
0.0293635
0.0303037
0.0311596
0.0319108
0.0325465
0.0330665
0.0334793
0.0337979
0.0340375
0.0342132
0.0343388
0.0344262
0.0344846
0.034522
0.0345445
0.0345551
0.0345559
0.0345515
0.0345449
0.0345336
0.0345191
0.0345004
0.0344782
0.0344536
0.0344266
0.0343967
0.0343644
0.0343308
0.0342967
0.0342614
0.0342245
0.0341857
0.034145
0.0341021
0.0340566
0.0340082
0.0339563
0.033901
0.0338419
0.0337784
0.0337107
0.0336396
0.0335641
0.0334839
0.0333977
0.0287759
0.0297423
0.0306512
0.0314794
0.0322081
0.0328274
0.0333366
0.0337431
0.034059
0.0342981
0.0344744
0.0346011
0.0346895
0.0347484
0.034786
0.0348081
0.0348186
0.0348182
0.0348128
0.034804
0.034792
0.0347767
0.0347574
0.0347352
0.0347095
0.0346826
0.034653
0.034621
0.0345873
0.034553
0.0345181
0.034482
0.0344442
0.0344049
0.034364
0.0343209
0.0342753
0.034227
0.0341756
0.034121
0.0340629
0.0340007
0.0339345
0.0338646
0.033791
0.033713
0.0336302
0.0335424
0.0334491
0.0333489
0.0325677
0.0331609
0.0336501
0.0340423
0.0343484
0.0345812
0.0347538
0.0348782
0.034965
0.0350229
0.0350595
0.0350804
0.0350898
0.035088
0.0350813
0.0350703
0.035057
0.0350403
0.0350205
0.0349971
0.0349711
0.0349433
0.0349135
0.0348814
0.0348474
0.0348127
0.0347777
0.0347418
0.0347046
0.034666
0.0346261
0.0345846
0.0345411
0.0344953
0.0344469
0.0343959
0.0343417
0.0342842
0.0342231
0.0341581
0.0340892
0.0340171
0.0339411
0.0338605
0.0337753
0.0336851
0.0335894
0.0334879
0.0333809
0.0332666
0.0346658
0.0348869
0.0350513
0.03517
0.0352528
0.0353078
0.0353421
0.035361
0.0353682
0.0353651
0.0353565
0.0353433
0.0353285
0.0353101
0.035289
0.0352645
0.0352377
0.0352088
0.0351786
0.035146
0.0351117
0.0350762
0.0350407
0.0350046
0.0349675
0.0349291
0.0348897
0.0348491
0.034807
0.0347628
0.0347166
0.0346681
0.0346171
0.0345631
0.034506
0.0344458
0.0343817
0.0343139
0.0342429
0.0341684
0.0340897
0.0340067
0.0339191
0.0338264
0.0337283
0.0336248
0.0335159
0.0334009
0.0332804
0.0331524
0.0355518
0.0356022
0.035633
0.0356489
0.0356532
0.0356485
0.0356378
0.0356226
0.0356053
0.0355853
0.0355629
0.0355372
0.035509
0.0354793
0.0354479
0.0354147
0.0353796
0.0353436
0.0353072
0.0352706
0.0352332
0.0351948
0.0351554
0.0351151
0.0350737
0.0350307
0.0349858
0.0349391
0.0348903
0.0348391
0.0347852
0.0347284
0.0346687
0.0346054
0.0345385
0.0344684
0.0343951
0.034318
0.0342369
0.0341514
0.0340614
0.0339662
0.0338659
0.0337604
0.0336494
0.0335329
0.0334109
0.033283
0.0331497
0.0330093
0.0359437
0.0359371
0.035924
0.0359066
0.035887
0.0358653
0.0358413
0.0358142
0.0357847
0.0357535
0.0357212
0.0356873
0.0356514
0.0356145
0.035577
0.0355398
0.0355019
0.0354632
0.0354235
0.0353831
0.035342
0.0352995
0.0352555
0.03521
0.0351627
0.0351134
0.0350619
0.0350079
0.0349512
0.0348917
0.034829
0.034763
0.0346935
0.0346213
0.0345456
0.034466
0.0343824
0.0342946
0.034202
0.0341045
0.0340021
0.0338946
0.0337818
0.0336636
0.0335401
0.033411
0.0332769
0.0331374
0.0329928
0.0328409
0.0361722
0.0361489
0.0361233
0.0360947
0.0360636
0.0360311
0.0359978
0.035963
0.0359263
0.0358883
0.03585
0.0358119
0.0357733
0.035734
0.0356938
0.0356532
0.0356119
0.0355697
0.0355261
0.0354812
0.0354349
0.035387
0.0353371
0.0352852
0.035231
0.0351743
0.0351149
0.0350526
0.0349871
0.0349184
0.0348469
0.0347723
0.034694
0.0346121
0.0345262
0.0344359
0.0343409
0.0342413
0.0341368
0.0340272
0.0339127
0.0337929
0.0336681
0.0335378
0.0334028
0.0332627
0.0331176
0.0329671
0.0328119
0.0326498
0.0363448
0.0363111
0.0362766
0.0362408
0.0362032
0.0361643
0.0361251
0.0360861
0.0360468
0.0360068
0.0359661
0.035925
0.0358834
0.0358411
0.0357976
0.0357531
0.0357073
0.0356602
0.0356116
0.0355611
0.0355087
0.0354542
0.0353973
0.0353379
0.0352759
0.0352108
0.0351426
0.0350718
0.0349981
0.034921
0.0348404
0.0347562
0.0346679
0.0345751
0.0344779
0.0343761
0.0342696
0.0341583
0.034042
0.0339208
0.0337946
0.0336633
0.0335276
0.0333866
0.033241
0.0330903
0.0329352
0.0327745
0.0326105
0.0324396
0.0364812
0.0364415
0.0364015
0.0363616
0.0363216
0.0362809
0.0362396
0.0361979
0.0361559
0.0361133
0.0360698
0.0360253
0.0359798
0.0359332
0.0358853
0.0358359
0.0357847
0.0357319
0.035677
0.0356198
0.0355604
0.0354985
0.0354337
0.035366
0.0352957
0.0352228
0.0351467
0.0350672
0.0349844
0.0348979
0.0348071
0.0347121
0.0346128
0.034509
0.0344006
0.0342875
0.0341697
0.034047
0.0339196
0.0337874
0.0336509
0.0335091
0.0333631
0.0332121
0.0330568
0.0328963
0.0327327
0.0325637
0.0323923
0.0322147
0.0365966
0.0365553
0.0365134
0.0364711
0.0364287
0.0363858
0.0363421
0.0362975
0.0362521
0.0362057
0.0361583
0.0361096
0.0360594
0.0360076
0.0359542
0.0358989
0.0358415
0.0357819
0.03572
0.0356554
0.0355881
0.0355183
0.035446
0.0353708
0.0352923
0.0352108
0.0351257
0.0350367
0.0349437
0.0348466
0.0347453
0.0346395
0.0345294
0.0344146
0.0342954
0.0341714
0.034043
0.03391
0.0337726
0.0336302
0.0334838
0.0333324
0.0331769
0.0330167
0.0328532
0.0326847
0.0325142
0.0323388
0.0321617
0.0319793
0.0367008
0.0366576
0.0366136
0.0365689
0.0365234
0.0364772
0.0364301
0.0363818
0.0363322
0.0362814
0.0362291
0.0361752
0.0361194
0.0360617
0.036002
0.03594
0.0358755
0.0358085
0.0357391
0.0356674
0.0355929
0.0355154
0.035435
0.0353512
0.0352638
0.0351726
0.0350775
0.0349784
0.0348751
0.0347676
0.0346558
0.0345396
0.0344189
0.0342937
0.0341645
0.0340307
0.0338925
0.0337497
0.0336028
0.0334512
0.0332957
0.0331356
0.0329721
0.0328042
0.0326343
0.0324598
0.0322838
0.0321039
0.0319231
0.0317381
0.0368385
0.0367931
0.0367469
0.0367
0.036652
0.0366029
0.0365527
0.0365012
0.0364484
0.0363939
0.0363377
0.0362798
0.0362199
0.0361578
0.0360933
0.0360266
0.0359577
0.0358865
0.0358126
0.035736
0.0356565
0.035574
0.035488
0.0353984
0.0353051
0.0352081
0.035107
0.035002
0.0348928
0.0347796
0.0346619
0.0345401
0.034414
0.0342839
0.0341491
0.0340104
0.0338672
0.03372
0.0335681
0.0334127
0.0332528
0.0330896
0.0329221
0.0327527
0.032579
0.0324039
0.0322251
0.0320457
0.0318634
0.031681
0.0314955
0.0369194
0.0368707
0.036821
0.0367702
0.0367181
0.0366648
0.0366098
0.0365533
0.0364951
0.036435
0.0363728
0.0363084
0.0362419
0.0361735
0.0361028
0.0360295
0.0359536
0.0358751
0.0357937
0.0357089
0.0356208
0.0355292
0.035434
0.0353351
0.0352323
0.0351257
0.035015
0.0349004
0.0347814
0.0346587
0.0345317
0.0344008
0.0342654
0.0341262
0.0339825
0.033835
0.0336831
0.0335278
0.0333681
0.0332053
0.0330385
0.0328695
0.0326965
0.0325223
0.0323446
0.0321662
0.0319851
0.0318042
0.0316214
0.0314394
0.0312555
0.0370353
0.0369839
0.0369314
0.0368775
0.0368222
0.0367654
0.0367069
0.0366466
0.0365844
0.0365201
0.0364539
0.0363859
0.0363156
0.0362428
0.0361677
0.0360901
0.0360097
0.0359261
0.0358393
0.0357493
0.0356558
0.0355589
0.0354583
0.0353539
0.0352458
0.0351338
0.0350178
0.0348979
0.0347744
0.0346466
0.0345149
0.034379
0.0342394
0.0340954
0.0339477
0.0337958
0.0336406
0.0334813
0.033319
0.0331529
0.0329844
0.0328123
0.032639
0.0324623
0.0322849
0.032105
0.0319252
0.0317436
0.0315631
0.0313818
0.0312022
0.0310218
0.037086
0.0370304
0.0369733
0.0369146
0.0368541
0.0367919
0.0367277
0.036662
0.0365943
0.0365244
0.0364522
0.0363779
0.0363011
0.0362216
0.036139
0.0360535
0.035965
0.0358731
0.035778
0.0356794
0.0355772
0.0354714
0.0353621
0.0352488
0.0351318
0.0350112
0.0348867
0.0347582
0.034626
0.0344897
0.0343497
0.0342055
0.0340578
0.0339061
0.033751
0.0335922
0.0334305
0.033265
0.0330971
0.0329262
0.0327536
0.032578
0.0324017
0.032223
0.0320443
0.0318641
0.0316846
0.0315045
0.0313262
0.0311482
0.0309728
0.0307975
0.0371175
0.037057
0.0369947
0.036931
0.0368655
0.0367981
0.0367285
0.036657
0.0365834
0.0365074
0.0364287
0.0363472
0.0362629
0.0361757
0.0360854
0.035992
0.0358953
0.0357952
0.0356917
0.0355847
0.035474
0.0353597
0.0352421
0.0351206
0.0349954
0.0348664
0.0347337
0.0345972
0.0344568
0.0343127
0.0341651
0.0340135
0.0338588
0.0337005
0.0335393
0.0333748
0.0332078
0.0330377
0.032866
0.0326919
0.0325165
0.0323391
0.0321615
0.0319825
0.0318042
0.0316253
0.031448
0.031271
0.0310967
0.0309236
0.0307539
0.0305853
0.0371293
0.037064
0.0369968
0.0369278
0.0368569
0.0367839
0.0367086
0.0366306
0.0365501
0.036467
0.0363811
0.0362923
0.0362005
0.0361055
0.0360074
0.035906
0.0358013
0.0356932
0.0355815
0.0354666
0.0353481
0.0352258
0.0351002
0.0349708
0.0348378
0.034701
0.0345606
0.0344165
0.034269
0.0341179
0.0339637
0.0338059
0.0336454
0.0334818
0.0333157
0.0331468
0.0329762
0.0328031
0.0326289
0.032453
0.0322765
0.0320989
0.0319217
0.0317442
0.0315678
0.031392
0.0312184
0.0310462
0.0308772
0.0307105
0.0305478
0.0303873
0.0371218
0.0370514
0.036979
0.0369042
0.036827
0.0367475
0.0366655
0.0365808
0.0364933
0.036403
0.0363098
0.0362135
0.0361141
0.0360116
0.0359058
0.0357967
0.0356844
0.0355687
0.0354494
0.0353268
0.0352008
0.035071
0.0349378
0.0348009
0.0346606
0.0345167
0.0343695
0.0342189
0.0340652
0.0339082
0.0337485
0.0335859
0.0334207
0.0332532
0.0330835
0.0329118
0.032739
0.0325644
0.0323891
0.0322131
0.032037
0.0318608
0.0316856
0.031511
0.0313381
0.0311669
0.0309984
0.0308323
0.03067
0.0305108
0.0303562
0.0302046
0.0370939
0.0370176
0.036939
0.0368579
0.0367743
0.0366882
0.0365993
0.0365077
0.0364132
0.0363157
0.0362153
0.0361117
0.0360049
0.0358951
0.0357821
0.0356658
0.0355461
0.0354232
0.0352967
0.0351668
0.0350335
0.0348967
0.0347565
0.034613
0.0344662
0.0343162
0.0341632
0.0340071
0.0338483
0.0336867
0.0335227
0.0333564
0.033188
0.0330178
0.0328461
0.032673
0.0324993
0.0323246
0.0321499
0.0319752
0.0318011
0.0316277
0.0314559
0.0312856
0.0311177
0.0309522
0.0307901
0.0306312
0.0304766
0.0303259
0.0301802
0.0300382
0.0370442
0.0369617
0.0368768
0.0367893
0.0366991
0.0366063
0.0365106
0.0364121
0.0363106
0.0362061
0.0360987
0.0359882
0.0358746
0.0357578
0.0356378
0.0355145
0.0353879
0.0352579
0.0351246
0.034988
0.0348482
0.0347051
0.0345589
0.0344096
0.0342574
0.0341023
0.0339444
0.0337841
0.0336213
0.0334563
0.0332893
0.0331205
0.0329503
0.0327789
0.0326065
0.0324334
0.0322602
0.0320869
0.0319141
0.0317421
0.0315713
0.0314021
0.031235
0.0310703
0.0309085
0.0307499
0.0305951
0.0304443
0.0302981
0.0301565
0.0300202
0.0298882
0.036884
0.0367927
0.0366987
0.036602
0.0365025
0.0364001
0.036295
0.0361869
0.0360758
0.0359617
0.0358446
0.0357243
0.0356008
0.0354741
0.0353442
0.0352111
0.0350748
0.0349354
0.0347929
0.0346473
0.0344988
0.0343475
0.0341935
0.0340368
0.0338776
0.0337162
0.0335526
0.0333871
0.0332199
0.0330513
0.0328814
0.0327106
0.0325392
0.0323675
0.0321957
0.0320245
0.0318538
0.0316843
0.0315162
0.0313501
0.0311861
0.0310249
0.0308667
0.030712
0.0305611
0.0304144
0.0302723
0.0301351
0.0300029
0.0298762
0.0297543
0.036785
0.0366874
0.036587
0.0364839
0.0363781
0.0362695
0.0361579
0.0360435
0.035926
0.0358055
0.0356819
0.0355552
0.0354255
0.0352926
0.0351567
0.0350179
0.034876
0.0347313
0.0345837
0.0344334
0.0342805
0.034125
0.0339672
0.0338072
0.0336451
0.0334812
0.0333157
0.0331487
0.0329805
0.0328115
0.0326417
0.0324717
0.0323016
0.0321318
0.0319627
0.0317946
0.0316278
0.0314627
0.0312997
0.0311392
0.0309815
0.030827
0.0306762
0.0305292
0.0303866
0.0302486
0.0301154
0.0299875
0.0298649
0.029748
0.0296357
0.0366658
0.0365621
0.0364557
0.0363465
0.0362346
0.0361198
0.0360021
0.0358814
0.0357578
0.0356313
0.0355017
0.0353693
0.0352339
0.0350956
0.0349545
0.0348106
0.0346641
0.0345149
0.0343631
0.034209
0.0340526
0.0338941
0.0337336
0.0335714
0.0334075
0.0332423
0.0330759
0.0329086
0.0327407
0.0325725
0.0324041
0.032236
0.0320685
0.0319018
0.0317364
0.0315725
0.0314106
0.031251
0.031094
0.03094
0.0307893
0.0306424
0.0304994
0.0303607
0.0302267
0.0300977
0.0299736
0.029855
0.0297418
0.0296344
0.0295317
0.0364182
0.0363059
0.0361908
0.0360729
0.0359522
0.0358286
0.0357023
0.035573
0.035441
0.0353062
0.0351686
0.0350283
0.0348854
0.0347398
0.0345918
0.0344414
0.0342886
0.0341337
0.0339768
0.033818
0.0336574
0.0334953
0.0333319
0.0331674
0.033002
0.032836
0.0326696
0.0325031
0.0323368
0.0321709
0.0320059
0.0318419
0.0316794
0.0315187
0.0313601
0.0312039
0.0310506
0.0309003
0.0307535
0.0306104
0.0304714
0.0303367
0.0302066
0.0300814
0.0299613
0.0298464
0.0297369
0.0296329
0.0295344
0.0294408
0.0362567
0.0361387
0.036018
0.0358945
0.0357684
0.0356395
0.0355079
0.0353737
0.0352369
0.0350974
0.0349555
0.034811
0.0346642
0.0345151
0.0343638
0.0342104
0.0340551
0.033898
0.0337392
0.033579
0.0334175
0.0332549
0.0330914
0.0329273
0.0327629
0.0325983
0.0324338
0.0322698
0.0321064
0.0319441
0.0317831
0.0316237
0.0314663
0.0313111
0.0311585
0.0310088
0.0308624
0.0307194
0.0305802
0.0304451
0.0303143
0.0301881
0.0300666
0.0299502
0.0298389
0.0297328
0.0296321
0.0295368
0.0294469
0.0293616
0.036079
0.0359557
0.0358298
0.0357013
0.0355702
0.0354367
0.0353006
0.035162
0.0350211
0.0348778
0.0347322
0.0345844
0.0344346
0.0342828
0.0341291
0.0339737
0.0338168
0.0336584
0.0334988
0.0333382
0.0331767
0.0330146
0.0328522
0.0326895
0.032527
0.0323648
0.0322033
0.0320427
0.0318833
0.0317254
0.0315692
0.0314152
0.0312636
0.0311147
0.0309687
0.030826
0.0306869
0.0305515
0.0304202
0.0302933
0.0301708
0.030053
0.0299401
0.0298322
0.0297294
0.0296318
0.0295395
0.0294523
0.0293703
0.0292927
0.0358868
0.0357587
0.0356282
0.0354952
0.0353599
0.0352223
0.0350823
0.0349402
0.0347958
0.0346494
0.0345011
0.0343508
0.0341988
0.0340452
0.03389
0.0337336
0.0335759
0.0334173
0.0332578
0.0330978
0.0329373
0.0327767
0.0326162
0.032456
0.0322964
0.0321375
0.0319798
0.0318235
0.0316688
0.031516
0.0313655
0.0312175
0.0310722
0.03093
0.0307911
0.0306558
0.0305242
0.0303967
0.0302735
0.0301546
0.0300404
0.0299309
0.0298263
0.0297266
0.0296319
0.0295422
0.0294576
0.0293779
0.0293031
0.0292323
0.035682
0.0355497
0.0354152
0.0352784
0.0351395
0.0349985
0.0348554
0.0347103
0.0345634
0.0344147
0.0342643
0.0341124
0.0339591
0.0338045
0.0336489
0.0334922
0.0333348
0.0331768
0.0330184
0.0328599
0.0327014
0.0325431
0.0323854
0.0322285
0.0320725
0.0319179
0.0317647
0.0316134
0.0314641
0.0313171
0.0311727
0.0310311
0.0308927
0.0307575
0.0306259
0.0304981
0.0303743
0.0302547
0.0301394
0.0300286
0.0299223
0.0298208
0.0297241
0.0296321
0.029545
0.0294627
0.0293852
0.0293122
0.0292438
0.0291791
0.0354667
0.0353308
0.0351929
0.0350529
0.0349111
0.0347673
0.0346218
0.0344747
0.0343259
0.0341757
0.0340242
0.0338715
0.0337177
0.0335631
0.0334077
0.0332517
0.0330954
0.0329389
0.0327825
0.0326262
0.0324705
0.0323155
0.0321613
0.0320084
0.0318569
0.031707
0.0315591
0.0314133
0.0312699
0.0311291
0.0309912
0.0308565
0.0307251
0.0305972
0.030473
0.0303528
0.0302367
0.0301248
0.0300172
0.0299142
0.0298156
0.0297216
0.0296323
0.0295476
0.0294675
0.0293919
0.0293207
0.0292538
0.029191
0.0291318
0.0352428
0.0351039
0.0349632
0.0348208
0.0346767
0.034531
0.0343838
0.0342353
0.0340855
0.0339346
0.0337827
0.03363
0.0334766
0.0333227
0.0331684
0.033014
0.0328595
0.0327053
0.0325516
0.0323984
0.0322462
0.032095
0.0319452
0.0317969
0.0316504
0.0315059
0.0313636
0.0312238
0.0310867
0.0309525
0.0308214
0.0306936
0.0305693
0.0304488
0.030332
0.0302193
0.0301107
0.0300063
0.0299062
0.0298105
0.0297191
0.0296322
0.0295498
0.0294717
0.0293979
0.0293283
0.0292628
0.0292012
0.0291435
0.0290889
0.034871
0.0347282
0.034584
0.0344383
0.0342914
0.0341433
0.0339942
0.0338441
0.0336933
0.0335418
0.0333899
0.0332376
0.0330852
0.0329328
0.0327806
0.0326288
0.0324775
0.0323272
0.0321778
0.0320297
0.031883
0.0317379
0.0315948
0.0314537
0.031315
0.0311787
0.0310452
0.0309146
0.0307872
0.030663
0.0305422
0.0304251
0.0303118
0.0302023
0.0300968
0.0299954
0.0298982
0.0298051
0.0297163
0.0296318
0.0295514
0.0294752
0.0294031
0.0293349
0.0292707
0.0292102
0.0291534
0.0291
0.0290493
0.0346339
0.0344898
0.0343444
0.034198
0.0340505
0.0339022
0.0337532
0.0336036
0.0334535
0.0333032
0.0331527
0.0330023
0.032852
0.0327022
0.0325529
0.0324043
0.0322568
0.0321104
0.0319653
0.0318218
0.0316801
0.0315403
0.0314026
0.0312674
0.0311347
0.0310047
0.0308776
0.0307537
0.030633
0.0305157
0.0304019
0.0302918
0.0301855
0.030083
0.0299845
0.02989
0.0297995
0.0297131
0.0296307
0.0295523
0.0294779
0.0294073
0.0293405
0.0292774
0.0292179
0.0291619
0.0291091
0.0290593
0.0290119
0.0343946
0.0342498
0.0341039
0.0339573
0.0338101
0.0336622
0.033514
0.0333655
0.0332169
0.0330684
0.03292
0.0327721
0.0326246
0.0324779
0.0323321
0.0321874
0.032044
0.031902
0.0317617
0.0316232
0.0314868
0.0313526
0.0312207
0.0310915
0.030965
0.0308414
0.0307208
0.0306035
0.0304895
0.030379
0.030272
0.0301687
0.0300691
0.0299733
0.0298814