/*--------------------------------*- C++ -*----------------------------------*\
| =========                 |                                                 |
| \\      /  F ield         | OpenFOAM: The Open Source CFD Toolbox           |
|  \\    /   O peration     | Version:  v1706                                 |
|   \\  /    A nd           | Web:      www.OpenFOAM.com                      |
|    \\/     M anipulation  |                                                 |
\*---------------------------------------------------------------------------*/
FoamFile
{
    version     2.0;
    format      ascii;
    class       volScalarField;
    location    "1.9e-05";
    object      Mach;
}
// * * * * * * * * * * * * * * * * * * * * * * * * * * * * * * * * * * * * * //

dimensions      [0 0 0 0 0 0 0];


internalField   nonuniform List<scalar> 
30038
(
3.99498
3.99498
3.99498
3.99498
3.99498
3.99498
3.99498
3.99498
3.99498
3.99498
3.99498
3.99498
3.99498
3.99498
3.99498
3.99498
3.99498
3.99498
3.99498
3.99498
3.99498
3.99498
3.99498
3.99498
3.99498
3.99498
3.99498
3.99498
3.99498
3.99498
3.99498
3.99498
3.99498
3.99498
3.99498
3.99498
3.99498
3.99498
3.99498
3.99498
3.99498
3.99498
3.99498
3.99498
3.99498
3.99498
3.99498
3.99498
3.99498
3.99498
3.99498
3.99498
3.99498
3.99498
3.99498
3.99498
3.99498
3.99498
3.99498
3.99498
3.99498
3.99498
3.99498
3.99498
3.99498
3.99498
3.99498
3.99498
3.99498
3.99498
3.99498
3.99498
3.99498
3.99498
3.99498
3.99498
3.99498
3.99498
3.99498
3.99498
3.99498
3.99498
3.99498
3.99498
3.99498
3.99498
3.99498
3.99498
3.99498
3.99498
3.99498
3.99498
3.99498
3.99498
3.99498
3.99498
3.99498
3.99498
3.99498
3.99498
3.99498
3.99498
3.99498
3.99498
3.99498
3.99498
3.99498
3.99498
3.99498
3.99498
3.99498
3.99498
3.99498
3.99498
3.99498
3.99498
3.99498
3.99498
3.99498
3.99498
3.99498
3.99498
3.99498
3.99498
3.99498
3.99498
3.99498
3.99498
3.99498
3.99498
3.99498
3.99498
3.99498
3.99498
3.99498
3.99498
3.99498
3.99498
3.99498
3.99498
3.99498
3.99498
3.99498
3.99498
3.99498
3.99498
3.99498
3.99498
3.99498
3.99498
3.99498
3.99498
3.99498
3.99498
3.99498
3.99498
3.99498
3.99498
3.99498
3.99498
3.99498
3.99498
3.99498
3.99498
3.99498
3.99498
3.99498
3.99498
3.99498
3.99498
3.99498
3.99498
3.99498
3.99498
3.99498
3.99498
3.99498
3.99498
3.99498
3.99498
3.99498
3.99498
3.99498
3.99498
3.99498
3.99498
3.99498
3.99498
3.99498
3.99498
3.99498
3.99498
3.99498
3.99498
3.99498
3.99498
3.99498
3.99498
3.99498
3.99498
3.99498
3.99498
3.99498
3.99498
3.99498
3.99498
3.99498
3.99498
3.99498
3.99498
3.99498
3.99498
3.99498
3.99498
3.99498
3.99498
3.99498
3.99498
3.99498
3.99498
3.99498
3.99498
3.99498
3.99498
3.99498
3.99498
3.99498
3.99498
3.99498
3.99498
3.99498
3.99498
3.99498
3.99498
3.99498
3.99498
3.99498
3.99498
3.99498
3.99498
3.99498
3.99498
3.99498
3.99498
3.99498
3.99498
3.99498
3.99498
3.99498
3.99498
3.99498
3.99498
3.99498
3.99498
3.99498
3.99498
3.99498
3.99498
3.99498
3.99498
3.99498
3.99498
3.99498
3.99498
3.99498
3.99498
3.99498
3.99498
3.99498
3.99498
3.99498
3.99498
3.99498
3.99498
3.99498
3.99498
3.99498
3.99498
3.99498
3.99498
3.99498
3.99498
3.99498
3.99498
3.99498
3.99498
3.99498
3.99498
3.99498
3.99498
3.99498
3.99498
3.99498
3.99498
3.99498
3.99498
3.99498
3.99498
3.99498
3.99498
3.99498
3.99498
3.99498
3.99498
3.99498
3.99498
3.99498
3.99498
3.99498
3.99498
3.99498
3.99498
3.99498
3.99498
3.99498
3.99498
3.99498
3.99498
3.99498
3.99498
3.99498
3.99498
3.99498
3.99498
3.99498
3.99498
3.99498
3.99498
3.99498
3.99498
3.99498
3.99498
3.99498
3.99498
3.99498
3.99498
3.99498
3.99498
3.99498
3.99497
3.99497
3.99497
3.99497
3.99498
3.99498
3.99498
3.99498
3.99498
3.99498
3.99498
3.99498
3.99498
3.99498
3.99498
3.99498
3.99498
3.99498
3.99498
3.99498
3.99498
3.99498
3.99498
3.99498
3.99498
3.99498
3.99498
3.99498
3.99498
3.99498
3.99498
3.99498
3.99498
3.99498
3.99498
3.99497
3.99497
3.99497
3.99497
3.99497
3.99496
3.99496
3.99495
3.99498
3.99498
3.99498
3.99498
3.99498
3.99498
3.99498
3.99498
3.99498
3.99498
3.99498
3.99498
3.99498
3.99498
3.99498
3.99498
3.99498
3.99498
3.99498
3.99498
3.99498
3.99498
3.99498
3.99498
3.99498
3.99498
3.99498
3.99497
3.99497
3.99497
3.99497
3.99497
3.99496
3.99496
3.99495
3.99494
3.99493
3.99491
3.99488
3.99498
3.99498
3.99498
3.99498
3.99498
3.99498
3.99498
3.99498
3.99498
3.99498
3.99498
3.99498
3.99498
3.99498
3.99498
3.99498
3.99498
3.99498
3.99498
3.99498
3.99498
3.99498
3.99498
3.99497
3.99497
3.99497
3.99497
3.99497
3.99497
3.99496
3.99496
3.99495
3.99494
3.99493
3.99491
3.99488
3.99485
3.9948
3.99474
3.99465
3.99498
3.99498
3.99498
3.99498
3.99498
3.99498
3.99498
3.99498
3.99498
3.99498
3.99498
3.99498
3.99498
3.99498
3.99498
3.99498
3.99498
3.99498
3.99498
3.99497
3.99497
3.99497
3.99497
3.99497
3.99496
3.99496
3.99495
3.99495
3.99494
3.99492
3.9949
3.99488
3.99485
3.9948
3.99474
3.99466
3.99455
3.9944
3.99419
3.99391
3.99498
3.99498
3.99498
3.99498
3.99498
3.99498
3.99498
3.99498
3.99498
3.99498
3.99498
3.99498
3.99498
3.99498
3.99498
3.99497
3.99497
3.99497
3.99497
3.99497
3.99496
3.99496
3.99495
3.99495
3.99493
3.99492
3.9949
3.99488
3.99484
3.9948
3.99474
3.99465
3.99454
3.9944
3.9942
3.99393
3.99358
3.99309
3.99242
3.9915
3.99498
3.99498
3.99498
3.99498
3.99498
3.99498
3.99498
3.99498
3.99498
3.99498
3.99497
3.99497
3.99497
3.99497
3.99497
3.99497
3.99496
3.99496
3.99495
3.99494
3.99493
3.99492
3.9949
3.99487
3.99484
3.99479
3.99473
3.99464
3.99453
3.99439
3.99419
3.99392
3.99357
3.9931
3.99247
3.99162
3.99048
3.98895
3.98685
3.98398
3.99498
3.99498
3.99498
3.99498
3.99498
3.99498
3.99497
3.99497
3.99497
3.99497
3.99497
3.99497
3.99496
3.99496
3.99495
3.99494
3.99493
3.99491
3.99489
3.99486
3.99483
3.99478
3.99472
3.99463
3.99452
3.99437
3.99417
3.99391
3.99355
3.99308
3.99246
3.99162
3.99051
3.98903
3.98706
3.98442
3.98089
3.97619
3.96978
3.96114
3.99498
3.99497
3.99497
3.99497
3.99497
3.99497
3.99497
3.99496
3.99496
3.99495
3.99495
3.99494
3.99492
3.99491
3.99489
3.99486
3.99482
3.99477
3.9947
3.99462
3.9945
3.99435
3.99415
3.99388
3.99352
3.99305
3.99243
3.99161
3.99051
3.98905
3.98712
3.98455
3.98114
3.97662
3.97062
3.96268
3.95217
3.9383
3.91976
3.89536
3.99497
3.99497
3.99497
3.99496
3.99496
3.99495
3.99494
3.99493
3.99492
3.9949
3.99488
3.99485
3.99481
3.99475
3.99469
3.99459
3.99448
3.99432
3.99411
3.99384
3.99348
3.99301
3.99238
3.99156
3.99047
3.98902
3.98712
3.9846
3.98127
3.97687
3.97106
3.9634
3.95333
3.9401
3.92281
3.90028
3.87109
3.83362
3.7853
3.72485
3.99496
3.99495
3.99495
3.99494
3.99493
3.99491
3.99489
3.99487
3.99483
3.99479
3.99474
3.99466
3.99457
3.99444
3.99428
3.99407
3.99379
3.99342
3.99294
3.9923
3.99147
3.99038
3.98894
3.98705
3.98455
3.98128
3.97697
3.9713
3.96386
3.95412
3.94137
3.92476
3.90321
3.87541
3.83982
3.79471
3.73823
3.66845
3.58401
3.4826
3.36663
3.99492
3.9949
3.99488
3.99485
3.99482
3.99477
3.99471
3.99463
3.99453
3.9944
3.99423
3.994
3.99371
3.99333
3.99284
3.99219
3.99134
3.99023
3.98878
3.98689
3.9844
3.98115
3.97689
3.97132
3.96405
3.95455
3.94218
3.92612
3.90536
3.87867
3.84458
3.80147
3.74756
3.68111
3.60059
3.50497
3.39402
3.26842
3.13054
2.9809
2.82868
3.99484
3.9948
3.99474
3.99468
3.99459
3.99448
3.99434
3.99416
3.99392
3.99361
3.99322
3.9927
3.99203
3.99116
3.99002
3.98854
3.98662
3.98412
3.98086
3.97661
3.97108
3.9639
3.95456
3.94246
3.92682
3.90668
3.88088
3.84804
3.80661
3.75489
3.69119
3.61401
3.52224
3.4155
3.29435
3.16049
3.01655
2.86597
2.71249
2.56117
2.41363
2.27957
3.99464
3.99454
3.99442
3.99427
3.99407
3.99381
3.99349
3.99306
3.99252
3.99181
3.9909
3.98972
3.9882
3.98622
3.98367
3.98036
3.97608
3.97053
3.96336
3.95409
3.94214
3.92677
3.90706
3.88192
3.85004
3.80995
3.76005
3.6987
3.62442
3.53607
3.43315
3.31599
3.18598
3.04549
2.89763
2.74604
2.59476
2.44791
2.30987
2.18448
2.07615
1.98502
1.91411
3.99395
3.99367
3.99332
3.99286
3.99227
3.99152
3.99056
3.98931
3.98772
3.98567
3.98303
3.97963
3.97525
3.96962
3.96237
3.95306
3.94112
3.92584
3.90636
3.88163
3.85041
3.81131
3.76279
3.70332
3.63145
3.54605
3.44653
3.33307
3.20677
3.06973
2.92484
2.77534
2.62499
2.47759
2.3371
2.20745
2.09242
1.99494
1.91647
1.85606
1.81215
1.78043
1.75877
3.99259
3.99195
3.99114
3.9901
3.98877
3.98708
3.98491
3.98214
3.97859
3.97406
3.96826
3.96084
3.95136
3.93929
3.92392
3.90444
3.87984
3.84895
3.81044
3.76288
3.70478
3.63478
3.55177
3.45513
3.34493
3.22209
3.08843
2.94654
2.7996
2.65083
2.50383
2.36216
2.22953
2.10953
2.0054
1.91925
1.8514
1.80042
1.76367
1.73829
1.72131
1.71073
1.70438
1.70102
3.9895
3.98806
3.98623
3.9839
3.98095
3.97719
3.97242
3.96635
3.95865
3.94887
3.93649
3.92083
3.9011
3.87633
3.84541
3.80709
3.75999
3.70272
3.63401
3.5528
3.45846
3.35102
3.23125
3.10076
2.96191
2.81763
2.67098
2.52517
2.38347
2.2492
2.12579
2.01644
1.92374
1.84883
1.7911
1.74852
1.71838
1.69787
1.68455
1.67638
1.67194
1.67022
1.67043
1.67215
1.67492
3.98257
3.97937
3.97533
3.97022
3.96378
3.95566
3.94542
3.93253
3.91634
3.89608
3.87083
3.8395
3.80091
3.75376
3.69677
3.62871
3.54865
3.456
3.35072
3.23355
3.10593
2.97003
2.82849
2.68431
2.54028
2.39944
2.26477
2.13939
2.02637
1.92847
1.84742
1.78342
1.7351
1.70011
1.67575
1.65951
1.6492
1.64317
1.64028
1.63966
1.6407
1.64299
1.64642
1.65043
1.65528
1.65933
3.97286
3.96732
3.96037
3.95166
3.94076
3.92715
3.91017
3.88907
3.86296
3.8308
3.79146
3.74373
3.68641
3.61838
3.5388
3.44715
3.34346
3.22836
3.10324
2.97007
2.83131
2.68971
2.54797
2.40874
2.27471
2.14864
2.03345
1.93182
1.84586
1.7764
1.72275
1.68303
1.65478
1.63547
1.62288
1.61517
1.61098
1.60942
1.60973
1.61145
1.61435
1.61806
1.62253
1.62684
1.63137
1.63592
1.6407
1.64546
3.93461
3.92
3.90192
3.87963
3.85224
3.81879
3.77819
3.7293
3.67102
3.60237
3.52258
3.43129
3.32855
3.215
3.09195
2.96128
2.82525
2.68638
2.54728
2.41023
2.27768
2.1521
2.03607
1.93219
1.84268
1.76882
1.71055
1.6665
1.63451
1.61217
1.59723
1.58777
1.58227
1.57969
1.57926
1.58041
1.58272
1.58611
1.5901
1.59469
1.59894
1.60337
1.60821
1.61294
1.61779
1.62264
1.62754
1.63248
3.89106
3.86716
3.83805
3.80279
3.76035
3.7097
3.64983
3.57987
3.49923
3.40764
3.30525
3.19273
3.07137
2.94294
2.80957
2.67356
2.53732
2.40295
2.27261
2.14847
2.03281
1.92806
1.8364
1.75941
1.69747
1.64971
1.61435
1.58917
1.57195
1.56075
1.55395
1.55034
1.54917
1.54972
1.55158
1.55451
1.5582
1.56257
1.56686
1.57125
1.57587
1.58065
1.58547
1.59028
1.59517
1.60012
1.60524
1.61031
1.61533
1.62019
3.73704
3.68398
3.62185
3.54994
3.4678
3.37531
3.27273
3.16079
3.04078
2.91439
2.78362
2.65057
2.51742
2.38618
2.25865
2.13677
2.02254
1.91816
1.82572
1.74688
1.68238
1.63177
1.59363
1.56597
1.54669
1.53386
1.5258
1.52125
1.51931
1.51931
1.52074
1.52319
1.52664
1.53063
1.53513
1.53936
1.54379
1.54864
1.55338
1.55818
1.56303
1.56792
1.57301
1.57812
1.5832
1.58823
1.59327
1.59827
1.60323
1.60801
3.4272
3.33329
3.23008
3.11839
2.99947
2.875
2.74683
2.61688
2.4871
2.35937
2.23518
2.11627
2.0044
1.90148
1.8095
1.73012
1.66425
1.61178
1.5716
1.54199
1.52101
1.50676
1.4976
1.49219
1.48955
1.48903
1.49003
1.49218
1.49529
1.49906
1.50341
1.50768
1.51207
1.5167
1.52156
1.52634
1.53113
1.536
1.54097
1.54611
1.55124
1.55631
1.56138
1.56645
1.5715
1.57649
1.58146
1.58636
1.59123
1.59592
2.94678
2.82422
2.69875
2.57212
2.44602
2.32216
2.20182
2.0865
1.97777
1.8773
1.78691
1.70821
1.64217
1.5889
1.54755
1.51666
1.49444
1.47911
1.46905
1.46294
1.45974
1.45875
1.4594
1.46129
1.46406
1.46767
1.47175
1.47618
1.48048
1.48498
1.48987
1.49464
1.49945
1.50429
1.5092
1.51429
1.51944
1.52455
1.52963
1.53475
1.53986
1.54493
1.54997
1.55498
1.55996
1.56488
1.56977
1.57458
1.57934
1.58387
2.39401
2.27444
2.15841
2.04728
1.94238
1.84521
1.75743
1.68051
1.61545
1.56246
1.52088
1.48945
1.46657
1.45057
1.43991
1.43328
1.42967
1.42832
1.4287
1.43035
1.43293
1.43636
1.44026
1.44469
1.449
1.45346
1.45817
1.46313
1.46792
1.47272
1.47761
1.4826
1.48779
1.49294
1.49805
1.50318
1.50834
1.51347
1.51857
1.52365
1.5287
1.53373
1.53872
1.54367
1.54857
1.55342
1.55819
1.56286
1.56745
1.57179
1.89823
1.80512
1.72083
1.64671
1.58369
1.532
1.49112
1.45994
1.43702
1.42082
1.4099
1.40302
1.39917
1.3976
1.39781
1.3993
1.40179
1.40503
1.40886
1.41313
1.41757
1.42199
1.42662
1.43159
1.43644
1.44128
1.44614
1.4511
1.45624
1.46143
1.46658
1.47172
1.47691
1.4821
1.48726
1.49239
1.49751
1.50261
1.50769
1.51273
1.51774
1.52271
1.52764
1.53251
1.53729
1.54201
1.54663
1.55112
1.55552
1.55966
1.54676
1.49733
1.45803
1.42786
1.40554
1.38965
1.37885
1.37199
1.36812
1.3665
1.36663
1.36806
1.3705
1.37361
1.37742
1.38158
1.38607
1.39054
1.39514
1.4
1.40507
1.40988
1.41474
1.41969
1.42477
1.43
1.4352
1.44036
1.44557
1.4508
1.45601
1.4612
1.46637
1.47154
1.47668
1.48181
1.4869
1.49197
1.49701
1.50201
1.50696
1.51184
1.51666
1.5214
1.52604
1.53058
1.53503
1.53936
1.54359
1.54752
1.37203
1.35693
1.34664
1.34009
1.33641
1.3349
1.33508
1.33655
1.339
1.34211
1.34587
1.35
1.35451
1.35905
1.36363
1.36847
1.37355
1.37852
1.38338
1.38832
1.39338
1.3986
1.40385
1.40905
1.41427
1.41954
1.4248
1.43004
1.43527
1.44049
1.4457
1.45089
1.45606
1.46121
1.46634
1.47144
1.4765
1.48153
1.48651
1.49142
1.49627
1.50103
1.50571
1.51029
1.51479
1.51918
1.52347
1.5276
1.53165
1.53535
1.30398
1.30275
1.30311
1.30472
1.30725
1.31043
1.31419
1.31835
1.32282
1.32743
1.33206
1.33691
1.34197
1.34716
1.35201
1.35696
1.36201
1.36723
1.37252
1.37777
1.38301
1.3883
1.39361
1.39891
1.40418
1.40945
1.41472
1.41998
1.42521
1.43043
1.43564
1.44083
1.44598
1.45111
1.45621
1.46127
1.46627
1.47122
1.47609
1.48089
1.4856
1.49023
1.49478
1.49923
1.50357
1.50779
1.5119
1.51583
1.51975
1.5234
1.27522
1.27853
1.28233
1.28654
1.29102
1.29569
1.3004
1.30528
1.31036
1.3156
1.32058
1.32556
1.33064
1.33584
1.34116
1.34647
1.35175
1.35706
1.36242
1.36777
1.37309
1.37841
1.38374
1.38905
1.39435
1.39963
1.40491
1.41017
1.41541
1.42063
1.42582
1.43099
1.43612
1.4412
1.44624
1.45122
1.45612
1.46095
1.46571
1.47039
1.475
1.47949
1.4839
1.48819
1.49236
1.4964
1.50044
1.50433
1.5082
1.51176
1.25911
1.26384
1.26863
1.27356
1.27868
1.28394
1.28907
1.29411
1.29922
1.30442
1.30979
1.31514
1.32047
1.32581
1.33121
1.33661
1.34199
1.34735
1.35273
1.3581
1.36345
1.3688
1.37414
1.37946
1.38478
1.39007
1.39535
1.4006
1.40584
1.41105
1.41621
1.42132
1.4264
1.4314
1.43634
1.44122
1.44602
1.45076
1.45541
1.45996
1.46444
1.46879
1.47304
1.47719
1.48134
1.48533
1.48931
1.49311
1.49686
1.50021
1.24692
1.25222
1.25746
1.26256
1.26773
1.27297
1.27837
1.28377
1.28915
1.29453
1.29997
1.30542
1.31085
1.31626
1.32168
1.32711
1.33252
1.33792
1.34332
1.34871
1.35409
1.35945
1.3648
1.37014
1.37545
1.38075
1.38603
1.39126
1.39646
1.40162
1.40672
1.41176
1.41674
1.42166
1.42652
1.43131
1.43601
1.44063
1.44517
1.44958
1.45391
1.45819
1.46243
1.46652
1.47062
1.47452
1.47835
1.48191
1.48558
1.48874
1.23616
1.24146
1.24691
1.25235
1.25777
1.2632
1.26869
1.27418
1.27966
1.28512
1.2906
1.29607
1.30154
1.307
1.31245
1.3179
1.32334
1.32877
1.33418
1.33959
1.34498
1.35036
1.35572
1.36106
1.36636
1.37163
1.37687
1.38206
1.3872
1.39227
1.3973
1.40227
1.40719
1.41202
1.41678
1.42147
1.42605
1.43054
1.43499
1.43936
1.44369
1.4479
1.45209
1.45609
1.46002
1.4637
1.46744
1.47081
1.47438
1.4774
1.22635
1.23183
1.23736
1.2429
1.24843
1.25394
1.25947
1.26499
1.27051
1.27602
1.28153
1.28703
1.29253
1.29802
1.30349
1.30897
1.31443
1.31988
1.32531
1.33073
1.33613
1.3415
1.34684
1.35215
1.35743
1.36265
1.36782
1.37294
1.37802
1.38304
1.388
1.39288
1.39771
1.40244
1.4071
1.41167
1.41624
1.42069
1.42512
1.42944
1.43372
1.43779
1.44183
1.44564
1.44945
1.45295
1.45662
1.45985
1.46329
1.46618
1.21716
1.22272
1.22829
1.23387
1.23944
1.245
1.25055
1.25611
1.26166
1.2672
1.27274
1.27827
1.28379
1.28931
1.29481
1.30029
1.30577
1.31123
1.31667
1.32208
1.32746
1.3328
1.3381
1.34336
1.34858
1.35375
1.35887
1.36394
1.36895
1.37389
1.37878
1.38356
1.38829
1.39297
1.39762
1.40216
1.40671
1.41111
1.41547
1.41964
1.42377
1.42769
1.43159
1.43523
1.439
1.44237
1.4459
1.44902
1.45233
1.45511
1.20271
1.20833
1.21393
1.21953
1.22514
1.23074
1.23633
1.24192
1.24751
1.25308
1.25866
1.26422
1.26977
1.27532
1.28085
1.28637
1.29186
1.29733
1.30278
1.3082
1.31357
1.3189
1.3242
1.32946
1.33468
1.33986
1.34497
1.35003
1.35503
1.35996
1.36481
1.36964
1.37441
1.37914
1.38378
1.38842
1.3929
1.39734
1.4016
1.40582
1.40985
1.41386
1.41761
1.42148
1.42499
1.42863
1.43189
1.43531
1.43832
1.44151
1.44419
1.19414
1.19979
1.20543
1.21107
1.2167
1.22232
1.22795
1.23357
1.23918
1.24478
1.25037
1.25596
1.26153
1.26708
1.27261
1.27812
1.2836
1.28904
1.29445
1.29982
1.30517
1.31048
1.31574
1.32095
1.32612
1.33124
1.33627
1.34127
1.3462
1.35112
1.35596
1.36078
1.36552
1.37023
1.37478
1.3793
1.38365
1.38797
1.39211
1.39622
1.4001
1.40406
1.40769
1.41145
1.41486
1.41838
1.42154
1.42484
1.42775
1.43081
1.43337
1.18018
1.18586
1.19153
1.1972
1.20287
1.20853
1.21418
1.21983
1.22547
1.2311
1.23672
1.24232
1.24791
1.25347
1.25901
1.26451
1.26999
1.27544
1.28086
1.28625
1.2916
1.29689
1.30216
1.30738
1.31253
1.31763
1.32269
1.32771
1.33271
1.33762
1.34254
1.34735
1.35212
1.35676
1.36135
1.36579
1.37021
1.37444
1.37865
1.38268
1.3867
1.39048
1.39435
1.39789
1.40153
1.40484
1.40825
1.4113
1.41448
1.41727
1.4202
1.42263
1.17215
1.17785
1.18355
1.18924
1.19494
1.20062
1.20629
1.21195
1.2176
1.22324
1.22885
1.23444
1.24
1.24553
1.25105
1.25654
1.262
1.26743
1.27281
1.27817
1.28347
1.28872
1.29394
1.29909
1.30423
1.30933
1.31438
1.3194
1.32438
1.32926
1.3341
1.3388
1.34347
1.34801
1.3525
1.35684
1.36116
1.3653
1.36941
1.37335
1.3773
1.38098
1.38474
1.38819
1.39171
1.39492
1.3982
1.40115
1.40418
1.40685
1.40962
1.4119
1.16437
1.1701
1.17582
1.18153
1.18723
1.19292
1.1986
1.20426
1.20989
1.21551
1.2211
1.22667
1.23223
1.23775
1.24325
1.24871
1.25414
1.25953
1.26487
1.27018
1.27544
1.28066
1.28588
1.29103
1.29617
1.30126
1.3063
1.31124
1.31613
1.32092
1.32566
1.33028
1.33485
1.33931
1.34371
1.34796
1.35219
1.35623
1.36028
1.36413
1.36797
1.37157
1.3752
1.37857
1.38196
1.38507
1.38821
1.39103
1.3939
1.39643
1.399
1.4011
1.15684
1.16257
1.1683
1.17401
1.1797
1.18538
1.19104
1.19669
1.20232
1.20792
1.21351
1.21906
1.22459
1.23009
1.23556
1.24098
1.24637
1.25172
1.25703
1.26234
1.2676
1.27283
1.27804
1.28319
1.28827
1.29328
1.29823
1.30309
1.3079
1.3126
1.31726
1.32181
1.32629
1.33068
1.33499
1.33915
1.34331
1.34728
1.35122
1.35499
1.35871
1.36223
1.36574
1.369
1.37225
1.37525
1.37822
1.38091
1.38358
1.38593
1.38827
1.39016
1.14948
1.15521
1.16092
1.16663
1.17232
1.17799
1.18364
1.18928
1.19489
1.20048
1.20604
1.21157
1.21707
1.22253
1.22796
1.23335
1.23874
1.24409
1.24942
1.25472
1.25998
1.26517
1.2703
1.27537
1.28038
1.28531
1.29018
1.29498
1.29971
1.30434
1.30893
1.31341
1.3178
1.32212
1.32634
1.33043
1.3345
1.33839
1.34222
1.34591
1.34951
1.35293
1.3563
1.35946
1.36254
1.3654
1.36818
1.3707
1.37314
1.37528
1.37733
1.37897
1.14227
1.148
1.15371
1.1594
1.16508
1.17074
1.17638
1.182
1.18758
1.19315
1.19867
1.20417
1.20964
1.2151
1.22053
1.22593
1.23132
1.23667
1.24197
1.2472
1.25239
1.25751
1.26258
1.26758
1.27251
1.27739
1.28218
1.28692
1.29158
1.29615
1.30065
1.30506
1.30938
1.31362
1.31777
1.32178
1.32574
1.32956
1.33327
1.33685
1.34033
1.34364
1.34685
1.34987
1.35278
1.35547
1.35803
1.36034
1.36251
1.3644
1.36613
1.36746
1.13522
1.14094
1.14664
1.15232
1.15798
1.16362
1.16923
1.17481
1.18037
1.1859
1.19142
1.19693
1.2024
1.20786
1.2133
1.21868
1.22401
1.2293
1.23453
1.2397
1.24482
1.24988
1.25489
1.25982
1.2647
1.26951
1.27425
1.27891
1.28351
1.28801
1.29244
1.29677
1.30102
1.30518
1.30923
1.31317
1.31702
1.32074
1.32433
1.3278
1.33114
1.33431
1.33735
1.3402
1.3429
1.34538
1.34769
1.34976
1.35162
1.35321
1.35457
1.35556
1.13401
1.13969
1.14535
1.15098
1.15658
1.16217
1.16775
1.17331
1.17884
1.18437
1.18987
1.19534
1.20075
1.20612
1.21144
1.21671
1.22194
1.22711
1.23223
1.23729
1.2423
1.24724
1.25212
1.25694
1.26169
1.26636
1.27096
1.27548
1.27992
1.28427
1.28853
1.2927
1.29677
1.30073
1.30457
1.3083
1.3119
1.31537
1.31869
1.32187
1.32488
1.32772
1.33037
1.33283
1.33507
1.3371
1.33887
1.3404
1.34165
1.34261
1.3432
1.12718
1.13283
1.13846
1.14409
1.14969
1.15528
1.16086
1.16642
1.17195
1.17744
1.18288
1.18828
1.19364
1.19896
1.20422
1.20944
1.21461
1.21973
1.2248
1.22981
1.23476
1.23965
1.24447
1.24922
1.25391
1.25852
1.26305
1.2675
1.27186
1.27614
1.28031
1.28439
1.28836
1.29221
1.29594
1.29955
1.30301
1.30633
1.30949
1.31248
1.31529
1.31792
1.32033
1.32252
1.32448
1.32619
1.32763
1.32879
1.32965
1.3302
1.33031
1.12047
1.12611
1.13174
1.13737
1.14298
1.14856
1.1541
1.15961
1.16508
1.17051
1.1759
1.18125
1.18656
1.19183
1.19704
1.20221
1.20733
1.2124
1.21741
1.22236
1.22726
1.23209
1.23685
1.24154
1.24616
1.2507
1.25516
1.25954
1.26382
1.26801
1.27209
1.27606
1.27993
1.28366
1.28725
1.29071
1.29402
1.29717
1.30013
1.30292
1.3055
1.30787
1.31001
1.31191
1.31355
1.31492
1.31598
1.31674
1.31716
1.31726
1.3169
1.11957
1.12519
1.13078
1.13634
1.14187
1.14736
1.15282
1.15823
1.16362
1.16896
1.17426
1.17952
1.18474
1.1899
1.19502
1.20009
1.2051
1.21006
1.21496
1.21979
1.22456
1.22926
1.23389
1.23844
1.2429
1.24729
1.25158
1.25577
1.25986
1.26383
1.26769
1.27142
1.27502
1.27846
1.28175
1.28488
1.28783
1.29058
1.29312
1.29544
1.29754
1.29937
1.30094
1.30222
1.30321
1.30388
1.30421
1.30418
1.30379
1.30294
1.1131
1.11867
1.12421
1.12972
1.1352
1.14064
1.14605
1.15142
1.15676
1.16205
1.16731
1.17252
1.17768
1.1828
1.18786
1.19288
1.19783
1.20273
1.20757
1.21234
1.21705
1.22168
1.22623
1.23071
1.23509
1.23939
1.24358
1.24767
1.25165
1.2555
1.25923
1.26281
1.26625
1.26952
1.27262
1.27554
1.27826
1.28076
1.28304
1.28508
1.28686
1.28836
1.28957
1.29048
1.29106
1.2913
1.29118
1.29068
1.2898
1.28844
1.10665
1.11217
1.11766
1.12313
1.12856
1.13396
1.13932
1.14465
1.14993
1.15518
1.16038
1.16554
1.17065
1.17572
1.18073
1.18569
1.19059
1.19542
1.2002
1.2049
1.20954
1.21409
1.21857
1.22295
1.22725
1.23144
1.23553
1.2395
1.24335
1.24706
1.25063
1.25405
1.25731
1.26038
1.26327
1.26595
1.26842
1.27065
1.27264
1.27436
1.2758
1.27695
1.27778
1.27828
1.27844
1.27823
1.27765
1.27667
1.27528
1.27341
1.10023
1.10571
1.11116
1.11658
1.12196
1.12731
1.13263
1.1379
1.14314
1.14833
1.15349
1.15859
1.16365
1.16866
1.17361
1.1785
1.18334
1.18811
1.19281
1.19745
1.202
1.20647
1.21086
1.21515
1.21933
1.22341
1.22738
1.23122
1.23492
1.23847
1.24187
1.2451
1.24815
1.25101
1.25365
1.25608
1.25827
1.26021
1.26187
1.26326
1.26434
1.26511
1.26554
1.26562
1.26534
1.26468
1.26363
1.26216
1.26026
1.25785
1.09385
1.09929
1.10469
1.11006
1.11539
1.1207
1.12596
1.13118
1.13637
1.14151
1.14661
1.15165
1.15665
1.1616
1.16649
1.17132
1.17608
1.18078
1.1854
1.18995
1.19442
1.19879
1.20308
1.20726
1.21132
1.21527
1.2191
1.22278
1.22632
1.22969
1.2329
1.23592
1.23874
1.24135
1.24374
1.24589
1.24778
1.2494
1.25073
1.25175
1.25246
1.25283
1.25286
1.25251
1.25178
1.25066
1.24914
1.24718
1.24476
1.24185
1.08751
1.09289
1.09825
1.10357
1.10885
1.1141
1.11931
1.12448
1.12961
1.13469
1.13973
1.14472
1.14965
1.15453
1.15935
1.1641
1.16879
1.17341
1.17794
1.1824
1.18676
1.19103
1.1952
1.19925
1.20318
1.20699
1.21065
1.21416
1.21751
1.22069
1.22368
1.22647
1.22905
1.2314
1.2335
1.23535
1.23692
1.2382
1.23918
1.23984
1.24016
1.24013
1.23973
1.23895
1.23778
1.23621
1.2342
1.23175
1.22886
1.22548
1.0812
1.08653
1.09183
1.0971
1.10233
1.10752
1.11267
1.11779
1.12285
1.12787
1.13285
1.13776
1.14263
1.14743
1.15217
1.15685
1.16145
1.16597
1.17041
1.17476
1.17901
1.18315
1.18719
1.1911
1.19488
1.19852
1.20201
1.20533
1.20848
1.21144
1.21419
1.21673
1.21905
1.22111
1.22292
1.22445
1.22569
1.22662
1.22724
1.22751
1.22744
1.227
1.22619
1.22498
1.22337
1.22133
1.21885
1.21595
1.21262
1.20879
1.08018
1.08543
1.09064
1.09581
1.10095
1.10604
1.11108
1.11609
1.12104
1.12594
1.13078
1.13557
1.14029
1.14495
1.14953
1.15403
1.15844
1.16277
1.167
1.17112
1.17513
1.17902
1.18277
1.18639
1.18984
1.19314
1.19625
1.19918
1.2019
1.20441
1.20668
1.20871
1.21048
1.21197
1.21318
1.21407
1.21465
1.2149
1.21479
1.21432
1.21348
1.21225
1.21062
1.20856
1.20608
1.20318
1.19986
1.19609
1.19184
1.07385
1.07904
1.08418
1.08929
1.09436
1.09939
1.10436
1.10929
1.11417
1.11899
1.12375
1.12845
1.13308
1.13764
1.14211
1.14651
1.15081
1.15501
1.1591
1.16308
1.16694
1.17067
1.17425
1.17767
1.18093
1.18402
1.18691
1.1896
1.19207
1.19431
1.1963
1.19804
1.1995
1.20067
1.20154
1.20209
1.2023
1.20218
1.20169
1.20083
1.19959
1.19795
1.1959
1.19343
1.19055
1.18724
1.18351
1.17934
1.17468
1.06751
1.07264
1.07772
1.08276
1.08776
1.09271
1.09761
1.10246
1.10725
1.11199
1.11666
1.12126
1.12578
1.13023
1.13459
1.13886
1.14303
1.14709
1.15104
1.15487
1.15856
1.1621
1.16549
1.16872
1.17177
1.17462
1.17728
1.17972
1.18192
1.18389
1.18559
1.18702
1.18817
1.18901
1.18954
1.18974
1.1896
1.1891
1.18824
1.187
1.18537
1.18333
1.18088
1.17803
1.17477
1.17108
1.16697
1.16242
1.1574
1.06622
1.07123
1.0762
1.08112
1.08599
1.09081
1.09557
1.10027
1.10491
1.10947
1.11396
1.11838
1.1227
1.12694
1.13107
1.1351
1.13901
1.14279
1.14645
1.14996
1.15331
1.1565
1.15951
1.16233
1.16495
1.16735
1.16953
1.17146
1.17314
1.17455
1.17567
1.17649
1.17701
1.1772
1.17705
1.17656
1.1757
1.17448
1.17286
1.17085
1.16844
1.16564
1.16242
1.1588
1.15475
1.15028
1.14539
1.14003
1.05978
1.06471
1.06959
1.07443
1.07921
1.08394
1.0886
1.0932
1.09773
1.10218
1.10655
1.11084
1.11503
1.11913
1.12311
1.12698
1.13073
1.13434
1.13781
1.14112
1.14427
1.14724
1.15003
1.15261
1.15498
1.15713
1.15903
1.16069
1.16207
1.16318
1.16399
1.1645
1.16469
1.16454
1.16406
1.16322
1.16202
1.16043
1.15846
1.1561
1.15335
1.1502
1.14665
1.14268
1.13831
1.13352
1.12831
1.12265
1.05814
1.06293
1.06767
1.07236
1.07698
1.08154
1.08602
1.09043
1.09476
1.09901
1.10315
1.1072
1.11115
1.11497
1.11867
1.12224
1.12567
1.12894
1.13205
1.13498
1.13773
1.14027
1.14261
1.14473
1.14661
1.14824
1.14961
1.1507
1.1515
1.15201
1.1522
1.15207
1.1516
1.15079
1.14962
1.14807
1.14615
1.14385
1.14117
1.1381
1.13463
1.13076
1.12648
1.12181
1.11672
1.11124
1.1053
1.0515
1.0562
1.06084
1.06541
1.06993
1.07436
1.07873
1.08301
1.0872
1.09131
1.09531
1.0992
1.10298
1.10663
1.11015
1.11353
1.11676
1.11982
1.12272
1.12543
1.12794
1.13024
1.13233
1.13419
1.1358
1.13715
1.13823
1.13904
1.13954
1.13975
1.13963
1.13919
1.13841
1.13728
1.13578
1.13392
1.13169
1.12909
1.1261
1.12272
1.11896
1.1148
1.11024
1.10529
1.09995
1.09421
1.08804
1.04937
1.0539
1.05836
1.06275
1.06707
1.0713
1.07544
1.07949
1.08344
1.08728
1.09101
1.09461
1.09808
1.10141
1.10459
1.10761
1.11047
1.11314
1.11561
1.11789
1.11995
1.12178
1.12337
1.12471
1.12579
1.12659
1.12711
1.12732
1.12723
1.12682
1.12608
1.12499
1.12356
1.12177
1.11961
1.11709
1.1142
1.11093
1.10728
1.10324
1.09882
1.09401
1.08882
1.08324
1.07728
1.07089
1.04245
1.04686
1.05119
1.05545
1.05963
1.06372
1.06771
1.07161
1.07539
1.07907
1.08262
1.08604
1.08932
1.09245
1.09543
1.09823
1.10086
1.1033
1.10555
1.10758
1.10939
1.11096
1.11229
1.11337
1.11417
1.1147
1.11494
1.11487
1.11449
1.1138
1.11277
1.1114
1.10968
1.10761
1.10518
1.1024
1.09924
1.09571
1.0918
1.08752
1.08287
1.07783
1.07242
1.06663
1.06048
1.05392
1.0354
1.03968
1.04389
1.04801
1.05204
1.05598
1.05981
1.06354
1.06716
1.07066
1.07402
1.07725
1.08033
1.08326
1.08603
1.08862
1.09102
1.09323
1.09524
1.09702
1.09858
1.09991
1.10098
1.10179
1.10233
1.10259
1.10255
1.10222
1.10157
1.1006
1.0993
1.09766
1.09568
1.09336
1.09068
1.08764
1.08424
1.08047
1.07634
1.07184
1.06697
1.06173
1.05614
1.05018
1.04386
1.03716
1.02823
1.03238
1.03644
1.04041
1.04429
1.04807
1.05174
1.0553
1.05874
1.06205
1.06522
1.06826
1.07114
1.07385
1.0764
1.07877
1.08095
1.08293
1.08469
1.08624
1.08755
1.08863
1.08944
1.09
1.09028
1.09028
1.08999
1.08939
1.08849
1.08726
1.08571
1.08382
1.0816
1.07904
1.07612
1.07286
1.06924
1.06526
1.06092
1.05623
1.05118
1.04577
1.04002
1.03391
1.02746
1.02062
1.02093
1.02493
1.02884
1.03266
1.03637
1.03999
1.04349
1.04687
1.05012
1.05324
1.05622
1.05905
1.06173
1.06423
1.06656
1.06871
1.07066
1.07241
1.07394
1.07524
1.07632
1.07715
1.07772
1.07803
1.07806
1.07781
1.07727
1.07643
1.07528
1.07382
1.07203
1.06992
1.06747
1.06468
1.06156
1.05809
1.05427
1.05011
1.04559
1.04073
1.03553
1.02998
1.02408
1.01784
1.01127
1.00433
1.01348
1.01733
1.02108
1.02474
1.02829
1.03173
1.03505
1.03825
1.04131
1.04424
1.04702
1.04965
1.05211
1.05441
1.05652
1.05844
1.06017
1.06169
1.06299
1.06406
1.0649
1.06549
1.06583
1.0659
1.0657
1.06521
1.06444
1.06337
1.06199
1.0603
1.0583
1.05597
1.05332
1.05034
1.04702
1.04337
1.03938
1.03505
1.03038
1.02538
1.02003
1.01435
1.00834
1.002
0.995326
0.988301
1.00588
1.00957
1.01317
1.01665
1.02003
1.02329
1.02643
1.02944
1.03232
1.03505
1.03763
1.04005
1.04231
1.04439
1.04629
1.04799
1.04949
1.05079
1.05186
1.05271
1.05332
1.05368
1.05379
1.05364
1.05321
1.05251
1.05151
1.05023
1.04864
1.04675
1.04455
1.04203
1.03919
1.03603
1.03255
1.02873
1.02459
1.02012
1.01531
1.01018
1.00471
0.998926
0.992815
0.986382
0.979635
0.972544
1.00166
1.00509
1.0084
1.01161
1.01469
1.01764
1.02046
1.02314
1.02568
1.02806
1.03028
1.03232
1.03419
1.03588
1.03737
1.03866
1.03973
1.04059
1.04122
1.04161
1.04175
1.04165
1.04128
1.04064
1.03973
1.03853
1.03704
1.03527
1.03319
1.0308
1.02811
1.02511
1.02179
1.01815
1.01419
1.00992
1.00532
1.00039
0.995151
0.989589
0.983711
0.97752
0.971017
0.964211
0.957071
0.993594
0.99685
0.999993
1.00302
1.00592
1.00868
1.01131
1.0138
1.01614
1.01832
1.02033
1.02218
1.02384
1.02532
1.0266
1.02767
1.02854
1.02918
1.0296
1.02978
1.02972
1.02941
1.02884
1.02801
1.0269
1.02552
1.02385
1.02189
1.01964
1.0171
1.01425
1.01109
1.00763
1.00386
0.999776
0.995379
0.99067
0.985648
0.980314
0.974671
0.968721
0.962467
0.955911
0.949062
0.941888
0.985374
0.988458
0.991424
0.994268
0.996983
0.999565
1.00201
1.0043
1.00644
1.00843
1.01024
1.01188
1.01335
1.01462
1.0157
1.01657
1.01723
1.01767
1.01789
1.01788
1.01762
1.01712
1.01636
1.01534
1.01405
1.0125
1.01066
1.00854
1.00614
1.00344
1.00045
0.997165
0.993577
0.989687
0.985494
0.980996
0.976194
0.971089
0.965681
0.959973
0.953966
0.947665
0.941069
0.934191
0.926997
0.979916
0.982706
0.985369
0.987902
0.990298
0.992551
0.994656
0.996606
0.998395
1.00002
1.00146
1.00273
1.0038
1.00468
1.00536
1.00583
1.00608
1.00611
1.00591
1.00547
1.00478
1.00385
1.00266
1.00121
0.999491