/*--------------------------------*- C++ -*----------------------------------*\
| =========                 |                                                 |
| \\      /  F ield         | OpenFOAM: The Open Source CFD Toolbox           |
|  \\    /   O peration     | Version:  v1706                                 |
|   \\  /    A nd           | Web:      www.OpenFOAM.com                      |
|    \\/     M anipulation  |                                                 |
\*---------------------------------------------------------------------------*/
FoamFile
{
    version     2.0;
    format      ascii;
    class       volScalarField;
    location    "1.9e-05";
    object      mu;
}
// * * * * * * * * * * * * * * * * * * * * * * * * * * * * * * * * * * * * * //

dimensions      [1 -1 -1 0 0 0 0];


internalField   nonuniform List<scalar> 
30038
(
1.0351e-05
1.0351e-05
1.0351e-05
1.0351e-05
1.0351e-05
1.0351e-05
1.0351e-05
1.0351e-05
1.0351e-05
1.0351e-05
1.0351e-05
1.0351e-05
1.0351e-05
1.0351e-05
1.0351e-05
1.0351e-05
1.0351e-05
1.0351e-05
1.0351e-05
1.0351e-05
1.0351e-05
1.0351e-05
1.0351e-05
1.0351e-05
1.0351e-05
1.0351e-05
1.0351e-05
1.0351e-05
1.0351e-05
1.0351e-05
1.0351e-05
1.0351e-05
1.0351e-05
1.0351e-05
1.0351e-05
1.0351e-05
1.0351e-05
1.0351e-05
1.0351e-05
1.0351e-05
1.0351e-05
1.0351e-05
1.0351e-05
1.0351e-05
1.0351e-05
1.0351e-05
1.0351e-05
1.0351e-05
1.0351e-05
1.0351e-05
1.0351e-05
1.0351e-05
1.0351e-05
1.0351e-05
1.0351e-05
1.0351e-05
1.0351e-05
1.0351e-05
1.0351e-05
1.0351e-05
1.0351e-05
1.0351e-05
1.0351e-05
1.0351e-05
1.0351e-05
1.0351e-05
1.0351e-05
1.0351e-05
1.0351e-05
1.0351e-05
1.0351e-05
1.0351e-05
1.0351e-05
1.0351e-05
1.0351e-05
1.0351e-05
1.0351e-05
1.0351e-05
1.0351e-05
1.0351e-05
1.0351e-05
1.0351e-05
1.0351e-05
1.0351e-05
1.0351e-05
1.0351e-05
1.0351e-05
1.0351e-05
1.0351e-05
1.0351e-05
1.0351e-05
1.0351e-05
1.0351e-05
1.0351e-05
1.0351e-05
1.0351e-05
1.0351e-05
1.0351e-05
1.0351e-05
1.0351e-05
1.0351e-05
1.0351e-05
1.0351e-05
1.0351e-05
1.0351e-05
1.0351e-05
1.0351e-05
1.0351e-05
1.0351e-05
1.0351e-05
1.0351e-05
1.0351e-05
1.0351e-05
1.0351e-05
1.0351e-05
1.0351e-05
1.0351e-05
1.0351e-05
1.0351e-05
1.0351e-05
1.0351e-05
1.0351e-05
1.0351e-05
1.0351e-05
1.0351e-05
1.0351e-05
1.0351e-05
1.0351e-05
1.0351e-05
1.0351e-05
1.0351e-05
1.0351e-05
1.0351e-05
1.0351e-05
1.0351e-05
1.0351e-05
1.0351e-05
1.0351e-05
1.0351e-05
1.0351e-05
1.0351e-05
1.0351e-05
1.0351e-05
1.0351e-05
1.0351e-05
1.0351e-05
1.0351e-05
1.0351e-05
1.0351e-05
1.0351e-05
1.0351e-05
1.0351e-05
1.0351e-05
1.0351e-05
1.0351e-05
1.0351e-05
1.0351e-05
1.0351e-05
1.0351e-05
1.0351e-05
1.0351e-05
1.0351e-05
1.0351e-05
1.0351e-05
1.0351e-05
1.0351e-05
1.0351e-05
1.0351e-05
1.0351e-05
1.0351e-05
1.0351e-05
1.0351e-05
1.0351e-05
1.0351e-05
1.0351e-05
1.0351e-05
1.0351e-05
1.0351e-05
1.0351e-05
1.0351e-05
1.0351e-05
1.0351e-05
1.0351e-05
1.0351e-05
1.0351e-05
1.0351e-05
1.0351e-05
1.0351e-05
1.0351e-05
1.0351e-05
1.0351e-05
1.0351e-05
1.0351e-05
1.0351e-05
1.0351e-05
1.0351e-05
1.0351e-05
1.0351e-05
1.0351e-05
1.0351e-05
1.0351e-05
1.0351e-05
1.0351e-05
1.0351e-05
1.0351e-05
1.0351e-05
1.0351e-05
1.0351e-05
1.0351e-05
1.0351e-05
1.0351e-05
1.0351e-05
1.0351e-05
1.0351e-05
1.0351e-05
1.0351e-05
1.0351e-05
1.0351e-05
1.0351e-05
1.0351e-05
1.0351e-05
1.0351e-05
1.0351e-05
1.0351e-05
1.0351e-05
1.0351e-05
1.0351e-05
1.0351e-05
1.0351e-05
1.0351e-05
1.0351e-05
1.0351e-05
1.0351e-05
1.0351e-05
1.0351e-05
1.0351e-05
1.0351e-05
1.0351e-05
1.0351e-05
1.0351e-05
1.0351e-05
1.0351e-05
1.0351e-05
1.0351e-05
1.0351e-05
1.0351e-05
1.0351e-05
1.0351e-05
1.0351e-05
1.0351e-05
1.0351e-05
1.0351e-05
1.0351e-05
1.0351e-05
1.0351e-05
1.0351e-05
1.0351e-05
1.0351e-05
1.0351e-05
1.0351e-05
1.0351e-05
1.0351e-05
1.0351e-05
1.0351e-05
1.0351e-05
1.0351e-05
1.0351e-05
1.0351e-05
1.0351e-05
1.0351e-05
1.0351e-05
1.0351e-05
1.0351e-05
1.0351e-05
1.0351e-05
1.0351e-05
1.0351e-05
1.0351e-05
1.0351e-05
1.0351e-05
1.0351e-05
1.0351e-05
1.0351e-05
1.0351e-05
1.0351e-05
1.0351e-05
1.0351e-05
1.0351e-05
1.0351e-05
1.0351e-05
1.0351e-05
1.0351e-05
1.0351e-05
1.0351e-05
1.0351e-05
1.0351e-05
1.0351e-05
1.0351e-05
1.0351e-05
1.0351e-05
1.0351e-05
1.0351e-05
1.0351e-05
1.0351e-05
1.0351e-05
1.0351e-05
1.0351e-05
1.0351e-05
1.0351e-05
1.0351e-05
1.0351e-05
1.0351e-05
1.0351e-05
1.0351e-05
1.0351e-05
1.0351e-05
1.0351e-05
1.0351e-05
1.0351e-05
1.0351e-05
1.0351e-05
1.0351e-05
1.0351e-05
1.0351e-05
1.0351e-05
1.0351e-05
1.0351e-05
1.0351e-05
1.0351e-05
1.0351e-05
1.0351e-05
1.0351e-05
1.0351e-05
1.0351e-05
1.0351e-05
1.0351e-05
1.0351e-05
1.0351e-05
1.0351e-05
1.0351e-05
1.0351e-05
1.0351e-05
1.0351e-05
1.0351e-05
1.0351e-05
1.0351e-05
1.0351e-05
1.0351e-05
1.0351e-05
1.0351e-05
1.0351e-05
1.0351e-05
1.0351e-05
1.0351e-05
1.0351e-05
1.0351e-05
1.0351e-05
1.0351e-05
1.0351e-05
1.0351e-05
1.0351e-05
1.0351e-05
1.0351e-05
1.0351e-05
1.0351e-05
1.0351e-05
1.0351e-05
1.0351e-05
1.0351e-05
1.0351e-05
1.0351e-05
1.0351e-05
1.0351e-05
1.0351e-05
1.0351e-05
1.0351e-05
1.0351e-05
1.0351e-05
1.0351e-05
1.0351e-05
1.03511e-05
1.03511e-05
1.0351e-05
1.0351e-05
1.0351e-05
1.0351e-05
1.0351e-05
1.0351e-05
1.0351e-05
1.0351e-05
1.0351e-05
1.0351e-05
1.0351e-05
1.0351e-05
1.0351e-05
1.0351e-05
1.0351e-05
1.0351e-05
1.0351e-05
1.0351e-05
1.0351e-05
1.0351e-05
1.0351e-05
1.0351e-05
1.0351e-05
1.0351e-05
1.0351e-05
1.0351e-05
1.0351e-05
1.0351e-05
1.0351e-05
1.0351e-05
1.0351e-05
1.0351e-05
1.0351e-05
1.03511e-05
1.03511e-05
1.03511e-05
1.03512e-05
1.03512e-05
1.03513e-05
1.0351e-05
1.0351e-05
1.0351e-05
1.0351e-05
1.0351e-05
1.0351e-05
1.0351e-05
1.0351e-05
1.0351e-05
1.0351e-05
1.0351e-05
1.0351e-05
1.0351e-05
1.0351e-05
1.0351e-05
1.0351e-05
1.0351e-05
1.0351e-05
1.0351e-05
1.0351e-05
1.0351e-05
1.0351e-05
1.0351e-05
1.0351e-05
1.0351e-05
1.0351e-05
1.0351e-05
1.0351e-05
1.0351e-05
1.0351e-05
1.03511e-05
1.03511e-05
1.03511e-05
1.03512e-05
1.03512e-05
1.03513e-05
1.03514e-05
1.03515e-05
1.03517e-05
1.0352e-05
1.0351e-05
1.0351e-05
1.0351e-05
1.0351e-05
1.0351e-05
1.0351e-05
1.0351e-05
1.0351e-05
1.0351e-05
1.0351e-05
1.0351e-05
1.0351e-05
1.0351e-05
1.0351e-05
1.0351e-05
1.0351e-05
1.0351e-05
1.0351e-05
1.0351e-05
1.0351e-05
1.0351e-05
1.0351e-05
1.0351e-05
1.0351e-05
1.0351e-05
1.03511e-05
1.03511e-05
1.03511e-05
1.03511e-05
1.03512e-05
1.03512e-05
1.03513e-05
1.03514e-05
1.03515e-05
1.03517e-05
1.03519e-05
1.03523e-05
1.03527e-05
1.03533e-05
1.03542e-05
1.0351e-05
1.0351e-05
1.0351e-05
1.0351e-05
1.0351e-05
1.0351e-05
1.0351e-05
1.0351e-05
1.0351e-05
1.0351e-05
1.0351e-05
1.0351e-05
1.0351e-05
1.0351e-05
1.0351e-05
1.0351e-05
1.0351e-05
1.0351e-05
1.0351e-05
1.0351e-05
1.0351e-05
1.03511e-05
1.03511e-05
1.03511e-05
1.03511e-05
1.03512e-05
1.03512e-05
1.03513e-05
1.03514e-05
1.03515e-05
1.03517e-05
1.0352e-05
1.03523e-05
1.03527e-05
1.03533e-05
1.03541e-05
1.03552e-05
1.03566e-05
1.03586e-05
1.03614e-05
1.0351e-05
1.0351e-05
1.0351e-05
1.0351e-05
1.0351e-05
1.0351e-05
1.0351e-05
1.0351e-05
1.0351e-05
1.0351e-05
1.0351e-05
1.0351e-05
1.0351e-05
1.0351e-05
1.0351e-05
1.0351e-05
1.0351e-05
1.03511e-05
1.03511e-05
1.03511e-05
1.03511e-05
1.03512e-05
1.03512e-05
1.03513e-05
1.03514e-05
1.03516e-05
1.03517e-05
1.0352e-05
1.03523e-05
1.03528e-05
1.03533e-05
1.03541e-05
1.03552e-05
1.03566e-05
1.03585e-05
1.0361e-05
1.03644e-05
1.0369e-05
1.03753e-05
1.03841e-05
1.0351e-05
1.0351e-05
1.0351e-05
1.0351e-05
1.0351e-05
1.0351e-05
1.0351e-05
1.0351e-05
1.0351e-05
1.0351e-05
1.0351e-05
1.0351e-05
1.0351e-05
1.03511e-05
1.03511e-05
1.03511e-05
1.03511e-05
1.03512e-05
1.03513e-05
1.03513e-05
1.03514e-05
1.03516e-05
1.03518e-05
1.0352e-05
1.03524e-05
1.03528e-05
1.03534e-05
1.03542e-05
1.03552e-05
1.03566e-05
1.03585e-05
1.0361e-05
1.03643e-05
1.03687e-05
1.03747e-05
1.03826e-05
1.03932e-05
1.04075e-05
1.04268e-05
1.04533e-05
1.0351e-05
1.0351e-05
1.0351e-05
1.0351e-05
1.0351e-05
1.0351e-05
1.0351e-05
1.0351e-05
1.03511e-05
1.03511e-05
1.03511e-05
1.03511e-05
1.03512e-05
1.03512e-05
1.03513e-05
1.03514e-05
1.03515e-05
1.03516e-05
1.03518e-05
1.03521e-05
1.03524e-05
1.03529e-05
1.03535e-05
1.03543e-05
1.03553e-05
1.03567e-05
1.03586e-05
1.0361e-05
1.03643e-05
1.03686e-05
1.03744e-05
1.03821e-05
1.03924e-05
1.0406e-05
1.04241e-05
1.04482e-05
1.04802e-05
1.05229e-05
1.05799e-05
1.06569e-05
1.0351e-05
1.0351e-05
1.0351e-05
1.0351e-05
1.03511e-05
1.03511e-05
1.03511e-05
1.03511e-05
1.03512e-05
1.03512e-05
1.03513e-05
1.03514e-05
1.03515e-05
1.03517e-05
1.03519e-05
1.03521e-05
1.03525e-05
1.03529e-05
1.03536e-05
1.03544e-05
1.03554e-05
1.03568e-05
1.03587e-05
1.03611e-05
1.03644e-05
1.03687e-05
1.03744e-05
1.03819e-05
1.03919e-05
1.04051e-05
1.04226e-05
1.04458e-05
1.04764e-05
1.05168e-05
1.05701e-05
1.06402e-05
1.0732e-05
1.08521e-05
1.10087e-05
1.1213e-05
1.03511e-05
1.03511e-05
1.03511e-05
1.03511e-05
1.03512e-05
1.03512e-05
1.03513e-05
1.03513e-05
1.03514e-05
1.03515e-05
1.03517e-05
1.03519e-05
1.03522e-05
1.03526e-05
1.03531e-05
1.03537e-05
1.03545e-05
1.03556e-05
1.0357e-05
1.03589e-05
1.03614e-05
1.03646e-05
1.03689e-05
1.03745e-05
1.0382e-05
1.03918e-05
1.04047e-05
1.04217e-05
1.04442e-05
1.04737e-05
1.05126e-05
1.05636e-05
1.06303e-05
1.07175e-05
1.08307e-05
1.09769e-05
1.11643e-05
1.14024e-05
1.1702e-05
1.20743e-05
1.25302e-05
1.03512e-05
1.03512e-05
1.03513e-05
1.03514e-05
1.03515e-05
1.03516e-05
1.03518e-05
1.0352e-05
1.03523e-05
1.03527e-05
1.03532e-05
1.03539e-05
1.03547e-05
1.03558e-05
1.03573e-05
1.03592e-05
1.03617e-05
1.0365e-05
1.03693e-05
1.0375e-05
1.03824e-05
1.03921e-05
1.04048e-05
1.04215e-05
1.04434e-05
1.04721e-05
1.05098e-05
1.05589e-05
1.0623e-05
1.07064e-05
1.08144e-05
1.09534e-05
1.1131e-05
1.13562e-05
1.16384e-05
1.19873e-05
1.24122e-05
1.29208e-05
1.35176e-05
1.4204e-05
1.49723e-05
1.03514e-05
1.03515e-05
1.03517e-05
1.03519e-05
1.03521e-05
1.03524e-05
1.03529e-05
1.03534e-05
1.03541e-05
1.0355e-05
1.03562e-05
1.03577e-05
1.03597e-05
1.03623e-05
1.03656e-05
1.037e-05
1.03757e-05
1.03832e-05
1.03929e-05
1.04056e-05
1.04221e-05
1.04437e-05
1.04719e-05
1.05086e-05
1.05564e-05
1.06184e-05
1.06988e-05
1.08024e-05
1.09354e-05
1.1105e-05
1.13194e-05
1.15877e-05
1.19192e-05
1.23228e-05
1.28061e-05
1.33735e-05
1.40257e-05
1.47583e-05
1.55607e-05
1.64185e-05
1.73103e-05
1.82101e-05
1.0352e-05
1.03523e-05
1.03526e-05
1.03531e-05
1.03537e-05
1.03544e-05
1.03554e-05
1.03566e-05
1.03582e-05
1.03603e-05
1.0363e-05
1.03665e-05
1.0371e-05
1.03769e-05
1.03844e-05
1.03943e-05
1.04071e-05
1.04236e-05
1.04452e-05
1.04731e-05
1.05093e-05
1.05562e-05
1.06168e-05
1.06949e-05
1.07953e-05
1.09235e-05
1.10865e-05
1.12919e-05
1.15484e-05
1.18649e-05
1.22501e-05
1.27115e-05
1.32542e-05
1.38797e-05
1.45849e-05
1.5361e-05
1.61943e-05
1.70662e-05
1.79507e-05
1.88141e-05
1.96193e-05
2.03324e-05
2.09458e-05
1.0354e-05
1.03548e-05
1.03559e-05
1.03572e-05
1.03589e-05
1.03612e-05
1.0364e-05
1.03677e-05
1.03724e-05
1.03785e-05
1.03863e-05
1.03964e-05
1.04095e-05
1.04263e-05
1.0448e-05
1.0476e-05
1.05122e-05
1.05587e-05
1.06185e-05
1.06953e-05
1.07934e-05
1.09182e-05
1.10761e-05
1.12745e-05
1.15215e-05
1.18256e-05
1.21951e-05
1.26374e-05
1.31579e-05
1.3759e-05
1.44385e-05
1.519e-05
1.60009e-05
1.68555e-05
1.7732e-05
1.86014e-05
1.9428e-05
2.01764e-05
2.08208e-05
2.13503e-05
2.17702e-05
2.20904e-05
2.2339e-05
1.0358e-05
1.03599e-05
1.03623e-05
1.03653e-05
1.03693e-05
1.03743e-05
1.03807e-05
1.03889e-05
1.03994e-05
1.04129e-05
1.04303e-05
1.04525e-05
1.0481e-05
1.05175e-05
1.05643e-05
1.06241e-05
1.07004e-05
1.07973e-05
1.09201e-05
1.10747e-05
1.12681e-05
1.15079e-05
1.18022e-05
1.2159e-05
1.25854e-05
1.30869e-05
1.36663e-05
1.43226e-05
1.50501e-05
1.58388e-05
1.66742e-05
1.75383e-05
1.84062e-05
1.92468e-05
2.00248e-05
2.07104e-05
2.1286e-05
2.17493e-05
2.21089e-05
2.23805e-05
2.25802e-05
2.27262e-05
2.28293e-05
2.29067e-05
1.03671e-05
1.03713e-05
1.03768e-05
1.03836e-05
1.03924e-05
1.04035e-05
1.04177e-05
1.04358e-05
1.04589e-05
1.04883e-05
1.05258e-05
1.05735e-05
1.0634e-05
1.07108e-05
1.08079e-05
1.09301e-05
1.10832e-05
1.12737e-05
1.15088e-05
1.17962e-05
1.21435e-05
1.25573e-05
1.30431e-05
1.3604e-05
1.42397e-05
1.49455e-05
1.57128e-05
1.65284e-05
1.73767e-05
1.82373e-05
1.90828e-05
1.98808e-05
2.05995e-05
2.12163e-05
2.17225e-05
2.21222e-05
2.2428e-05
2.26558e-05
2.28219e-05
2.2941e-05
2.30256e-05
2.30844e-05
2.31264e-05
2.3155e-05
2.31747e-05
1.03875e-05
1.0397e-05
1.0409e-05
1.04242e-05
1.04434e-05
1.04678e-05
1.04986e-05
1.05376e-05
1.05869e-05
1.06492e-05
1.07276e-05
1.08261e-05
1.09493e-05
1.11027e-05
1.12926e-05
1.15256e-05
1.1809e-05
1.215e-05
1.25549e-05
1.30288e-05
1.35747e-05
1.41929e-05
1.48796e-05
1.56269e-05
1.64234e-05
1.72546e-05
1.81034e-05
1.89466e-05
1.97552e-05
2.04979e-05
2.11487e-05
2.16934e-05
2.21312e-05
2.24711e-05
2.27276e-05
2.29165e-05
2.3053e-05
2.31501e-05
2.32183e-05
2.32656e-05
2.32984e-05
2.33196e-05
2.33327e-05
2.33402e-05
2.33445e-05
2.33435e-05
1.04163e-05
1.04328e-05
1.04536e-05
1.04797e-05
1.05125e-05
1.05538e-05
1.06056e-05
1.06705e-05
1.07518e-05
1.08531e-05
1.09791e-05
1.11349e-05
1.13264e-05
1.15601e-05
1.18427e-05
1.21808e-05
1.25804e-05
1.30462e-05
1.35809e-05
1.4185e-05
1.48555e-05
1.55854e-05
1.63638e-05
1.71778e-05
1.80121e-05
1.88477e-05
1.96587e-05
2.04161e-05
2.10925e-05
2.16696e-05
2.21416e-05
2.25138e-05
2.27984e-05
2.30104e-05
2.31649e-05
2.32755e-05
2.33534e-05
2.34075e-05
2.34448e-05
2.34699e-05
2.34854e-05
2.34938e-05
2.3499e-05
2.34981e-05
2.34952e-05
2.3488e-05
2.34764e-05
2.34623e-05
1.0531e-05
1.05753e-05
1.06306e-05
1.06995e-05
1.0785e-05
1.08909e-05
1.10215e-05
1.11819e-05
1.13776e-05
1.16148e-05
1.18997e-05
1.22384e-05
1.26364e-05
1.3098e-05
1.36256e-05
1.42193e-05
1.48768e-05
1.55916e-05
1.63537e-05
1.7151e-05
1.79697e-05
1.87936e-05
1.96007e-05
2.03644e-05
2.10577e-05
2.16596e-05
2.21602e-05
2.25612e-05
2.28719e-05
2.31062e-05
2.32786e-05
2.34028e-05
2.34909e-05
2.35522e-05
2.35943e-05
2.36229e-05
2.36406e-05
2.3651e-05
2.3656e-05
2.36577e-05
2.36554e-05
2.36493e-05
2.36398e-05
2.36261e-05
2.36099e-05
2.35904e-05
2.35682e-05
2.3544e-05
1.06638e-05
1.07379e-05
1.08293e-05
1.09415e-05
1.10789e-05
1.12463e-05
1.1449e-05
1.16927e-05
1.19832e-05
1.23262e-05
1.27264e-05
1.31877e-05
1.3712e-05
1.42992e-05
1.49469e-05
1.56493e-05
1.63971e-05
1.71787e-05
1.79815e-05
1.87912e-05
1.95894e-05
2.03522e-05
2.10537e-05
2.16722e-05
2.21948e-05
2.26193e-05
2.29529e-05
2.32073e-05
2.33965e-05
2.3534e-05
2.36321e-05
2.37006e-05
2.37477e-05
2.37794e-05
2.37999e-05
2.38118e-05
2.38172e-05
2.38197e-05
2.38174e-05
2.38129e-05
2.38048e-05
2.37924e-05
2.37777e-05
2.37599e-05
2.37394e-05
2.37166e-05
2.36921e-05
2.36664e-05
2.36393e-05
2.36102e-05
1.11548e-05
1.13319e-05
1.15445e-05
1.17979e-05
1.20976e-05
1.24484e-05
1.28547e-05
1.33195e-05
1.38443e-05
1.44284e-05
1.50696e-05
1.57624e-05
1.64979e-05
1.72648e-05
1.80517e-05
1.88457e-05
1.96312e-05
2.0387e-05
2.10893e-05
2.17162e-05
2.2253e-05
2.26949e-05
2.30465e-05
2.33178e-05
2.35217e-05
2.36712e-05
2.37785e-05
2.3854e-05
2.39059e-05
2.39407e-05
2.39634e-05
2.39766e-05
2.3983e-05
2.39848e-05
2.39835e-05
2.39795e-05
2.39719e-05
2.3961e-05
2.39466e-05
2.39303e-05
2.39114e-05
2.38899e-05
2.38666e-05
2.38422e-05
2.38167e-05
2.37897e-05
2.37608e-05
2.37298e-05
2.36967e-05
2.36607e-05
1.22479e-05
1.26103e-05
1.30263e-05
1.34983e-05
1.40271e-05
1.46116e-05
1.52492e-05
1.59347e-05
1.66596e-05
1.74129e-05
1.8184e-05
1.89612e-05
1.97311e-05
2.04751e-05
2.11714e-05
2.17987e-05
2.23419e-05
2.27943e-05
2.31581e-05
2.3442e-05
2.36574e-05
2.38169e-05
2.39321e-05
2.40136e-05
2.40699e-05
2.41075e-05
2.41319e-05
2.41465e-05
2.41536e-05
2.41548e-05
2.41537e-05
2.41493e-05
2.41424e-05
2.4132e-05
2.41183e-05
2.41027e-05
2.40847e-05
2.40643e-05
2.40419e-05
2.40182e-05
2.39939e-05
2.39684e-05
2.39413e-05
2.39126e-05
2.38819e-05
2.38492e-05
2.38141e-05
2.37761e-05
2.37354e-05
2.3691e-05
1.42661e-05
1.48538e-05
1.54903e-05
1.61705e-05
1.68861e-05
1.76264e-05
1.83816e-05
1.91411e-05
1.9893e-05
2.06212e-05
2.13054e-05
2.19259e-05
2.24677e-05
2.2923e-05
2.32928e-05
2.3584e-05
2.3807e-05
2.39735e-05
2.40947e-05
2.41809e-05
2.42406e-05
2.42805e-05
2.43062e-05
2.43219e-05
2.43292e-05
2.43302e-05
2.43281e-05
2.43237e-05
2.43167e-05
2.43064e-05
2.42934e-05
2.42773e-05
2.426e-05
2.42405e-05
2.42189e-05
2.41957e-05
2.41718e-05
2.41472e-05
2.41214e-05
2.40941e-05
2.40654e-05
2.4035e-05
2.40026e-05
2.39679e-05
2.39307e-05
2.38908e-05
2.38479e-05
2.38018e-05
2.37529e-05
2.37007e-05
1.71808e-05
1.79082e-05
1.8647e-05
1.93876e-05
2.01194e-05
2.08279e-05
2.14948e-05
2.21019e-05
2.26347e-05
2.30857e-05
2.34545e-05
2.37473e-05
2.39733e-05
2.41433e-05
2.42679e-05
2.4357e-05
2.4419e-05
2.44603e-05
2.44869e-05
2.45028e-05
2.45103e-05
2.45109e-05
2.45078e-05
2.45032e-05
2.44951e-05
2.44849e-05
2.44716e-05
2.44558e-05
2.44384e-05
2.44192e-05
2.4398e-05
2.43751e-05
2.43513e-05
2.43271e-05
2.43021e-05
2.42759e-05
2.42483e-05
2.42195e-05
2.41891e-05
2.41568e-05
2.41224e-05
2.40857e-05
2.40464e-05
2.40045e-05
2.39595e-05
2.39114e-05
2.3861e-05
2.38075e-05
2.37506e-05
2.36894e-05
2.04111e-05
2.10966e-05
2.17413e-05
2.23287e-05
2.28456e-05
2.32849e-05
2.36461e-05
2.39344e-05
2.41585e-05
2.43281e-05
2.44532e-05
2.4543e-05
2.46057e-05
2.46475e-05
2.46742e-05
2.46898e-05
2.46972e-05
2.4697e-05
2.46932e-05
2.46869e-05
2.46784e-05
2.46675e-05
2.46539e-05
2.46381e-05
2.46199e-05
2.46008e-05
2.45798e-05
2.45571e-05
2.45332e-05
2.45089e-05
2.44841e-05
2.44585e-05
2.44317e-05
2.44038e-05
2.43748e-05
2.43442e-05
2.43119e-05
2.42776e-05
2.42412e-05
2.42025e-05
2.41613e-05
2.41171e-05
2.40702e-05
2.40206e-05
2.39684e-05
2.3913e-05
2.38543e-05
2.3792e-05
2.37259e-05
2.36548e-05
2.31007e-05
2.35214e-05
2.38684e-05
2.41466e-05
2.43637e-05
2.45289e-05
2.46513e-05
2.47395e-05
2.48011e-05
2.48422e-05
2.48682e-05
2.4883e-05
2.48896e-05
2.48884e-05
2.48836e-05
2.48758e-05
2.48664e-05
2.48545e-05
2.48404e-05
2.48239e-05
2.48055e-05
2.47857e-05
2.47646e-05
2.47418e-05
2.47177e-05
2.46931e-05
2.46682e-05
2.46428e-05
2.46164e-05
2.4589e-05
2.45607e-05
2.45313e-05
2.45004e-05
2.44679e-05
2.44336e-05
2.43974e-05
2.4359e-05
2.43182e-05
2.42749e-05
2.42288e-05
2.41799e-05
2.41288e-05
2.40748e-05
2.40177e-05
2.39572e-05
2.38933e-05
2.38254e-05
2.37534e-05
2.36775e-05
2.35964e-05
2.45889e-05
2.47457e-05
2.48624e-05
2.49466e-05
2.50052e-05
2.50442e-05
2.50686e-05
2.5082e-05
2.50871e-05
2.50849e-05
2.50788e-05
2.50695e-05
2.5059e-05
2.50459e-05
2.5031e-05
2.50136e-05
2.49945e-05
2.49741e-05
2.49526e-05
2.49295e-05
2.49052e-05
2.488e-05
2.48548e-05
2.48292e-05
2.48029e-05
2.47756e-05
2.47477e-05
2.47189e-05
2.4689e-05
2.46577e-05
2.46249e-05
2.45905e-05
2.45543e-05
2.4516e-05
2.44756e-05
2.44328e-05
2.43874e-05
2.43393e-05
2.42889e-05
2.42361e-05
2.41802e-05
2.41214e-05
2.40592e-05
2.39935e-05
2.39239e-05
2.38505e-05
2.37732e-05
2.36917e-05
2.36062e-05
2.35154e-05
2.52174e-05
2.52531e-05
2.52749e-05
2.52862e-05
2.52893e-05
2.52859e-05
2.52784e-05
2.52675e-05
2.52553e-05
2.52411e-05
2.52252e-05
2.52069e-05
2.5187e-05
2.51659e-05
2.51436e-05
2.51201e-05
2.50952e-05
2.50697e-05
2.50438e-05
2.50179e-05
2.49914e-05
2.49641e-05
2.49362e-05
2.49076e-05
2.48782e-05
2.48477e-05
2.48159e-05
2.47828e-05
2.47481e-05
2.47118e-05
2.46736e-05
2.46333e-05
2.45909e-05
2.4546e-05
2.44986e-05
2.44489e-05
2.43969e-05
2.43422e-05
2.42846e-05
2.42241e-05
2.41602e-05
2.40927e-05
2.40215e-05
2.39467e-05
2.3868e-05
2.37853e-05
2.36988e-05
2.36081e-05
2.35135e-05
2.34139e-05
2.54953e-05
2.54906e-05
2.54813e-05
2.5469e-05
2.54551e-05
2.54397e-05
2.54227e-05
2.54035e-05
2.53825e-05
2.53604e-05
2.53375e-05
2.53134e-05
2.5288e-05
2.52618e-05
2.52352e-05
2.52088e-05
2.51819e-05
2.51545e-05
2.51263e-05
2.50977e-05
2.50685e-05
2.50384e-05
2.50072e-05
2.49749e-05
2.49413e-05
2.49064e-05
2.48698e-05
2.48315e-05
2.47913e-05
2.47491e-05
2.47047e-05
2.46578e-05
2.46085e-05
2.45573e-05
2.45036e-05
2.44471e-05
2.43879e-05
2.43256e-05
2.42599e-05
2.41908e-05
2.41181e-05
2.40418e-05
2.39618e-05
2.3878e-05
2.37904e-05
2.36989e-05
2.36037e-05
2.35048e-05
2.34022e-05
2.32945e-05
2.56574e-05
2.56409e-05
2.56227e-05
2.56024e-05
2.55804e-05
2.55573e-05
2.55337e-05
2.5509e-05
2.5483e-05
2.5456e-05
2.54288e-05
2.54018e-05
2.53745e-05
2.53466e-05
2.53181e-05
2.52892e-05
2.526e-05
2.523e-05
2.51991e-05
2.51673e-05
2.51344e-05
2.51004e-05
2.50651e-05
2.50282e-05
2.49898e-05
2.49495e-05
2.49074e-05
2.48633e-05
2.48168e-05
2.4768e-05
2.47174e-05
2.46644e-05
2.46089e-05
2.45508e-05
2.44899e-05
2.44258e-05
2.43584e-05
2.42878e-05
2.42136e-05
2.41359e-05
2.40547e-05
2.39697e-05
2.38812e-05
2.37888e-05
2.36931e-05
2.35936e-05
2.34907e-05
2.3384e-05
2.32739e-05
2.31589e-05
2.57798e-05
2.57559e-05
2.57315e-05
2.57061e-05
2.56794e-05
2.56518e-05
2.5624e-05
2.55963e-05
2.55685e-05
2.55401e-05
2.55112e-05
2.5482e-05
2.54526e-05
2.54225e-05
2.53917e-05
2.53601e-05
2.53276e-05
2.52943e-05
2.52597e-05
2.52239e-05
2.51867e-05
2.51481e-05
2.51077e-05
2.50656e-05
2.50216e-05
2.49754e-05
2.49271e-05
2.48769e-05
2.48246e-05
2.47699e-05
2.47127e-05
2.4653e-05
2.45904e-05
2.45246e-05
2.44556e-05
2.43834e-05
2.43079e-05
2.42289e-05
2.41464e-05
2.40604e-05
2.39709e-05
2.38778e-05
2.37815e-05
2.36816e-05
2.35782e-05
2.34713e-05
2.33613e-05
2.32473e-05
2.3131e-05
2.30098e-05
2.58766e-05
2.58484e-05
2.582e-05
2.57917e-05
2.57634e-05
2.57345e-05
2.57052e-05
2.56756e-05
2.56458e-05
2.56156e-05
2.55848e-05
2.55532e-05
2.55209e-05
2.54879e-05
2.54539e-05
2.54188e-05
2.53826e-05
2.5345e-05
2.53061e-05
2.52656e-05
2.52234e-05
2.51795e-05
2.51335e-05
2.50856e-05
2.50357e-05
2.4984e-05
2.493e-05
2.48736e-05
2.48149e-05
2.47535e-05
2.46891e-05
2.46217e-05
2.45513e-05
2.44777e-05
2.44008e-05
2.43205e-05
2.4237e-05
2.415e-05
2.40596e-05
2.39658e-05
2.3869e-05
2.37685e-05
2.36648e-05
2.35577e-05
2.34476e-05
2.33338e-05
2.32177e-05
2.30978e-05
2.29763e-05
2.28503e-05
2.59584e-05
2.59291e-05
2.58994e-05
2.58694e-05
2.58393e-05
2.58089e-05
2.57779e-05
2.57463e-05
2.5714e-05
2.56812e-05
2.56476e-05
2.5613e-05
2.55774e-05
2.55407e-05
2.55028e-05
2.54635e-05
2.54228e-05
2.53806e-05
2.53366e-05
2.52908e-05
2.52431e-05
2.51936e-05
2.51423e-05
2.50889e-05
2.50333e-05
2.49754e-05
2.49151e-05
2.4852e-05
2.4786e-05
2.47171e-05
2.46453e-05
2.45703e-05
2.44921e-05
2.44107e-05
2.43262e-05
2.42382e-05
2.41471e-05
2.40528e-05
2.39553e-05
2.38543e-05
2.37505e-05
2.36431e-05
2.35328e-05
2.34192e-05
2.33032e-05
2.31837e-05
2.30628e-05
2.29383e-05
2.28127e-05
2.26833e-05
2.60323e-05
2.60017e-05
2.59705e-05
2.59388e-05
2.59065e-05
2.58738e-05
2.58403e-05
2.58061e-05
2.57709e-05
2.57348e-05
2.56977e-05
2.56595e-05
2.56199e-05
2.5579e-05
2.55366e-05
2.54927e-05
2.54469e-05
2.53994e-05
2.53502e-05
2.52994e-05
2.52465e-05
2.51915e-05
2.51345e-05
2.50751e-05
2.50131e-05
2.49483e-05
2.48809e-05
2.48106e-05
2.47374e-05
2.46611e-05
2.45818e-05
2.44993e-05
2.44138e-05
2.4325e-05
2.42333e-05
2.41384e-05
2.40403e-05
2.39391e-05
2.38349e-05
2.37273e-05
2.3617e-05
2.35035e-05
2.33875e-05
2.32684e-05
2.31479e-05
2.30241e-05
2.28993e-05
2.27717e-05
2.26435e-05
2.25123e-05
2.613e-05
2.60978e-05
2.60651e-05
2.60317e-05
2.59977e-05
2.59629e-05
2.59273e-05
2.58908e-05
2.58533e-05
2.58147e-05
2.57748e-05
2.57337e-05
2.56912e-05
2.56472e-05
2.56015e-05
2.55541e-05
2.55053e-05
2.54548e-05
2.54024e-05
2.5348e-05
2.52916e-05
2.52331e-05
2.51721e-05
2.51085e-05
2.50424e-05
2.49735e-05
2.49019e-05
2.48274e-05
2.47499e-05
2.46696e-05
2.45861e-05
2.44997e-05
2.44103e-05
2.4318e-05
2.42224e-05
2.4124e-05
2.40224e-05
2.3918e-05
2.38103e-05
2.37e-05
2.35866e-05
2.34709e-05
2.33521e-05
2.32319e-05
2.31087e-05
2.29845e-05
2.28577e-05
2.27304e-05
2.26011e-05
2.24717e-05
2.23401e-05
2.61874e-05
2.61528e-05
2.61176e-05
2.60816e-05
2.60446e-05
2.60068e-05
2.59678e-05
2.59277e-05
2.58864e-05
2.58438e-05
2.57997e-05
2.5754e-05
2.57068e-05
2.56583e-05
2.56081e-05
2.55562e-05
2.55023e-05
2.54467e-05
2.53889e-05
2.53288e-05
2.52663e-05
2.52013e-05
2.51338e-05
2.50636e-05
2.49907e-05
2.49151e-05
2.48366e-05
2.47553e-05
2.46709e-05
2.45838e-05
2.44938e-05
2.44009e-05
2.43048e-05
2.42061e-05
2.41042e-05
2.39996e-05
2.38918e-05
2.37817e-05
2.36684e-05
2.35529e-05
2.34346e-05
2.33147e-05
2.31921e-05
2.30685e-05
2.29425e-05
2.28159e-05
2.26874e-05
2.25591e-05
2.24295e-05
2.23004e-05
2.21699e-05
2.62696e-05
2.62332e-05
2.61959e-05
2.61577e-05
2.61184e-05
2.60781e-05
2.60367e-05
2.59939e-05
2.59497e-05
2.59042e-05
2.58572e-05
2.5809e-05
2.57591e-05
2.57075e-05
2.56542e-05
2.55992e-05
2.55421e-05
2.54828e-05
2.54213e-05
2.53574e-05
2.52911e-05
2.52223e-05
2.5151e-05
2.5077e-05
2.50003e-05
2.49209e-05
2.48386e-05
2.47535e-05
2.46659e-05
2.45752e-05
2.44818e-05
2.43855e-05
2.42864e-05
2.41843e-05
2.40795e-05
2.39718e-05
2.38617e-05
2.37487e-05
2.36336e-05
2.35158e-05
2.33962e-05
2.32742e-05
2.31512e-05
2.30259e-05
2.29001e-05
2.27725e-05
2.26449e-05
2.25162e-05
2.23881e-05
2.22595e-05
2.21321e-05
2.20041e-05
2.63056e-05
2.62661e-05
2.62256e-05
2.6184e-05
2.61411e-05
2.60969e-05
2.60514e-05
2.60048e-05
2.59568e-05
2.59072e-05
2.5856e-05
2.58033e-05
2.57488e-05
2.56924e-05
2.56339e-05
2.55732e-05
2.55104e-05
2.54453e-05
2.53778e-05
2.53078e-05
2.52354e-05
2.51603e-05
2.50828e-05
2.50024e-05
2.49194e-05
2.48339e-05
2.47456e-05
2.46544e-05
2.45607e-05
2.4464e-05
2.43647e-05
2.42624e-05
2.41576e-05
2.405e-05
2.394e-05
2.38274e-05
2.37126e-05
2.35953e-05
2.34762e-05
2.3355e-05
2.32326e-05
2.3108e-05
2.2983e-05
2.28562e-05
2.27294e-05
2.26016e-05
2.24743e-05
2.23465e-05
2.22201e-05
2.20938e-05
2.19694e-05
2.18451e-05
2.63279e-05
2.6285e-05
2.62408e-05
2.61956e-05
2.61492e-05
2.61013e-05
2.6052e-05
2.60013e-05
2.59491e-05
2.58952e-05
2.58393e-05
2.57815e-05
2.57218e-05
2.56599e-05
2.55958e-05
2.55296e-05
2.5461e-05
2.539e-05
2.53165e-05
2.52407e-05
2.51622e-05
2.50811e-05
2.49977e-05
2.49115e-05
2.48226e-05
2.47312e-05
2.46371e-05
2.45402e-05
2.44407e-05
2.43384e-05
2.42337e-05
2.41262e-05
2.40165e-05
2.39042e-05
2.37898e-05
2.36731e-05
2.35547e-05
2.34341e-05
2.33123e-05
2.31888e-05
2.30643e-05
2.29385e-05
2.28126e-05
2.26856e-05
2.25591e-05
2.24322e-05
2.23065e-05
2.21809e-05
2.20573e-05
2.19345e-05
2.18141e-05
2.16946e-05
2.63362e-05
2.629e-05
2.62423e-05
2.61934e-05
2.61431e-05
2.60913e-05
2.60379e-05
2.59826e-05
2.59255e-05
2.58665e-05
2.58056e-05
2.57426e-05
2.56774e-05
2.56101e-05
2.55405e-05
2.54686e-05
2.53943e-05
2.53176e-05
2.52384e-05
2.51569e-05
2.50728e-05
2.49861e-05
2.4897e-05
2.48052e-05
2.47109e-05
2.46138e-05
2.45143e-05
2.44121e-05
2.43074e-05
2.42002e-05
2.40908e-05
2.3979e-05
2.38651e-05
2.37491e-05
2.36312e-05
2.35114e-05
2.33905e-05
2.32677e-05
2.31441e-05
2.30193e-05
2.28941e-05
2.27682e-05
2.26425e-05
2.25165e-05
2.23914e-05
2.22667e-05
2.21436e-05
2.20214e-05
2.19016e-05
2.17833e-05
2.1668e-05
2.15541e-05
2.63309e-05
2.6281e-05
2.62297e-05
2.61766e-05
2.61219e-05
2.60655e-05
2.60073e-05
2.59472e-05
2.58851e-05
2.58211e-05
2.5755e-05
2.56867e-05
2.56162e-05
2.55435e-05
2.54684e-05
2.5391e-05
2.53114e-05
2.52293e-05
2.51447e-05
2.50578e-05
2.49683e-05
2.48763e-05
2.47818e-05
2.46847e-05
2.45852e-05
2.44831e-05
2.43787e-05
2.42719e-05
2.41628e-05
2.40515e-05
2.39383e-05
2.38229e-05
2.37057e-05
2.35869e-05
2.34666e-05
2.33447e-05
2.32222e-05
2.30983e-05
2.2974e-05
2.28491e-05
2.27243e-05
2.25993e-05
2.2475e-05
2.23511e-05
2.22285e-05
2.21071e-05
2.19876e-05
2.18697e-05
2.17546e-05
2.16417e-05
2.15321e-05
2.14245e-05
2.63112e-05
2.6257e-05
2.62013e-05
2.61438e-05
2.60845e-05
2.60234e-05
2.59604e-05
2.58954e-05
2.58283e-05
2.57592e-05
2.56879e-05
2.56145e-05
2.55388e-05
2.54609e-05
2.53807e-05
2.52982e-05
2.52133e-05
2.51261e-05
2.50364e-05
2.49443e-05
2.48497e-05
2.47527e-05
2.46532e-05
2.45514e-05
2.44473e-05
2.43409e-05
2.42324e-05
2.41217e-05
2.4009e-05
2.38944e-05
2.37781e-05
2.36601e-05
2.35407e-05
2.342e-05
2.32982e-05
2.31754e-05
2.30521e-05
2.29283e-05
2.28043e-05
2.26804e-05
2.25569e-05
2.24339e-05
2.2312e-05
2.21913e-05
2.20722e-05
2.19548e-05
2.18398e-05
2.17271e-05
2.16174e-05
2.15105e-05
2.14072e-05
2.13065e-05
2.62759e-05
2.62174e-05
2.61571e-05
2.60951e-05
2.60311e-05
2.59653e-05
2.58974e-05
2.58275e-05
2.57556e-05
2.56815e-05
2.56053e-05
2.55269e-05
2.54463e-05
2.53635e-05
2.52783e-05
2.51909e-05
2.51011e-05
2.50089e-05
2.49144e-05
2.48175e-05
2.47183e-05
2.46168e-05
2.45131e-05
2.44072e-05
2.42992e-05
2.41892e-05
2.40772e-05
2.39635e-05
2.3848e-05
2.3731e-05
2.36125e-05
2.34928e-05
2.33721e-05
2.32505e-05
2.31282e-05
2.30054e-05
2.28825e-05
2.27596e-05
2.26371e-05
2.2515e-05
2.23939e-05
2.22739e-05
2.21554e-05
2.20385e-05
2.19238e-05
2.18113e-05
2.17015e-05
2.15945e-05
2.14908e-05
2.13904e-05
2.12937e-05
2.12001e-05
2.61623e-05
2.60975e-05
2.60308e-05
2.59622e-05
2.58917e-05
2.58191e-05
2.57445e-05
2.56678e-05
2.5589e-05
2.55081e-05
2.5425e-05
2.53397e-05
2.52521e-05
2.51622e-05
2.50701e-05
2.49756e-05
2.4879e-05
2.47801e-05
2.4679e-05
2.45758e-05
2.44705e-05
2.43631e-05
2.42538e-05
2.41427e-05
2.40298e-05
2.39153e-05
2.37993e-05
2.36819e-05
2.35633e-05
2.34437e-05
2.33232e-05
2.3202e-05
2.30805e-05
2.29587e-05
2.28368e-05
2.27154e-05
2.25943e-05
2.24741e-05
2.23549e-05
2.2237e-05
2.21207e-05
2.20064e-05
2.18941e-05
2.17844e-05
2.16773e-05
2.15733e-05
2.14725e-05
2.13752e-05
2.12815e-05
2.11916e-05
2.11051e-05
2.60921e-05
2.60228e-05
2.59516e-05
2.58785e-05
2.58035e-05
2.57264e-05
2.56473e-05
2.55661e-05
2.54828e-05
2.53973e-05
2.53096e-05
2.52198e-05
2.51277e-05
2.50335e-05
2.49371e-05
2.48386e-05
2.4738e-05
2.46353e-05
2.45307e-05
2.4424e-05
2.43156e-05
2.42053e-05
2.40934e-05
2.39799e-05
2.38649e-05
2.37487e-05
2.36312e-05
2.35128e-05
2.33935e-05
2.32736e-05
2.31532e-05
2.30326e-05
2.2912e-05
2.27915e-05
2.26715e-05
2.25523e-05
2.2434e-05
2.23169e-05
2.22013e-05
2.20874e-05
2.19755e-05
2.1866e-05
2.1759e-05
2.16548e-05
2.15536e-05
2.14557e-05
2.13612e-05
2.12705e-05
2.11836e-05
2.11006e-05
2.1021e-05
2.60075e-05
2.59339e-05
2.58585e-05
2.5781e-05
2.57016e-05
2.56202e-05
2.55367e-05
2.54511e-05
2.53635e-05
2.52737e-05
2.51818e-05
2.50879e-05
2.49918e-05
2.48938e-05
2.47937e-05
2.46916e-05
2.45876e-05
2.44818e-05
2.43742e-05
2.42649e-05
2.4154e-05
2.40415e-05
2.39277e-05
2.38126e-05
2.36964e-05
2.35792e-05
2.34612e-05
2.33425e-05