/*--------------------------------*- C++ -*----------------------------------*\
| =========                 |                                                 |
| \\      /  F ield         | OpenFOAM: The Open Source CFD Toolbox           |
|  \\    /   O peration     | Version:  v1706                                 |
|   \\  /    A nd           | Web:      www.OpenFOAM.com                      |
|    \\/     M anipulation  |                                                 |
\*---------------------------------------------------------------------------*/
FoamFile
{
    version     2.0;
    format      ascii;
    class       volScalarField;
    location    "1.9e-05";
    object      p;
}
// * * * * * * * * * * * * * * * * * * * * * * * * * * * * * * * * * * * * * //

dimensions      [1 -1 -2 0 0 0 0];


internalField   nonuniform List<scalar> 
30038
(
21.9139
21.9139
21.9139
21.9139
21.9139
21.9139
21.9139
21.9139
21.9139
21.9139
21.9139
21.9139
21.9139
21.9139
21.9139
21.9139
21.9139
21.9139
21.9139
21.9139
21.9139
21.9139
21.9139
21.9139
21.9139
21.9139
21.9139
21.9139
21.9139
21.9139
21.9139
21.9139
21.9139
21.9139
21.9139
21.9139
21.9139
21.9139
21.9139
21.9139
21.9139
21.9139
21.9139
21.9139
21.9139
21.9139
21.9139
21.9139
21.9139
21.9139
21.9139
21.9139
21.9139
21.9139
21.9139
21.9139
21.9139
21.9139
21.9139
21.9139
21.9139
21.9139
21.9139
21.9139
21.9139
21.9139
21.9139
21.9139
21.9139
21.9139
21.9139
21.9139
21.9139
21.9139
21.9139
21.9139
21.9139
21.9139
21.9139
21.9139
21.9139
21.9139
21.9139
21.9139
21.9139
21.9139
21.9139
21.9139
21.9139
21.9139
21.9139
21.9139
21.9139
21.9139
21.9139
21.9139
21.9139
21.9139
21.9139
21.9139
21.9139
21.9139
21.9139
21.9139
21.9139
21.9139
21.9139
21.9139
21.9139
21.9139
21.9139
21.9139
21.9139
21.9139
21.9139
21.9139
21.9139
21.9139
21.9139
21.9139
21.9139
21.9139
21.9139
21.9139
21.9139
21.9139
21.9139
21.9139
21.9139
21.9139
21.9139
21.9139
21.9139
21.9139
21.9139
21.9139
21.9139
21.9139
21.9139
21.9139
21.9139
21.9139
21.9139
21.9139
21.9139
21.9139
21.9139
21.9139
21.9139
21.9139
21.9139
21.9139
21.9139
21.9139
21.9139
21.9139
21.9139
21.9139
21.9139
21.9139
21.9139
21.9139
21.9139
21.9139
21.9139
21.9139
21.9139
21.9139
21.9139
21.9139
21.9139
21.9139
21.9139
21.9139
21.9139
21.9139
21.9139
21.9139
21.9139
21.9139
21.9139
21.9139
21.9139
21.9139
21.9139
21.9139
21.9139
21.9139
21.9139
21.9139
21.9139
21.9139
21.9139
21.9139
21.9139
21.9139
21.9139
21.9139
21.9139
21.9139
21.9139
21.9139
21.9139
21.9139
21.9139
21.9139
21.9139
21.9139
21.9139
21.9139
21.9139
21.9139
21.9139
21.9139
21.9139
21.9139
21.9139
21.9139
21.9139
21.9139
21.9139
21.9139
21.9139
21.9139
21.9139
21.9139
21.9139
21.9139
21.9139
21.9139
21.9139
21.9139
21.9139
21.9139
21.9139
21.9139
21.9139
21.9139
21.9139
21.9139
21.9139
21.9139
21.9139
21.9139
21.9139
21.9139
21.9139
21.9139
21.9139
21.9139
21.9139
21.9139
21.9139
21.9139
21.9139
21.9139
21.9139
21.9139
21.9139
21.9139
21.9139
21.9139
21.9139
21.9139
21.9139
21.9139
21.9139
21.9139
21.9139
21.9139
21.9139
21.9139
21.9139
21.9139
21.9139
21.9139
21.9139
21.9139
21.9139
21.9139
21.9139
21.9139
21.9139
21.9139
21.9139
21.9139
21.9139
21.9139
21.9139
21.9139
21.9139
21.9139
21.9139
21.9139
21.9139
21.9139
21.9139
21.9139
21.9139
21.9139
21.9139
21.9139
21.9139
21.9139
21.9139
21.9139
21.9139
21.9139
21.9139
21.9139
21.9139
21.9139
21.9139
21.9139
21.9139
21.9139
21.9139
21.9139
21.9139
21.9139
21.9139
21.9139
21.9139
21.9139
21.9139
21.9139
21.9139
21.9139
21.9139
21.9139
21.9139
21.9139
21.9139
21.9139
21.9139
21.9139
21.9139
21.9139
21.9139
21.9139
21.9139
21.914
21.914
21.9139
21.9139
21.9139
21.9139
21.9139
21.9139
21.9139
21.9139
21.9139
21.9139
21.9139
21.9139
21.9139
21.9139
21.9139
21.9139
21.9139
21.9139
21.9139
21.9139
21.9139
21.9139
21.9139
21.9139
21.9139
21.9139
21.9139
21.9139
21.9139
21.9139
21.9139
21.9139
21.9139
21.914
21.914
21.914
21.9141
21.9141
21.9142
21.9139
21.9139
21.9139
21.9139
21.9139
21.9139
21.9139
21.9139
21.9139
21.9139
21.9139
21.9139
21.9139
21.9139
21.9139
21.9139
21.9139
21.9139
21.9139
21.9139
21.9139
21.9139
21.9139
21.9139
21.9139
21.9139
21.9139
21.9139
21.9139
21.914
21.914
21.914
21.9141
21.9141
21.9142
21.9143
21.9144
21.9146
21.9149
21.9139
21.9139
21.9139
21.9139
21.9139
21.9139
21.9139
21.9139
21.9139
21.9139
21.9139
21.9139
21.9139
21.9139
21.9139
21.9139
21.9139
21.9139
21.9139
21.9139
21.9139
21.9139
21.9139
21.9139
21.9139
21.914
21.914
21.914
21.914
21.9141
21.9141
21.9142
21.9143
21.9144
21.9146
21.9149
21.9152
21.9157
21.9164
21.9173
21.9139
21.9139
21.9139
21.9139
21.9139
21.9139
21.9139
21.9139
21.9139
21.9139
21.9139
21.9139
21.9139
21.9139
21.9139
21.9139
21.9139
21.9139
21.9139
21.9139
21.9139
21.914
21.914
21.914
21.914
21.9141
21.9141
21.9142
21.9143
21.9145
21.9147
21.9149
21.9153
21.9158
21.9164
21.9173
21.9184
21.92
21.9222
21.9253
21.9139
21.9139
21.9139
21.9139
21.9139
21.9139
21.9139
21.9139
21.9139
21.9139
21.9139
21.9139
21.9139
21.9139
21.9139
21.9139
21.9139
21.914
21.914
21.914
21.914
21.9141
21.9142
21.9142
21.9143
21.9145
21.9147
21.915
21.9153
21.9158
21.9164
21.9173
21.9185
21.92
21.9221
21.9249
21.9287
21.9339
21.9409
21.951
21.9139
21.9139
21.9139
21.9139
21.9139
21.9139
21.9139
21.9139
21.9139
21.9139
21.9139
21.9139
21.914
21.914
21.914
21.914
21.9141
21.9141
21.9142
21.9143
21.9144
21.9145
21.9147
21.915
21.9154
21.9159
21.9165
21.9174
21.9186
21.9201
21.9222
21.925
21.9287
21.9337
21.9404
21.9495
21.9616
21.978
22.0003
22.0318
21.9139
21.9139
21.9139
21.9139
21.9139
21.9139
21.9139
21.9139
21.914
21.914
21.914
21.914
21.9141
21.9141
21.9142
21.9143
21.9144
21.9146
21.9148
21.9151
21.9154
21.9159
21.9166
21.9175
21.9187
21.9202
21.9223
21.9251
21.9288
21.9338
21.9404
21.9492
21.961
21.9768
21.9979
22.0261
22.0639
22.1148
22.1835
22.28
21.9139
21.9139
21.9139
21.9139
21.914
21.914
21.914
21.914
21.9141
21.9141
21.9142
21.9143
21.9144
21.9146
21.9148
21.9151
21.9155
21.9161
21.9167
21.9177
21.9189
21.9204
21.9226
21.9254
21.9291
21.934
21.9406
21.9493
21.9609
21.9763
21.9969
22.0242
22.0606
22.1092
22.1738
22.26
22.375
22.5288
22.7344
23.0192
21.914
21.914
21.914
21.9141
21.9141
21.9142
21.9143
21.9144
21.9145
21.9147
21.9149
21.9152
21.9157
21.9162
21.9169
21.9179
21.9191
21.9207
21.9229
21.9257
21.9295
21.9344
21.941
21.9496
21.9611
21.9763
21.9965
22.0232
22.0586
22.1056
22.1679
22.2506
22.3603
22.5057
22.6983
22.9532
23.2902
23.7364
24.3241
25.1214
21.9141
21.9141
21.9142
21.9143
21.9144
21.9146
21.9148
21.915
21.9154
21.9158
21.9164
21.9171
21.9181
21.9194
21.9211
21.9233
21.9262
21.93
21.9351
21.9417
21.9504
21.9618
21.9769
21.9969
22.0232
22.0579
22.1037
22.1642
22.2441
22.3497
22.489
22.6729
22.9151
23.2338
23.6523
24.2005
24.9163
25.8465
27.0531
28.6023
30.642
21.9145
21.9147
21.9149
21.9152
21.9155
21.916
21.9166
21.9174
21.9185
21.9198
21.9216
21.9239
21.9269
21.9309
21.936
21.9428
21.9516
21.9631
21.9783
21.9982
22.0243
22.0586
22.1036
22.1629
22.2407
22.3431
22.4776
22.6543
22.8862
23.1901
23.5876
24.1063
24.7809
25.6547
26.7803
28.2217
30.0573
32.3784
35.3028
38.9167
43.5696
21.9153
21.9158
21.9163
21.9169
21.9178
21.9189
21.9204
21.9223
21.9247
21.9279
21.932
21.9374
21.9443
21.9534
21.9652
21.9805
22.0006
22.0268
22.0611
22.1058
22.1644
22.241
22.3411
22.4721
22.6434
22.8672
23.1591
23.5393
24.0335
24.6739
25.5005
26.5623
27.9182
29.6385
31.8082
34.5257
37.8993
42.0485
47.1149
53.3761
61.0598
71.4268
21.9174
21.9183
21.9196
21.9211
21.9232
21.9258
21.9292
21.9335
21.9392
21.9464
21.9559
21.9681
21.9839
22.0044
22.031
22.0657
22.1107
22.1692
22.2453
22.3444
22.4733
22.641
22.8589
23.1419
23.5089
23.9836
24.5961
25.3838
26.3921
27.6755
29.2988
31.3399
33.8901
37.0525
40.9373
45.6666
51.4224
58.498
67.3
78.2154
91.5675
106.836
125.238
21.9243
21.9272
21.9308
21.9355
21.9416
21.9493
21.9592
21.972
21.9886
22.0098
22.0373
22.0728
22.1186
22.1779
22.2545
22.3537
22.4821
22.6481
22.8628
23.1401
23.4978
23.9583
24.5497
25.3068
26.2721
27.4963
29.0395
30.972
33.3791
36.3581
40.0141
44.4566
49.826
56.3552
64.4009
74.3877
86.6494
101.232
117.793
135.49
153.525
170.17
186.298
21.9382
21.9447
21.9531
21.9638
21.9774
21.9949
22.0173
22.046
22.0829
22.1303
22.1912
22.2694
22.3701
22.4996
22.6661
22.8802
23.1553
23.5081
23.9599
24.5371
25.2723
26.2054
27.3837
28.8631
30.7087
32.9977
35.8214
39.2801
43.4787
48.5309
54.6138
62.0262
71.1763
82.4639
96.0893
111.888
129.275
147.326
164.939
181.171
195.153
206.812
215.639
222.669
21.9697
21.9845
22.0034
22.0273
22.0579
22.0968
22.1465
22.21
22.2912
22.3948
22.5274
22.6968
22.9133
23.1898
23.5424
23.9913
24.5615
25.2838
26.1957
27.3418
28.7742
30.5533
32.7492
35.4469
38.7419
42.735
47.5262
53.2518
60.149
68.584
78.98
91.648
106.598
123.435
141.377
159.401
176.453
191.663
204.505
214.764
222.624
228.25
232.167
234.656
236.095
22.0406
22.0737
22.1155
22.1685
22.2358
22.3213
22.4298
22.5675
22.7425
22.9647
23.2467
23.604
24.0562
24.627
25.3458
26.248
27.3757
28.778
30.5111
32.6398
35.2412
38.4057
42.2299
46.8107
52.2542
58.7429
66.5893
76.2092
87.9794
102.051
118.204
135.823
153.984
171.637
187.829
201.862
213.397
222.425
229.133
233.876
237.03
238.94
239.935
240.25
240.216
239.953
22.1403
22.1978
22.2704
22.3619
22.4773
22.6228
22.8065
23.0381
23.3301
23.6978
24.1599
24.7395
25.4647
26.3691
27.493
28.8823
30.59
32.6764
35.211
38.2791
41.9737
46.3883
51.6124
57.7869
65.1684
74.1397
85.1102
98.3348
113.747
130.888
148.96
166.968
183.912
198.986
211.698
221.891
229.685
235.344
239.231
241.74
243.151
243.756
243.884
243.647
243.328
242.797
242.01
241.03
22.5406
22.697
22.893
23.1384
23.4457
23.8299
24.3095
24.9068
25.649
26.5685
27.7034
29.0977
30.8011
32.8697
35.3678
38.374
41.9772
46.2673
51.3294
57.27
64.2958
72.7478
83.0421
95.4999
110.176
126.755
144.571
162.71
180.178
196.096
209.844
221.138
229.985
236.588
241.263
244.392
246.29
247.261
247.572
247.478
247.213
246.745
246.104
245.192
244.107
242.814
241.359
239.639
23.0079
23.2723
23.6009
24.0089
24.5145
25.1396
25.9105
26.8587
28.0208
29.4387
31.1595
33.2356
35.7269
38.7052
42.2556
46.4654
51.4165
57.1917
63.9584
72.0158
81.7639
93.5639
107.561
123.561
141.017
159.11
176.887
193.437
208.053
220.328
230.158
237.684
243.156
246.931
249.362
250.734
251.3
251.389
251.138
250.777
250.229
249.402
248.419
247.224
245.83
244.285
242.612
240.892
239.223
237.43
24.7879
25.452
26.2648
27.2568
28.4635
29.9251
31.686
33.7954
36.3094
39.2943
42.8314
47.0049
51.8928
57.5651
64.1573
71.9311
81.2621
92.5328
105.947
121.404
138.457
156.382
174.289
191.267
206.557
219.655
230.365
238.738
244.989
249.416
252.378
254.174
255.064
255.319
255.184
254.889
254.389
253.716
252.758
251.659
250.383
248.921
247.299
245.601
243.887
242.181
240.482
238.778
237.14
235.397
29.056
30.5828
32.4079
34.5775
37.1446
40.1708
43.7342
47.9156
52.7884
58.4158
64.9076
72.4969
81.5364
92.4128
105.364
120.352
137.012
154.704
172.602
189.827
205.593
219.34
230.784
239.903
246.862
251.91
255.391
257.613
258.845
259.315
259.33
259.048
258.649
258.046
257.191
256.168
254.967
253.59
252.064
250.392
248.684
246.974
245.264
243.553
241.854
240.168
238.505
236.838
235.231
233.524
38.2701
41.3732
45.0032
49.2376
54.1445
59.7813
66.24
73.735
82.6019
93.2192
105.841
120.464
136.782
154.218
172.014
189.333
205.393
219.599
231.607
241.337
248.895
254.507
258.469
261.097
262.661
263.376
263.528
263.334
262.985
262.442
261.714
260.698
259.588
258.316
256.868
255.26
253.572
251.862
250.156
248.437
246.721
245.016
243.325
241.643
239.973
238.311
236.67
235.028
233.442
231.765
56.0134
61.7123
68.201
75.6864
84.4933
94.9864
107.419
121.8
137.851
155.045
172.68
189.971
206.158
220.634
233.027
243.207
251.238
257.314
261.69
264.676
266.542
267.503
267.816
267.724
267.392
266.931
266.254
265.351
264.279
263.066
261.7
260.187
258.528
256.833
255.131
253.42
251.698
249.979
248.271
246.572
244.881
243.197
241.522
239.857
238.204
236.561
234.939
233.309
231.73
230.061
87.2705
97.7757
110.163
124.429
140.303
157.286
174.728
191.893
208.057
222.625
235.215
245.669
254.021
260.434
265.136
268.416
270.538
271.726
272.197
272.197
271.914
271.493
270.879
270.07
268.998
267.865
266.579
265.142
263.544
261.872
260.178
258.484
256.764
255.04
253.322
251.613
249.909
248.208
246.514
244.827
243.147
241.474
239.814
238.163
236.522
234.885
233.266
231.635
230.063
228.412
144.224
161.035
178.262
195.219
211.225
225.712
238.311
248.857
257.361
263.969
268.891
272.38
274.7
276.068
276.673
276.766
276.536
276.136
275.587
274.814
273.837
272.715
271.483
270.112
268.605
266.962
265.286
263.603
261.903
260.183
258.46
256.745
255.035
253.327
251.62
249.918
248.221
246.528
244.841
243.163
241.492
239.831
238.175
236.525
234.884
233.246
231.636
230.02
228.471
226.85
215.75
229.99
242.415
252.867
261.354
268.007
273.023
276.622
279.059
280.545
281.263
281.43
281.253
280.875
280.36
279.637
278.707
277.607
276.431
275.119
273.683
272.086
270.437
268.769
267.097
265.386
263.667
261.951
260.242
258.531
256.82
255.11
253.403
251.699
249.997
248.298
246.605
244.92
243.241
241.566
239.895
238.231
236.571
234.921
233.292
231.668
230.082
228.486
226.958
225.363
266.051
272.597
277.574
281.179
283.647
285.186
285.975
286.19
286.053
285.689
285.199
284.516
283.62
282.56
281.403
280.145
278.751
277.238
275.616
273.968
272.313
270.63
268.925
267.213
265.508
263.8
262.091
260.38
258.67
256.961
255.251
253.543
251.836
250.132
248.434
246.741
245.051
243.363
241.68
240
238.326
236.664
235.017
233.381
231.774
230.164
228.6
227.024
225.517
223.92
288.476
290.002
290.806
291.038
290.92
290.572
290.098
289.441
288.578
287.526
286.402
285.188
283.844
282.389
280.792
279.179
277.546
275.901
274.209
272.508
270.81
269.115
267.413
265.706
263.998
262.29
260.58
258.869
257.157
255.444
253.734
252.026
250.322
248.621
246.92
245.22
243.525
241.83
240.145
238.471
236.809
235.16
233.534
231.906
230.322
228.734
227.176
225.591
224.11
222.538
295.841
295.503
295.036
294.392
293.546
292.514
291.406
290.227
288.929
287.512
285.963
284.381
282.78
281.16
279.493
277.813
276.13
274.45
272.76
271.063
269.364
267.663
265.959
264.251
262.54
260.828
259.114
257.4
255.686
253.976
252.266
250.555
248.843
247.135
245.426
243.721
242.027
240.34
238.665
237.004
235.356
233.715
232.115
230.497
228.91
227.321
225.793
224.21
222.755
221.233
298.505
297.492
296.394
295.243
293.982
292.603
291.101
289.548
287.98
286.389
284.759
283.102
281.44
279.776
278.107
276.428
274.742
273.052
271.36
269.663
267.96
266.254
264.544
262.831
261.117
259.401
257.687
255.973
254.256
252.537
250.819
249.1
247.381
245.669
243.965
242.265
240.583
238.906
237.242
235.59
233.97
232.318
230.718
229.108
227.543
225.944
224.465
222.918
221.491
220.006
298.982
297.638
296.183
294.658
293.123
291.567
289.978
288.346
286.708
285.07
283.427
281.769
280.102
278.43
276.756
275.075
273.387
271.692
269.993
268.29
266.582
264.871
263.157
261.444
259.729
258.009
256.286
254.563
252.838
251.109
249.385
247.668
245.954
244.248
242.556
240.86
239.189
237.526
235.875
234.204
232.595
230.951
229.36
227.751
226.237
224.668
223.213
221.696
220.292
218.835
298.186
296.665
295.117
293.516
291.909
290.3
288.689
287.057
285.415
283.767
282.116
280.456
278.788
277.113
275.431
273.743
272.049
270.349
268.646
266.938
265.229
263.517
261.799
260.077
258.353
256.625
254.892
253.161
251.436
249.71
247.991
246.28
244.574
242.87
241.194
239.512
237.832
236.157
234.522
232.851
231.245
229.622
228.076
226.487
224.998
223.452
222.018
220.524
219.145
217.714
297.011
295.437
293.858
292.26
290.649
289.031
287.407
285.775
284.133
282.482
280.824
279.158
277.484
275.804
274.116
272.424
270.726
269.026
267.321
265.609
263.891
262.17
260.445
258.712
256.979
255.249
253.52
251.789
250.072
248.351
246.637
244.931
243.246
241.532
239.849
238.164
236.498
234.811
233.195
231.549
229.979
228.369
226.848
225.277
223.805
222.284
220.871
219.4
218.045
216.642
297.344
295.769
294.186
292.595
290.996
289.387
287.766
286.137
284.499
282.852
281.197
279.534
277.863
276.186
274.502
272.816
271.122
269.419
267.71
265.997
264.278
262.551
260.82
259.093
257.362
255.631
253.904
252.184
250.452
248.742
247.034
245.325
243.599
241.917
240.205
238.524
236.825
235.199
233.532
231.941
230.308
228.765
227.163
225.659
224.113
222.66
221.159
219.77
218.326
216.994
215.619
296.088
294.515
292.93
291.336
289.732
288.118
286.494
284.862
283.219
281.569
279.912
278.246
276.576
274.898
273.21
271.515
269.813
268.106
266.388
264.665
262.943
261.221
259.489
257.766
256.043
254.313
252.587
250.884
249.156
247.434
245.714
244.014
242.284
240.593
238.896
237.249
235.561
233.956
232.308
230.732
229.109
227.582
226
224.514
222.989
221.559
220.08
218.715
217.298
215.991
214.642
296.388
294.823
293.247
291.66
290.063
288.456
286.838
285.213
283.58
281.937
280.288
278.629
276.96
275.281
273.598
271.906
270.202
268.491
266.784
265.071
263.348
261.628
259.916
258.183
256.462
254.751
253.034
251.291
249.58
247.853
246.133
244.397
242.71
241.003
239.333
237.645
236.021
234.345
232.749
231.118
229.553
227.946
226.437
224.878
223.411
221.908
220.5
219.046
217.703
216.314
215.031
213.707
295.106
293.539
291.961
290.373
288.776
287.17
285.554
283.929
282.294
280.647
278.991
277.329
275.657
273.97
272.279
270.59
268.893
267.18
265.475
263.773
262.052
260.33
258.632
256.913
255.179
253.455
251.741
249.998
248.275
246.545
244.855
243.134
241.459
239.771
238.113
236.432
234.823
233.162
231.571
229.96
228.409
226.824
225.331
223.795
222.346
220.867
219.481
218.054
216.733
215.37
214.113
212.813
293.805
292.239
290.664
289.078
287.48
285.871
284.253
282.623
280.985
279.336
277.673
276.007
274.341
272.661
270.969
269.281
267.595
265.887
264.179
262.489
260.785
259.052
257.342
255.623
253.891
252.156
250.435
248.718
247.009
245.295
243.617
241.912
240.239
238.566
236.917
235.248
233.649
232.008
230.423
228.836
227.3
225.738
224.259
222.75
221.319
219.866
218.5
217.101
215.801
214.465
213.232
211.957
292.491
290.923
289.346
287.758
286.158
284.547
282.925
281.293
279.654
278.013
276.357
274.689
273.025
271.357
269.671
267.98
266.305
264.617
262.903
261.198
259.495
257.766
256.043
254.318
252.606
250.887
249.179
247.477
245.779
244.074
242.401
240.712
239.042
237.385
235.746
234.092
232.5
230.886
229.311
227.745
226.223
224.688
223.222
221.742
220.327
218.903
217.554
216.186
214.905
213.598
212.387
211.137
291.147
289.579
287.998
286.409
284.81
283.202
281.588
279.962
278.323
276.683
275.041
273.38
271.713
270.057
268.39
266.699
265.009
263.321
261.611
259.896
258.185
256.475
254.765
253.056
251.356
249.651
247.949
246.255
244.566
242.871
241.205
239.53
237.869
236.228
234.599
232.965
231.381
229.791
228.23
226.685
225.179
223.671
222.219
220.767
219.37
217.974
216.642
215.305
214.042
212.765
211.575
210.349
289.776
288.212
286.636
285.052
283.459
281.853
280.242
278.627
276.997
275.357
273.724
272.083
270.421
268.751
267.083
265.396
263.699
262.003
260.307
258.608
256.911
255.215
253.517
251.817
250.123
248.428
246.733
245.048
243.369
241.687
240.028
238.369
236.72
235.092
233.478
231.865
230.292
228.724
227.179
225.656
224.166
222.684
221.248
219.824
218.445
217.078
215.764
214.457
213.211
211.963
210.793
209.591
288.396
286.837
285.266
283.686
282.101
280.505
278.896
277.29
275.678
274.048
272.403
270.759
269.101
267.427
265.751
264.075
262.394
260.713
259.031
257.344
255.657
253.968
252.279
250.588
248.901
247.216
245.532
243.857
242.188
240.521
238.873
237.228
235.594
233.981
232.381
230.789
229.23
227.683
226.157
224.654
223.183
221.727
220.309
218.911
217.551
216.212
214.916
213.638
212.411
211.191
210.039
208.86
285.457
283.895
282.319
280.743
279.162
277.566
275.951
274.334
272.708
271.062
269.41
267.758
266.102
264.441
262.78
261.112
259.441
257.767
256.089
254.41
252.729
251.049
249.368
247.69
246.016
244.344
242.681
241.024
239.372
237.736
236.108
234.49
232.893
231.309
229.737
228.194
226.668
225.161
223.68
222.229
220.798
219.399
218.026
216.687
215.374
214.099
212.846
211.639
210.446
209.312
208.155
284.077
282.528
280.966
279.384
277.798
276.203
274.589
272.966
271.341
269.713
268.078
266.441
264.797
263.148
261.494
259.836
258.173
256.507
254.838
253.168
251.497
249.827
248.158
246.491
244.829
243.171
241.52
239.877
238.241
236.619
235.006
233.407
231.826
230.259
228.708
227.183
225.677
224.192
222.733
221.301
219.895
218.518
217.168
215.851
214.563
213.31
212.081
210.893
209.725
208.611
207.475
282.698
281.144
279.582
278
276.409
274.814
273.216
271.61
270
268.384
266.761
265.132
263.497
261.856
260.211
258.561
256.907
255.251
253.593
251.933
250.274
248.615
246.958
245.304
243.655
242.011
240.375
238.746
237.126
235.519
233.924
232.343
230.78
229.232
227.701
226.195
224.711
223.248
221.81
220.4
219.017
217.663
216.337
215.042
213.776
212.546
211.342
210.173
209.028
207.933
206.817
279.736
278.171
276.605
275.029
273.449
271.863
270.268
268.667
267.06
265.445
263.824
262.197
260.566
258.929
257.289
255.646
254.001
252.354
250.706
249.059
247.413
245.769
244.129
242.494
240.864
239.243
237.631
236.028
234.437
232.86
231.298
229.754
228.225
226.715
225.23
223.767
222.327
220.912
219.524
218.163
216.833
215.531
214.258
213.015
211.806
210.624
209.477
208.353
207.277
206.178
278.336
276.785
275.23
273.665
272.094
270.515
268.928
267.335
265.735
264.129
262.517
260.899
259.278
257.652
256.023
254.391
252.757
251.122
249.487
247.853
246.22
244.59
242.965
241.344
239.731
238.126
236.53
234.945
233.372
231.813
230.271
228.747
227.239
225.751
224.287
222.845
221.428
220.037
218.671
217.334
216.026
214.747
213.497
212.278
211.089
209.93
208.803
207.699
206.641
205.559
276.954
275.412
273.862
272.305
270.74
269.168
267.589
266.003
264.412
262.815
261.212
259.605
257.994
256.379
254.761
253.141
251.52
249.898
248.276
246.655
245.037
243.422
241.811
240.207
238.61
237.022
235.444
233.878
232.324
230.784
229.262
227.759
226.273
224.807
223.364
221.946
220.551
219.183
217.841
216.527
215.242
213.985
212.759
211.561
210.394
209.256
208.149
207.064
206.024
204.96
275.577
274.04
272.496
270.945
269.387
267.823
266.252
264.675
263.092
261.505
259.912
258.316
256.715
255.112
253.506
251.898
250.289
248.68
247.072
245.466
243.863
242.263
240.669
239.081
237.501
235.931
234.372
232.825
231.292
229.773
228.271
226.789
225.325
223.882
222.462
221.067
219.695
218.35
217.032
215.741
214.479
213.246
212.041
210.866
209.72
208.602
207.514
206.447
205.428
204.386
274.203
272.672
271.134
269.59
268.039
266.482
264.92
263.351
261.778
260.2
258.618
257.032
255.443
253.851
252.257
250.662
249.066
247.471
245.878
244.286
242.698
241.115
239.538
237.968
236.406
234.854
233.315
231.787
230.274
228.777
227.297
225.837
224.396
222.976
221.58
220.207
218.86
217.538
216.244
214.977
213.737
212.527
211.345
210.191
209.065
207.967
206.897
205.853
204.856
203.83
272.837
271.311
269.779
268.241
266.697
265.148
263.594
262.034
260.47
258.902
257.33
255.754
254.176
252.596
251.015
249.433
247.851
246.27
244.692
243.116
241.544
239.977
238.417
236.866
235.323
233.791
232.271
230.765
229.273
227.798
226.341
224.903
223.485
222.089
220.716
219.368
218.044
216.746
215.475
214.232
213.015
211.827
210.667
209.534
208.428
207.349
206.303
205.282
204.3
203.285
271.478
269.958
268.432
266.9
265.364
263.822
262.275
260.724
259.169
257.611
256.049
254.484
252.917
251.35
249.781
248.212
246.645
245.078
243.515
241.955
240.4
238.851
237.309
235.776
234.253
232.741
231.242
229.757
228.287
226.835
225.4
223.986
222.592
221.22
219.871
218.546
217.247
215.973
214.726
213.506
212.312
211.146
210.007
208.894
207.809
206.754
205.73
204.723
203.755
202.755
268.615
267.095
265.569
264.039
262.504
260.965
259.422
257.876
256.327
254.776
253.222
251.667
250.111
248.556
247.001
245.447
243.895
242.348
240.804
239.266
237.735
236.212
234.699
233.196
231.705
230.227
228.764
227.317
225.888
224.477
223.086
221.716
220.368
219.044
217.744
216.468
215.219
213.995
212.798
211.627
210.483
209.364
208.274
207.213
206.18
205.169
204.177
203.225
202.242
267.284
265.768
264.248
262.724
261.196
259.665
258.13
256.593
255.053
253.512
251.969
250.426
248.882
247.34
245.798
244.259
242.723
241.191
239.665
238.145
236.632
235.128
233.635
232.152
230.683
229.227
227.786
226.362
224.956
223.569
222.203
220.857
219.534
218.234
216.959
215.708
214.482
213.282
212.108
210.959
209.836
208.741
207.674
206.635
205.616
204.621
203.647
202.712
201.745
265.965
264.454
262.939
261.421
259.9
258.375
256.849
255.32
253.789
252.258
250.726
249.195
247.663
246.134
244.606
243.082
241.562
240.046
238.537
237.035
235.541
234.057
232.584
231.123
229.675
228.241
226.824
225.423
224.041
222.678
221.336
220.015
218.717
217.442
216.191
214.964
213.763
212.586
211.434
210.308
209.209
208.138
207.092
206.067
205.066
204.09
203.133
202.214
201.262
263.153
261.643
260.13
258.615
257.098
255.579
254.058
252.537
251.016
249.495
247.974
246.456
244.939
243.426
241.917
240.412
238.913
237.422
235.938
234.464
233
231.547
230.107
228.681
227.271
225.877
224.5
223.142
221.804
220.486
219.19
217.917
216.667
215.44
214.238
213.06
211.906
210.777
209.675
208.601
207.55
206.52
205.514
204.532
203.574
202.634
201.731
200.793
261.867
260.361
258.853
257.344
255.833
254.322
252.81
251.297
249.786
248.275
246.767
245.26
243.757
242.258
240.764
239.275
237.794
236.32
234.855
233.4
231.956
230.525
229.107
227.703
226.316
224.945
223.592
222.259
220.945
219.652
218.382
217.133
215.908
214.706
213.527
212.373
211.242
210.139
209.062
208.007
206.973
205.963
204.977
204.013
203.072
202.148
201.26
200.338
259.094
257.591
256.087
254.583
253.078
251.574
250.071
248.569
247.069
245.572
244.078
242.589
241.104
239.625
238.152
236.688
235.232
233.786
232.35
230.927
229.517
228.121
226.74
225.376
224.029
222.7
221.391
220.103
218.835
217.589
216.366
215.165
213.987
212.833
211.702
210.597
209.518
208.461
207.424
206.412
205.422
204.454
203.508
202.584
201.676
200.803
199.895
257.843
256.345
254.846
253.348
251.85
250.354
248.86
247.367
245.878
244.392
242.911
241.434
239.964
238.5
237.044
235.596
234.158
232.731
231.316
229.913
228.524
227.15
225.793
224.452
223.129
221.824
220.54
219.276
218.034
216.813
215.614
214.437
213.284
212.154
211.049
209.969
208.91
207.872
206.857
205.865
204.894
203.945
203.016
202.108
201.216
200.358
199.465
255.116
253.622
252.129
250.639
249.15
247.664
246.181
244.702
243.228
241.758
240.295
238.839
237.391
235.951
234.52
233.101
231.692
230.297
228.915
227.548
226.196
224.861
223.543
222.244
220.965
219.705
218.466
217.248
216.052
214.877
213.726
212.597
211.493
210.412
209.352
208.313
207.297
206.304
205.331
204.38
203.448
202.537
201.646
200.77
199.926
199.049
253.904
252.415
250.928
249.444
247.962
246.485
245.011
243.542
242.079
240.622
239.172
237.73
236.297
234.874
233.46
232.059
230.67
229.294
227.933
226.587
225.258
223.945
222.651
221.376
220.12
218.885
217.671
216.477
215.306
214.156
213.029
211.926
210.846
209.786
208.748
207.732
206.737
205.764
204.811
203.878
202.965
202.071
201.197
200.337
199.509
198.646
252.712
251.227
249.746
248.267
246.793
245.323
243.859
242.4
240.948
239.503
238.067
236.639
235.221
233.813
232.417
231.034
229.664
228.308
226.967
225.643
224.336
223.046
221.775
220.524
219.292
218.081
216.891
215.722
214.575
213.451
212.349
211.27
210.211
209.173
208.158
207.163
206.19
205.237
204.303
203.39
202.496
201.619
200.761
199.915
199.1
198.249
251.539
250.059
248.582
247.11
245.642
244.181
242.725
241.276
239.835
238.402
236.979
235.565
234.162
232.77
231.391
230.026
228.675
227.339
226.019
224.716
223.43
222.163
220.916
219.688
218.48
217.293
216.127
214.983
213.86
212.761
211.683
210.625
209.589
208.574
207.581
206.608
205.656
204.724
203.81
202.915
202.037
201.176
200.332
199.5
198.696
197.861
250.387
248.911
247.439
245.972
244.511
243.057
241.61
240.172
238.741
237.32
235.909
234.509
233.121
231.746
230.383
229.036
227.703
226.387
225.087
223.805
222.542
221.297
220.072
218.867
217.683
216.52
215.378
214.258
213.16
212.084
211.029
209.994
208.981
207.99
207.019
206.068
205.136
204.222
203.326
202.448
201.586
200.739
199.911
199.095
198.307
197.487
249.257
247.783
246.316
244.855
243.401
241.954
240.516
239.086
237.667
236.257
234.859
233.473
232.099
230.739
229.394
228.064
226.75
225.453
224.173
222.912
221.67
220.447
219.245
218.063
216.902
215.763
214.645
213.549
212.474
211.421
210.389
209.378
208.388
207.418
206.468
205.537
204.624
203.728
202.85
201.989
201.144
200.315
199.503
198.703
197.929
197.125
248.148
246.678
245.215
243.759
242.311
240.872
239.442
238.022
236.612
235.214
233.828
232.455
231.096
229.752
228.423
227.11
225.814
224.536
223.277
222.036
220.815
219.614
218.434
217.275
216.137
215.021
213.927
212.854
211.802
210.772
209.763
208.774
207.806
206.857
205.926
205.014
204.12
203.244
202.385
201.542
200.715
199.903
199.107
198.322
197.562
196.772
245.595
244.136
242.685
241.243
239.811
238.389
236.978
235.578
234.191
232.818
231.458
230.113
228.784
227.471
226.175
224.898
223.638
222.398
221.177
219.977
218.798
217.639
216.503
215.387
214.294
213.222
212.172
211.143
210.135
209.148
208.18
207.233
206.304
205.394
204.503
203.629
202.772
201.931
201.106
200.296
199.501
198.72
197.95
197.204
196.429
244.535
243.079
241.633
240.197
238.771
237.357
235.955
234.565
233.189
231.828
230.481
229.15
227.836
226.539
225.26
223.999
222.758
221.537
220.336
219.156
217.998
216.861
215.746
214.652
213.581
212.531
211.503
210.496
209.509
208.544
207.598
206.671
205.764
204.875
204.003
203.149
202.311
201.488
200.68
199.887
199.108
198.342
197.588
196.855
196.096
243.498
242.046
240.604
239.173
237.754
236.348
234.954
233.574
232.209
230.858
229.524
228.207
226.907
225.625
224.363
223.119
221.896
220.694
219.512
218.352
217.214
216.098
215.004
213.932
212.882
211.853
210.847
209.861
208.896
207.952
207.027
206.122
205.235
204.366
203.514
202.678
201.858
201.054
200.263
199.487
198.723
197.973
197.234
196.516
195.772
241.035
239.598
238.173
236.76
235.36
233.975
232.604
231.249
229.91
228.588
227.284
225.998
224.732
223.485
222.258
221.052
219.868
218.705
217.565
216.446
215.35
214.277
213.225
212.196
211.189
210.203
209.239
208.295
207.372
206.468
205.583
204.716
203.867
203.034
202.217