/*--------------------------------*- C++ -*----------------------------------*\
| =========                 |                                                 |
| \\      /  F ield         | OpenFOAM: The Open Source CFD Toolbox           |
|  \\    /   O peration     | Version:  v1706                                 |
|   \\  /    A nd           | Web:      www.OpenFOAM.com                      |
|    \\/     M anipulation  |                                                 |
\*---------------------------------------------------------------------------*/
FoamFile
{
    version     2.0;
    format      ascii;
    class       volScalarField;
    location    "1.9e-05";
    object      Tt;
}
// * * * * * * * * * * * * * * * * * * * * * * * * * * * * * * * * * * * * * //

dimensions      [0 0 0 1 0 0 0];


internalField   nonuniform List<scalar> 
30038
(
144.4
144.4
144.4
144.4
144.4
144.4
144.4
144.4
144.4
144.4
144.4
144.4
144.4
144.4
144.4
144.4
144.4
144.4
144.4
144.4
144.4
144.4
144.4
144.4
144.4
144.4
144.4
144.4
144.4
144.4
144.4
144.4
144.4
144.4
144.4
144.4
144.4
144.4
144.4
144.4
144.4
144.4
144.4
144.4
144.4
144.4
144.4
144.4
144.4
144.4
144.4
144.4
144.4
144.4
144.4
144.4
144.4
144.4
144.4
144.4
144.4
144.4
144.4
144.4
144.4
144.4
144.4
144.4
144.4
144.4
144.4
144.4
144.4
144.4
144.4
144.4
144.4
144.4
144.4
144.4
144.4
144.4
144.4
144.4
144.4
144.4
144.4
144.4
144.4
144.4
144.4
144.4
144.4
144.4
144.4
144.4
144.4
144.4
144.4
144.4
144.4
144.4
144.4
144.4
144.4
144.4
144.4
144.4
144.4
144.4
144.4
144.4
144.4
144.4
144.4
144.4
144.4
144.4
144.4
144.4
144.4
144.4
144.4
144.4
144.4
144.4
144.4
144.4
144.4
144.4
144.4
144.4
144.4
144.4
144.4
144.4
144.4
144.4
144.4
144.4
144.4
144.4
144.4
144.4
144.4
144.4
144.4
144.4
144.4
144.4
144.4
144.4
144.4
144.4
144.4
144.4
144.4
144.4
144.4
144.4
144.4
144.4
144.4
144.4
144.4
144.4
144.4
144.4
144.4
144.4
144.4
144.4
144.4
144.4
144.4
144.4
144.4
144.4
144.4
144.4
144.4
144.4
144.4
144.4
144.4
144.4
144.4
144.4
144.4
144.4
144.4
144.4
144.4
144.4
144.4
144.4
144.4
144.4
144.4
144.4
144.4
144.4
144.4
144.4
144.4
144.4
144.4
144.4
144.4
144.4
144.4
144.4
144.4
144.4
144.4
144.4
144.4
144.4
144.4
144.4
144.4
144.4
144.4
144.4
144.4
144.4
144.4
144.4
144.4
144.4
144.4
144.4
144.4
144.4
144.4
144.4
144.4
144.4
144.4
144.4
144.4
144.4
144.4
144.4
144.4
144.4
144.4
144.4
144.4
144.4
144.4
144.4
144.4
144.4
144.4
144.4
144.4
144.4
144.4
144.4
144.4
144.4
144.4
144.4
144.4
144.4
144.4
144.4
144.4
144.4
144.4
144.4
144.4
144.4
144.4
144.4
144.4
144.4
144.4
144.4
144.4
144.4
144.4
144.4
144.4
144.4
144.4
144.4
144.4
144.4
144.4
144.4
144.4
144.4
144.4
144.4
144.4
144.4
144.4
144.4
144.4
144.4
144.4
144.4
144.4
144.4
144.4
144.4
144.4
144.4
144.4
144.4
144.4
144.4
144.4
144.4
144.4
144.4
144.4
144.4
144.4
144.4
144.4
144.4
144.4
144.4
144.4
144.4
144.4
144.4
144.4
144.4
144.4
144.4
144.4
144.4
144.4
144.4
144.4
144.4
144.4
144.4
144.4
144.4
144.4
144.4
144.4
144.4
144.4
144.4
144.4
144.4
144.4
144.4
144.4
144.4
144.4
144.4
144.4
144.4
144.4
144.4
144.4
144.4
144.4
144.4
144.4
144.4
144.4
144.4
144.4
144.4
144.4
144.4
144.4
144.4
144.4
144.4
144.401
144.401
144.401
144.402
144.4
144.4
144.4
144.4
144.4
144.4
144.4
144.4
144.4
144.4
144.4
144.4
144.4
144.4
144.4
144.4
144.4
144.4
144.4
144.4
144.4
144.4
144.4
144.4
144.4
144.4
144.4
144.4
144.4
144.4
144.4
144.401
144.401
144.401
144.402
144.402
144.403
144.404
144.405
144.4
144.4
144.4
144.4
144.4
144.4
144.4
144.4
144.4
144.4
144.4
144.4
144.4
144.4
144.4
144.4
144.4
144.4
144.4
144.4
144.4
144.4
144.4
144.4
144.4
144.4
144.4
144.4
144.401
144.401
144.401
144.402
144.402
144.403
144.404
144.405
144.407
144.41
144.413
144.418
144.4
144.4
144.4
144.4
144.4
144.4
144.4
144.4
144.4
144.4
144.4
144.4
144.4
144.4
144.4
144.4
144.4
144.4
144.4
144.4
144.4
144.4
144.4
144.401
144.401
144.401
144.401
144.402
144.402
144.403
144.404
144.405
144.407
144.41
144.413
144.418
144.424
144.433
144.444
144.461
144.4
144.4
144.4
144.4
144.4
144.4
144.4
144.4
144.4
144.4
144.4
144.4
144.4
144.4
144.4
144.4
144.4
144.4
144.4
144.401
144.401
144.401
144.401
144.402
144.402
144.403
144.404
144.406
144.408
144.41
144.414
144.418
144.424
144.433
144.444
144.459
144.479
144.507
144.544
144.597
144.4
144.4
144.4
144.4
144.4
144.4
144.4
144.4
144.4
144.4
144.4
144.4
144.4
144.4
144.4
144.401
144.401
144.401
144.401
144.402
144.403
144.403
144.404
144.406
144.408
144.411
144.414
144.419
144.425
144.433
144.444
144.459
144.479
144.506
144.542
144.59
144.654
144.741
144.86
145.026
144.4
144.4
144.4
144.4
144.4
144.4
144.4
144.4
144.4
144.4
144.401
144.401
144.401
144.401
144.402
144.402
144.403
144.404
144.405
144.406
144.408
144.411
144.415
144.419
144.426
144.434
144.445
144.46
144.48
144.506
144.542
144.589
144.652
144.736
144.848
144.998
145.199
145.469
145.835
146.34
144.4
144.4
144.4
144.4
144.4
144.4
144.401
144.401
144.401
144.401
144.402
144.402
144.403
144.404
144.405
144.407
144.409
144.412
144.415
144.42
144.427
144.435
144.446
144.461
144.481
144.508
144.543
144.589
144.651
144.734
144.843
144.989
145.183
145.441
145.784
146.241
146.85
147.661
148.746
150.216
144.4
144.401
144.401
144.401
144.401
144.401
144.402
144.403
144.403
144.404
144.406
144.407
144.409
144.412
144.416
144.421
144.428
144.437
144.448
144.464
144.484
144.51
144.545
144.592
144.653
144.734
144.842
144.985
145.174
145.424
145.756
146.195
146.777
147.545
148.559
149.896
151.653
153.958
156.978
160.938
144.401
144.401
144.402
144.402
144.403
144.404
144.405
144.406
144.408
144.41
144.413
144.418
144.423
144.43
144.439
144.451
144.466
144.487
144.514
144.549
144.596
144.658
144.738
144.845
144.986
145.171
145.416
145.739
146.164
146.725
147.463
148.434
149.707
151.373
153.544
156.359
159.988
164.63
170.515
177.904
187.059
144.403
144.404
144.405
144.407
144.409
144.411
144.415
144.419
144.425
144.432
144.442
144.454
144.47
144.492
144.519
144.556
144.603
144.665
144.747
144.853
144.993
145.177
145.418
145.735
146.15
146.695
147.41
148.345
149.567
151.16
153.229
155.904
159.341
163.723
169.257
176.165
184.673
194.987
207.273
221.637
238
144.408
144.41
144.413
144.417
144.421
144.427
144.435
144.445
144.459
144.476
144.498
144.527
144.564
144.613
144.677
144.759
144.867
145.008
145.192
145.432
145.746
146.155
146.69
147.387
148.296
149.479
151.013
152.999
155.557
158.833
163.001
168.256
174.806
182.869
192.642
204.282
217.873
233.402
250.719
269.576
289.544
310.05
144.419
144.424
144.431
144.439
144.45
144.465
144.483
144.506
144.537
144.576
144.627
144.693
144.778
144.889
145.032
145.219
145.461
145.775
146.183
146.713
147.4
148.292
149.447
150.939
152.86
155.326
158.472
162.463
167.481
173.726
181.405
190.713
201.812
214.801
229.691
246.369
264.603
284.031
304.091
324.001
342.85
359.76
374.467
144.457
144.472
144.492
144.518
144.55
144.592
144.646
144.715
144.804
144.919
145.068
145.259
145.506
145.825
146.236
146.768
147.454
148.339
149.479
150.945
152.823
155.222
158.271
162.122
166.949
172.943
180.298
189.204
199.825
212.272
226.572
242.658
260.332
279.293
299.089
319.059
338.343
356.042
371.459
384.244
394.462
402.295
408.401
144.532
144.568
144.613
144.671
144.745
144.84
144.961
145.117
145.316
145.572
145.9
146.321
146.862
147.556
148.445
149.585
151.041
152.898
155.258
158.242
161.995
166.681
172.478
179.574
188.148
198.362
210.334
224.108
239.636
256.765
275.232
294.675
314.54
334.085
352.437
368.806
382.691
393.956
402.757
409.435
414.359
417.971
420.526
422.444
144.704
144.785
144.887
145.017
145.183
145.394
145.662
146.005
146.443
147.001
147.713
148.62
149.774
151.241
153.1
155.449
158.405
162.102
166.696
172.356
179.259
187.576
197.46
209.032
222.349
237.38
253.999
271.978
291.006
310.641
330.243
349.017
366.145
381.006
393.308
403.091
410.614
416.24
420.355
423.311
425.413
426.877
427.922
428.635
429.124
145.091
145.27
145.497
145.785
146.149
146.611
147.196
147.937
148.875
150.062
151.561
153.448
155.818
158.782
162.468
167.024
172.608
179.387
187.524
197.163
208.419
221.355
235.958
252.117
269.638
288.24
307.557
327.059
346.041
363.709
379.37
392.604
403.32
411.689
418.031
422.717
426.109
428.528
430.226
431.408
432.226
432.755
433.08
433.269
433.376
433.35
145.635
145.948
146.341
146.836
147.46
148.244
149.23
150.469
152.023
153.967
156.392
159.404
163.127
167.7
173.272
179.999
188.035
197.515
208.543
221.185
235.437
251.206
268.311
286.5
305.457
324.749
343.758
361.751
378.013
392.027
403.581
412.751
419.797
425.063
428.91
431.668
433.614
434.968
435.901
436.528
436.915
437.126
437.257
437.233
437.159
436.978
436.685
436.331
147.81
148.654
149.708
151.022
152.658
154.691
157.209
160.313
164.124
168.772
174.399
181.15
189.166
198.574
209.467
221.904
235.888
251.337
268.08
285.891
304.481
323.486
342.386
360.516
377.173
391.787
404.047
413.93
421.631
427.46
431.76
434.867
437.071
438.608
439.662
440.379
440.824
441.082
441.21
441.25
441.191
441.039
440.796
440.453
440.042
439.553
438.994
438.385
150.34
151.757
153.508
155.666
158.318
161.565
165.518
170.305
176.056
182.908
190.989
200.413
211.263
223.586
237.386
252.59
269.037
286.51
304.744
323.425
342.116
360.221
377.079
392.099
404.902
415.378
423.653
429.994
434.723
438.167
440.626
442.348
443.531
444.328
444.842
445.142
445.278
445.339
445.28
445.166
444.96
444.647
444.274
443.826
443.307
442.732
442.114
441.466
440.785
440.051
159.788
163.23
167.388
172.381
178.331
185.363
193.594
203.122
214.019
226.32
240.021
255.055
271.27
288.446
306.347
324.688
343.098
361.052
377.939
393.174
406.339
417.258
425.994
432.766
437.872
441.625
444.323
446.223
447.531
448.407
448.979
449.311
449.472
449.515
449.481
449.381
449.186
448.911
448.546
448.131
447.653
447.11
446.521
445.904
445.26
444.578
443.848
443.067
442.233
441.326
181.335
188.63
197.096
206.816
217.847
230.21
243.893
258.828
274.865
291.79
309.38
327.376
345.454
363.159
379.926
395.196
408.536
419.73
428.787
435.885
441.292
445.303
448.208
450.264
451.684
452.634
453.251
453.619
453.798
453.827
453.798
453.684
453.508
453.246
452.897
452.499
452.043
451.525
450.959
450.359
449.741
449.096
448.412
447.684
446.91
446.084
445.196
444.238
443.213
442.094
222.876
235.379
249.116
264.013
279.922
296.63
313.927
331.575
349.286
366.659
383.176
398.313
411.646
422.937
432.161
439.458
445.068
449.266
452.327
454.508
456.019
457.03
457.682
458.078
458.262
458.287
458.232
458.12
457.94
457.677
457.345
456.936
456.496
456
455.449
454.861
454.254
453.629
452.975
452.284
451.556
450.785
449.965
449.087
448.145
447.136
446.053
444.888
443.654
442.339
286.539
303.052
320.062
337.352
354.661
371.63
387.782
402.636
415.786
426.996
436.221
443.576
449.275
453.572
456.728
458.988
460.561
461.611
462.286
462.689
462.879
462.893
462.812
462.692
462.486
462.224
461.885
461.482
461.038
460.548
460.007
459.424
458.817
458.201
457.566
456.899
456.199
455.466
454.695
453.875
453.003
452.071
451.077
450.015
448.876
447.661
446.386
445.034
443.599
442.057
361.621
378.115
393.797
408.224
421.025
431.98
441.04
448.306
453.971
458.27
461.447
463.732
465.327
466.391
467.07
467.468
467.656
467.647
467.548
467.389
467.169
466.891
466.541
466.138
465.67
465.182
464.646
464.065
463.456
462.836
462.204
461.55
460.867
460.158
459.418
458.64
457.817
456.946
456.021
455.036
453.991
452.872
451.681
450.424
449.103
447.703
446.22
444.646
442.979
441.187
427.384
437.916
446.65
453.682
459.189
463.389
466.507
468.757
470.328
471.376
472.039
472.417
472.585
472.551
472.428
472.227
471.985
471.68
471.318
470.893
470.421
469.915
469.373
468.789
468.173
467.541
466.907
466.257
465.582
464.882
464.16
463.409
462.621
461.792
460.918
459.996
459.017
457.98
456.878
455.707
454.466
453.169
451.801
450.353
448.823
447.206
445.491
443.674
441.761
439.719
464.93
468.931
471.91
474.064
475.565
476.564
477.187
477.529
477.659
477.601
477.443
477.202
476.931
476.594
476.21
475.763
475.272
474.746
474.194
473.601
472.977
472.331
471.684
471.028
470.354
469.656
468.941
468.204
467.439
466.639
465.8
464.922
463.998
463.021
461.989
460.899
459.742
458.519
457.238
455.894
454.476
452.983
451.408
449.742
447.982
446.127
444.176
442.12
439.967
437.684
481.024
481.942
482.502
482.791
482.867
482.78
482.583
482.304
481.988
481.621
481.21
480.739
480.224
479.681
479.108
478.501
477.861
477.204
476.539
475.871
475.191
474.49
473.773
473.04
472.287
471.503
470.689
469.84
468.953
468.024
467.046
466.017
464.934
463.788
462.579
461.31
459.987
458.595
457.13
455.591
453.97
452.257
450.455
448.56
446.571
444.483
442.301
440.016
437.637
435.137
488.191
488.068
487.827
487.507
487.147
486.748
486.308
485.811
485.269
484.698
484.106
483.484
482.828
482.153
481.467
480.786
480.093
479.386
478.661
477.925
477.174
476.4
475.598
474.768
473.907
473.01
472.073
471.091
470.061
468.981
467.843
466.645
465.386
464.078
462.708
461.268
459.759
458.174
456.505
454.748
452.905
450.971
448.945
446.825
444.614
442.305
439.909
437.419
434.844
432.143
492.386
491.956
491.485
490.959
490.388
489.79
489.178
488.538
487.865
487.168
486.465
485.766
485.06
484.34
483.604
482.86
482.105
481.334
480.537
479.717
478.871
477.996
477.087
476.14
475.152
474.119
473.039
471.906
470.715
469.467
468.17
466.816
465.397
463.913
462.359
460.727
459.012
457.214
455.33
453.359
451.298
449.147
446.908
444.574
442.16
439.656
437.069
434.388
431.628
428.75
495.561
494.939
494.305
493.646
492.953
492.238
491.516
490.8
490.078
489.343
488.595
487.84
487.078
486.302
485.506
484.689
483.852
482.991
482.1
481.177
480.219
479.224
478.186
477.103
475.971
474.785
473.545
472.257
470.917
469.516
468.053
466.525
464.926
463.246
461.488
459.649
457.727
455.719
453.626
451.446
449.179
446.824
444.392
441.872
439.27
436.582
433.821
430.965
428.055
425.028
498.074
497.341
496.604
495.869
495.132
494.383
493.622
492.855
492.083
491.3
490.501
489.683
488.848
487.993
487.114
486.208
485.271
484.302
483.298
482.253
481.166
480.034
478.851
477.617
476.335
475.006
473.62
472.175
470.669
469.097
467.45
465.728
463.93
462.052
460.092
458.05
455.927
453.717
451.426
449.052
446.603
444.064
441.452
438.755
435.987
433.131
430.224
427.226
424.192
421.053
500.204
499.441
498.668
497.888
497.106
496.315
495.51
494.688
493.852
493
492.128
491.232
490.309
489.359
488.379
487.364
486.312
485.22
484.086
482.904
481.674
480.398
479.078
477.705
476.275
474.789
473.24
471.622
469.931
468.169
466.331
464.416
462.422
460.348
458.195
455.958
453.646
451.255
448.787
446.234
443.611
440.905
438.13
435.275
432.365
429.373
426.351
423.247
420.119
416.904
502.129
501.33
500.519
499.692
498.853
498.001
497.132
496.242
495.329
494.392
493.43
492.438
491.413
490.353
489.256
488.119
486.936
485.708
484.438
483.126
481.763
480.346
478.877
477.35
475.756
474.094
472.364
470.563
468.688
466.737
464.711
462.608
460.427
458.167
455.836
453.426
450.941
448.377
445.744
443.029
440.25
437.394
434.481
431.495
428.479
425.387
422.275
419.1
415.916
412.663
504.677
503.835
502.982
502.114
501.227
500.321
499.394
498.444
497.469
496.466
495.431
494.363
493.262
492.12
490.936
489.71
488.445
487.14
485.786
484.382
482.928
481.419
479.848
478.211
476.51
474.742
472.904
470.994
469.011
466.955
464.824
462.618
460.339
457.991
455.561
453.063
450.488
447.845
445.123
442.342
439.485
436.575
433.593
430.581
427.5
424.399
421.24
418.075
414.865
411.66
408.407
506.174
505.272
504.352
503.413
502.451
501.464
500.449
499.406
498.331
497.224
496.078
494.892
493.668
492.409
491.11
489.764
488.371
486.932
485.439
483.888
482.275
480.601
478.863
477.059
475.186
473.244
471.231
469.149
466.99
464.766
462.469
460.101
457.657
455.148
452.562
449.911
447.185
444.401
441.545
438.639
435.664
432.657
429.585
426.495
423.352
420.199
417.007
413.824
410.614
407.425
404.208
508.322
507.37
506.397
505.399
504.375
503.324
502.244
501.13
499.98
498.794
497.574
496.32
495.025
493.685
492.305
490.879
489.402
487.868
486.277
484.628
482.918
481.144
479.307
477.402
475.432
473.393
471.284
469.106
466.864
464.548
462.164
459.709
457.189
454.594
451.937
449.209
446.425
443.57
440.668
437.705
434.702
431.641
428.565
425.433
422.295
419.121
415.952
412.76
409.592
406.417
403.278
400.129
509.263
508.231
507.174
506.087
504.967
503.815
502.629
501.414
500.164
498.874
497.543
496.173
494.759
493.296
491.778
490.207
488.582
486.897
485.154
483.35
481.481
479.549
477.553
475.487
473.358
471.164
468.903
466.571
464.176
461.71
459.181
456.579
453.919
451.19
448.405
445.557
442.662
439.706
436.711
433.667
430.599
427.484
424.362
421.204
418.05
414.877
411.724
408.565
405.444
402.334
399.276
396.226
509.849
508.725
507.572
506.39
505.178
503.931
502.645
501.324
499.964
498.561
497.11
495.609
494.058
492.454
490.794
489.079
487.305
485.47
483.575
481.619
479.597
477.511
475.367
473.155
470.877
468.535
466.129
463.655
461.117
458.513
455.851
453.122
450.34
447.499
444.609
441.667
438.685
435.652
432.597
429.503
426.394
423.254
420.118
416.962
413.824
410.683
407.575
404.48
401.435
398.419
395.467
392.541
510.067
508.856
507.611
506.332
505.02
503.67
502.277
500.837
499.351
497.818
496.235
494.598
492.909
491.165
489.362
487.502
485.584
483.603
481.561
479.461
477.299
475.071
472.784
470.432
468.016
465.536
462.994
460.389
457.725
455.001
452.226
449.392
446.511
443.582
440.611
437.597
434.558
431.48
428.386
425.27
422.148
419.013
415.891
412.769
409.674
406.595
403.559
400.554
397.611
394.712
391.89
389.109
509.928
508.624
507.281
505.896
504.468
502.997
501.481
499.917
498.303
496.638
494.922
493.15
491.323
489.441
487.499
485.499
483.443
481.327
479.149
476.912
474.615
472.254
469.832
467.348
464.805
462.201
459.54
456.823
454.053
451.229
448.361
445.445
442.489
439.496
436.469
433.411
430.34
427.243
424.139
421.028
417.922
414.819
411.74
408.677
405.652
402.659
399.721
396.829
394.009
391.248
388.571
385.95
509.413
507.997
506.541
505.04
503.494
501.901
500.26
498.569
496.827
495.032
493.183
491.279
489.319
487.304
485.233
483.103
480.916
478.67
476.364
473.997
471.572
469.087
466.544
463.943
461.288
458.579
455.818
453.009
450.153
447.252
444.314
441.339
438.332
435.299
432.244
429.169
426.089
422.999
419.912
416.832
413.769
410.724
407.712
404.733
401.801
398.916
396.095
393.335
390.654
388.045
385.528
383.078
508.491
506.962
505.389
503.77
502.104
500.389
498.623
496.807
494.938
493.016
491.041
489.013
486.928
484.788
482.592
480.339
478.027
475.657
473.23
470.746
468.207
465.612
462.965
460.265
457.517
454.721
451.881
449
446.08
443.125
440.141
437.129
434.096
431.049
427.989
424.922
421.859
418.801
415.756
412.732
409.735
406.77
403.848
400.972
398.154
395.395
392.708
390.094
387.565
385.118
382.767
380.493
505.524
503.834
502.096
500.31
498.474
496.588
494.65
492.662
490.621
488.527
486.378
484.175
481.916
479.601
477.23
474.804
472.324
469.79
467.203
464.565
461.878
459.144
456.364
453.542
450.68
447.781
444.85
441.888
438.901
435.894
432.871
429.836
426.796
423.756
420.721
417.7
414.696
411.716
408.768
405.859
402.994
400.181
397.426
394.736
392.117
389.576
387.117
384.747
382.468
380.287
378.19
503.693
501.888
500.034
498.133
496.182
494.182
492.13
490.027
487.872
485.662
483.399
481.083
478.713
476.29
473.815
471.289
468.712
466.087
463.414
460.695
457.934
455.131
452.291
449.415
446.507
443.571
440.611
437.63
434.633
431.627
428.613
425.599
422.591
419.593
416.611
413.653
410.723
407.829
404.977
402.173
399.423
396.735
394.113
391.564
389.093
386.707
384.407
382.202
380.091
378.081
376.152
501.49
499.575
497.612
495.6
493.54
491.43
489.268
487.054
484.79
482.474
480.106
477.688
475.22
472.703
470.138
467.526
464.869
462.168
459.426
456.645
453.827
450.976
448.094
445.185
442.252
439.3
436.333
433.354
430.37
427.384
424.403
421.431
418.475
415.539
412.63
409.754
406.917
404.125
401.384
398.7
396.078
393.526
391.046
388.645
386.328
384.101
381.962
379.92
377.974
376.128
374.367
496.921
494.853
492.735
490.569
488.353
486.087
483.773
481.409
478.997
476.538
474.031
471.479
468.882
466.242
463.56
460.839
458.081
455.288
452.462
449.608
446.727
443.823
440.901
437.964
435.016
432.062
429.107
426.154
423.211
420.281
417.37
414.485
411.629
408.81
406.032
403.303
400.626
398.008
395.454
392.97
390.56
388.229
385.98
383.819
381.748
379.77
377.888
376.101
374.413
372.808
493.948
491.778
489.56
487.295
484.983
482.625
480.22
477.77
475.275
472.736
470.155
467.533
464.872
462.173
459.438
456.67
453.872
451.045
448.194
445.321
442.43
439.524
436.608
433.686
430.762
427.841
424.927
422.026
419.143
416.282
413.449
410.651
407.891
405.175
402.509
399.897
397.347
394.861
392.445
390.103
387.84
385.658
383.563
381.555
379.639
377.816
376.087
374.452
372.912
371.452
490.681
488.417
486.109
483.756
481.359
478.919
476.436
473.912
471.348
468.744
466.103
463.427
460.717
457.975
455.204
452.407
449.586
446.744
443.885
441.012
438.128
435.239
432.348
429.459
426.577
423.706
420.852
418.018
415.211
412.434
409.694
406.996
404.344
401.742
399.197
396.713
394.295
391.947
389.672
387.475
385.359
383.327
381.381
379.524
377.757
376.081
374.497
373.003
371.599
370.272
487.154
484.807
482.419
479.989
477.519
475.009
472.462
469.877
467.258
464.604
461.918
459.203
456.46
453.692
450.902
448.092
445.265
442.425
439.576
436.72
433.863
431.007
428.158
425.319
422.494
419.69
416.909
414.158
411.44
408.76
406.124
403.536
401.001
398.522
396.105
393.754
391.473
389.264
387.132
385.079
383.108
381.222
379.421
377.707
376.081
374.543
373.093
371.729
370.448
369.239
483.404
480.985
478.528
476.033
473.503
470.937
468.338
465.707
463.046
460.357
457.642
454.903
452.144
449.366
446.572
443.766
440.95
438.129
435.306
432.484
429.668
426.861
424.069
421.294
418.542
415.817
413.124
410.466
407.849
405.276
402.753
400.283
397.871
395.52
393.235
391.019
388.875
386.806
384.814
382.903
381.073
379.326
377.663
376.084
374.59
373.179
371.852
370.604
369.433
368.33
479.468
476.988
474.475
471.928
469.349
466.741
464.104
461.441
458.754
456.044
453.315
450.568
447.807
445.034
442.252
439.466
436.677
433.889
431.107
428.334
425.574
422.83
420.108
417.411
414.743
412.109
409.512
406.958
404.449
401.991
399.587
397.241
394.956
392.735
390.583
388.502
386.494
384.561
382.707
380.931
379.235
377.62
376.086
374.633
373.26
371.965
370.747
369.603
368.532
367.521
475.384
472.855
470.297
467.71
465.098
462.46
459.799
457.118
454.418
451.703
448.973
446.233
443.486
440.733
437.978
435.225
432.477
429.737
427.01
424.298
421.606
418.937
416.296
413.687
411.113
408.579
406.087
403.643
401.249
398.91
396.628
394.408
392.251
390.161
388.141
386.192
384.317
382.516
380.792
379.145
377.576
376.084
374.669
373.331
372.067
370.876
369.756
368.705
367.72
366.788
468.622
466.032
463.419
460.784
458.131
455.46
452.774
450.076
447.368
444.653
441.933
439.212
436.493
433.779
431.072
428.377
425.697
423.036
420.397
417.784
415.2
412.65
410.137
407.665
405.236
402.855
400.526
398.25
396.032
393.874
391.78
389.75
387.789
385.897
384.076
382.328
380.653
379.053
377.526
376.074
374.696
373.39
372.155
370.989
369.891
368.858
367.888
366.976
366.112
464.324
461.715
459.088
456.445
453.788
451.12
448.443
445.76
443.072
440.384
437.698
435.016
432.343
429.68
427.031
424.401
421.791
419.206
416.649
414.123
411.632
409.18
406.769
404.403
402.085
399.818
397.605
395.449
393.353
391.318
389.347
387.443
385.605
383.837
382.139
380.511
378.955
377.469
376.054
374.71
373.434
372.226
371.084
370.005
368.988
368.031
367.13
366.281
365.472
459.995
457.379
454.75
452.111
449.464
446.811
444.155
441.498
438.843
436.194
433.552
430.921
428.303
425.702
423.122
420.565
418.034
415.533
413.066
410.634
408.241
405.891
403.587
401.33
399.125
396.973
394.877
392.84
390.863
388.949
387.099
385.314
383.596
381.945
380.362
378.847
377.401
376.021
374.709
373.462
372.279
371.158
370.097
369.096
368.15
367.257
366.414
365.616
364.854
453.055
450.436
447.812
445.186
442.56
439.935
437.316
434.705
432.104
429.517
426.945
424.393
421.864
419.359
416.883
414.438
412.028
409.654
407.321
405.031
402.786
400.59
398.444
396.351
394.314
392.334
390.413
388.553
386.755
385.02
383.35
381.744
380.204
378.729
377.318
375.972
374.69
373.47
372.31
371.209
370.166
369.178
368.243
367.358
366.519
365.724
364.969
364.243
448.771
446.173
443.575
440.98
438.39
435.808
433.236
430.677
428.134
425.61
423.107
420.628
418.176
415.754
413.365
411.01
408.694
406.419
404.187
402
399.862
397.774
395.738
393.757
391.832
389.965
388.156
386.408
384.721
383.096
381.534
380.033
378.595
377.22
375.905
374.651
373.456
372.318
371.236
370.209
369.233
368.308
367.429
366.595
365.802
365.047
364.325
363.627
441.982
439.421
436.866
434.322
431.791
429.275
426.777
424.299
421.845
419.416
417.016
414.648
412.312
410.013
407.753
405.534
403.358
401.228
399.146
397.113
395.133
393.205
391.333
389.516
387.757
386.056
384.415
382.833
381.311
379.848
378.446
377.102
375.817
374.589
373.418
372.301
371.237
370.224
369.26
368.344
367.472
366.641
365.85
365.094
364.37
363.674
362.998
437.886
435.368
432.862
430.372
427.899
425.446
423.015
420.609
418.23
415.881
413.565
411.282
409.037
406.831
404.666
402.545
400.469
398.441
396.461
394.533
392.657
390.834
389.066
387.354
385.698
384.099
382.558
381.074
379.647
378.277
376.964
375.707
374.504
373.355
372.257
371.209
370.21
369.258
368.35
367.484
366.657
365.866
365.109
364.383
363.684
363.008
362.347
431.432
428.983
426.553
424.144
421.759
419.401
417.071
414.772
412.506
410.275
408.081
405.928
403.815
401.746
399.722
397.745
395.816
393.938
392.11
390.335
388.612
386.944
385.331
383.772
382.269
380.821
379.427
378.089
376.804
375.573
374.393
373.265
372.185
371.153
370.167
369.225
368.325
367.464
366.64
365.851
365.093
364.365
363.662
362.982
362.321
361.67
427.625
425.238
422.873
420.534
418.222
415.939
413.688
411.471
409.29
407.147
405.043
402.98
400.961
398.987
397.058
395.178
393.346
391.564
389.834
388.154
386.528
384.954
383.433
381.965
380.551
379.189
377.879
376.621
375.414
374.256
373.146
372.083
371.066
370.092
369.16
368.267
367.412
366.591
365.803
365.045
364.314
363.608
362.923
362.257
361.606
360.963
423.955
421.634
419.339
417.072
414.836
412.632
410.462
408.328
406.233
404.177
402.162
400.19
398.262
396.38
394.545
392.758
391.019
389.33
387.691
386.103
384.566
383.08
381.646
380.262
378.93
377.647
376.413
375.228
374.091
372.999
371.952
370.948
369.985
369.062
368.177
367.326
366.509
365.723
364.964
364.232
363.522
362.833
362.163
361.507
360.863
360.224
420.428
418.175
415.953
413.761
411.602
409.477
407.389
405.339
403.329
401.359
399.432
397.549
395.71
393.918
392.172
390.473
388.823
387.222
385.67
384.167
382.714
381.311
379.956
378.65
377.392
376.181
375.017
373.898
372.822
371.79
370.798
369.846
368.931
368.052
367.207
366.393
365.608
364.85
364.116
363.404
362.712
362.037
361.377
360.729
360.089
359.45
417.044
414.864
412.715
410.599
408.518
406.473
404.467
402.499
400.572
398.688
396.846
395.048
393.295
391.588
389.927
388.313
386.747
385.228
383.757
382.334
380.959
379.631
378.349
377.114
375.924
374.778
373.676
372.616
371.597
370.616
369.674
368.767
367.894
367.053
366.242
365.459
364.701
363.967
363.254
362.559
361.881
361.216
360.564
359.919
359.281
358.642
413.806
411.698
409.623
407.584
405.58
403.614
401.688
399.801
397.956
396.153
394.393
392.677
391.006
389.38
387.8
386.266
384.778
383.336
381.94
380.591
379.287
378.028
376.813
375.642
374.514
373.427
372.38
371.373
370.403
369.469
368.569
367.702
366.866
366.058
365.276
364.519
363.785
363.07
362.373
361.692
361.024
360.368
359.72
359.078
358.44
357.798
410.71
408.675
406.674
404.71
402.783
400.894
399.045
397.237
395.47
393.746
392.064
390.426
388.833
387.283
385.778
384.319
382.903
381.533
380.207
378.925
377.686
376.49
375.336
374.223
373.15
372.116
371.119
370.158
369.232
368.339
367.477
366.644
365.839
365.06
364.304
363.569
362.853
362.155
361.472
360.801
360.141
359.49
358.845
358.205
357.565
356.921
405.789
403.862
401.971
400.118
398.304
396.531
394.797
393.106
391.456
389.849
388.285
386.763
385.286
383.851
382.46
381.112
379.807
378.545
377.324
376.145
375.006
373.907
372.846
371.823
370.836
369.883
368.964
368.076
367.219
366.39
365.587
364.809
364.054
363.32
362.603
361.904
361.219
360.546
359.884
359.231
358.583
357.94
357.3
356.659
356.012
403.036
401.179
399.36
397.579
395.837
394.135
392.474
390.853
389.274
387.737
386.241
384.788
383.377
382.007
380.68
379.394
378.149
376.945
375.78
374.655
373.567
372.517
371.503
370.524
369.579
368.665
367.783
366.929
366.103
365.303
364.526
363.772
363.037
362.321
361.62
360.934
360.26
359.596
358.941
358.292
357.648
357.006
356.365
355.722
355.072
400.407
398.619
396.868
395.156
393.483
391.849
390.255
388.702
387.189
385.717
384.286
382.895
381.545
380.236
378.967
377.737
376.547
375.395
374.282
373.205
372.164
371.158
370.186
369.246
368.338
367.459
366.609
365.785
364.986
364.211
363.456
362.722
362.005
361.304
360.617
359.942
359.278
358.621
357.971
357.326
356.684
356.043
355.402
354.757
354.104
396.172
394.488
392.841
391.233
389.663
388.133
386.642
385.191
383.78
382.408
381.075
379.782
378.528
377.312
376.134
374.993
373.889
372.821
371.788
370.788
369.822
368.887
367.982
367.107
366.258
365.436
364.639
363.864
363.11
362.375
361.658
360.957
360.269
359.594
358.928
358.271
357.621
356.976
356.334
355.694
355.054
354.412
353.766
353.111
393.832
392.209
390.624
389.077
387.568
386.097
384.665
383.271
381.916
380.598
379.319
378.078
376.873
375.706
374.575
373.479
372.418
371.391
370.396
369.434
368.503
367.601
366.727
365.881
365.059
364.262
363.488
362.733
361.998
361.281
360.579
359.891
359.215
358.549
357.892
357.242
356.598
355.957
355.318
354.679
354.04
353.398
352.751
352.095
391.589
390.025
388.498
387.008
385.555
384.139
382.761
381.42
380.116
378.849
377.618
376.424
375.265
374.141
373.052
371.997
370.974
369.984
369.025
368.096
367.195
366.323
365.477
364.656
363.858
363.083
362.328
361.593
360.874
360.172
359.483
358.806
358.141
357.484
356.835
356.191
355.551
354.914
354.278
353.642
353.004
352.362
351.715
351.058
389.434
387.925
386.452
385.015
383.614
382.25
380.921
379.629
378.372
377.151
375.964
374.813
373.695
372.611
371.56
370.541
369.553
368.596
367.668
366.768
365.896
365.049
364.227
363.429
362.653
361.897