/*--------------------------------*- C++ -*----------------------------------*\
| =========                 |                                                 |
| \\      /  F ield         | OpenFOAM: The Open Source CFD Toolbox           |
|  \\    /   O peration     | Version:  v1706                                 |
|   \\  /    A nd           | Web:      www.OpenFOAM.com                      |
|    \\/     M anipulation  |                                                 |
\*---------------------------------------------------------------------------*/
FoamFile
{
    version     2.0;
    format      ascii;
    class       volScalarField;
    location    "1.9e-05";
    object      Tv;
}
// * * * * * * * * * * * * * * * * * * * * * * * * * * * * * * * * * * * * * //

dimensions      [0 0 0 1 0 0 0];


internalField   nonuniform List<scalar> 
30038
(
144.4
144.4
144.4
144.4
144.4
144.4
144.4
144.4
144.4
144.4
144.4
144.4
144.4
144.4
144.4
144.4
144.4
144.4
144.4
144.4
144.4
144.4
144.4
144.4
144.4
144.4
144.4
144.4
144.4
144.4
144.4
144.4
144.4
144.4
144.4
144.4
144.4
144.4
144.4
144.4
144.4
144.4
144.4
144.4
144.4
144.4
144.4
144.4
144.4
144.4
144.4
144.4
144.4
144.4
144.4
144.4
144.4
144.4
144.4
144.4
144.4
144.4
144.4
144.4
144.4
144.4
144.4
144.4
144.4
144.4
144.4
144.4
144.4
144.4
144.4
144.4
144.4
144.4
144.4
144.4
144.4
144.4
144.4
144.4
144.4
144.4
144.4
144.4
144.4
144.4
144.4
144.4
144.4
144.4
144.4
144.4
144.4
144.4
144.4
144.4
144.4
144.4
144.4
144.4
144.4
144.4
144.4
144.4
144.4
144.4
144.4
144.4
144.4
144.4
144.4
144.4
144.4
144.4
144.4
144.4
144.4
144.4
144.4
144.4
144.4
144.4
144.4
144.4
144.4
144.4
144.4
144.4
144.4
144.4
144.4
144.4
144.4
144.4
144.4
144.4
144.4
144.4
144.4
144.4
144.4
144.4
144.4
144.4
144.4
144.4
144.4
144.4
144.4
144.4
144.4
144.4
144.4
144.4
144.4
144.4
144.4
144.4
144.4
144.4
144.4
144.4
144.4
144.4
144.4
144.4
144.4
144.4
144.4
144.4
144.4
144.4
144.4
144.4
144.4
144.4
144.4
144.4
144.4
144.4
144.4
144.4
144.4
144.4
144.4
144.4
144.4
144.4
144.4
144.4
144.4
144.4
144.4
144.4
144.4
144.4
144.4
144.4
144.4
144.4
144.4
144.4
144.4
144.4
144.4
144.4
144.4
144.4
144.4
144.4
144.4
144.4
144.4
144.4
144.4
144.4
144.4
144.4
144.4
144.4
144.4
144.4
144.4
144.4
144.4
144.4
144.4
144.4
144.4
144.4
144.4
144.4
144.4
144.4
144.4
144.4
144.4
144.4
144.4
144.4
144.4
144.4
144.4
144.4
144.4
144.4
144.4
144.4
144.4
144.4
144.4
144.4
144.4
144.4
144.4
144.4
144.4
144.4
144.4
144.4
144.4
144.4
144.4
144.4
144.4
144.4
144.4
144.4
144.4
144.4
144.4
144.4
144.4
144.4
144.4
144.4
144.4
144.4
144.4
144.4
144.4
144.4
144.4
144.4
144.4
144.4
144.4
144.4
144.4
144.4
144.4
144.4
144.4
144.4
144.4
144.4
144.4
144.4
144.4
144.4
144.4
144.4
144.4
144.4
144.4
144.4
144.4
144.4
144.4
144.4
144.4
144.4
144.4
144.4
144.4
144.4
144.4
144.4
144.4
144.4
144.4
144.4
144.4
144.4
144.4
144.4
144.4
144.4
144.4
144.4
144.4
144.4
144.4
144.4
144.4
144.4
144.4
144.4
144.4
144.4
144.4
144.4
144.4
144.4
144.4
144.4
144.4
144.4
144.4
144.4
144.4
144.4
144.4
144.4
144.4
144.4
144.4
144.4
144.4
144.4
144.4
144.4
144.4
144.4
144.4
144.4
144.4
144.4
144.4
144.4
144.4
144.4
144.4
144.4
144.4
144.4
144.4
144.4
144.4
144.4
144.4
144.4
144.4
144.4
144.4
144.4
144.4
144.4
144.4
144.4
144.4
144.4
144.4
144.4
144.4
144.4
144.4
144.4
144.4
144.4
144.4
144.4
144.4
144.4
144.4
144.4
144.4
144.4
144.4
144.4
144.4
144.4
144.4
144.4
144.4
144.4
144.4
144.4
144.4
144.4
144.4
144.4
144.4
144.4
144.4
144.4
144.4
144.4
144.4
144.4
144.4
144.4
144.4
144.4
144.4
144.4
144.4
144.4
144.4
144.4
144.4
144.4
144.4
144.4
144.4
144.4
144.4
144.4
144.4
144.4
144.4
144.4
144.4
144.4
144.4
144.4
144.4
144.4
144.4
144.4
144.4
144.4
144.4
144.4
144.4
144.4
144.4
144.4
144.4
144.4
144.4
144.4
144.4
144.4
144.4
144.4
144.4
144.4
144.4
144.4
144.4
144.4
144.4
144.4
144.4
144.4
144.4
144.4
144.4
144.4
144.4
144.4
144.4
144.4
144.4
144.4
144.4
144.4
144.4
144.4
144.4
144.4
144.4
144.4
144.4
144.4
144.4
144.4
144.4
144.4
144.4
144.4
144.4
144.4
144.4
144.4
144.4
144.4
144.4
144.4
144.4
144.4
144.4
144.4
144.4
144.4
144.4
144.4
144.4
144.4
144.4
144.4
144.4
144.4
144.4
144.4
144.4
144.4
144.4
144.4
144.4
144.4
144.4
144.4
144.4
144.4
144.4
144.4
144.4
144.4
144.4
144.4
144.4
144.4
144.4
144.4
144.4
144.4
144.4
144.4
144.4
144.4
144.4
144.4
144.4
144.4
144.4
144.4
144.4
144.4
144.4
144.4
144.4
144.4
144.4
144.4
144.4
144.4
144.4
144.4
144.4
144.4
144.4
144.4
144.4
144.4
144.4
144.4
144.4
144.4
144.4
144.4
144.4
144.4
144.4
144.4
144.4
144.4
144.4
144.4
144.4
144.4
144.4
144.4
144.4
144.4
144.4
144.4
144.4
144.4
144.4
144.4
144.4
144.4
144.4
144.4
144.4
144.4
144.4
144.4
144.4
144.4
144.4
144.4
144.4
144.4
144.4
144.4
144.4
144.4
144.4
144.4
144.4
144.4
144.4
144.4
144.4
144.4
144.4
144.4
144.4
144.4
144.4
144.4
144.4
144.4
144.4
144.4
144.4
144.4
144.4
144.4
144.4
144.4
144.4
144.4
144.4
144.4
144.4
144.4
144.4
144.4
144.4
144.4
144.4
144.4
144.4
144.4
144.4
144.4
144.4
144.4
144.4
144.4
144.4
144.4
144.4
144.4
144.4
144.4
144.4
144.4
144.4
144.4
144.4
144.4
144.4
144.4
144.4
144.4
144.4
144.4
144.4
144.4
144.4
144.4
144.4
144.4
144.4
144.4
144.4
144.4
144.4
144.4
144.4
144.4
144.4
144.4
144.4
144.4
144.4
144.4
144.4
144.4
144.4
144.4
144.4
144.4
144.4
144.4
144.4
144.4
144.4
144.4
144.4
144.4
144.4
144.4
144.4
144.4
144.4
144.4
144.4
144.4
144.4
144.4
144.4
144.4
144.4
144.4
144.4
144.4
144.4
144.4
144.4
144.4
144.4
144.4
144.4
144.4
144.4
144.4
144.4
144.4
144.4
144.4
144.4
144.4
144.4
144.4
144.4
144.4
144.4
144.4
144.4
144.4
144.4
144.4
144.4
144.4
144.4
144.4
144.4
144.4
144.4
144.4
144.4
144.401
144.401
144.4
144.4
144.4
144.4
144.4
144.4
144.4
144.4
144.4
144.4
144.4
144.4
144.4
144.4
144.4
144.4
144.4
144.4
144.4
144.4
144.4
144.4
144.4
144.4
144.4
144.4
144.4
144.4
144.4
144.4
144.4
144.4
144.4
144.4
144.4
144.401
144.401
144.401
144.401
144.402
144.402
144.403
144.4
144.4
144.4
144.4
144.4
144.4
144.4
144.4
144.4
144.4
144.4
144.4
144.4
144.4
144.4
144.4
144.4
144.4
144.4
144.4
144.4
144.4
144.4
144.4
144.4
144.4
144.4
144.4
144.4
144.4
144.4
144.4
144.401
144.401
144.401
144.401
144.402
144.402
144.403
144.404
144.405
144.406
144.407
144.4
144.4
144.4
144.4
144.4
144.4
144.4
144.4
144.4
144.4
144.4
144.4
144.4
144.4
144.4
144.4
144.4
144.4
144.4
144.4
144.4
144.4
144.4
144.4
144.4
144.4
144.4
144.401
144.401
144.401
144.401
144.402
144.402
144.403
144.403
144.404
144.405
144.406
144.408
144.409
144.411
144.414
144.416
144.4
144.4
144.4
144.4
144.4
144.4
144.4
144.4
144.4
144.4
144.4
144.4
144.4
144.4
144.4
144.4
144.4
144.4
144.4
144.4
144.4
144.4
144.4
144.4
144.401
144.401
144.401
144.401
144.402
144.402
144.403
144.404
144.405
144.406
144.407
144.409
144.411
144.413
144.415
144.418
144.421
144.425
144.43
144.436
144.4
144.4
144.4
144.4
144.4
144.4
144.4
144.4
144.4
144.4
144.4
144.4
144.4
144.4
144.4
144.4
144.4
144.4
144.4
144.4
144.4
144.401
144.401
144.401
144.402
144.402
144.403
144.403
144.404
144.405
144.407
144.408
144.41
144.412
144.414
144.417
144.42
144.424
144.428
144.433
144.439
144.446
144.453
144.462
144.473
144.4
144.4
144.4
144.4
144.4
144.4
144.4
144.4
144.4
144.4
144.4
144.4
144.4
144.4
144.4
144.4
144.4
144.401
144.401
144.401
144.401
144.402
144.402
144.403
144.404
144.405
144.406
144.407
144.409
144.411
144.413
144.416
144.419
144.422
144.426
144.431
144.437
144.443
144.45
144.459
144.469
144.48
144.493
144.507
144.524
144.544
144.4
144.4
144.4
144.4
144.4
144.4
144.4
144.4
144.4
144.4
144.4
144.4
144.4
144.4
144.401
144.401
144.401
144.401
144.402
144.402
144.403
144.403
144.404
144.405
144.407
144.408
144.41
144.412
144.415
144.418
144.421
144.425
144.429
144.435
144.441
144.448
144.456
144.465
144.475
144.488
144.502
144.518
144.536
144.556
144.58
144.607
144.637
144.673
144.4
144.4
144.4
144.4
144.4
144.4
144.4
144.4
144.4
144.4
144.401
144.401
144.401
144.401
144.402
144.402
144.403
144.404
144.405
144.406
144.408
144.409
144.411
144.414
144.417
144.42
144.423
144.428
144.433
144.438
144.445
144.453
144.461
144.471
144.483
144.496
144.511
144.528
144.548
144.57
144.596
144.625
144.657
144.694
144.735
144.782
144.834
144.896
144.4
144.4
144.4
144.4
144.4
144.4
144.4
144.401
144.401
144.401
144.401
144.402
144.402
144.403
144.404
144.405
144.406
144.407
144.409
144.411
144.413
144.416
144.419
144.422
144.426
144.431
144.437
144.443
144.45
144.458
144.468
144.479
144.491
144.505
144.522
144.54
144.561
144.586
144.613
144.644
144.679
144.718
144.763
144.813
144.868
144.931
145
145.077
145.163
145.263
144.4
144.4
144.401
144.401
144.401
144.401
144.402
144.402
144.403
144.403
144.404
144.405
144.407
144.408
144.41
144.412
144.415
144.418
144.421
144.425
144.43
144.435
144.441
144.448
144.456
144.465
144.475
144.487
144.5
144.516
144.533
144.553
144.576
144.602
144.631
144.665
144.702
144.744
144.792
144.845
144.904
144.971
145.045
145.127
145.218
145.318
145.429
145.55
145.684
145.837
144.401
144.402
144.402
144.403
144.403
144.404
144.405
144.407
144.408
144.41
144.412
144.415
144.418
144.421
144.425
144.429
144.434
144.44
144.447
144.454
144.463
144.473
144.484
144.497
144.511
144.528
144.547
144.568
144.593
144.621
144.652
144.687
144.727
144.772
144.823
144.879
144.942
145.013
145.091
145.178
145.275
145.381
145.498
145.626
145.766
145.919
146.085
146.265
146.461
146.681
144.404
144.405
144.407
144.408
144.41
144.412
144.415
144.417
144.421
144.425
144.429
144.434
144.44
144.446
144.453
144.462
144.471
144.482
144.494
144.508
144.524
144.542
144.563
144.586
144.612
144.642
144.676
144.713
144.756
144.804
144.857
144.917
144.984
145.059
145.142
145.233
145.335
145.447
145.57
145.705
145.852
146.012
146.186
146.374
146.577
146.795
147.029
147.279
147.546
147.843
144.412
144.415
144.418
144.421
144.425
144.429
144.434
144.44
144.446
144.454
144.462
144.471
144.482
144.493
144.507
144.522
144.54
144.559
144.582
144.607
144.635
144.667
144.703
144.744
144.789
144.84
144.897
144.96
145.031
145.11
145.197
145.294
145.4
145.518
145.647
145.788
145.942
146.109
146.29
146.487
146.698
146.925
147.167
147.426
147.7
147.991
148.298
148.622
148.964
149.338
144.43
144.435
144.441
144.447
144.455
144.463
144.472
144.482
144.494
144.507
144.522
144.539
144.558
144.58
144.604
144.631
144.662
144.697
144.735
144.779
144.827
144.882
144.942
145.01
145.084
145.168
145.26
145.361
145.473
145.596
145.731
145.878
146.038
146.213
146.401
146.605
146.823
147.058
147.309
147.576
147.859
148.159
148.475
148.807
149.155
149.518
149.897
150.291
150.703
151.146
144.465
144.475
144.485
144.497
144.51
144.525
144.541
144.56
144.581
144.605
144.631
144.661
144.695
144.732
144.774
144.821
144.873
144.931
144.995
145.067
145.146
145.234
145.331
145.438
145.556
145.684
145.825
145.979
146.145
146.326
146.522
146.732
146.958
147.2
147.458
147.733
148.024
148.331
148.655
148.995
149.35
149.721
150.108
150.509
150.924
151.352
151.794
152.249
152.72
153.221
144.53
144.546
144.565
144.586
144.609
144.635
144.665
144.697
144.734
144.775
144.82
144.871
144.927
144.989
145.058
145.135
145.219
145.312
145.415
145.527
145.651
145.785
145.933
146.092
146.266
146.453
146.656
146.873
147.106
147.355
147.62
147.902
148.199
148.513
148.844
149.19
149.552
149.93
150.322
150.729
151.15
151.584
152.031
152.491
152.962
153.444
153.937
154.44
154.958
155.504
144.644
144.673
144.705
144.741
144.782
144.826
144.876
144.931
144.991
145.059
145.133
145.215
145.305
145.404
145.512
145.631
145.761
145.902
146.056
146.223
146.403
146.598
146.807
147.031
147.271
147.527
147.799
148.087
148.391
148.711
149.048
149.4
149.767
150.15
150.548
150.959
151.385
151.823
152.274
152.737
153.211
153.696
154.191
154.696
155.211
155.734
156.266
156.807
157.36
157.94
144.839
144.888
144.943
145.003
145.069
145.141
145.221
145.309
145.406
145.511
145.627
145.752
145.889
146.038
146.199
146.373
146.561
146.763
146.979
147.211
147.458
147.72
147.999
148.293
148.603
148.929
149.271
149.628
150.001
150.388
150.789
151.205
151.633
152.075
152.528
152.994
153.47
153.957
154.453
154.959
155.474
155.997
156.529
157.068
157.614
158.168
158.729
159.297
159.877
160.483
145.162
145.241
145.327
145.422
145.526
145.638
145.761
145.895
146.04
146.196
146.365
146.547
146.743
146.953
147.177
147.416
147.67
147.939
148.224
148.525
148.841
149.172
149.519
149.881
150.258
150.648
151.053
151.471
151.902
152.346
152.801
153.267
153.745
154.232
154.729
155.235
155.749
156.271
156.802
157.339
157.883
158.435
158.992
159.556
160.126
160.702
161.284
161.873
162.472
163.097
145.667
145.788
145.92
146.062
146.215
146.38
146.558
146.749
146.953
147.171
147.403
147.65
147.911
148.188
148.479
148.786
149.108
149.445
149.796
150.162
150.543
150.937
151.344
151.764
152.197
152.641
153.097
153.564
154.041
154.528
155.024
155.529
156.042
156.562
157.09
157.625
158.167
158.715
159.269
159.828
160.393
160.964
161.54
162.122
162.708
163.301
163.898
164.503
165.117
165.757
146.419
146.594
146.781
146.981
147.194
147.421
147.661
147.916
148.186
148.47
148.768
149.081
149.409
149.751
150.107
150.477
150.86
151.257
151.666
152.088
152.522
152.967
153.423
153.889
154.365
154.851
155.345
155.848
156.358
156.876
157.401
157.933
158.471
159.015
159.564
160.119
160.679
161.244
161.814
162.389
162.969
163.553
164.143
164.737
165.336
165.94
166.55
167.167
167.793
168.445
147.47
147.706
147.956
148.219
148.497
148.788
149.093
149.413
149.746
150.093
150.453
150.827
151.214
151.613
152.024
152.447
152.881
153.326
153.781
154.247
154.721
155.205
155.696
156.196
156.704
157.218
157.739
158.267
158.8
159.34
159.884
160.434
160.988
161.547
162.111
162.679
163.252
163.829
164.41
164.995
165.585
166.179
166.778
167.382
167.99
168.604
169.223
169.849
170.486
171.148
148.847
149.146
149.458
149.784
150.123
150.475
150.839
151.216
151.606
152.007
152.419
152.843
153.277
153.722
154.176
154.639
155.112
155.593
156.082
156.578
157.082
157.592
158.109
158.632
159.16
159.694
160.233
160.776
161.325
161.878
162.435
162.996
163.561
164.13
164.703
165.28
165.86
166.445
167.034
167.627
168.224
168.825
169.431
170.042
170.658
171.279
171.907
172.541
173.185
173.856
150.197
150.541
150.897
151.266
151.646
152.038
152.441
152.854
153.278
153.712
154.156
154.609
155.07
155.54
156.018
156.503
156.996
157.495
158.001
158.512
159.03
159.553
160.081
160.614
161.151
161.693
162.239
162.789
163.343
163.9
164.461
165.026
165.594
166.166
166.741
167.32
167.902
168.488
169.078
169.672
170.27
170.872
171.479
172.091
172.708
173.33
173.958
174.592
175.233
175.885
176.562
152.118
152.512
152.916
153.33
153.754
154.187
154.63
155.08
155.539
156.006
156.481
156.962
157.45
157.945
158.446
158.952
159.464
159.981
160.503
161.029
161.56
162.095
162.633
163.176
163.722
164.272
164.825
165.382
165.941
166.504
167.07
167.639
168.212
168.787
169.366
169.948
170.534
171.124
171.717
172.315
172.917
173.523
174.134
174.751
175.372
176
176.633
177.272
177.919
178.577
179.26
153.846
154.27
154.702
155.143
155.591
156.048
156.511
156.982
157.459
157.943
158.432
158.928
159.428
159.934
160.445
160.96
161.48
162.004
162.532
163.063
163.598
164.137
164.678
165.223
165.771
166.322
166.876
167.433
167.993
168.556
169.121
169.689
170.261
170.835
171.413
171.994
172.578
173.167
173.758
174.354
174.955
175.56
176.169
176.784
177.404
178.03
178.661
179.299
179.944
180.595
181.258
181.946
156.14
156.593
157.054
157.52
157.993
158.472
158.956
159.446
159.941
160.44
160.945
161.454
161.966
162.483
163.004
163.528
164.055
164.586
165.12
165.656
166.196
166.739
167.284
167.832
168.382
168.935
169.491
170.049
170.61
171.174
171.74
172.31
172.882
173.457
174.036
174.618
175.204
175.793
176.387
176.985
177.587
178.194
178.806
179.424
180.047
180.676
181.311
181.953
182.601
183.256
183.923
184.614
158.562
159.036
159.515
159.999
160.488
160.981
161.479
161.981
162.487
162.997
163.51
164.027
164.546
165.069
165.595
166.124
166.655
167.189
167.726
168.265
168.806
169.35
169.896
170.445
170.996
171.549
172.105
172.663
173.224
173.788
174.354
174.923
175.496
176.071
176.65
177.233
177.819
178.409
179.004
179.603
180.207
180.816
181.43
182.05
182.676
183.307
183.945
184.589
185.24
185.898
186.567
187.259
161.068
161.555
162.046
162.541
163.04
163.543
164.049
164.558
165.07
165.585
166.103
166.624
167.147
167.673
168.201
168.731
169.264
169.799
170.336
170.875
171.417
171.961
172.506
173.054
173.605
174.157
174.712
175.269
175.83
176.392
176.958
177.526
178.098
178.673
179.252
179.835
180.421
181.012
181.608
182.208
182.812
183.423
184.038
184.66
185.287
185.92
186.559
187.205
187.857
188.517
189.187
189.879
163.623
164.118
164.617
165.119
165.623
166.131
166.641
167.154
167.669
168.187
168.707
169.229
169.753
170.28
170.808
171.339
171.871
172.405
172.942
173.48
174.02
174.563
175.107
175.654
176.202
176.753
177.307
177.863
178.422
178.983
179.548
180.115
180.686
181.261
181.839
182.421
183.008
183.598
184.194
184.794
185.4
186.011
186.627
187.249
187.877
188.511
189.151
189.797
190.449
191.109
191.778
192.469
166.204
166.704
167.206
167.711
168.219
168.729
169.241
169.755
170.271
170.789
171.309
171.831
172.355
172.881
173.408
173.938
174.469
175.001
175.536
176.073
176.611
177.151
177.694
178.238
178.785
179.334
179.886
180.44
180.997
181.557
182.12
182.687
183.257
183.83
184.408
184.989
185.575
186.166
186.761
187.361
187.966
188.577
189.193
189.815
190.443
191.076
191.716
192.361
193.012
193.67
194.336
195.024
168.793
169.295
169.799
170.306
170.814
171.324
171.836
172.35
172.866
173.383
173.903
174.423
174.946
175.47
175.995
176.523
177.052
177.582
178.115
178.649
179.185
179.723
180.263
180.806
181.35
181.897
182.447
182.999
183.555
184.113
184.674
185.239
185.808
186.38
186.956
187.537
188.122
188.712
189.306
189.905
190.51
191.12
191.735
192.356
192.982
193.614
194.251
194.894
195.543
196.197
196.859
197.541
171.881
172.386
172.892
173.4
173.909
174.42
174.933
175.447
175.963
176.481
176.999
177.52
178.041
178.565
179.09
179.616
180.144
180.674
181.206
181.74
182.275
182.813
183.353
183.895
184.44
184.988
185.538
186.091
186.648
187.207
187.77
188.337
188.908
189.483
190.062
190.646
191.234
191.827
192.425
193.027
193.636
194.249
194.867
195.491
196.12
196.754
197.393
198.037
198.686
199.343
200.017
174.455
174.959
175.464
175.97
176.478
176.988
177.499
178.011
178.524
179.039
179.556
180.074
180.593
181.114
181.636
182.16
182.686
183.213
183.742
184.273
184.806
185.341
185.879
186.419
186.961
187.507
188.055
188.606
189.16
189.718
190.279
190.844
191.412
191.985
192.563
193.144
193.73
194.321
194.916
195.517
196.122
196.732
197.347
197.967
198.592
199.221
199.854
200.492
201.135
201.783
202.449
177.011
177.513
178.016
178.521
179.027
179.534
180.043
180.553
181.064
181.576
182.09
182.606
183.122
183.64
184.16
184.681
185.204
185.729
186.255
186.784
187.314
187.847
188.382
188.919
189.459
190.002
190.548
191.096
191.648
192.203
192.762
193.325
193.891
194.462
195.036
195.615
196.198
196.786
197.378
197.975
198.576
199.182
199.792
200.407
201.026
201.649
202.276
202.906
203.54
204.179
204.834
180.045
180.546
181.049
181.552
182.057
182.564
183.071
183.58
184.09
184.601
185.113
185.627
186.143
186.66
187.178
187.698
188.22
188.744
189.27
189.798
190.328
190.86
191.395
191.932
192.472
193.015
193.561
194.111
194.663
195.219
195.779
196.342
196.909
197.481
198.056
198.636
199.219
199.807
200.399
200.996
201.596
202.2
202.809
203.42
204.035
204.654
205.275
205.898
206.527
207.169
182.552
183.051
183.552
184.053
184.555
185.059
185.564
186.07
186.577
187.086
187.596
188.107
188.62
189.134
189.65
190.167
190.687
191.208
191.731
192.256
192.783
193.312
193.844
194.379
194.916
195.456
195.999
196.545
197.095
197.648
198.204
198.764
199.327
199.894
200.465
201.04
201.619
202.201
202.788
203.378
203.972
204.569
205.169
205.772
206.378
206.986
207.597
208.209
208.825
209.454
185.034
185.53
186.028
186.527
187.027
187.528
188.031
188.534
189.039
189.545
190.052
190.561
191.071
191.582
192.095
192.61
193.126
193.644
194.165
194.687
195.211
195.738
196.267
196.798
197.332
197.869
198.409
198.951
199.497
200.046
200.598
201.153
201.712
202.275
202.84
203.41
203.982
204.559
205.138
205.721
206.306
206.895
207.486
208.08
208.675
209.272
209.87
210.47
211.072
211.686
187.488
187.982
188.477
188.974
189.471
189.97
190.47
190.971
191.473
191.976
192.481
192.987
193.494
194.003
194.513
195.025
195.538
196.054
196.571
197.09
197.611
198.134
198.66
199.188
199.719
200.252
200.787
201.326
201.867
202.412
202.959
203.509
204.063
204.619
205.179
205.742
206.308
206.876
207.448
208.022
208.598
209.177
209.758
210.34
210.924
211.509
212.094
212.68
213.267
213.865
189.913
190.405
190.898
191.392
191.887
192.383
192.881
193.379
193.879
194.379
194.881
195.384
195.889
196.395
196.902
197.411
197.922
198.434
198.948
199.464
199.982
200.501
201.023
201.547
202.074
202.603
203.134
203.668
204.204
204.743
205.285
205.83
206.377
206.927
207.479
208.035
208.592
209.153
209.715
210.279
210.846
211.414
211.983
212.553
213.124
213.695
214.266
214.837
215.409
215.989
192.31
192.799
193.29
193.782
194.274
194.768
195.263
195.759
196.255
196.753
197.253
197.753
198.255
198.758
199.262
199.768
200.275
200.784
201.295
201.807
202.321
202.837
203.355
203.875
204.397
204.921
205.447
205.975
206.506
207.039
207.575
208.113
208.653
209.195
209.74
210.286
210.835
211.386
211.938
212.492
213.047
213.603
214.16
214.717
215.274
215.831
216.387
216.942
217.497
218.06
194.677
195.164
195.652
196.141
196.632
197.123
197.615
198.108
198.602
199.098
199.594
200.092
200.59
201.09
201.591
202.094
202.598
203.103
203.61
204.118
204.628
205.14
205.653
206.168
206.685
207.204
207.724
208.247
208.771
209.298
209.826
210.356
210.888
211.422
211.958
212.495
213.034
213.574
214.116
214.658
215.201
215.744
216.288
216.831
217.373
217.915
218.455
218.993
219.532
220.077
197.498
197.984
198.471
198.959
199.447
199.937
200.427
200.919
201.411
201.905
202.399
202.895
203.391
203.889
204.388
204.888
205.389
205.892
206.396
206.901
207.408
207.916
208.426
208.937
209.45
209.964
210.48
210.998
211.517
212.037
212.559
213.083
213.607
214.133
214.66
215.188
215.717
216.247
216.776
217.306
217.836
218.365
218.894
219.421
219.947
220.471
220.993
221.514
222.04
199.802
200.286
200.77
201.255
201.741
202.228
202.715
203.204
203.693
204.183
204.675
205.167
205.66
206.154
206.649
207.145
207.642
208.14
208.639
209.14
209.641
210.144
210.648
211.153
211.659
212.166
212.675
213.184
213.695
214.207
214.72
215.234
215.748
216.264
216.78
217.296
217.813
218.33
218.847
219.363
219.878
220.393
220.906
221.418
221.927
222.434
222.939
223.443
223.95
202.075
202.555
203.037
203.519
204.003
204.486
204.971
205.457
205.943
206.43
206.917
207.406
207.895
208.385
208.876
209.367
209.859
210.353
210.847
211.341
211.837
212.333
212.831
213.329
213.828
214.328
214.828
215.329
215.831
216.334
216.837
217.341
217.845
218.349
218.853
219.357
219.861
220.365
220.868
221.37
221.871
222.37
222.868
223.363
223.856
224.346
224.834
225.32
225.809
204.793
205.272
205.752
206.232
206.713
207.194
207.676
208.159
208.642
209.126
209.61
210.095
210.581
211.067
211.554
212.041
212.528
213.017
213.505
213.995
214.484
214.975
215.465
215.956
216.448
216.94
217.432
217.924
218.417
218.91
219.402
219.895
220.387
220.879
221.371
221.862
222.352
222.84
223.328
223.814
224.297
224.779
225.258
225.734
226.208
226.677
227.145
227.616
206.999
207.474
207.951
208.428
208.905
209.383
209.862
210.341
210.82
211.3
211.78
212.26
212.741
213.222
213.703
214.185
214.666
215.148
215.631
216.113
216.595
217.078
217.561
218.043
218.526
219.009
219.491
219.973
220.456
220.937
221.419
221.899
222.379
222.859
223.337
223.814
224.29
224.764
225.236
225.707
226.175
226.64
227.103
227.562
228.018
228.471
228.921
229.373
209.643
210.116
210.59
211.064
211.538
212.013
212.487
212.962
213.437
213.913
214.388
214.864
215.339
215.814
216.29
216.765
217.241
217.716
218.191
218.665
219.14
219.614
220.087
220.561
221.034
221.506
221.978
222.449
222.919
223.388
223.857
224.324
224.79
225.255
225.718
226.179
226.639
227.096
227.551
228.003
228.452
228.899
229.341
229.78
230.215
230.648
231.082
211.778
212.247
212.717
213.187
213.657
214.128
214.598
215.068
215.538
216.008
216.478
216.948
217.418
217.887
218.356
218.824
219.292
219.76
220.227
220.693
221.159
221.624
222.088
222.552
223.014
223.476
223.937
224.396
224.855
225.312
225.768
226.222
226.674
227.125
227.574
228.021
228.465
228.907
229.347
229.783
230.216
230.646
231.072
231.494
231.912
232.327
232.744
214.343
214.809
215.275
215.74
216.206
216.671
217.137
217.602
218.066
218.53
218.994
219.457
219.92
220.381
220.842
221.303
221.762
222.221
222.679
223.135
223.591
224.045
224.498
224.95
225.401
225.85
226.298
226.744
227.189
227.632
228.073
228.511
228.948
229.383
229.815
230.244
230.671
231.095
231.515
231.932
232.346
232.755
233.161
233.562
233.96
234.359
216.403
216.864
217.326
217.787
218.247
218.707
219.167
219.626
220.085
220.543
221
221.456
221.912
222.366
222.819
223.271
223.722
224.172
224.621
225.068
225.513
225.958
226.4
226.841
227.281
227.718
228.154
228.588
229.019
229.449
229.876
230.302
230.724
231.144
231.562
231.976
232.388
232.796
233.201
233.602
233.999
234.392
234.782
235.167
235.548
235.93
218.427
218.883
219.339
219.795
220.25
220.705
221.159
221.612
222.064
222.515
222.965
223.414
223.862
224.309
224.754
225.198
225.64
226.08
226.519
226.957
227.392
227.826
228.257
228.687
229.115
229.54
229.964
230.385
230.804
231.22
231.634
232.045
232.454
232.86
233.262
233.662
234.058
234.451
234.841
235.226
235.608
235.985
236.358
236.727
237.093
237.458
220.413
220.864
221.315
221.765
222.215
222.663
223.111
223.558
224.003
224.447
224.89
225.331
225.771
226.209
226.646
227.081
227.514
227.945
228.374
228.801
229.226
229.649
230.07
230.488
230.904
231.317
231.728
232.137
232.543
232.946
233.346
233.744
234.138
234.53
234.918
235.303
235.684
236.062
236.436
236.806
237.172
237.534
237.891
238.245
238.595
238.944
222.361
222.807
223.252
223.697
224.14
224.582
225.023
225.463
225.901
226.338
226.773
227.206
227.638
228.068
228.496
228.921
229.345
229.766
230.185
230.602
231.016
231.428
231.837
232.244
232.648
233.049
233.448
233.844
234.237
234.626
235.013
235.397
235.778
236.155
236.529
236.899
237.266
237.629
237.988
238.343
238.694
239.041
239.383
239.721
240.056
240.389
224.271
224.712
225.151
225.589
226.026
226.461
226.895
227.328
227.758
228.187
228.615
229.04
229.463
229.884
230.302
230.718
231.132
231.544
231.952
232.358
232.762
233.163
233.561
233.956
234.348
234.737
235.123
235.506
235.886
236.263
236.636
237.006
237.373
237.737
238.096
238.452
238.805
239.153
239.498
239.838
240.175
240.506
240.834
241.157
241.477
241.796
226.143
226.577
227.01
227.441
227.871
228.3
228.727
229.151
229.574
229.995
230.414
230.831
231.245
231.657
232.066
232.473
232.876
233.278
233.676
234.071
234.464
234.853
235.24
235.623
236.003
236.38
236.754
237.125
237.492
237.856
238.216
238.573
238.926
239.276
239.622
239.964
240.302
240.636
240.967
241.293
241.615
241.932
242.245
242.554
242.86
243.164
228.403
228.829
229.254
229.677
230.098
230.517
230.934
231.349
231.762
232.172
232.58
232.985
233.387
233.787
234.184
234.578
234.969
235.356
235.741
236.123
236.501
236.876
237.248
237.616
237.981
238.343
238.701
239.055
239.406
239.753
240.097
240.437
240.773
241.105
241.434
241.759
242.079
242.396
242.708
243.016
243.32
243.619
243.914
244.206
244.496
230.19
230.609
231.027
231.442
231.855
232.267
232.676
233.082
233.486
233.888
234.287
234.683
235.076
235.466
235.853
236.236
236.617
236.994
237.368
237.739
238.106
238.47
238.83
239.186
239.539
239.889
240.234
240.576
240.915
241.249
241.58
241.907
242.23
242.549
242.865
243.176
243.483
243.786
244.085
244.379
244.67
244.955
245.237
245.516
245.792
231.937
232.349
232.759
233.167
233.572
233.976
234.376
234.774
235.17
235.562
235.952
236.339
236.722
237.102
237.479
237.853
238.223
238.59
238.953
239.313
239.669
240.021
240.37
240.715
241.056
241.393
241.727
242.057
242.383
242.705
243.023
243.337
243.648
243.954
244.256
244.555
244.849
245.139
245.424
245.706
245.983
246.256
246.525
246.791
247.055
234.049
234.451
234.851
235.249
235.644
236.036
236.425
236.812
237.195
237.576
237.953
238.327
238.697
239.064
239.428
239.788
240.144
240.497
240.845
241.19
241.532
241.869
242.202
242.532
242.858
243.179
243.497
243.811
244.121
244.427
244.729
245.027
245.321
245.61
245.896
246.178
246.455
246.728
246.997
247.262
247.522
247.779
248.032
248.283
235.71
236.104
236.496
236.885
237.272
237.655
238.036
238.413
238.788
239.159
239.527
239.891
240.251
240.609
240.962
241.311
241.657
241.999
242.337
242.671
243.002
243.328
243.65
243.968
244.283
244.593
244.899
245.201
245.499
245.793
246.083
246.369
246.65
246.928
247.202
247.471
247.736
247.997
248.254
248.506
248.755
248.999
249.241
249.48
237.331
237.717
238.101
238.481
238.859
239.234
239.606
239.975
240.34
240.701
241.06
241.414
241.765
242.112
242.456
242.795
243.131
243.462
243.79
244.113
244.432
244.748
245.059
245.366
245.669
245.968
246.263
246.553
246.84
247.122
247.4
247.675
247.944
248.21
248.472
248.729
248.983
249.232
249.477
249.718
249.955
250.188
250.418
250.646
238.913
239.29
239.666
240.038
240.407
240.773
241.136
241.496
241.852
242.204
242.553
242.898
243.239
243.576
243.91
244.239
244.564
244.886
245.203
245.516
245.825
246.129
246.43
246.726
247.018
247.306
247.59
247.869
248.144
248.415
248.682
248.945
249.204
249.458
249.708
249.954
250.196
250.434
250.668
250.898
251.123
251.345
251.564
251.781
240.825
241.192
241.556
241.916
242.274
242.628
242.978
243.325
243.668
244.007
244.343
244.674
245.002
245.325
245.645
245.96
246.271
246.578
246.881
247.179
247.473
247.763
248.049
248.331
248.608
248.881
249.149
249.414
249.674
249.93
250.181
250.429
250.672
250.912
251.147
251.378
251.605
251.828
252.047
252.262
252.473
252.681
252.887
242.321
242.68
243.035
243.387
243.735
244.08
244.422
244.759
245.093
245.423
245.749
246.071
246.389
246.703
247.013
247.318
247.619
247.916
248.209
248.497
248.781
249.061
249.336
249.607
249.874
250.137
250.395
250.649
250.898
251.144
251.385
251.622
251.854
252.083
252.308
252.528
252.744
252.957
253.165
253.37
253.571
253.769
253.965
243.78
244.129
244.476