/*--------------------------------*- C++ -*----------------------------------*\
| =========                 |                                                 |
| \\      /  F ield         | OpenFOAM: The Open Source CFD Toolbox           |
|  \\    /   O peration     | Version:  v1706                                 |
|   \\  /    A nd           | Web:      www.OpenFOAM.com                      |
|    \\/     M anipulation  |                                                 |
\*---------------------------------------------------------------------------*/
FoamFile
{
    version     2.0;
    format      ascii;
    class       volVectorField;
    location    "1.9e-05";
    object      U;
}
// * * * * * * * * * * * * * * * * * * * * * * * * * * * * * * * * * * * * * //

dimensions      [0 1 -1 0 0 0 0];


internalField   nonuniform List<vector> 
30038
(
(978.58 -1.14307e-10 5.23936e-15)
(978.58 -1.16297e-10 4.01303e-15)
(978.58 -1.17698e-10 7.83166e-15)
(978.58 -1.20506e-10 3.10281e-15)
(978.58 -1.2206e-10 4.47951e-15)
(978.58 -1.24148e-10 5.75701e-15)
(978.58 -1.25736e-10 8.97482e-15)
(978.58 -1.2816e-10 8.99782e-15)
(978.58 -1.30728e-10 4.22713e-15)
(978.58 -1.32929e-10 5.7038e-15)
(978.58 -1.35238e-10 1.02176e-14)
(978.58 -1.3776e-10 6.83656e-15)
(978.58 -1.40314e-10 4.76724e-15)
(978.58 -1.4229e-10 3.36549e-15)
(978.58 -1.45005e-10 6.72917e-15)
(978.58 -1.48312e-10 8.6941e-15)
(978.58 -1.50619e-10 5.90679e-15)
(978.58 -1.52665e-10 2.57279e-15)
(978.58 -1.53883e-10 5.15298e-15)
(978.58 -1.53726e-10 7.48166e-15)
(978.58 -1.51304e-10 8.35812e-15)
(978.58 -1.44414e-10 4.41139e-15)
(978.58 -1.36893e-10 2.44909e-15)
(978.58 -1.27611e-10 8.03502e-15)
(978.58 -1.14061e-10 5.55215e-15)
(978.58 -9.71083e-11 3.60157e-15)
(978.58 -7.00242e-11 4.66211e-15)
(978.58 -2.82935e-11 7.8155e-15)
(978.58 3.80982e-11 9.02699e-15)
(978.58 1.45185e-10 7.70664e-15)
(978.58 3.15299e-10 7.59832e-15)
(978.58 5.6146e-10 9.63e-15)
(978.58 9.03002e-10 8.27824e-15)
(978.58 1.36681e-09 8.91666e-15)
(978.58 1.99221e-09 1.07094e-14)
(978.58 2.84627e-09 6.82985e-15)
(978.58 4.1189e-09 3.98797e-15)
(978.58 6.05168e-09 8.63154e-15)
(978.58 -3.26754e-10 1.75978e-14)
(978.58 -3.32476e-10 2.03082e-14)
(978.58 -3.38261e-10 1.91979e-14)
(978.58 -3.43446e-10 1.89482e-14)
(978.58 -3.48468e-10 2.16069e-14)
(978.58 -3.54564e-10 2.05967e-14)
(978.58 -3.60627e-10 2.20085e-14)
(978.58 -3.65731e-10 2.12924e-14)
(978.58 -3.71795e-10 1.691e-14)
(978.58 -3.79158e-10 2.13242e-14)
(978.58 -3.84974e-10 1.96891e-14)
(978.58 -3.91157e-10 1.58191e-14)
(978.58 -3.97356e-10 1.83474e-14)
(978.58 -4.02489e-10 1.92025e-14)
(978.58 -4.04959e-10 2.07795e-14)
(978.58 -4.05423e-10 2.04227e-14)
(978.58 -4.02253e-10 2.00964e-14)
(978.58 -3.97995e-10 1.90908e-14)
(978.58 -3.92091e-10 1.82685e-14)
(978.58 -3.85275e-10 1.93027e-14)
(978.58 -3.69421e-10 1.93723e-14)
(978.58 -3.54951e-10 1.98399e-14)
(978.58 -3.23227e-10 1.97647e-14)
(978.58 -2.66618e-10 1.897e-14)
(978.58 -1.72617e-10 1.78613e-14)
(978.58 -1.7457e-11 1.88208e-14)
(978.58 2.21774e-10 1.98203e-14)
(978.58 5.7725e-10 1.96956e-14)
(978.58 1.09294e-09 2.28811e-14)
(978.58 1.82255e-09 2.13008e-14)
(978.58 2.82593e-09 1.98478e-14)
(978.58 4.1668e-09 2.70497e-14)
(978.58 5.98117e-09 2.57316e-14)
(978.58 8.47137e-09 2.39778e-14)
(978.58 1.192e-08 2.40278e-14)
(978.58 1.67088e-08 2.03573e-14)
(978.58 2.37743e-08 2.05926e-14)
(978.58 3.47886e-08 2.32601e-14)
(978.58 -5.32721e-10 3.19328e-14)
(978.58 -5.39034e-10 3.38414e-14)
(978.58 -5.45598e-10 3.1257e-14)
(978.58 -5.54023e-10 2.92473e-14)
(978.58 -5.62805e-10 3.14561e-14)
(978.58 -5.71849e-10 3.19613e-14)
(978.58 -5.81104e-10 3.15296e-14)
(978.58 -5.89577e-10 2.74633e-14)
(978.58 -5.97015e-10 2.84474e-14)
(978.58 -6.02581e-10 2.84289e-14)
(978.58 -6.06787e-10 2.7446e-14)
(978.58 -6.075e-10 2.99654e-14)
(978.58 -6.07099e-10 3.18618e-14)
(978.58 -6.05884e-10 3.14862e-14)
(978.58 -6.0122e-10 3.0567e-14)
(978.58 -5.93187e-10 3.37943e-14)
(978.58 -5.78141e-10 3.25334e-14)
(978.58 -5.53135e-10 3.20844e-14)
(978.58 -5.10241e-10 3.13451e-14)
(978.58 -4.3488e-10 3.08156e-14)
(978.58 -3.07915e-10 3.1352e-14)
(978.58 -1.1012e-10 3.26185e-14)
(978.58 1.85676e-10 3.11689e-14)
(978.58 6.19371e-10 3.34424e-14)
(978.58 1.24074e-09 3.677e-14)
(978.58 2.10099e-09 3.54747e-14)
(978.58 3.2563e-09 3.27693e-14)
(978.58 4.79615e-09 3.14135e-14)
(978.58 6.84818e-09 3.48306e-14)
(978.58 9.61763e-09 3.51467e-14)
(978.58 1.34321e-08 3.5131e-14)
(978.58 1.87337e-08 3.67249e-14)
(978.58 2.60887e-08 3.5438e-14)
(978.58 3.6249e-08 3.59397e-14)
(978.58 5.04338e-08 3.70714e-14)
(978.58 7.00068e-08 3.58959e-14)
(978.58 9.92117e-08 3.32767e-14)
(978.58 1.43253e-07 3.60724e-14)
(978.58 -7.25605e-10 4.5594e-14)
(978.58 -7.35576e-10 4.48773e-14)
(978.58 -7.43491e-10 4.24286e-14)
(978.58 -7.50841e-10 4.21077e-14)
(978.58 -7.58268e-10 4.58486e-14)
(978.58 -7.64653e-10 4.21582e-14)
(978.58 -7.67328e-10 4.14418e-14)
(978.58 -7.70152e-10 4.22619e-14)
(978.58 -7.7223e-10 4.3399e-14)
(978.58 -7.71562e-10 4.14004e-14)
(978.58 -7.67844e-10 4.40238e-14)
(978.58 -7.61432e-10 4.44709e-14)
(978.58 -7.38545e-10 4.3904e-14)
(978.58 -7.04224e-10 3.95954e-14)
(978.58 -6.44823e-10 4.16685e-14)
(978.58 -5.38919e-10 4.27735e-14)
(978.58 -3.72344e-10 4.28398e-14)
(978.58 -1.2351e-10 4.71229e-14)
(978.58 2.43185e-10 4.75144e-14)
(978.58 7.69509e-10 4.61633e-14)
(978.58 1.50169e-09 4.51506e-14)
(978.58 2.48651e-09 4.49124e-14)
(978.58 3.78998e-09 4.89399e-14)
(978.58 5.51662e-09 4.9424e-14)
(978.58 7.83224e-09 4.7882e-14)
(978.58 1.09922e-08 4.79912e-14)
(978.58 1.5364e-08 4.66996e-14)
(978.58 2.13948e-08 4.53111e-14)
(978.58 2.97108e-08 4.75447e-14)
(978.58 4.11892e-08 4.82211e-14)
(978.58 5.70128e-08 4.71406e-14)
(978.58 7.88005e-08 4.86251e-14)
(978.58 1.0886e-07 4.78959e-14)
(978.58 1.50319e-07 4.75743e-14)
(978.58 2.08069e-07 5.02002e-14)
(978.58 2.87485e-07 5.13098e-14)
(978.58 4.05367e-07 5.00273e-14)
(978.58 5.81726e-07 5.09652e-14)
(978.58 -8.99538e-10 5.44111e-14)
(978.58 -9.03417e-10 5.67986e-14)
(978.58 -9.06266e-10 5.69025e-14)
(978.58 -9.08114e-10 5.56139e-14)
(978.58 -9.07957e-10 5.35862e-14)
(978.58 -9.0547e-10 5.43992e-14)
(978.58 -9.02148e-10 5.62784e-14)
(978.58 -8.83711e-10 5.74567e-14)
(978.58 -8.56313e-10 5.7803e-14)
(978.58 -8.07279e-10 5.69404e-14)
(978.58 -7.19328e-10 5.65814e-14)
(978.58 -5.79625e-10 5.59174e-14)
(978.58 -3.68131e-10 5.47128e-14)
(978.58 -5.59643e-11 5.62049e-14)
(978.58 3.95229e-10 5.9101e-14)
(978.58 1.02691e-09 6.06796e-14)
(978.58 1.87988e-09 6.30073e-14)
(978.58 3.002e-09 6.03353e-14)
(978.58 4.47619e-09 5.88166e-14)
(978.58 6.43454e-09 6.12549e-14)
(978.58 9.08305e-09 5.71555e-14)
(978.58 1.27282e-08 5.72222e-14)
(978.58 1.77427e-08 6.25007e-14)
(978.58 2.46259e-08 6.11311e-14)
(978.58 3.40678e-08 6.14396e-14)
(978.58 4.70105e-08 6.26088e-14)
(978.58 6.47541e-08 6.15367e-14)
(978.58 8.91146e-08 5.54634e-14)
(978.58 1.22603e-07 5.48405e-14)
(978.58 1.68632e-07 5.67642e-14)
(978.58 2.31914e-07 6.20018e-14)
(978.58 3.18957e-07 6.47758e-14)
(978.58 4.38925e-07 6.111e-14)
(978.58 6.04052e-07 6.04984e-14)
(978.58 8.33356e-07 6.13846e-14)
(978.58 1.14781e-06 6.29809e-14)
(978.58 1.61269e-06 6.40136e-14)
(978.58 2.30276e-06 6.43002e-14)
(978.58 -1.02564e-09 7.04506e-14)
(978.58 -1.02389e-09 6.97395e-14)
(978.58 -1.00903e-09 6.46649e-14)
(978.58 -9.82085e-10 6.20376e-14)
(978.58 -9.36974e-10 6.45057e-14)
(978.58 -8.60572e-10 6.57568e-14)
(978.58 -7.40525e-10 6.61111e-14)
(978.58 -5.5759e-10 7.40956e-14)
(978.58 -2.864e-10 7.34026e-14)
(978.58 1.06306e-10 7.12063e-14)
(978.58 6.58547e-10 7.10459e-14)
(978.58 1.40703e-09 6.98692e-14)
(978.58 2.38782e-09 6.97555e-14)
(978.58 3.66446e-09 7.07674e-14)
(978.58 5.34318e-09 7.03095e-14)
(978.58 7.59745e-09 7.16685e-14)
(978.58 1.06845e-08 7.39606e-14)
(978.58 1.49072e-08 7.05222e-14)
(978.58 2.06715e-08 6.95615e-14)
(978.58 2.85354e-08 7.29436e-14)
(978.58 3.9257e-08 7.27867e-14)
(978.58 5.38796e-08 7.42587e-14)
(978.58 7.38526e-08 7.27086e-14)
(978.58 1.01165e-07 7.07608e-14)
(978.58 1.38524e-07 7.12034e-14)
(978.58 1.89651e-07 7.63748e-14)
(978.58 2.59675e-07 7.67102e-14)
(978.58 3.55638e-07 7.03028e-14)
(978.58 4.87196e-07 7.27539e-14)
(978.58 6.67619e-07 7.30883e-14)
(978.58 9.15248e-07 7.16353e-14)
(978.58 1.25526e-06 7.29333e-14)
(978.58 1.72283e-06 7.4252e-14)
(978.58 2.36487e-06 7.80218e-14)
(978.58 3.25415e-06 7.6058e-14)
(978.58 4.47115e-06 7.26325e-14)
(978.58 6.26249e-06 7.44516e-14)
(978.58 8.9015e-06 7.55548e-14)
(978.58 -9.81219e-10 7.89701e-14)
(978.58 -8.74331e-10 7.96003e-14)
(978.58 -7.11173e-10 8.2739e-14)
(978.58 -4.67974e-10 8.42821e-14)
(978.58 -1.17415e-10 8.20712e-14)
(978.58 3.7755e-10 8.07114e-14)
(978.58 1.04653e-09 8.33521e-14)
(978.58 1.91901e-09 8.52634e-14)
(978.58 3.04798e-09 8.16446e-14)
(978.58 4.51844e-09 8.55022e-14)
(978.58 6.47336e-09 8.37885e-14)
(978.58 9.13287e-09 8.15169e-14)
(978.58 1.27469e-08 8.08405e-14)
(978.58 1.76486e-08 8.06158e-14)
(978.58 2.42993e-08 8.11479e-14)
(978.58 3.33158e-08 8.4728e-14)
(978.58 4.55383e-08 8.55848e-14)
(978.58 6.21367e-08 8.61855e-14)
(978.58 8.47102e-08 8.40265e-14)
(978.58 1.15423e-07 8.60817e-14)
(978.58 1.57238e-07 8.4645e-14)
(978.58 2.14213e-07 8.38278e-14)
(978.58 2.91889e-07 8.33019e-14)
(978.58 3.97853e-07 8.49293e-14)
(978.58 5.42493e-07 8.36931e-14)
(978.58 7.40058e-07 8.72847e-14)
(978.58 1.01007e-06 8.6316e-14)
(978.58 1.37929e-06 8.03848e-14)
(978.58 1.88442e-06 8.19951e-14)
(978.58 2.57586e-06 8.51383e-14)
(978.58 3.52299e-06 8.56111e-14)
(978.58 4.82068e-06 8.61952e-14)
(978.58 6.60123e-06 8.90649e-14)
(978.58 9.04118e-06 9.12063e-14)
(978.58 1.24124e-05 9.11609e-14)
(978.58 1.7016e-05 8.80461e-14)
(978.58 2.37613e-05 8.83194e-14)
(978.58 3.36261e-05 8.89964e-14)
(978.58 1.64561e-10 9.52924e-14)
(978.58 7.74822e-10 9.70356e-14)
(978.58 1.56562e-09 9.84451e-14)
(978.58 2.58523e-09 9.99013e-14)
(978.58 3.90297e-09 9.69183e-14)
(978.58 5.63598e-09 9.41753e-14)
(978.58 7.97516e-09 9.62529e-14)
(978.58 1.11342e-08 9.7554e-14)
(978.58 1.53871e-08 9.85088e-14)
(978.58 2.11172e-08 9.58652e-14)
(978.58 2.8839e-08 9.40751e-14)
(978.58 3.92392e-08 9.3882e-14)
(978.58 5.32694e-08 9.3474e-14)
(978.58 7.22365e-08 9.49511e-14)
(978.58 9.78946e-08 9.58515e-14)
(978.58 1.32622e-07 9.89132e-14)
(978.58 1.79666e-07 9.98921e-14)
(978.58 2.43445e-07 9.71162e-14)
(978.58 3.29968e-07 9.66677e-14)
(978.58 4.47439e-07 9.70981e-14)
(978.58 6.07048e-07 9.54708e-14)
(978.58 8.24053e-07 9.70328e-14)
(978.58 1.11928e-06 9.42297e-14)
(978.58 1.52121e-06 9.46277e-14)
(978.58 2.06874e-06 9.50823e-14)
(978.58 2.81509e-06 9.9444e-14)
(978.58 3.83301e-06 9.63526e-14)
(978.58 5.22207e-06 9.63113e-14)
(978.58 7.11867e-06 9.95283e-14)
(978.58 9.70954e-06 1.01062e-13)
(978.58 1.3251e-05 1.01387e-13)
(978.58 1.80929e-05 1.00773e-13)
(978.58 2.47222e-05 1.01118e-13)
(978.58 3.37878e-05 9.98694e-14)
(978.58 4.62817e-05 1.02613e-13)
(978.58 6.33034e-05 1.03917e-13)
(978.58 8.81307e-05 9.93731e-14)
(978.58 0.000124186 9.64045e-14)
(978.58 3.47054e-09 1.10388e-13)
(978.58 5.04169e-09 1.10095e-13)
(978.58 7.14597e-09 1.12055e-13)
(978.58 9.97225e-09 1.11269e-13)
(978.58 1.37468e-08 1.10902e-13)
(978.58 1.8795e-08 1.11284e-13)
(978.58 2.5551e-08 1.12212e-13)
(978.58 3.45866e-08 1.09158e-13)
(978.58 4.66896e-08 1.09118e-13)
(978.58 6.29422e-08 1.06723e-13)
(978.58 8.47929e-08 1.05345e-13)
(978.58 1.1418e-07 1.08035e-13)
(978.58 1.53736e-07 1.03832e-13)
(978.58 2.07028e-07 1.09317e-13)
(978.58 2.78889e-07 1.093e-13)
(978.58 3.7587e-07 1.10499e-13)
(978.58 5.06865e-07 1.08818e-13)
(978.58 6.83944e-07 1.07113e-13)
(978.58 9.23502e-07 1.07396e-13)
(978.58 1.24784e-06 1.08729e-13)
(978.58 1.68729e-06 1.08357e-13)
(978.58 2.28313e-06 1.08321e-13)
(978.58 3.09158e-06 1.06308e-13)
(978.58 4.18923e-06 1.06454e-13)
(978.58 5.68053e-06 1.08777e-13)
(978.58 7.70791e-06 1.10615e-13)
(978.58 1.04657e-05 1.11203e-13)
(978.58 1.42192e-05 1.08665e-13)
(978.58 1.93307e-05 1.0937e-13)
(978.58 2.62953e-05 1.10483e-13)
(978.58 3.57894e-05 1.12298e-13)
(978.58 4.8739e-05 1.12581e-13)
(978.58 6.64068e-05 1.12842e-13)
(978.58 9.05433e-05 1.1258e-13)
(978.58 0.000123479 1.1591e-13)
(978.58 0.000168751 1.14526e-13)
(978.58 0.000230284 1.11394e-13)
(978.58 0.000319629 1.10362e-13)
(978.58 0.000448492 1.09848e-13)
(978.58 1.7197e-08 1.21846e-13)
(978.58 2.3247e-08 1.20799e-13)
(978.58 3.12851e-08 1.22697e-13)
(978.58 4.19712e-08 1.2534e-13)
(978.58 5.62196e-08 1.23453e-13)
(978.58 7.52479e-08 1.23903e-13)
(978.58 1.00662e-07 1.22357e-13)
(978.58 1.34629e-07 1.18868e-13)
(978.58 1.80088e-07 1.18237e-13)
(978.58 2.40988e-07 1.1846e-13)
(978.58 3.22643e-07 1.20648e-13)
(978.58 4.32226e-07 1.17204e-13)
(978.58 5.79428e-07 1.17789e-13)
(978.58 7.77333e-07 1.22536e-13)
(978.58 1.04365e-06 1.21907e-13)
(978.58 1.40233e-06 1.21318e-13)
(978.58 1.88581e-06 1.19341e-13)
(978.58 2.53804e-06 1.22515e-13)
(978.58 3.41859e-06 1.21435e-13)
(978.58 4.60833e-06 1.21133e-13)
(978.58 6.217e-06 1.19507e-13)
(978.58 8.39364e-06 1.19531e-13)
(978.58 1.13409e-05 1.1965e-13)
(978.58 1.53341e-05 1.22309e-13)
(978.58 2.07481e-05 1.23742e-13)
(978.58 2.80929e-05 1.23432e-13)
(978.58 3.80628e-05 1.2243e-13)
(978.58 5.16037e-05 1.19069e-13)
(978.58 7.00048e-05 1.20718e-13)
(978.58 9.50232e-05 1.2505e-13)
(978.58 0.000129055 1.25151e-13)
(978.58 0.000175372 1.25045e-13)
(978.58 0.000238428 1.2472e-13)
(978.58 0.000324377 1.24839e-13)
(978.58 0.000441395 1.25636e-13)
(978.579 0.000601819 1.23341e-13)
(978.579 0.000819345 1.22264e-13)
(978.579 0.00113374 1.25403e-13)
(978.578 0.00158416 1.25468e-13)
(978.58 6.86147e-08 1.38476e-13)
(978.58 9.11388e-08 1.36328e-13)
(978.58 1.21022e-07 1.35104e-13)
(978.58 1.60723e-07 1.3534e-13)
(978.58 2.13537e-07 1.3309e-13)
(978.58 2.83857e-07 1.34786e-13)
(978.58 3.77571e-07 1.36511e-13)
(978.58 5.02602e-07 1.34122e-13)
(978.58 6.69584e-07 1.31057e-13)
(978.58 8.92802e-07 1.32784e-13)
(978.58 1.19148e-06 1.3242e-13)
(978.58 1.59151e-06 1.32207e-13)
(978.58 2.12775e-06 1.30483e-13)
(978.58 2.84724e-06 1.30976e-13)
(978.58 3.81345e-06 1.37304e-13)
(978.58 5.11207e-06 1.37747e-13)
(978.58 6.85892e-06 1.37215e-13)
(978.58 9.21057e-06 1.33907e-13)
(978.58 1.23789e-05 1.31183e-13)
(978.58 1.66508e-05 1.31836e-13)
(978.58 2.24148e-05 1.33539e-13)
(978.58 3.01976e-05 1.32908e-13)
(978.58 4.07135e-05 1.31425e-13)
(978.58 5.49315e-05 1.32499e-13)
(978.58 7.4167e-05 1.34818e-13)
(978.58 0.000100207 1.35675e-13)
(978.58 0.000135477 1.30623e-13)
(978.58 0.000183278 1.32256e-13)
(978.58 0.000248093 1.36986e-13)
(978.58 0.000336026 1.38745e-13)
(978.58 0.000455373 1.3701e-13)
(978.579 0.000617446 1.34952e-13)
(978.579 0.000837596 1.35171e-13)
(978.579 0.00113697 1.36246e-13)
(978.578 0.00154364 1.36998e-13)
(978.578 0.00209965 1.36687e-13)
(978.577 0.0028517 1.38261e-13)
(978.576 0.00393364 1.38254e-13)
(978.575 0.00547334 1.36206e-13)
(978.58 1.94554e-07 1.51492e-13)
(978.58 2.5666e-07 1.48758e-13)
(978.58 3.38822e-07 1.48357e-13)
(978.58 4.47644e-07 1.49545e-13)
(978.58 5.91941e-07 1.49339e-13)
(978.58 7.83473e-07 1.49545e-13)
(978.58 1.03796e-06 1.49696e-13)
(978.58 1.37644e-06 1.49466e-13)
(978.58 1.82712e-06 1.47312e-13)
(978.58 2.42776e-06 1.48569e-13)
(978.58 3.22904e-06 1.46311e-13)
(978.58 4.29898e-06 1.45874e-13)
(978.58 5.72901e-06 1.43181e-13)
(978.58 7.64205e-06 1.41827e-13)
(978.58 1.02035e-05 1.46679e-13)
(978.58 1.36362e-05 1.47823e-13)
(978.58 1.82402e-05 1.4566e-13)
(978.58 2.44202e-05 1.45032e-13)
(978.58 3.27225e-05 1.44402e-13)
(978.58 4.38844e-05 1.42512e-13)
(978.58 5.8902e-05 1.40788e-13)
(978.58 7.91219e-05 1.42923e-13)
(978.58 0.000106365 1.43465e-13)
(978.58 0.000143096 1.42978e-13)
(978.58 0.00019265 1.46034e-13)
(978.58 0.000259546 1.48935e-13)
(978.58 0.000349906 1.44195e-13)
(978.579 0.000472031 1.42653e-13)
(978.579 0.000637171 1.46752e-13)
(978.579 0.000860598 1.47853e-13)
(978.579 0.00116302 1.48831e-13)
(978.578 0.00157257 1.46728e-13)
(978.578 0.00212745 1.47347e-13)
(978.577 0.00287944 1.49171e-13)
(978.576 0.00389958 1.514e-13)
(978.575 0.00528206 1.50072e-13)
(978.573 0.00716698 1.4934e-13)
(978.571 0.00970993 1.4945e-13)
(978.567 0.0133511 1.4788e-13)
(978.563 0.0184983 1.4843e-13)
(978.58 7.07117e-07 1.65176e-13)
(978.58 9.29576e-07 1.64147e-13)
(978.58 1.2233e-06 1.632e-13)
(978.58 1.61154e-06 1.60876e-13)
(978.58 2.12526e-06 1.62078e-13)
(978.58 2.80575e-06 1.63138e-13)
(978.58 3.70806e-06 1.63599e-13)
(978.58 4.90576e-06 1.61401e-13)
(978.58 6.49713e-06 1.61585e-13)
(978.58 8.61364e-06 1.61711e-13)
(978.58 1.14313e-05 1.57004e-13)
(978.58 1.51859e-05 1.5785e-13)
(978.58 2.01935e-05 1.57257e-13)
(978.58 2.68786e-05 1.56925e-13)
(978.58 3.58106e-05 1.58379e-13)
(978.58 4.77552e-05 1.57778e-13)
(978.58 6.37415e-05 1.54941e-13)
(978.58 8.51546e-05 1.53652e-13)
(978.58 0.000113859 1.55482e-13)
(978.58 0.000152367 1.54214e-13)
(978.58 0.000204065 1.57782e-13)
(978.58 0.00027352 1.59373e-13)
(978.58 0.000366894 1.60023e-13)
(978.579 0.000492507 1.5753e-13)
(978.579 0.000661599 1.56768e-13)
(978.579 0.000889356 1.57409e-13)
(978.579 0.00119631 1.56303e-13)
(978.578 0.00161022 1.55846e-13)
(978.578 0.00216865 1.57388e-13)
(978.577 0.00292242 1.59842e-13)
(978.576 0.00394038 1.59937e-13)
(978.575 0.00531559 1.59394e-13)
(978.573 0.00717449 1.59358e-13)
(978.57 0.00968754 1.60882e-13)
(978.567 0.0130884 1.61711e-13)
(978.563 0.0176856 1.58202e-13)
(978.557 0.0239356 1.59953e-13)
(978.549 0.0323447 1.60978e-13)
(978.537 0.0443267 1.61129e-13)
(978.522 0.0611487 1.60852e-13)
(978.58 2.50813e-06 1.77078e-13)
(978.58 3.28907e-06 1.75044e-13)
(978.58 4.31807e-06 1.76129e-13)
(978.58 5.67541e-06 1.76749e-13)
(978.58 7.46777e-06 1.77347e-13)
(978.58 9.83704e-06 1.77865e-13)
(978.58 1.29722e-05 1.73767e-13)
(978.58 1.7125e-05 1.71593e-13)
(978.58 2.26312e-05 1.75404e-13)
(978.58 2.9939e-05 1.74269e-13)
(978.58 3.96472e-05 1.70969e-13)
(978.58 5.25561e-05 1.74562e-13)
(978.58 6.97369e-05 1.72766e-13)
(978.58 9.26235e-05 1.69995e-13)
(978.58 0.000123137 1.69457e-13)
(978.58 0.000163853 1.6598e-13)
(978.58 0.000218229 1.65133e-13)
(978.58 0.000290905 1.67746e-13)
(978.58 0.000388112 1.68855e-13)
(978.579 0.000518231 1.71431e-13)
(978.579 0.000692531 1.75875e-13)
(978.579 0.000926173 1.7143e-13)
(978.579 0.00123957 1.69997e-13)
(978.578 0.00166022 1.6999e-13)
(978.578 0.00222518 1.69541e-13)
(978.577 0.00298438 1.69459e-13)
(978.576 0.00400519 1.68171e-13)
(978.574 0.00537849 1.67747e-13)
(978.572 0.00722687 1.74578e-13)
(978.57 0.00971592 1.71686e-13)
(978.566 0.013069 1.68412e-13)
(978.562 0.0175881 1.68035e-13)
(978.556 0.0236806 1.68749e-13)
(978.548 0.0318971 1.71936e-13)
(978.537 0.042986 1.73975e-13)
(978.523 0.0579369 1.72971e-13)
(978.503 0.0782007 1.71627e-13)
(978.477 0.105385 1.72903e-13)
(978.441 0.143921 1.77114e-13)
(978.393 0.19763 1.74453e-13)
(978.58 8.71126e-06 1.89901e-13)
(978.58 1.13987e-05 1.90907e-13)
(978.58 1.49324e-05 1.90086e-13)
(978.58 1.95841e-05 1.87865e-13)
(978.58 2.57136e-05 1.88465e-13)
(978.58 3.37993e-05 1.8948e-13)
(978.58 4.44761e-05 1.87269e-13)
(978.58 5.85884e-05 1.82365e-13)
(978.58 7.72604e-05 1.86451e-13)
(978.58 0.000101989 1.86708e-13)
(978.58 0.000134769 1.84236e-13)
(978.58 0.000178263 1.87265e-13)
(978.58 0.000236024 1.82524e-13)
(978.58 0.000312799 1.80015e-13)
(978.58 0.000414934 1.81715e-13)
(978.579 0.000550921 1.80473e-13)
(978.579 0.000732123 1.78525e-13)
(978.579 0.000973762 1.81791e-13)
(978.579 0.00129625 1.83258e-13)
(978.578 0.00172693 1.86077e-13)
(978.577 0.00230253 1.85045e-13)
(978.577 0.00307231 1.8139e-13)
(978.575 0.00410249 1.83574e-13)
(978.574 0.00548196 1.82652e-13)
(978.572 0.00733024 1.80469e-13)
(978.569 0.0098081 1.82698e-13)
(978.566 0.0131317 1.78647e-13)
(978.561 0.0175919 1.81284e-13)
(978.555 0.0235803 1.82107e-13)
(978.547 0.0316234 1.80229e-13)
(978.536 0.0424317 1.82254e-13)
(978.522 0.056958 1.83651e-13)
(978.502 0.0764927 1.81726e-13)
(978.477 0.102759 1.81145e-13)
(978.442 0.138112 1.85013e-13)
(978.396 0.185631 1.85308e-13)
(978.335 0.249822 1.85928e-13)
(978.253 0.335652 1.86356e-13)
(978.137 0.45663 1.85543e-13)
(977.989 0.62386 1.8501e-13)
(978.58 2.96594e-05 2.03137e-13)
(978.58 3.8727e-05 2.02989e-13)
(978.58 5.0625e-05 2.01798e-13)
(978.58 6.62537e-05 2.00616e-13)
(978.58 8.68048e-05 1.99048e-13)
(978.58 0.000113856 1.985e-13)
(978.58 0.000149499 1.99729e-13)
(978.58 0.000196511 1.98354e-13)
(978.58 0.000258577 1.99435e-13)
(978.58 0.000340594 1.98321e-13)
(978.579 0.00044908 1.97836e-13)
(978.579 0.000592704 1.98284e-13)
(978.579 0.000783014 1.93756e-13)
(978.579 0.00103541 1.93836e-13)
(978.578 0.00137042 1.96069e-13)
(978.578 0.00181545 1.94807e-13)
(978.577 0.0024071 1.94162e-13)
(978.576 0.00319428 1.94662e-13)
(978.575 0.00424237 1.94097e-13)
(978.574 0.00563882 1.95585e-13)
(978.572 0.00750074 1.95011e-13)
(978.569 0.00998489 1.93261e-13)
(978.565 0.0133012 1.9359e-13)
(978.56 0.017731 1.93452e-13)
(978.554 0.0236517 1.93298e-13)
(978.546 0.031569 1.93106e-13)
(978.535 0.042161 1.93711e-13)
(978.52 0.0563383 1.93649e-13)
(978.501 0.0753214 1.91758e-13)
(978.475 0.100749 1.94735e-13)
(978.441 0.134817 1.95225e-13)
(978.395 0.18048 1.97141e-13)
(978.334 0.241682 1.92736e-13)
(978.253 0.323738 1.93267e-13)
(978.146 0.433763 1.96607e-13)
(978.003 0.581171 1.98933e-13)
(977.812 0.779458 1.98048e-13)
(977.559 1.04349 1.96031e-13)
(977.205 1.41319 1.96125e-13)
(976.755 1.91891 1.99172e-13)
(978.58 9.90344e-05 2.16997e-13)
(978.58 0.000129036 2.16031e-13)
(978.58 0.000168318 2.14937e-13)
(978.58 0.000219808 2.12063e-13)
(978.58 0.000287367 2.12556e-13)
(978.58 0.000376103 2.1561e-13)
(978.579 0.000492769 2.14308e-13)
(978.579 0.000646302 2.10698e-13)
(978.579 0.000848551 2.12332e-13)
(978.579 0.00111523 2.12458e-13)
(978.578 0.00146716 2.1111e-13)
(978.578 0.00193203 2.10618e-13)
(978.577 0.00254662 2.06821e-13)
(978.576 0.00335983 2.0843e-13)
(978.575 0.0044367 2.10486e-13)
(978.573 0.00586389 2.074e-13)
(978.571 0.00775682 2.09088e-13)
(978.568 0.0102692 2.11037e-13)
(978.564 0.0136063 2.08601e-13)
(978.559 0.0180418 2.07411e-13)
(978.553 0.0239409 2.06179e-13)
(978.544 0.0317913 2.04582e-13)
(978.533 0.0422449 2.08505e-13)
(978.518 0.0561722 2.09012e-13)
(978.499 0.0747361 2.09389e-13)
(978.472 0.0994916 2.07041e-13)
(978.438 0.132519 2.04315e-13)
(978.392 0.176594 2.04272e-13)
(978.332 0.235431 2.04076e-13)
(978.252 0.313988 2.06369e-13)
(978.146 0.418903 2.05631e-13)
(978.005 0.558992 2.05311e-13)
(977.819 0.746103 2.06549e-13)
(977.572 0.995844 2.06783e-13)
(977.244 1.3294 2.04796e-13)
(976.811 1.77385 2.07282e-13)
(976.233 2.36851 2.07992e-13)
(975.475 3.15543 2.06605e-13)
(974.425 4.2469 2.08411e-13)
(973.104 5.71853 2.10503e-13)
(978.58 0.000324375 2.33179e-13)
(978.579 0.00042173 2.3086e-13)
(978.579 0.000548926 2.28111e-13)
(978.579 0.000715281 2.26684e-13)
(978.579 0.000933077 2.2689e-13)
(978.578 0.0012185 2.26137e-13)
(978.578 0.00159292 2.26371e-13)
(978.577 0.00208456 2.2555e-13)
(978.577 0.00273074 2.26642e-13)
(978.576 0.00358076 2.22899e-13)
(978.574 0.00469997 2.20884e-13)
(978.572 0.00617493 2.21336e-13)
(978.57 0.00812026 2.20567e-13)
(978.567 0.0106881 2.22513e-13)
(978.563 0.0140805 2.22467e-13)
(978.558 0.0185653 2.24552e-13)
(978.551 0.0244987 2.24356e-13)
(978.543 0.0323545 2.21482e-13)
(978.531 0.0427621 2.22112e-13)
(978.516 0.0565586 2.22152e-13)
(978.496 0.0748588 2.1765e-13)
(978.469 0.0991469 2.18214e-13)
(978.434 0.131396 2.18963e-13)
(978.388 0.174235 2.17537e-13)
(978.328 0.231166 2.19308e-13)
(978.248 0.306848 2.17257e-13)
(978.142 0.407475 2.17747e-13)
(978.003 0.541291 2.17286e-13)
(977.82 0.719262 2.15786e-13)
(977.577 0.955941 2.1871e-13)
(977.257 1.27059 2.20154e-13)
(976.835 1.6888 2.20733e-13)
(976.278 2.24419 2.21127e-13)
(975.543 2.98132 2.17639e-13)
(974.576 3.95828 2.18272e-13)
(973.305 5.25068 2.21593e-13)
(971.629 6.96231 2.22268e-13)
(969.46 9.20249 2.21221e-13)
(966.512 12.2618 2.22269e-13)
(962.894 16.281 2.24375e-13)
(978.579 0.000804403 2.4719e-13)
(978.579 0.00104235 2.47761e-13)
(978.578 0.00135222 2.43341e-13)
(978.578 0.00175617 2.42567e-13)
(978.577 0.00228331 2.42959e-13)
(978.576 0.00297188 2.39037e-13)
(978.575 0.00387219 2.41371e-13)
(978.574 0.00505054 2.37971e-13)
(978.572 0.00659419 2.36547e-13)
(978.569 0.00861819 2.38271e-13)
(978.566 0.0112745 2.35566e-13)
(978.562 0.0147637 2.33193e-13)
(978.556 0.0193504 2.3354e-13)
(978.549 0.0253852 2.34975e-13)
(978.54 0.0333314 2.3405e-13)
(978.528 0.0438015 2.34167e-13)
(978.512 0.0576075 2.36475e-13)
(978.491 0.0758253 2.32681e-13)
(978.464 0.0998785 2.30812e-13)
(978.429 0.131654 2.31734e-13)
(978.382 0.173656 2.31328e-13)
(978.321 0.229203 2.29896e-13)
(978.241 0.302688 2.30827e-13)
(978.136 0.39994 2.28537e-13)
(977.997 0.528686 2.28283e-13)
(977.815 0.699137 2.32716e-13)
(977.576 0.92481 2.30834e-13)
(977.261 1.22359 2.29297e-13)
(976.848 1.61905 2.29369e-13)
(976.305 2.14217 2.32041e-13)
(975.591 2.83364 2.31835e-13)
(974.656 3.74677 2.27858e-13)
(973.43 4.95086 2.33053e-13)
(971.828 6.53573 2.34754e-13)
(969.741 8.61529 2.31045e-13)
(967.031 11.3369 2.32972e-13)
(963.539 14.8773 2.35952e-13)
(959.037 19.4802 2.35469e-13)
(953.366 25.3647 2.3434e-13)
(945.939 33.1498 2.3558e-13)
(937.196 42.9375 2.35156e-13)
(978.577 0.00254189 2.63605e-13)
(978.576 0.00328648 2.60411e-13)
(978.574 0.00425394 2.54605e-13)
(978.573 0.00551226 2.56208e-13)
(978.571 0.00715047 2.55422e-13)
(978.568 0.0092854 2.52596e-13)
(978.565 0.0120704 2.51884e-13)
(978.56 0.0157065 2.50735e-13)
(978.554 0.0204584 2.52889e-13)
(978.547 0.0266739 2.53067e-13)
(978.537 0.0348105 2.48263e-13)
(978.524 0.0454706 2.4777e-13)
(978.508 0.0594488 2.49072e-13)
(978.486 0.0777907 2.48268e-13)
(978.458 0.101875 2.46529e-13)
(978.422 0.133522 2.47727e-13)
(978.374 0.175132 2.47631e-13)
(978.312 0.22987 2.44893e-13)
(978.23 0.301917 2.43964e-13)
(978.124 0.396792 2.43722e-13)
(977.985 0.52176 2.43396e-13)
(977.803 0.686402 2.44726e-13)
(977.565 0.903367 2.40045e-13)
(977.254 1.18929 2.37026e-13)
(976.847 1.566 2.43848e-13)
(976.314 2.06214 2.45483e-13)
(975.617 2.71521 2.41347e-13)
(974.706 3.57404 2.41407e-13)
(973.518 4.70196 2.41739e-13)
(971.971 6.18101 2.43066e-13)
(969.962 8.11574 2.42098e-13)
(967.363 10.6382 2.44006e-13)
(964.019 13.913 2.47101e-13)
(959.741 18.1443 2.45815e-13)
(954.308 23.5763 2.4737e-13)
(947.473 30.4916 2.46153e-13)
(938.981 39.1951 2.45203e-13)
(928.535 50.0457 2.48681e-13)
(916.038 63.2779 2.50783e-13)
(900.521 79.9263 2.46629e-13)
(883.362 99.5208 2.46299e-13)
(978.572 0.00611689 2.76303e-13)
(978.569 0.00788189 2.74564e-13)
(978.566 0.0101675 2.67044e-13)
(978.563 0.0131303 2.68628e-13)
(978.558 0.0169746 2.7063e-13)
(978.551 0.0219677 2.6713e-13)
(978.543 0.0284589 2.67203e-13)
(978.533 0.0369048 2.67899e-13)
(978.519 0.0479047 2.65967e-13)
(978.502 0.062243 2.68051e-13)
(978.479 0.0809472 2.66686e-13)
(978.45 0.105367 2.60804e-13)
(978.412 0.137273 2.61086e-13)
(978.362 0.178985 2.61021e-13)
(978.298 0.233555 2.60506e-13)
(978.215 0.304994 2.61691e-13)
(978.106 0.398557 2.6192e-13)
(977.966 0.521143 2.56893e-13)
(977.782 0.681826 2.53854e-13)
(977.544 0.892485 2.54346e-13)
(977.233 1.16868 2.55786e-13)
(976.828 1.53082 2.56386e-13)
(976.301 2.00554 2.54127e-13)
(975.615 2.62746 2.53983e-13)
(974.722 3.44154 2.56442e-13)
(973.563 4.50616 2.5757e-13)
(972.06 5.89634 2.56152e-13)
(970.115 7.70761 2.55224e-13)
(967.608 10.0605 2.54437e-13)
(964.39 13.1054 2.54065e-13)
(960.286 17.0266 2.57579e-13)
(955.087 22.0475 2.60262e-13)
(948.557 28.4274 2.54721e-13)
(940.439 36.456 2.52367e-13)
(930.486 46.4343 2.55194e-13)
(918.461 58.6705 2.56569e-13)
(904.131 73.4846 2.56846e-13)
(887.292 91.181 2.57092e-13)
(867.709 112.057 2.61208e-13)
(845.726 135.959 2.59863e-13)
(820.387 163.862 2.56149e-13)
(794.335 193.815 2.56752e-13)
(978.56 0.0145274 2.86952e-13)
(978.555 0.0186551 2.85674e-13)
(978.548 0.0239823 2.83608e-13)
(978.539 0.0308638 2.83783e-13)
(978.527 0.0397618 2.84452e-13)
(978.513 0.0512787 2.82409e-13)
(978.494 0.0661982 2.81131e-13)
(978.47 0.0855429 2.82071e-13)
(978.439 0.110648 2.80939e-13)
(978.398 0.143251 2.80146e-13)
(978.347 0.185625 2.80416e-13)
(978.28 0.240742 2.75994e-13)
(978.193 0.312477 2.73343e-13)
(978.082 0.405893 2.74617e-13)
(977.937 0.527614 2.74374e-13)
(977.75 0.686278 2.73571e-13)
(977.508 0.893143 2.73432e-13)
(977.195 1.16293 2.70131e-13)
(976.788 1.51483 2.67953e-13)
(976.262 1.97371 2.66797e-13)
(975.58 2.57187 2.69639e-13)
(974.698 3.35108 2.71172e-13)
(973.557 4.36519 2.68348e-13)
(972.085 5.68306 2.66423e-13)
(970.188 7.3928 2.69157e-13)
(967.752 9.60491 2.68735e-13)
(964.637 12.4564 2.67179e-13)
(960.678 16.1145 2.65675e-13)
(955.676 20.7837 2.66086e-13)
(949.406 26.7024 2.65161e-13)
(941.623 34.137 2.67625e-13)
(932.079 43.3709 2.70574e-13)
(920.543 54.69 2.67315e-13)
(906.797 68.3796 2.64481e-13)
(890.635 84.7309 2.6765e-13)
(871.873 104.005 2.67762e-13)
(850.475 126.326 2.68515e-13)
(826.589 151.641 2.69367e-13)
(800.62 179.607 2.68335e-13)
(773.054 209.747 2.68091e-13)
(745.234 240.748 2.68784e-13)
(717.037 272.537 2.65572e-13)
(691.587 302.163 2.66988e-13)
(978.521 0.0435775 2.99962e-13)
(978.504 0.0558248 3.01299e-13)
(978.484 0.0715898 3.00736e-13)
(978.458 0.0919029 2.98088e-13)
(978.424 0.118099 2.95555e-13)
(978.381 0.15191 2.94294e-13)
(978.326 0.195585 2.94963e-13)
(978.255 0.252048 2.93958e-13)
(978.165 0.32509 2.91819e-13)
(978.048 0.41965 2.91744e-13)
(977.898 0.54214 2.90199e-13)
(977.705 0.700867 2.87574e-13)
(977.456 0.906636 2.888e-13)
(977.136 1.17348 2.87684e-13)
(976.723 1.51957 2.86906e-13)
(976.192 1.96842 2.86667e-13)
(975.507 2.55042 2.84389e-13)
(974.626 3.30454 2.86057e-13)
(973.492 4.28076 2.84598e-13)
(972.036 5.54317 2.8318e-13)
(970.168 7.173 2.8642e-13)
(967.782 9.27192 2.85334e-13)
(964.743 11.9657 2.81255e-13)
(960.893 15.4082 2.80684e-13)
(956.049 19.7838 2.82339e-13)
(949.995 25.3112 2.82886e-13)
(942.496 32.2376 2.80184e-13)
(933.307 40.8286 2.78124e-13)
(922.203 51.3466 2.79194e-13)
(908.974 64.056 2.82049e-13)
(893.434 79.2086 2.84261e-13)
(875.381 97.0805 2.81338e-13)
(854.721 117.83 2.77534e-13)
(831.521 141.484 2.77283e-13)
(806.064 167.841 2.80482e-13)