/*--------------------------------*- C++ -*----------------------------------*\
| =========                 |                                                 |
| \\      /  F ield         | OpenFOAM: The Open Source CFD Toolbox           |
|  \\    /   O peration     | Version:  v1706                                 |
|   \\  /    A nd           | Web:      www.OpenFOAM.com                      |
|    \\/     M anipulation  |                                                 |
\*---------------------------------------------------------------------------*/
FoamFile
{
    version     2.0;
    format      ascii;
    class       volScalarField;
    location    "3.8e-05";
    object      kappatr;
}
// * * * * * * * * * * * * * * * * * * * * * * * * * * * * * * * * * * * * * //

dimensions      [1 1 -3 -1 0 0 0];


internalField   nonuniform List<scalar> 
29871
(
0.014593
0.014593
0.014593
0.014593
0.014593
0.014593
0.014593
0.014593
0.014593
0.014593
0.014593
0.014593
0.014593
0.014593
0.014593
0.014593
0.014593
0.014593
0.014593
0.014593
0.014593
0.014593
0.014593
0.014593
0.014593
0.014593
0.014593
0.014593
0.014593
0.014593
0.014593
0.014593
0.014593
0.014593
0.014593
0.014593
0.014593
0.014593
0.014593
0.014593
0.014593
0.014593
0.014593
0.014593
0.014593
0.014593
0.014593
0.014593
0.014593
0.014593
0.014593
0.014593
0.014593
0.014593
0.014593
0.014593
0.014593
0.014593
0.014593
0.014593
0.014593
0.014593
0.014593
0.014593
0.014593
0.014593
0.014593
0.014593
0.014593
0.014593
0.014593
0.014593
0.014593
0.014593
0.014593
0.014593
0.014593
0.014593
0.014593
0.014593
0.014593
0.014593
0.014593
0.014593
0.014593
0.014593
0.014593
0.014593
0.014593
0.014593
0.014593
0.014593
0.014593
0.014593
0.014593
0.014593
0.014593
0.014593
0.014593
0.014593
0.014593
0.014593
0.014593
0.014593
0.014593
0.014593
0.014593
0.014593
0.014593
0.014593
0.014593
0.014593
0.014593
0.014593
0.014593
0.014593
0.014593
0.014593
0.014593
0.014593
0.014593
0.014593
0.014593
0.014593
0.014593
0.014593
0.014593
0.014593
0.014593
0.014593
0.014593
0.014593
0.014593
0.014593
0.014593
0.014593
0.014593
0.014593
0.014593
0.014593
0.014593
0.014593
0.014593
0.014593
0.014593
0.014593
0.014593
0.014593
0.014593
0.014593
0.014593
0.014593
0.014593
0.014593
0.014593
0.014593
0.014593
0.014593
0.014593
0.014593
0.014593
0.014593
0.014593
0.014593
0.014593
0.014593
0.014593
0.014593
0.014593
0.014593
0.014593
0.014593
0.014593
0.014593
0.014593
0.014593
0.014593
0.014593
0.014593
0.014593
0.014593
0.014593
0.014593
0.014593
0.014593
0.014593
0.014593
0.014593
0.014593
0.014593
0.014593
0.014593
0.014593
0.014593
0.014593
0.014593
0.014593
0.014593
0.014593
0.014593
0.014593
0.014593
0.014593
0.014593
0.014593
0.014593
0.014593
0.014593
0.014593
0.014593
0.014593
0.014593
0.014593
0.014593
0.014593
0.014593
0.014593
0.014593
0.014593
0.014593
0.014593
0.014593
0.014593
0.014593
0.014593
0.014593
0.014593
0.014593
0.014593
0.014593
0.014593
0.014593
0.014593
0.014593
0.014593
0.014593
0.014593
0.014593
0.014593
0.014593
0.014593
0.014593
0.014593
0.014593
0.014593
0.014593
0.014593
0.014593
0.014593
0.014593
0.014593
0.014593
0.014593
0.014593
0.014593
0.014593
0.014593
0.014593
0.014593
0.014593
0.014593
0.014593
0.014593
0.014593
0.014593
0.014593
0.014593
0.014593
0.014593
0.014593
0.014593
0.014593
0.014593
0.014593
0.014593
0.014593
0.014593
0.014593
0.014593
0.014593
0.014593
0.014593
0.014593
0.014593
0.014593
0.014593
0.014593
0.014593
0.014593
0.014593
0.014593
0.014593
0.014593
0.014593
0.014593
0.014593
0.014593
0.014593
0.014593
0.014593
0.014593
0.014593
0.014593
0.014593
0.014593
0.014593
0.014593
0.014593
0.014593
0.014593
0.014593
0.014593
0.014593
0.014593
0.014593
0.014593
0.014593
0.014593
0.014593
0.014593
0.014593
0.014593
0.014593
0.014593
0.014593
0.014593
0.014593
0.014593
0.014593
0.014593
0.014593
0.014593
0.014593
0.014593
0.014593
0.014593
0.014593
0.014593
0.014593
0.014593
0.014593
0.014593
0.014593
0.014593
0.014593
0.014593
0.014593
0.014593
0.014593
0.014593
0.014593
0.014593
0.014593
0.014593
0.014593
0.014593
0.014593
0.014593
0.014593
0.014593
0.014593
0.014593
0.014593
0.014593
0.014593
0.014593
0.014593
0.014593
0.014593
0.014593
0.014593
0.014593
0.014593
0.014593
0.014593
0.014593
0.014593
0.014593
0.014593
0.014593
0.014593
0.014593
0.014593
0.014593
0.014593
0.014593
0.014593
0.014593
0.014593
0.014593
0.014593
0.014593
0.014593
0.014593
0.014593
0.014593
0.014593
0.014593
0.014593
0.014593
0.014593
0.014593
0.014593
0.014593
0.014593
0.014593
0.014593
0.014593
0.014593
0.014593
0.014593
0.014593
0.014593
0.014593
0.014593
0.014593
0.014593
0.014593
0.014593
0.014593
0.014593
0.014593
0.014593
0.014593
0.014593
0.014593
0.014593
0.014593
0.014593
0.014593
0.014593
0.014593
0.014593
0.014593
0.014593
0.014593
0.014593
0.014593
0.014593
0.014593
0.014593
0.014593
0.014593
0.014593
0.014593
0.014593
0.014593
0.014593
0.014593
0.014593
0.014593
0.014593
0.014593
0.014593
0.014593
0.014593
0.014593
0.014593
0.014593
0.014593
0.014593
0.014593
0.014593
0.014593
0.014593
0.014593
0.014593
0.014593
0.014593
0.014593
0.014593
0.014593
0.014593
0.014593
0.014593
0.014593
0.014593
0.014593
0.014593
0.014593
0.014593
0.014593
0.014593
0.014593
0.014593
0.014593
0.014593
0.014593
0.014593
0.014593
0.014593
0.014593
0.014593
0.014593
0.014593
0.014593
0.014593
0.014593
0.014593
0.014593
0.014593
0.014593
0.014593
0.014593
0.014593
0.014593
0.014593
0.014593
0.014593
0.014593
0.014593
0.014593
0.014593
0.014593
0.014593
0.014593
0.014593
0.014593
0.014593
0.014593
0.014593
0.014593
0.014593
0.014593
0.014593
0.014593
0.014593
0.014593
0.014593
0.014593
0.014593
0.014593
0.014593
0.014593
0.014593
0.014593
0.014593
0.014593
0.014593
0.014593
0.014593
0.014593
0.014593
0.014593
0.014593
0.014593
0.014593
0.014593
0.014593
0.014593
0.014593
0.014593
0.014593
0.014593
0.014593
0.014593
0.014593
0.014593
0.014593
0.014593
0.014593
0.014593
0.014593
0.014593
0.014593
0.014593
0.014593
0.014593
0.014593
0.014593
0.014593
0.014593
0.014593
0.014593
0.014593
0.014593
0.014593
0.014593
0.014593
0.014593
0.014593
0.014593
0.014593
0.014593
0.014593
0.014593
0.014593
0.014593
0.014593
0.014593
0.014593
0.014593
0.014593
0.014593
0.014593
0.014593
0.014593
0.014593
0.014593
0.014593
0.014593
0.014593
0.014593
0.014593
0.014593
0.014593
0.014593
0.014593
0.014593
0.014593
0.014593
0.014593
0.014593
0.014593
0.014593
0.014593
0.014593
0.014593
0.014593
0.014593
0.014593
0.014593
0.014593
0.014593
0.014593
0.014593
0.014593
0.014593
0.014593
0.014593
0.014593
0.014593
0.014593
0.014593
0.014593
0.014593
0.014593
0.014593
0.014593
0.014593
0.014593
0.014593
0.014593
0.014593
0.014593
0.014593
0.014593
0.014593
0.014593
0.014593
0.014593
0.014593
0.014593
0.014593
0.014593
0.014593
0.014593
0.014593
0.014593
0.014593
0.014593
0.014593
0.014593
0.014593
0.014593
0.014593
0.014593
0.014593
0.014593
0.014593
0.014593
0.014593
0.014593
0.014593
0.014593
0.014593
0.014593
0.014593
0.014593
0.014593
0.014593
0.014593
0.014593
0.014593
0.014593
0.014593
0.014593
0.014593
0.014593
0.014593
0.014593
0.014593
0.014593
0.014593
0.014593
0.014593
0.014593
0.014593
0.014593
0.014593
0.014593
0.014593
0.014593
0.014593
0.014593
0.014593
0.014593
0.014593
0.014593
0.014593
0.014593
0.014593
0.014593
0.014593
0.014593
0.014593
0.014593
0.014593
0.014593
0.014593
0.014593
0.014593
0.014593
0.014593
0.014593
0.014593
0.014593
0.014593
0.014593
0.014593
0.014593
0.014593
0.014593
0.014593
0.014593
0.014593
0.014593
0.014593
0.014593
0.014593
0.014593
0.014593
0.014593
0.014593
0.014593
0.014593
0.014593
0.014593
0.014593
0.014593
0.014593
0.014593
0.014593
0.014593
0.014593
0.014593
0.014593
0.014593
0.014593
0.014593
0.014593
0.014593
0.014593
0.014593
0.014593
0.014593
0.014593
0.014593
0.014593
0.014593
0.014593
0.014593
0.014593
0.014593
0.014593
0.014593
0.014593
0.014593
0.014593
0.014593
0.014593
0.014593
0.014593
0.014593
0.014593
0.014593
0.014593
0.014593
0.014593
0.014593
0.014593
0.014593
0.014593
0.014593
0.014593
0.014593
0.014593
0.014593
0.014593
0.014593
0.014593
0.014593
0.014593
0.014593
0.014593
0.014593
0.014593
0.014593
0.014593
0.014593
0.014593
0.014593
0.014593
0.014593
0.014593
0.014593
0.014593
0.014593
0.014593
0.014593
0.014593
0.014593
0.014593
0.014593
0.014593
0.014593
0.014593
0.014593
0.014593
0.014593
0.014593
0.014593
0.014593
0.014593
0.014593
0.014593
0.014593
0.014593
0.014593
0.014593
0.014593
0.014593
0.014593
0.014593
0.014593
0.014593
0.014593
0.014593
0.014593
0.014593
0.014593
0.014593
0.014593
0.014593
0.014593
0.014593
0.014593
0.014593
0.014593
0.014593
0.014593
0.014593
0.014593
0.014593
0.014593
0.014593
0.014593
0.014593
0.014593
0.014593
0.014593
0.014593
0.014593
0.014593
0.014593
0.014593
0.014593
0.014593
0.014593
0.014593
0.014593
0.014593
0.014593
0.014593
0.014593
0.014593
0.014593
0.014593
0.014593
0.014593
0.014593
0.014593
0.014593
0.014593
0.014593
0.014593
0.014593
0.014593
0.014593
0.014593
0.014593
0.014593
0.014593
0.014593
0.014593
0.014593
0.014593
0.014593
0.014593
0.014593
0.014593
0.014593
0.014593
0.014593
0.014593
0.014593
0.014593
0.014593
0.014593
0.014593
0.014593
0.014593
0.014593
0.014593
0.014593
0.014593
0.014593
0.014593
0.014593
0.014593
0.014593
0.014593
0.014593
0.014593
0.014593
0.014593
0.014593
0.014593
0.014593
0.014593
0.014593
0.014593
0.014593
0.014593
0.014593
0.014593
0.014593
0.014593
0.014593
0.014593
0.014593
0.014593
0.014593
0.014593
0.014593
0.014593
0.014593
0.014593
0.014593
0.014593
0.014593
0.014593
0.014593
0.014593
0.014593
0.014593
0.014593
0.014593
0.014593
0.014593
0.014593
0.014593
0.014593
0.014593
0.014593
0.014593
0.014593
0.014593
0.014593
0.014593
0.014593
0.014593
0.014593
0.014593
0.014593
0.014593
0.014593
0.014593
0.014593
0.014593
0.014593
0.014593
0.014593
0.014593
0.014593
0.014593
0.014593
0.014593
0.014593
0.014593
0.014593
0.014593
0.014593
0.014593
0.014593
0.014593
0.014593
0.014593
0.014593
0.014593
0.014593
0.014593
0.014593
0.014593
0.014593
0.014593
0.014593
0.014593
0.014593
0.014593
0.014593
0.014593
0.014593
0.014593
0.014593
0.014593
0.014593
0.014593
0.014593
0.014593
0.014593
0.014593
0.014593
0.014593
0.014593
0.014593
0.014593
0.014593
0.014593
0.014593
0.014593
0.014593
0.014593
0.014593
0.014593
0.014593
0.014593
0.014593
0.014593
0.014593
0.014593
0.014593
0.014593
0.014593
0.014593
0.014593
0.014593
0.014593
0.014593
0.014593
0.014593
0.014593
0.014593
0.014593
0.014593
0.014593
0.014593
0.014593
0.014593
0.014593
0.014593
0.014593
0.014593
0.014593
0.014593
0.014593
0.014593
0.014593
0.014593
0.014593
0.014593
0.014593
0.014593
0.014593
0.014593
0.014593
0.014593
0.014593
0.014593
0.014593
0.014593
0.014593
0.014593
0.014593
0.014593
0.014593
0.014593
0.014593
0.014593
0.014593
0.014593
0.014593
0.014593
0.014593
0.014593
0.014593
0.014593
0.014593
0.014593
0.014593
0.014593
0.014593
0.014593
0.014593
0.014593
0.014593
0.014593
0.014593
0.014593
0.014593
0.014593
0.014593
0.014593
0.014593
0.014593
0.014593
0.014593
0.014593
0.014593
0.014593
0.014593
0.014593
0.014593
0.014593
0.014593
0.014593
0.014593
0.014593
0.014593
0.014593
0.014593
0.014593
0.014593
0.014593
0.014593
0.014593
0.014593
0.014593
0.014593
0.014593
0.014593
0.014593
0.014593
0.014593
0.014593
0.014593
0.014593
0.014593
0.014593
0.014593
0.014593
0.014593
0.014593
0.014593
0.014593
0.014593
0.014593
0.014593
0.014593
0.014593
0.014593
0.014593
0.014593
0.014593
0.014593
0.014593
0.014593
0.014593
0.014593
0.014593
0.014593
0.014593
0.014593
0.014593
0.014593
0.014593
0.014593
0.014593
0.014593
0.014593
0.014593
0.014593
0.014593
0.014593
0.014593
0.014593
0.014593
0.014593
0.014593
0.014593
0.014593
0.014593
0.014593
0.014593
0.014593
0.014593
0.014593
0.014593
0.014593
0.014593
0.014593
0.014593
0.014593
0.014593
0.014593
0.014593
0.014593
0.014593
0.014593
0.014593
0.014593
0.014593
0.014593
0.014593
0.014593
0.014593
0.014593
0.014593
0.014593
0.014593
0.014593
0.014593
0.014593
0.014593
0.014593
0.014593
0.014593
0.014593
0.014593
0.014593
0.014593
0.014593
0.014593
0.014593
0.014593
0.014593
0.014593
0.014593
0.014593
0.014593
0.014593
0.014593
0.014593
0.014593
0.014593
0.014593
0.014593
0.014593
0.014593
0.014593
0.014593
0.014593
0.014593
0.014593
0.014593
0.014593
0.014593
0.014593
0.014593
0.014593
0.014593
0.014593
0.014593
0.014593
0.014593
0.014593
0.014593
0.014593
0.014593
0.014593
0.014593
0.014593
0.014593
0.014593
0.014593
0.014593
0.014593
0.014593
0.014593
0.014593
0.014593
0.014593
0.014593
0.014593
0.014593
0.014593
0.014593
0.014593
0.014593
0.014593
0.014593
0.014593
0.014593
0.014593
0.014593
0.014593
0.014593
0.014593
0.014593
0.014593
0.014593
0.014593
0.014593
0.014593
0.014593
0.014593
0.014593
0.014593
0.014593
0.014593
0.014593
0.014593
0.014593
0.014593
0.014593
0.014593
0.014593
0.014593
0.014593
0.014593
0.014593
0.014593
0.014593
0.014593
0.014593
0.014593
0.014593
0.014593
0.014593
0.014593
0.014593
0.014593
0.014593
0.014593
0.014593
0.014593
0.014593
0.014593
0.014593
0.014593
0.014593
0.014593
0.014593
0.014593
0.014593
0.014593
0.014593
0.014593
0.014593
0.014593
0.014593
0.014593
0.014593
0.014593
0.014593
0.014593
0.014593
0.014593
0.014593
0.014593
0.014593
0.014593
0.014593
0.014593
0.014593
0.014593
0.014593
0.014593
0.014593
0.014593
0.014593
0.014593
0.014593
0.014593
0.014593
0.014593
0.014593
0.014593
0.014593
0.014593
0.014593
0.014593
0.014593
0.014593
0.014593
0.014593
0.014593
0.014593
0.014593
0.014593
0.014593
0.014593
0.014593
0.014593
0.014593
0.014593
0.014593
0.014593
0.014593
0.014593
0.014593
0.014593
0.014593
0.014593
0.014593
0.014593
0.014593
0.014593
0.014593
0.014593
0.014593
0.014593
0.014593
0.014593
0.014593
0.014593
0.014593
0.014593
0.014593
0.014593
0.014593
0.014593
0.014593
0.014593
0.014593
0.014593
0.014593
0.014593
0.014593
0.014593
0.014593
0.014593
0.014593
0.014593
0.014593
0.014593
0.014593
0.014593
0.014593
0.014593
0.014593
0.014593
0.014593
0.014593
0.014593
0.014593
0.014593
0.014593
0.014593
0.014593
0.014593
0.014593
0.014593
0.014593
0.014593
0.014593
0.014593
0.014593
0.014593
0.014593
0.014593
0.014593
0.014593
0.014593
0.014593
0.014593
0.014593
0.014593
0.014593
0.014593
0.014593
0.014593
0.014593
0.014593
0.014593
0.014593
0.014593
0.014593
0.014593
0.014593
0.014593
0.014593
0.014593
0.014593
0.014593
0.014593
0.014593
0.014593
0.014593
0.014593
0.014593
0.014593
0.014593
0.014593
0.014593
0.014593
0.014593
0.014593
0.014593
0.014593
0.0145931
0.0145931
0.0145931
0.0145931
0.0145931
0.0145931
0.0145931
0.0145931
0.0145931
0.0145931
0.0145931
0.0145931
0.0145931
0.014593
0.014593
0.014593
0.014593
0.014593
0.014593
0.014593
0.014593
0.014593
0.014593
0.014593
0.014593
0.014593
0.014593
0.014593
0.014593
0.014593
0.014593
0.014593
0.014593
0.014593
0.014593
0.014593
0.014593
0.014593
0.014593
0.014593
0.014593
0.014593
0.014593
0.014593
0.014593
0.014593
0.014593
0.014593
0.014593
0.014593
0.014593
0.014593
0.014593
0.014593
0.014593
0.014593
0.014593
0.014593
0.014593
0.014593
0.014593
0.014593
0.014593
0.014593
0.014593
0.014593
0.014593
0.014593
0.014593
0.014593
0.014593
0.014593
0.014593
0.014593
0.014593
0.014593
0.014593
0.014593
0.014593
0.014593
0.014593
0.014593
0.014593
0.014593
0.014593
0.014593
0.014593
0.0145931
0.0145931
0.0145931
0.0145931
0.0145931
0.0145931
0.0145931
0.0145931
0.0145931
0.0145931
0.0145931
0.0145931
0.0145931
0.0145931
0.0145931
0.0145931
0.0145931
0.0145931
0.0145931
0.0145931
0.0145931
0.0145931
0.0145931
0.0145932
0.0145932
0.0145932
0.0145932
0.0145932
0.0145932
0.0145933
0.0145933
0.0145933
0.0145933
0.0145934
0.0145934
0.0145934
0.0145935
0.0145935
0.0145936
0.0145936
0.0145937
0.014593
0.014593
0.014593
0.014593
0.014593
0.014593
0.014593
0.014593
0.014593
0.014593
0.014593
0.014593
0.014593
0.014593
0.014593
0.014593
0.014593
0.014593
0.0145931
0.0145931
0.0145931
0.0145931
0.0145931
0.0145931
0.0145931
0.0145931
0.0145931
0.0145931
0.0145931
0.0145931
0.0145931
0.0145931
0.0145931
0.0145931
0.0145931
0.0145931
0.0145931
0.0145931
0.0145931
0.0145931
0.0145931
0.0145931
0.0145931
0.0145931
0.0145931
0.0145931
0.0145931
0.0145931
0.0145931
0.0145931
0.0145931
0.0145931
0.0145931
0.0145931
0.0145931
0.0145931
0.0145931
0.0145931
0.0145931
0.0145931
0.0145931
0.0145931
0.0145931
0.0145932
0.0145932
0.0145932
0.0145932
0.0145932
0.0145932
0.0145932
0.0145932
0.0145932
0.0145932
0.0145932
0.0145932
0.0145932
0.0145932
0.0145932
0.0145932
0.0145933
0.0145933
0.0145933
0.0145933
0.0145933
0.0145933
0.0145933
0.0145934
0.0145934
0.0145934
0.0145934
0.0145935
0.0145935
0.0145935
0.0145936
0.0145936
0.0145936
0.0145937
0.0145937
0.0145938
0.0145939
0.0145939
0.014594
0.0145941
0.0145942
0.0145943
0.0145945
0.0145946
0.0145948
0.0145949
0.0145951
0.0145953
0.0145956
0.0145958
0.0145961
0.0145965
0.0145969
0.014593
0.014593
0.0145931
0.0145931
0.0145931
0.0145931
0.0145931
0.0145931
0.0145931
0.0145931
0.0145931
0.0145931
0.0145931
0.0145931
0.0145931
0.0145931
0.0145931
0.0145931
0.0145931
0.0145931
0.0145932
0.0145932
0.0145932
0.0145932
0.0145932
0.0145932
0.0145932
0.0145932
0.0145932
0.0145932
0.0145932
0.0145932
0.0145933
0.0145933
0.0145933
0.0145933
0.0145933
0.0145933
0.0145933
0.0145933
0.0145933
0.0145933
0.0145933
0.0145934
0.0145934
0.0145934
0.0145934
0.0145934
0.0145934
0.0145934
0.0145934
0.0145934
0.0145934
0.0145934
0.0145935
0.0145935
0.0145935
0.0145935
0.0145935
0.0145935
0.0145935
0.0145935
0.0145935
0.0145936
0.0145936
0.0145936
0.0145936
0.0145936
0.0145936
0.0145936
0.0145936
0.0145936
0.0145937
0.0145937
0.0145937
0.0145937
0.0145937
0.0145938
0.0145938
0.0145938
0.0145939
0.0145939
0.0145939
0.014594
0.014594
0.0145941
0.0145941
0.0145942
0.0145942
0.0145943
0.0145943
0.0145944
0.0145945
0.0145946
0.0145947
0.0145948
0.0145949
0.0145951
0.0145952
0.0145954
0.0145956
0.0145958
0.014596
0.0145962
0.0145965
0.0145968
0.0145971
0.0145974
0.0145978
0.0145983
0.0145988
0.0145994
0.0146
0.0146008
0.0146016
0.0146024
0.0146034
0.0146044
0.0146055
0.0146068
0.0146083
0.0146101
0.0146121
0.0145932
0.0145932
0.0145932
0.0145932
0.0145932
0.0145932
0.0145933
0.0145933
0.0145933
0.0145933
0.0145934
0.0145934
0.0145934
0.0145934
0.0145934
0.0145935
0.0145935
0.0145935
0.0145936
0.0145936
0.0145936
0.0145937
0.0145937
0.0145937
0.0145937
0.0145938
0.0145938
0.0145939
0.0145939
0.0145939
0.014594
0.014594
0.014594
0.0145941
0.0145941
0.0145941
0.0145942
0.0145942
0.0145942
0.0145943
0.0145943
0.0145944
0.0145944
0.0145944
0.0145945
0.0145945
0.0145945
0.0145946
0.0145946
0.0145947
0.0145947
0.0145947
0.0145948
0.0145948
0.0145949
0.0145949
0.014595
0.014595
0.014595
0.0145951
0.0145951
0.0145952
0.0145952
0.0145953
0.0145953
0.0145954
0.0145954
0.0145955
0.0145955
0.0145956
0.0145956
0.0145957
0.0145958
0.0145959
0.014596
0.0145961
0.0145962
0.0145963
0.0145964
0.0145966
0.0145967
0.0145969
0.014597
0.0145972
0.0145974
0.0145976
0.0145979
0.0145981
0.0145984
0.0145986
0.0145989
0.0145993
0.0145996
0.0146001
0.0146005
0.0146011
0.0146017
0.0146023
0.0146031
0.0146039
0.0146048
0.0146057
0.0146068
0.0146079
0.0146091
0.0146104
0.0146119
0.0146136
0.0146155
0.0146177
0.0146203
0.0146231
0.0146263
0.0146297
0.0146336
0.0146377
0.0146422
0.0146472
0.0146527
0.014659
0.0146665
0.0146751
0.0146852
0.0145937
0.0145937
0.0145938
0.0145939
0.0145939
0.014594
0.0145941
0.0145942
0.0145942
0.0145943
0.0145944
0.0145945
0.0145946
0.0145947
0.0145948
0.0145949
0.014595
0.0145951
0.0145952
0.0145954
0.0145955
0.0145956
0.0145957
0.0145959
0.014596
0.0145961
0.0145963
0.0145964
0.0145966
0.0145967
0.0145968
0.014597
0.0145971
0.0145973
0.0145974
0.0145975
0.0145977
0.0145978
0.014598
0.0145981
0.0145983
0.0145984
0.0145986
0.0145987
0.0145989
0.014599
0.0145992
0.0145993
0.0145995
0.0145997
0.0145998
0.0146
0.0146002
0.0146004
0.0146005
0.0146007
0.0146009
0.0146011
0.0146012
0.0146014
0.0146016
0.0146018
0.014602
0.0146022
0.0146024
0.0146026
0.0146028
0.0146031
0.0146033
0.0146036
0.0146039
0.0146042
0.0146045
0.0146049
0.0146053
0.0146057
0.0146062
0.0146068
0.0146074
0.014608
0.0146087
0.0146094
0.0146102
0.014611
0.0146119
0.0146128
0.0146139
0.0146149
0.0146161
0.0146174
0.0146187
0.0146202
0.014622
0.0146239
0.0146261
0.0146286
0.0146314
0.0146345
0.0146379
0.0146416
0.0146456
0.01465
0.0146548
0.0146599
0.0146654
0.0146716
0.0146785
0.0146865
0.0146957
0.0147063
0.0147184
0.0147319
0.0147468
0.0147633
0.0147811
0.0148005
0.0148214
0.0148443
0.01487
0.0148998
0.0149349
0.0149759
0.0150232
0.0145958
0.014596
0.0145962
0.0145965
0.0145967
0.014597
0.0145973
0.0145976
0.0145979
0.0145983
0.0145986
0.014599
0.0145994
0.0145997
0.0146001
0.0146006
0.014601
0.0146014
0.0146019
0.0146023
0.0146028
0.0146033
0.0146038
0.0146043
0.0146048
0.0146054
0.0146059
0.0146064
0.014607
0.0146075
0.0146081
0.0146086
0.0146091
0.0146097
0.0146102
0.0146108
0.0146113
0.0146119
0.0146124
0.014613
0.0146136
0.0146141
0.0146148
0.0146154
0.014616
0.0146166
0.0146173
0.0146179
0.0146186
0.0146193
0.0146199
0.0146206
0.0146213
0.014622
0.0146227
0.0146235
0.0146242
0.0146249
0.0146257
0.0146265
0.0146273
0.0146281
0.0146289
0.0146297
0.0146306
0.0146315
0.0146324
0.0146334
0.0146344
0.0146355
0.0146367
0.0146381
0.0146396
0.0146413
0.0146431
0.014645
0.0146472
0.0146495
0.0146521
0.0146548
0.0146578
0.0146609
0.0146643
0.014668
0.0146719
0.014676
0.0146805
0.0146852
0.0146903
0.0146958
0.0147018
0.0147086
0.0147163
0.0147252
0.0147352
0.0147465
0.0147591
0.014773
0.0147883
0.014805
0.0148231
0.0148426
0.0148636
0.0148861
0.0149105
0.0149377
0.0149687
0.0150046
0.0150461
0.0150934
0.0151469
0.0152063
0.0152716
0.0153427
0.0154195
0.0155017
0.0155898
0.0156852
0.0157929
0.0159194
0.0160686
0.0162416
0.0164373
0.0166537
0.0168881
0.0146039
0.0146047
0.0146057
0.0146067
0.0146077
0.0146088
0.0146099
0.0146111
0.0146123
0.0146136
0.0146149
0.0146163
0.0146177
0.0146191
0.0146207
0.0146222
0.0146239
0.0146255
0.0146273
0.014629
0.0146309
0.0146327
0.0146347
0.0146366
0.0146386
0.0146406
0.0146426
0.0146446
0.0146467
0.0146487
0.0146508
0.0146528
0.0146548
0.0146569
0.0146589
0.0146609
0.014663
0.0146651
0.0146673
0.0146694
0.0146717
0.0146739
0.0146763
0.0146786
0.0146811
0.0146835
0.014686
0.0146885
0.0146911
0.0146937
0.0146964
0.0146991
0.0147018
0.0147046
0.0147074
0.0147103
0.0147132
0.0147161
0.0147191
0.0147222
0.0147254
0.0147286
0.0147319
0.0147353
0.0147389
0.0147425
0.0147463
0.0147503
0.0147546
0.0147593
0.0147646
0.0147704
0.0147768
0.0147839
0.0147917
0.0148002
0.0148094
0.0148193
0.0148301
0.0148417
0.0148541
0.0148675
0.0148818
0.0148971
0.0149134
0.0149309
0.0149495
0.0149693
0.0149905
0.0150135
0.0150389
0.0150677
0.0151005
0.015138
0.0151804
0.0152278
0.0152804
0.0153381
0.0154011
0.0154693
0.0155426
0.015621
0.0157047
0.0157939
0.01589
0.0159971
0.0161204
0.0162635
0.0164276
0.0166122
0.016816
0.0170375
0.017275
0.0175269
0.0177919
0.0180686
0.0183571
0.0186623
0.0190029
0.0193993
0.0198542
0.0203598
0.0209047
0.0214779
0.0220698
0.0146348
0.0146381
0.0146416
0.0146454
0.0146492
0.0146533
0.0146576
0.014662
0.0146666
0.0146713
0.0146762
0.0146813
0.0146866
0.0146921
0.0146977
0.0147035
0.0147096
0.0147158
0.0147222
0.0147287
0.0147355
0.0147423
0.0147493
0.0147564
0.0147636
0.0147709
0.0147783
0.0147856
0.014793
0.0148004
0.0148078
0.0148151
0.0148224
0.0148298
0.0148371
0.0148446
0.0148522
0.01486
0.014868
0.0148761
0.0148845
0.0148931
0.0149018
0.0149107
0.0149198
0.0149291
0.0149385
0.0149481
0.0149578
0.0149676
0.0149776
0.0149877
0.014998
0.0150085
0.0150191
0.0150299
0.0150409
0.0150522
0.0150637
0.0150754
0.0150875
0.0150998
0.0151126
0.0151257
0.0151393
0.0151534
0.0151681
0.0151837
0.0152007
0.0152194
0.0152401
0.0152632
0.0152886
0.0153165
0.015347
0.01538
0.0154158
0.0154543
0.0154957
0.0155402
0.0155879
0.0156388
0.0156931
0.015751
0.0158126
0.0158779
0.0159472
0.0160207
0.0160989
0.0161832
0.016277
0.0163839
0.0165062
0.0166448
0.0167994
0.0169697
0.0171548
0.0173542
0.0175669
0.0177924
0.0180298
0.0182783
0.0185373
0.0188072
0.0190921
0.0194064
0.0197654
0.0201718
0.0206206
0.0211042
0.0216156
0.0221479
0.022695
0.0232517
0.0238138
0.0243775
0.0249421
0.0255138
0.0261504
0.0269101
0.0277493
0.0286204
0.0294899
0.0303356
0.0311437
0.0147382
0.0147498
0.014762
0.0147748
0.0147883
0.0148024
0.014817
0.0148323
0.014848
0.0148644
0.0148812
0.0148987
0.0149167
0.0149354
0.0149548
0.0149748
0.0149956
0.0150169
0.0150389
0.0150615
0.0150847
0.0151083
0.0151323
0.0151567
0.0151814
0.0152063
0.0152314
0.0152565
0.0152816
0.0153067
0.0153316
0.0153564
0.015381
0.0154055
0.0154301
0.0154549
0.0154803
0.0155062
0.0155327
0.0155599
0.0155877
0.0156161
0.0156452
0.0156747
0.0157048
0.0157355
0.0157666
0.0157982
0.0158302
0.0158627
0.0158956
0.0159289
0.0159628
0.0159971
0.016032
0.0160675
0.0161036
0.0161404
0.0161779
0.0162163
0.0162556
0.0162959
0.0163373
0.0163799
0.0164238
0.0164692
0.0165163
0.0165655
0.0166179
0.0166753
0.0167391
0.0168102
0.0168889
0.0169752
0.0170689
0.01717
0.0172786
0.0173947
0.0175185
0.01765
0.0177895
0.017937
0.0180928
0.0182568
0.0184292
0.01861
0.0187992
0.0189968
0.0192029
0.0194187
0.0196482
0.0199025
0.0201902
0.0205123
0.0208658
0.0212471
0.0216526
0.0220789
0.0225227
0.0229807
0.02345
0.0239279
0.0244121
0.0249001
0.025392
0.0258927
0.0264452
0.0270919
0.0278033
0.0285463
0.029297
0.0300393
0.030762
0.0314564
0.0321173
0.0327408
0.0333257
0.0338707
0.0343741
0.0348315
0.0352378
0.0356004
0.0359249
0.0362138
0.0364708
0.0366993
0.0151164
0.0151565
0.0151986
0.0152427
0.0152886
0.0153364
0.0153858
0.0154367
0.0154891
0.0155429
0.0155982
0.0156552
0.0157139
0.0157744
0.0158368
0.0159008
0.0159666
0.0160338
0.0161025
0.0161724
0.0162434
0.0163153
0.0163879
0.016461
0.0165344
0.0166078
0.0166811
0.0167539
0.0168262
0.0168978
0.0169684
0.0170382
0.0171071
0.0171757
0.0172447
0.017315
0.0173869
0.0174607
0.0175364
0.0176137
0.0176925
0.0177727
0.017854
0.0179364
0.0180197
0.0181038
0.0181886
0.0182741
0.0183603
0.0184472
0.0185347
0.018623
0.0187121
0.018802
0.018893
0.018985
0.0190783
0.019173
0.0192692
0.0193672
0.019467
0.019569
0.0196732
0.01978
0.0198896
0.0200022
0.0201183
0.0202391
0.0203673
0.0205083
0.0206648
0.0208367
0.021023
0.0212231
0.0214361
0.0216618
0.0218997
0.0221496
0.0224111
0.0226841
0.0229682
0.023263
0.0235682
0.0238831
0.0242073
0.0245403
0.0248813
0.02523
0.0255857
0.0259494
0.0263259
0.0267514
0.0272412
0.0277769
0.0283407
0.0289196
0.0295044
0.0300878
0.0306641
0.0312285
0.0317764
0.0323048
0.0328108
0.0332927
0.0337492
0.0341785
0.0345763
0.0349379
0.0352676
0.0355686
0.0358443
0.0360965
0.0363246
0.03653
0.0367157
0.0368816
0.0370278
0.0371558
0.0372674
0.0373632
0.0374455
0.0375186
0.0375855
0.037649
0.037709
0.0377628
0.0378121
0.0378577
0.0163404
0.0164614
0.0165867
0.0167158
0.0168485
0.0169843
0.0171228
0.0172635
0.0174062
0.0175509
0.0176983
0.0178489
0.0180029
0.0181603
0.0183207
0.0184839
0.0186493
0.0188165
0.0189849
0.0191539
0.0193229
0.0194915
0.019659
0.0198251
0.0199893
0.020151
0.02031
0.0204658
0.0206182
0.0207669
0.020912
0.0210536
0.0211922
0.0213296
0.0214685
0.0216099
0.0217537
0.0218994
0.0220466
0.0221948
0.0223438
0.0224934
0.0226433
0.0227935
0.0229437
0.0230939
0.023244
0.0233939
0.0235436
0.0236933
0.023843
0.0239929
0.024143
0.0242937
0.024445
0.0245973
0.0247506
0.0249054
0.0250617
0.0252199
0.0253802
0.0255429
0.0257082
0.0258765
0.026048
0.0262231
0.0264021
0.0265865
0.0267804
0.0270034
0.0272548
0.0275277
0.0278171
0.0281195
0.0284327
0.0287553
0.0290859
0.0294234
0.0297667
0.0301149
0.0304665
0.0308204
0.0311752
0.0315295
0.0318819
0.032231
0.0325755
0.0329141
0.033246
0.0335703
0.0338854
0.0341863
0.0344708
0.034741
0.0349973
0.03524
0.0354703
0.0356876
0.0358912
0.0360811
0.0362581
0.0364221
0.0365716
0.0367081
0.0368327
0.0369442
0.0370435
0.0371332
0.0372145
0.0372893
0.0373598
0.0374246
0.0374853
0.0375439
0.0375972
0.0376443
0.0376892
0.0377317
0.0377693
0.0378017
0.0378293
0.0378524
0.037874
0.0378951
0.0379156
0.0379373
0.0379606
0.037983
0.0195418
0.0198191
0.0201
0.0203833
0.0206676
0.0209519
0.0212348
0.0215155
0.0217936
0.0220706
0.0223485
0.0226277
0.0229073
0.0231863
0.0234638
0.0237389
0.024011
0.0242794
0.0245437
0.0248033
0.0250576
0.025306
0.0255483
0.025784
0.0260126
0.0262338
0.0264472
0.0266527
0.0268504
0.0270404
0.0272233
0.0273996
0.0275704
0.0277398
0.0279183
0.0281036
0.0282925
0.0284828
0.028673
0.0288617
0.0290483
0.0292322
0.0294132
0.0295912
0.0297662
0.0299381
0.0301072
0.0302736
0.0304374
0.0305988
0.0307581
0.0309155
0.0310712
0.0312254
0.0313784
0.0315305
0.0316818
0.0318326
0.031983
0.0321334
0.0322837
0.0324343
0.0325852
0.0327366
0.0328886
0.0330412
0.0331948
0.0333493
0.0335044
0.0336573
0.0338082
0.0339577
0.0341063
0.0342541
0.0344011
0.0345472
0.0346921
0.0348355
0.0349772
0.0351169
0.0352541
0.0353886
0.0355201
0.0356479
0.0357718
0.0358917
0.0360067
0.0361171
0.0362228
0.0363232
0.0364182
0.0365078
0.0365932
0.0366745
0.0367525
0.0368297
0.0369039
0.0369739
0.0370425
0.0371091
0.0371716
0.03723
0.0372868
0.0373408
0.0373893
0.0374349
0.0374782
0.0375158
0.03755
0.0375829
0.0376135
0.0376432
0.0376748
0.0377052
0.0377338
0.0377636
0.0377943
0.0378222
0.037849
0.0378753
0.0378995
0.0379212
0.0379408
0.037958
0.0379742
0.037991
0.0380088
0.0380272
0.0254713
0.0258785
0.0262777
0.0266677
0.0270476
0.0274166
0.027774
0.0281189
0.0284519
0.0287794
0.0291105
0.0294422
0.0297709
0.0300938
0.0304088
0.0307141
0.0310082
0.0312902
0.0315595
0.0318158
0.0320586
0.032288
0.0325045
0.0327082
0.0328992
0.0330774
0.033243
0.0333969
0.0335399
0.0336726
0.0337962
0.0339117
0.0340198
0.0341206
0.0342129
0.0342979
0.0343764
0.0344491
0.0345167
0.0345795
0.0346381
0.0346928
0.0347439
0.0347918
0.034837
0.0348797
0.0349203
0.0349592
0.0349967
0.0350331
0.0350687
0.0351037
0.0351384
0.0351729
0.0352075
0.0352422
0.0352774
0.035313
0.0353492
0.0353861
0.0354238
0.0354623
0.0355018
0.0355423
0.0355839
0.0356266
0.0356705
0.0357155
0.0357615
0.0358087
0.0358574
0.0359079
0.0359603
0.0360144
0.0360699
0.0361265
0.0361839
0.036242
0.0363006