/*--------------------------------*- C++ -*----------------------------------*\
| =========                 |                                                 |
| \\      /  F ield         | OpenFOAM: The Open Source CFD Toolbox           |
|  \\    /   O peration     | Version:  v1706                                 |
|   \\  /    A nd           | Web:      www.OpenFOAM.com                      |
|    \\/     M anipulation  |                                                 |
\*---------------------------------------------------------------------------*/
FoamFile
{
    version     2.0;
    format      ascii;
    class       volScalarField;
    location    "3.8e-05";
    object      Tov;
}
// * * * * * * * * * * * * * * * * * * * * * * * * * * * * * * * * * * * * * //

dimensions      [0 0 0 1 0 0 0];


internalField   nonuniform List<scalar> 
29871
(
144.4
144.4
144.4
144.4
144.4
144.4
144.4
144.4
144.4
144.4
144.4
144.4
144.4
144.4
144.4
144.4
144.4
144.4
144.4
144.4
144.4
144.4
144.4
144.4
144.4
144.4
144.4
144.4
144.4
144.4
144.4
144.4
144.4
144.4
144.4
144.4
144.4
144.4
144.4
144.4
144.4
144.4
144.4
144.4
144.4
144.4
144.4
144.4
144.4
144.4
144.4
144.4
144.4
144.4
144.4
144.4
144.4
144.4
144.4
144.4
144.4
144.4
144.4
144.4
144.4
144.4
144.4
144.4
144.4
144.4
144.4
144.4
144.4
144.4
144.4
144.4
144.4
144.4
144.4
144.4
144.4
144.4
144.4
144.4
144.4
144.4
144.4
144.4
144.4
144.4
144.4
144.4
144.4
144.4
144.4
144.4
144.4
144.4
144.4
144.4
144.4
144.4
144.4
144.4
144.4
144.4
144.4
144.4
144.4
144.4
144.4
144.4
144.4
144.4
144.4
144.4
144.4
144.4
144.4
144.4
144.4
144.4
144.4
144.4
144.4
144.4
144.4
144.4
144.4
144.4
144.4
144.4
144.4
144.4
144.4
144.4
144.4
144.4
144.4
144.4
144.4
144.4
144.4
144.4
144.4
144.4
144.4
144.4
144.4
144.4
144.4
144.4
144.4
144.4
144.4
144.4
144.4
144.4
144.4
144.4
144.4
144.4
144.4
144.4
144.4
144.4
144.4
144.4
144.4
144.4
144.4
144.4
144.4
144.4
144.4
144.4
144.4
144.4
144.4
144.4
144.4
144.4
144.4
144.4
144.4
144.4
144.4
144.4
144.4
144.4
144.4
144.4
144.4
144.4
144.4
144.4
144.4
144.4
144.4
144.4
144.4
144.4
144.4
144.4
144.4
144.4
144.4
144.4
144.4
144.4
144.4
144.4
144.4
144.4
144.4
144.4
144.4
144.4
144.4
144.4
144.4
144.4
144.4
144.4
144.4
144.4
144.4
144.4
144.4
144.4
144.4
144.4
144.4
144.4
144.4
144.4
144.4
144.4
144.4
144.4
144.4
144.4
144.4
144.4
144.4
144.4
144.4
144.4
144.4
144.4
144.4
144.4
144.4
144.4
144.4
144.4
144.4
144.4
144.4
144.4
144.4
144.4
144.4
144.4
144.4
144.4
144.4
144.4
144.4
144.4
144.4
144.4
144.4
144.4
144.4
144.4
144.4
144.4
144.4
144.4
144.4
144.4
144.4
144.4
144.4
144.4
144.4
144.4
144.4
144.4
144.4
144.4
144.4
144.4
144.4
144.4
144.4
144.4
144.4
144.4
144.4
144.4
144.4
144.4
144.4
144.4
144.4
144.4
144.4
144.4
144.4
144.4
144.4
144.4
144.4
144.4
144.4
144.4
144.4
144.4
144.4
144.4
144.4
144.4
144.4
144.4
144.4
144.4
144.4
144.4
144.4
144.4
144.4
144.4
144.4
144.4
144.4
144.4
144.4
144.4
144.4
144.4
144.4
144.4
144.4
144.4
144.4
144.4
144.4
144.4
144.4
144.4
144.4
144.4
144.4
144.4
144.4
144.4
144.4
144.4
144.4
144.4
144.4
144.4
144.4
144.4
144.4
144.4
144.4
144.4
144.4
144.4
144.4
144.4
144.4
144.4
144.4
144.4
144.4
144.4
144.4
144.4
144.4
144.4
144.4
144.4
144.4
144.4
144.4
144.4
144.4
144.4
144.4
144.4
144.4
144.4
144.4
144.4
144.4
144.4
144.4
144.4
144.4
144.4
144.4
144.4
144.4
144.4
144.4
144.4
144.4
144.4
144.4
144.4
144.4
144.4
144.4
144.4
144.4
144.4
144.4
144.4
144.4
144.4
144.4
144.4
144.4
144.4
144.4
144.4
144.4
144.4
144.4
144.4
144.4
144.4
144.4
144.4
144.4
144.4
144.4
144.4
144.4
144.4
144.4
144.4
144.4
144.4
144.4
144.4
144.4
144.4
144.4
144.4
144.4
144.4
144.4
144.4
144.4
144.4
144.4
144.4
144.4
144.4
144.4
144.4
144.4
144.4
144.4
144.4
144.4
144.4
144.4
144.4
144.4
144.4
144.4
144.4
144.4
144.4
144.4
144.4
144.4
144.4
144.4
144.4
144.4
144.4
144.4
144.4
144.4
144.4
144.4
144.4
144.4
144.4
144.4
144.4
144.4
144.4
144.4
144.4
144.4
144.4
144.4
144.4
144.4
144.4
144.4
144.4
144.4
144.4
144.4
144.4
144.4
144.4
144.4
144.4
144.4
144.4
144.4
144.4
144.4
144.4
144.4
144.4
144.4
144.4
144.4
144.4
144.4
144.4
144.4
144.4
144.4
144.4
144.4
144.4
144.4
144.4
144.4
144.4
144.4
144.4
144.4
144.4
144.4
144.4
144.4
144.4
144.4
144.4
144.4
144.4
144.4
144.4
144.4
144.4
144.4
144.4
144.4
144.4
144.4
144.4
144.4
144.4
144.4
144.4
144.4
144.4
144.4
144.4
144.4
144.4
144.4
144.4
144.4
144.4
144.4
144.4
144.4
144.4
144.4
144.4
144.4
144.4
144.4
144.4
144.4
144.4
144.4
144.4
144.4
144.4
144.4
144.4
144.4
144.4
144.4
144.4
144.4
144.4
144.4
144.4
144.4
144.4
144.4
144.4
144.4
144.4
144.4
144.4
144.4
144.4
144.4
144.4
144.4
144.4
144.4
144.4
144.4
144.4
144.4
144.4
144.4
144.4
144.4
144.4
144.4
144.4
144.4
144.4
144.4
144.4
144.4
144.4
144.4
144.4
144.4
144.4
144.4
144.4
144.4
144.4
144.4
144.4
144.4
144.4
144.4
144.4
144.4
144.4
144.4
144.4
144.4
144.4
144.4
144.4
144.4
144.4
144.4
144.4
144.4
144.4
144.4
144.4
144.4
144.4
144.4
144.4
144.4
144.4
144.4
144.4
144.4
144.4
144.4
144.4
144.4
144.4
144.4
144.4
144.4
144.4
144.4
144.4
144.4
144.4
144.4
144.4
144.4
144.4
144.4
144.4
144.4
144.4
144.4
144.4
144.4
144.4
144.4
144.4
144.4
144.4
144.4
144.4
144.4
144.4
144.4
144.4
144.4
144.4
144.4
144.4
144.4
144.4
144.4
144.4
144.4
144.4
144.4
144.4
144.4
144.4
144.4
144.4
144.4
144.4
144.4
144.4
144.4
144.4
144.4
144.4
144.4
144.4
144.4
144.4
144.4
144.4
144.4
144.4
144.4
144.4
144.4
144.4
144.4
144.4
144.4
144.4
144.4
144.4
144.4
144.4
144.4
144.4
144.4
144.4
144.4
144.4
144.4
144.4
144.4
144.4
144.4
144.4
144.4
144.4
144.4
144.4
144.4
144.4
144.4
144.4
144.4
144.4
144.4
144.4
144.4
144.4
144.4
144.4
144.4
144.4
144.4
144.4
144.4
144.4
144.4
144.4
144.4
144.4
144.4
144.4
144.4
144.4
144.4
144.4
144.4
144.4
144.4
144.4
144.4
144.4
144.4
144.4
144.4
144.4
144.4
144.4
144.4
144.4
144.4
144.4
144.4
144.4
144.4
144.4
144.4
144.4
144.4
144.4
144.4
144.4
144.4
144.4
144.4
144.4
144.4
144.4
144.4
144.4
144.4
144.4
144.4
144.4
144.4
144.4
144.4
144.4
144.4
144.4
144.4
144.4
144.4
144.4
144.4
144.4
144.4
144.4
144.4
144.4
144.4
144.4
144.4
144.4
144.4
144.4
144.4
144.4
144.4
144.4
144.4
144.4
144.4
144.4
144.4
144.4
144.4
144.4
144.4
144.4
144.4
144.4
144.4
144.4
144.4
144.4
144.4
144.4
144.4
144.4
144.4
144.4
144.4
144.4
144.4
144.4
144.4
144.4
144.4
144.4
144.4
144.4
144.4
144.4
144.4
144.4
144.4
144.4
144.4
144.4
144.4
144.4
144.4
144.4
144.4
144.4
144.4
144.4
144.4
144.4
144.4
144.4
144.4
144.4
144.4
144.4
144.4
144.4
144.4
144.4
144.4
144.4
144.4
144.4
144.4
144.4
144.4
144.4
144.4
144.4
144.4
144.4
144.4
144.4
144.4
144.4
144.4
144.4
144.4
144.4
144.4
144.4
144.4
144.4
144.4
144.4
144.4
144.4
144.4
144.4
144.4
144.4
144.4
144.4
144.4
144.4
144.4
144.4
144.4
144.4
144.4
144.4
144.4
144.4
144.4
144.4
144.4
144.4
144.4
144.4
144.4
144.4
144.4
144.4
144.4
144.4
144.4
144.4
144.4
144.4
144.4
144.4
144.4
144.4
144.4
144.4
144.4
144.4
144.4
144.4
144.4
144.4
144.4
144.4
144.4
144.4
144.4
144.4
144.4
144.4
144.4
144.4
144.4
144.4
144.4
144.4
144.4
144.4
144.4
144.4
144.4
144.4
144.4
144.4
144.4
144.4
144.4
144.4
144.4
144.4
144.4
144.4
144.4
144.4
144.4
144.4
144.4
144.4
144.4
144.4
144.4
144.4
144.4
144.4
144.4
144.4
144.4
144.4
144.4
144.4
144.4
144.4
144.4
144.4
144.4
144.4
144.4
144.4
144.4
144.4
144.4
144.4
144.4
144.4
144.4
144.4
144.4
144.4
144.4
144.4
144.4
144.4
144.4
144.4
144.4
144.4
144.4
144.4
144.4
144.4
144.4
144.4
144.4
144.4
144.4
144.4
144.4
144.4
144.4
144.4
144.4
144.4
144.4
144.4
144.4
144.4
144.4
144.4
144.4
144.4
144.4
144.4
144.4
144.4
144.4
144.4
144.4
144.4
144.4
144.4
144.4
144.4
144.4
144.4
144.4
144.4
144.4
144.4
144.4
144.4
144.4
144.4
144.4
144.4
144.4
144.4
144.4
144.4
144.4
144.4
144.4
144.4
144.4
144.4
144.4
144.4
144.4
144.4
144.4
144.4
144.4
144.4
144.4
144.4
144.4
144.4
144.4
144.4
144.4
144.4
144.4
144.4
144.4
144.4
144.4
144.4
144.4
144.4
144.4
144.4
144.4
144.4
144.4
144.4
144.4
144.4
144.4
144.4
144.4
144.4
144.4
144.4
144.4
144.4
144.4
144.4
144.4
144.4
144.4
144.4
144.4
144.4
144.4
144.4
144.4
144.4
144.4
144.4
144.4
144.4
144.4
144.4
144.4
144.4
144.4
144.4
144.4
144.4
144.4
144.4
144.4
144.4
144.4
144.4
144.4
144.4
144.4
144.4
144.4
144.4
144.4
144.4
144.4
144.4
144.4
144.4
144.4
144.4
144.4
144.4
144.4
144.4
144.4
144.4
144.4
144.4
144.4
144.4
144.4
144.4
144.4
144.4
144.4
144.4
144.4
144.4
144.4
144.4
144.4
144.4
144.4
144.4
144.4
144.4
144.4
144.4
144.4
144.4
144.4
144.4
144.4
144.4
144.4
144.4
144.4
144.4
144.4
144.4
144.4
144.4
144.4
144.4
144.4
144.4
144.4
144.4
144.4
144.4
144.4
144.4
144.4
144.4
144.4
144.4
144.4
144.4
144.4
144.4
144.4
144.4
144.4
144.4
144.4
144.4
144.4
144.4
144.4
144.4
144.4
144.4
144.4
144.4
144.4
144.4
144.4
144.4
144.4
144.4
144.4
144.4
144.4
144.4
144.4
144.4
144.4
144.4
144.4
144.4
144.4
144.4
144.4
144.4
144.4
144.4
144.4
144.4
144.4
144.4
144.4
144.4
144.4
144.4
144.4
144.4
144.4
144.4
144.4
144.4
144.4
144.4
144.4
144.4
144.4
144.4
144.4
144.4
144.4
144.4
144.4
144.4
144.4
144.4
144.4
144.4
144.4
144.4
144.4
144.4
144.4
144.4
144.4
144.4
144.4
144.4
144.4
144.4
144.4
144.4
144.4
144.4
144.4
144.4
144.4
144.4
144.4
144.4
144.4
144.4
144.4
144.4
144.4
144.4
144.4
144.4
144.4
144.4
144.4
144.4
144.4
144.4
144.4
144.4
144.4
144.4
144.4
144.4
144.4
144.4
144.4
144.4
144.4
144.4
144.4
144.4
144.4
144.4
144.4
144.4
144.4
144.4
144.4
144.4
144.4
144.4
144.4
144.4
144.4
144.4
144.4
144.4
144.4
144.4
144.4
144.4
144.4
144.4
144.4
144.4
144.4
144.4
144.4
144.4
144.4
144.4
144.4
144.4
144.4
144.4
144.4
144.4
144.4
144.4
144.4
144.4
144.4
144.4
144.4
144.4
144.4
144.4
144.4
144.4
144.4
144.4
144.4
144.4
144.4
144.4
144.4
144.4
144.4
144.4
144.4
144.4
144.4
144.4
144.4
144.4
144.4
144.4
144.4
144.4
144.4
144.4
144.4
144.4
144.4
144.4
144.4
144.4
144.4
144.4
144.4
144.4
144.4
144.4
144.4
144.4
144.4
144.4
144.4
144.4
144.4
144.4
144.4
144.4
144.4
144.4
144.4
144.4
144.4
144.4
144.4
144.4
144.4
144.4
144.4
144.4
144.4
144.4
144.4
144.4
144.4
144.4
144.4
144.4
144.4
144.4
144.4
144.4
144.4
144.4
144.4
144.4
144.4
144.4
144.401
144.401
144.401
144.401
144.401
144.401
144.401
144.401
144.401
144.401
144.401
144.401
144.401
144.402
144.402
144.4
144.4
144.4
144.4
144.4
144.4
144.4
144.4
144.4
144.4
144.4
144.4
144.4
144.4
144.4
144.4
144.4
144.4
144.4
144.4
144.4
144.4
144.4
144.4
144.4
144.4
144.4
144.4
144.4
144.4
144.4
144.4
144.4
144.4
144.4
144.4
144.4
144.4
144.4
144.4
144.4
144.4
144.4
144.4
144.4
144.4
144.4
144.4
144.4
144.4
144.4
144.4
144.4
144.4
144.4
144.4
144.4
144.4
144.4
144.4
144.4
144.4
144.4
144.4
144.4
144.4
144.4
144.4
144.401
144.401
144.401
144.401
144.401
144.401
144.401
144.401
144.401
144.401
144.401
144.401
144.401
144.401
144.401
144.401
144.401
144.401
144.401
144.401
144.401
144.401
144.401
144.401
144.401
144.402
144.402
144.402
144.402
144.402
144.402
144.402
144.403
144.403
144.403
144.403
144.404
144.404
144.404
144.405
144.405
144.406
144.406
144.407
144.408
144.408
144.409
144.4
144.4
144.4
144.4
144.4
144.4
144.4
144.4
144.4
144.4
144.4
144.4
144.4
144.4
144.4
144.401
144.401
144.401
144.401
144.401
144.401
144.401
144.401
144.401
144.401
144.401
144.401
144.401
144.401
144.401
144.401
144.401
144.401
144.401
144.401
144.401
144.401
144.401
144.401
144.401
144.401
144.401
144.401
144.401
144.401
144.401
144.401
144.401
144.401
144.402
144.402
144.402
144.402
144.402
144.402
144.402
144.402
144.402
144.402
144.402
144.402
144.402
144.402
144.402
144.402
144.402
144.402
144.402
144.402
144.402
144.402
144.402
144.403
144.403
144.403
144.403
144.403
144.403
144.403
144.403
144.403
144.404
144.404
144.404
144.404
144.404
144.405
144.405
144.405
144.406
144.406
144.406
144.407
144.407
144.408
144.409
144.409
144.41
144.411
144.411
144.412
144.414
144.415
144.416
144.418
144.419
144.421
144.423
144.426
144.428
144.431
144.434
144.438
144.442
144.446
144.451
144.401
144.401
144.401
144.401
144.401
144.401
144.401
144.401
144.401
144.401
144.401
144.401
144.401
144.401
144.401
144.402
144.402
144.402
144.402
144.402
144.402
144.402
144.402
144.402
144.402
144.403
144.403
144.403
144.403
144.403
144.403
144.403
144.403
144.403
144.404
144.404
144.404
144.404
144.404
144.404
144.404
144.404
144.405
144.405
144.405
144.405
144.405
144.405
144.405
144.405
144.406
144.406
144.406
144.406
144.406
144.406
144.406
144.406
144.407
144.407
144.407
144.407
144.407
144.407
144.407
144.408
144.408
144.408
144.408
144.408
144.408
144.409
144.409
144.409
144.409
144.41
144.41
144.41
144.411
144.411
144.411
144.412
144.412
144.413
144.414
144.414
144.415
144.416
144.416
144.417
144.418
144.419
144.42
144.421
144.422
144.424
144.426
144.427
144.43
144.432
144.434
144.437
144.44
144.443
144.446
144.45
144.454
144.459
144.464
144.47
144.477
144.485
144.494
144.504
144.514
144.526
144.538
144.552
144.567
144.585
144.605
144.628
144.655
144.402
144.402
144.403
144.403
144.403
144.403
144.404
144.404
144.404
144.404
144.405
144.405
144.405
144.406
144.406
144.406
144.407
144.407
144.407
144.408
144.408
144.409
144.409
144.409
144.41
144.41
144.411
144.411
144.412
144.412
144.413
144.413
144.414
144.414
144.415
144.415
144.416
144.416
144.417
144.417
144.418
144.418
144.419
144.419
144.42
144.42
144.421
144.421
144.422
144.422
144.423
144.423
144.424
144.424
144.425
144.426
144.426
144.427
144.427
144.428
144.428
144.429
144.43
144.43
144.431
144.432
144.432
144.433
144.434
144.434
144.435
144.436
144.437
144.438
144.44
144.441
144.442
144.444
144.446
144.447
144.449
144.452
144.454
144.456
144.459
144.462
144.465
144.468
144.471
144.475
144.479
144.484
144.489
144.494
144.501
144.508
144.516
144.525
144.535
144.545
144.557
144.57
144.584
144.599
144.615
144.632
144.652
144.675
144.701
144.731
144.764
144.802
144.844
144.891
144.942
144.998
145.058
145.124
145.198
145.283
145.382
145.498
145.632
144.409
144.41
144.411
144.412
144.412
144.413
144.414
144.415
144.417
144.418
144.419
144.42
144.421
144.423
144.424
144.425
144.427
144.428
144.43
144.432
144.433
144.435
144.437
144.438
144.44
144.442
144.444
144.446
144.448
144.449
144.451
144.453
144.455
144.457
144.459
144.461
144.463
144.464
144.466
144.468
144.47
144.472
144.474
144.476
144.478
144.48
144.483
144.485
144.487
144.489
144.491
144.494
144.496
144.498
144.501
144.503
144.505
144.508
144.51
144.513
144.515
144.518
144.52
144.523
144.526
144.529
144.532
144.535
144.538
144.541
144.545
144.549
144.554
144.559
144.564
144.57
144.577
144.584
144.592
144.6
144.609
144.619
144.629
144.641
144.652
144.665
144.679
144.693
144.709
144.725
144.744
144.764
144.787
144.813
144.842
144.876
144.913
144.954
145
145.049
145.104
145.163
145.226
145.294
145.369
145.451
145.544
145.651
145.774
145.916
146.077
146.258
146.459
146.679
146.919
147.179
147.46
147.767
148.112
148.513
148.985
149.538
150.176
144.437
144.44
144.443
144.446
144.45
144.454
144.458
144.462
144.466
144.471
144.475
144.48
144.485
144.49
144.495
144.501
144.507
144.512
144.519
144.525
144.531
144.538
144.544
144.551
144.558
144.565
144.572
144.579
144.587
144.594
144.601
144.608
144.616
144.623
144.63
144.637
144.645
144.652
144.659
144.667
144.675
144.683
144.691
144.699
144.707
144.716
144.724
144.733
144.742
144.751
144.76
144.769
144.779
144.788
144.798
144.807
144.817
144.827
144.837
144.847
144.858
144.869
144.88
144.891
144.902
144.914
144.927
144.94
144.954
144.968
144.985
145.003
145.023
145.045
145.069
145.096
145.125
145.156
145.19
145.227
145.266
145.308
145.354
145.403
145.455
145.511
145.57
145.633
145.702
145.775
145.856
145.947
146.05
146.169
146.303
146.454
146.623
146.81
147.016
147.24
147.483
147.745
148.027
148.33
148.659
149.024
149.442
149.926
150.485
151.125
151.848
152.652
153.539
154.505
155.55
156.671
157.874
159.18
160.658
162.395
164.453
166.847
169.568
172.589
175.878
144.545
144.557
144.569
144.583
144.596
144.611
144.626
144.642
144.658
144.675
144.693
144.711
144.73
144.75
144.77
144.791
144.813
144.835
144.858
144.882
144.906
144.932
144.957
144.983
145.01
145.036
145.063
145.091
145.118
145.145
145.173
145.2
145.227
145.254
145.282
145.309
145.337
145.365
145.394
145.423
145.453
145.483
145.514
145.546
145.578
145.611
145.645
145.679
145.713
145.748
145.784
145.82
145.856
145.894
145.931
145.97
146.009
146.048
146.089
146.13
146.172
146.216
146.26
146.306
146.353
146.402
146.453
146.507
146.564
146.628
146.698
146.776
146.862
146.957
147.062
147.175
147.299
147.433
147.577
147.733
147.9
148.08
148.273
148.479
148.699
148.934
149.184
149.451
149.737
150.047
150.39
150.779
151.223
151.729
152.303
152.945
153.659
154.444
155.301
156.229
157.23
158.303
159.449
160.673
161.995
163.47
165.174
167.156
169.437
172.012
174.867
177.985
181.345
184.927
188.714
192.69
196.857
201.291
206.265
212.094
218.837
226.396
234.62
243.354
252.461
144.959
145.004
145.051
145.1
145.152
145.207
145.264
145.323
145.384
145.448
145.514
145.582
145.653
145.726
145.802
145.88
145.961
146.044
146.13
146.218
146.308
146.4
146.494
146.589
146.686
146.784
146.882
146.981
147.081
147.18
147.279
147.377
147.476
147.574
147.673
147.774
147.876
147.981
148.088
148.198
148.31
148.426
148.544
148.664
148.786
148.911
149.038
149.167
149.297
149.43
149.565
149.701
149.84
149.981
150.125
150.271
150.42
150.572
150.727
150.886
151.049
151.216
151.388
151.566
151.75
151.94
152.14
152.351
152.581
152.835
153.116
153.429
153.774
154.153
154.567
155.017
155.503
156.028
156.594
157.201
157.852
158.549
159.294
160.088
160.933
161.832
162.787
163.801
164.882
166.049
167.349
168.834
170.538
172.473
174.64
177.034
179.648
182.473
185.502
188.725
192.134
195.72
199.477
203.41
207.584
212.21
217.527
223.589
230.332
237.66
245.474
253.678
262.182
270.911
279.801
288.789
297.866
307.13
317.515
330.031
344.011
358.686
373.497
388.053
402.097
146.345
146.5
146.664
146.837
147.017
147.206
147.403
147.608
147.82
148.04
148.267
148.502
148.745
148.997
149.258
149.528
149.808
150.097
150.394
150.699
151.012
151.331
151.657
151.987
152.322
152.66
153
153.341
153.682
154.022
154.361
154.698
155.033
155.367
155.702
156.042
156.387
156.741
157.103
157.475
157.855
158.244
158.641
159.046
159.459
159.88
160.307
160.74
161.181
161.627
162.081
162.54
163.007
163.481
163.963
164.453
164.952
165.461
165.981
166.514
167.059
167.619
168.194
168.787
169.399
170.031
170.688
171.376
172.108
172.91
173.804
174.801
175.907
177.122
178.443
179.873
181.411
183.059
184.82
186.697
188.692
190.81
193.051
195.419
197.916
200.543
203.302
206.195
209.223
212.406
215.804
219.582
223.878
228.714
234.053
239.849
246.054
252.622
259.507
266.664
274.049
281.624
289.353
297.198
305.162
313.319
322.376
333.065
344.934
357.451
370.215
382.954
395.462
407.582
419.203
430.247
440.674
450.45
459.527
467.82
475.219
481.845
487.796
493.112
497.851
502.076
151.442
151.985
152.556
153.154
153.778
154.427
155.099
155.793
156.508
157.243
158
158.78
159.585
160.416
161.273
162.155
163.062
163.991
164.94
165.909
166.893
167.892
168.902
169.921
170.945
171.972
172.998
174.02
175.035
176.041
177.037
178.021
178.994
179.964
180.942
181.939
182.961
184.011
185.088
186.191
187.318
188.466
189.632
190.815
192.013
193.224
194.448
195.684
196.932
198.191
199.463
200.747
202.046
203.359
204.689
206.038
207.407
208.799
210.216
211.661
213.136
214.645
216.192
217.779
219.41
221.09
222.826
224.634
226.558
228.678
231.037
233.635
236.462
239.505
242.759
246.217
249.877
253.737
257.794
262.045
266.489
271.121
275.937
280.931
286.097
291.427
296.913
302.55
308.328
314.265
320.441
327.45
335.571
344.516
353.997
363.804
373.783
383.809
393.781
403.611
413.216
422.533
431.508
440.1
448.28
456.009
463.203
469.767
475.773
481.274
486.325
490.959
495.16
498.953
502.387
505.46
508.172
510.55
512.627
514.41
515.944
517.306
518.554
519.74
520.86
521.866
522.787
523.639
168.242
169.928
171.677
173.486
175.35
177.262
179.218
181.211
183.237
185.299
187.405
189.563
191.776
194.044
196.364
198.731
201.138
203.578
206.043
208.526
211.016
213.507
215.991
218.46
220.908
223.327
225.711
228.054
230.351
232.6
234.798
236.949
239.059
241.155
243.279
245.446
247.655
249.899
252.17
254.463
256.774
259.099
261.436
263.781
266.133
268.489
270.849
273.211
275.577
277.947
280.322
282.705
285.099
287.505
289.928
292.37
294.836
297.329
299.853
302.413
305.013
307.658
310.352
313.1
315.907
318.779
321.723
324.763
327.966
331.655
335.831
340.381
345.223
350.303
355.587
361.048
366.669
372.43
378.316
384.308
390.385
396.527
402.709
408.908
415.097
421.252
427.352
433.366
439.286
445.087
450.745
456.167
461.308
466.204
470.86
475.282
479.485
483.462
487.196
490.685
493.943
496.967
499.728
502.253
504.56
506.628
508.47
510.136
511.648
513.04
514.351
515.558
516.689
517.781
518.775
519.655
520.492
521.287
521.989
522.595
523.112
523.543
523.947
524.342
524.725
525.131
525.568
525.987
214.255
218.373
222.566
226.814
231.101
235.406
239.712
244.004
248.275
252.548
256.855
261.2
265.571
269.952
274.326
278.682
283.006
287.29
291.524
295.698
299.802
303.826
307.763
311.606
315.346
318.974
322.486
325.877
329.147
332.298
335.339
338.277
341.13
343.964
346.958
350.071
353.254
356.469
359.687
362.89
366.064
369.199
372.292
375.339
378.341
381.298
384.211
387.082
389.915
392.712
395.477
398.214
400.926
403.618
406.293
408.956
411.61
414.26
416.908
419.558
422.214
424.877
427.55
430.237
432.939
435.657
438.396
441.156
443.931
446.672
449.381
452.07
454.746
457.411
460.067
462.709
465.334
467.936
470.511
473.053
475.554
478.008
480.41
482.748
485.019
487.217
489.33
491.359
493.303
495.154
496.906
498.559
500.138
501.64
503.083
504.512
505.887
507.185
508.456
509.694
510.853
511.94
512.996
514
514.903
515.752
516.56
517.26
517.897
518.512
519.082
519.636
520.225
520.793
521.327
521.883
522.457
522.978
523.479
523.971
524.423
524.83
525.198
525.519
525.822
526.136
526.469
526.814
306.514
313.155
319.699
326.128
332.422
338.566
344.543
350.338
355.956
361.504
367.135
372.799
378.433
383.991
389.432
394.726
399.843
404.763
409.478
413.979
418.254
422.304
426.135
429.749
433.143
436.317
439.272
442.023
444.582
446.962
449.181
451.257
453.202
455.018
456.683
458.216
459.634
460.949
462.171
463.309
464.37
465.36
466.288
467.158
467.977
468.752
469.49
470.197
470.879
471.541
472.188
472.826
473.457
474.086
474.716
475.35
475.991
476.64
477.301
477.974
478.661
479.365
480.087
480.828
481.588
482.369
483.173
483.997
484.84
485.704
486.597
487.524
488.485
489.478
490.497
491.538
492.594
493.663
494.742
495.825
496.91
497.995
499.074
500.142
501.204
502.244
503.264
504.268
505.24
506.184
507.1
507.985
508.817
509.602
510.409
511.186
511.913
512.696
513.483
514.198
514.931
515.673
516.376
517.052
517.712
518.373
518.978
519.531
520.074
520.561
520.975
521.409
521.862
522.289
522.702
523.128
523.591
524.041
524.487
524.932
525.363
525.777
526.166
526.52
526.842
527.152
527.468
527.794
528.123
436.316
442.952
449.189
455.02
460.444
465.461
470.073
474.285
478.072
481.44
484.437
487.104
489.473
491.576
493.438
495.07
496.482
497.693
498.724
499.581
500.269
500.804
501.207
501.478
501.621
501.605
501.537
501.421
501.275
501.114
500.946
500.771
500.587
500.394
500.193
499.988
499.78
499.569
499.357
499.144
498.931
498.718
498.507
498.298
498.093
497.895
497.707
497.529
497.366
497.22
497.092
496.986
496.902
496.843
496.807
496.806
496.828
496.878
496.957
497.065
497.204
497.372
497.569
497.796
498.051
498.335
498.648
498.987
499.35
499.738
500.156
500.608
501.096
501.618
502.172
502.754
503.361
503.989
504.632
505.291
505.962
506.639
507.326
508.016
508.7
509.391
510.076
510.746
511.412
512.067
512.702
513.297
513.894
514.484
514.996
515.535
516.138
516.653
517.16
517.755
518.295
518.819
519.385
519.904
520.45
520.987
521.466
521.964
522.439
522.845
523.235
523.619
523.997
524.353
524.717
525.107
525.505
525.909
526.319
526.729
527.135
527.535
527.915
528.266
528.596
528.923
529.25
529.577
525.844
527.701
529.244
530.496
531.484
532.22
532.702
532.95
532.934
532.842
532.675
532.452
532.182
531.87
531.517
531.122
530.687
530.217
529.707
529.163
528.581
527.956
527.293
526.585
525.805
524.944
524.034
523.1
522.159
521.224
520.301
519.395
518.509
517.646
516.811
516.006
515.233
514.494
513.79
513.121
512.488
511.889
511.323
510.789
510.286
509.815
509.373
508.962
508.58
508.23
507.91
507.622
507.366
507.142
506.95
506.793
506.668
506.575
506.514
506.486
506.494
506.528
506.592
506.686
506.807
506.956
507.132
507.333
507.557
507.802
508.068
508.355
508.667
509.005
509.369
509.758
510.17
510.603
511.052
511.519
511.998
512.488
512.994
513.504
514.017
514.546
515.067
515.584
516.107
516.626
517.13
517.608
518.109
518.584
518.975
519.416
519.9
520.275
520.664
521.14
521.551
521.956
522.418
522.834
523.276
523.736
524.15
524.585
525.028
525.417
525.77
526.115
526.452
526.763
527.078
527.413
527.756
528.11
528.476
528.849
529.225
529.606
529.986
530.348
530.69
531.026
531.359
531.687
560.291
559.816
559.261
558.633
557.938
557.127
556.162
555.046
553.863
552.658
551.458
550.261
549.061
547.839
546.671
545.568
544.429
543.291
542.223
541.214
540.183
539.159
538.221
537.316
536.408
535.495
534.563
533.588
532.578
531.552
530.526
529.51
528.512
527.539
526.596
525.685
524.808
523.97
523.171
522.412
521.695
521.019
520.384
519.787
519.229
518.708
518.225
517.777
517.365
516.988
516.646
516.339
516.066
515.827
515.623
515.452
515.314
515.208
515.133
515.086
515.077
515.092
515.13
515.193
515.281
515.391
515.524
515.676
515.846
516.03
516.228
516.44
516.667
516.911
517.171
517.449
517.741
518.047
518.368
518.699
519.041
519.398
519.757
520.127
520.51
520.883
521.262
521.649
522.035
522.409
522.774
523.177
523.528
523.823
524.181
524.551
524.814
525.107
525.471
525.772
526.07
526.43
526.754
527.082
527.453
527.8
528.138
528.515
528.867
529.185
529.497
529.803
530.076
530.346
530.638
530.936
531.239
531.558
531.893
532.233
532.58
532.94
533.298
533.638
533.969
534.303
534.633
574.112
572.818
571.572
570.384
569.248
568.159
567.088
565.947
564.682
563.35
561.981
560.587
559.139
557.748
556.433
555.057
553.699
552.425
551.227
549.982
548.772
547.667
546.627
545.603
544.608
543.644
542.673
541.675
540.66
539.636
538.608
537.586
536.58
535.599
534.647
533.728
532.847
532.008
531.211
530.459
529.752
529.089
528.471
527.897
527.365
526.874
526.423
526.011
525.636
525.298
524.996
524.729
524.495
524.295
524.126
523.989
523.881
523.802
523.748
523.722
523.727
523.747
523.787
523.847
523.924
524.018
524.128
524.25
524.382
524.522
524.669
524.823
524.984
525.154
525.332
525.518
525.712
525.916
526.125
526.343
526.571
526.798
527.039
527.289
527.532
527.789
528.054
528.316
528.569
528.832
529.129
529.362
529.575
529.858
530.114
530.285
530.503
530.77
530.976
531.186
531.461
531.703
531.928
532.224
532.506
532.762
533.054
533.368
533.652
533.918
534.199
534.452
534.677
534.924
535.191
535.452
535.722
536.019
536.328
536.638
536.962
537.302
537.633
537.949
538.27
538.597
538.92
539.243
585.028
583.428
581.88
580.382
578.923
577.517
576.184
574.895
573.504
572.12
570.757
569.263
567.722
566.292
564.886
563.395
561.939
560.603
559.288
557.935
556.657
555.482
554.334
553.226
552.208
551.241
550.321
549.414
548.511
547.61
546.707
545.805
544.909
544.026
543.163
542.324
541.514
540.737
539.997
539.295
538.632
538.011
537.431
536.891
536.393
535.934
535.514
535.131
534.784
534.472
534.193
533.947
533.733
533.548
533.393
533.265
533.163
533.087
533.033
532.999
532.994
533.004
533.027
533.066
533.118
533.182
533.257
533.34
533.431
533.526
533.622
533.72
533.819
533.919
534.021
534.125
534.232
534.343
534.455
534.575
534.697
534.818
534.955
535.092
535.227
535.381
535.536
535.69
535.843
536.016
536.205
536.342
536.487
536.695
536.846
536.944
537.101
537.283
537.403
537.544
537.741
537.903
538.051
538.271
538.48
538.666
538.876
539.145
539.384
539.591
539.822
540.061
540.254
540.443
540.668
540.898
541.12
541.366
541.643
541.922
542.202
542.505
542.821
543.119
543.412
543.725
544.043
544.353
593.126
591.392
589.727
588.105
586.497
584.937
583.508
582.169
580.798
579.524
578.283
576.895
575.558
574.284
572.932
571.531
570.217
568.949
567.626
566.328
565.114
563.946
562.764
561.655
560.617
559.642
558.727
557.859
557.026
556.218
555.424
554.64
553.863
553.095
552.338
551.597
550.877
550.183
549.518
548.884
548.284
547.719
547.19
546.7
546.246
545.828
545.446
545.099
544.784
544.502
544.249
544.026
543.83
543.66
543.516
543.394
543.296
543.217
543.159
543.116
543.092
543.084
543.089
543.102
543.125
543.157
543.196
543.241
543.29
543.34
543.391
543.44
543.486
543.529
543.569
543.608
543.647
543.684
543.721
543.762
543.799
543.838
543.888
543.931
543.98
544.043
544.104
544.167
544.235
544.325
544.411
544.471
544.556
544.684
544.736
544.78
544.882
544.98
545.025
545.11
545.237
545.322
545.411
545.563
545.7
545.815
545.972
546.185
546.369
546.522
546.701
546.906
547.083
547.223
547.392
547.593
547.781
547.975
548.202
548.459
548.705
548.963
549.247
549.53
549.796
550.083
550.392
550.693
599.307
597.748
596.18
594.583
593.021
591.565
590.141
588.736
587.491
586.248
584.968
583.757
582.582
581.303
580.076
578.891
577.678
576.424
575.23
574.093
572.964
571.845
570.763
569.745
568.788
567.884
567.035
566.237
565.483
564.765
564.075
563.404
562.747
562.101
561.467
560.848
560.249
559.672
559.118
558.59
558.092
557.624
557.189
556.786
556.416
556.077
555.768
555.489
555.237
555.012
554.812
554.636
554.481
554.347
554.232
554.135
554.054
553.988
553.935
553.894
553.866
553.847
553.835
553.829
553.83
553.834
553.842
553.852
553.862
553.871
553.878
553.878
553.876
553.868
553.857
553.842
553.824
553.803
553.783
553.757
553.734
553.715
553.687
553.67
553.66
553.645
553.636
553.638
553.652
553.655
553.656
553.686
553.726
553.711
553.715
553.768
553.778
553.772
553.814
553.876
553.892
553.935
554.028
554.101
554.159
554.272
554.428
554.554
554.658
554.803
554.964
555.109
555.222
555.338
555.496
555.669
555.822
555.993
556.214
556.448
556.666
556.905
557.169
557.419
557.676
557.964
558.261
607.411
605.973
604.467
602.931
601.484
600.061
598.602
597.228
595.978
594.702
593.487
592.345
591.189
590.041
588.91
587.836
586.72
585.591
584.487
583.437
582.401
581.372
580.367
579.406
578.492
577.626
576.81
576.045
575.332
574.666
574.043
573.455
572.891
572.346
571.815
571.299
570.8
570.316
569.851
569.404