/*--------------------------------*- C++ -*----------------------------------*\
| =========                 |                                                 |
| \\      /  F ield         | OpenFOAM: The Open Source CFD Toolbox           |
|  \\    /   O peration     | Version:  v1706                                 |
|   \\  /    A nd           | Web:      www.OpenFOAM.com                      |
|    \\/     M anipulation  |                                                 |
\*---------------------------------------------------------------------------*/
FoamFile
{
    version     2.0;
    format      ascii;
    class       volScalarField;
    location    "3.8e-05";
    object      Tv;
}
// * * * * * * * * * * * * * * * * * * * * * * * * * * * * * * * * * * * * * //

dimensions      [0 0 0 1 0 0 0];


internalField   nonuniform List<scalar> 
29871
(
144.4
144.4
144.4
144.4
144.4
144.4
144.4
144.4
144.4
144.4
144.4
144.4
144.4
144.4
144.4
144.4
144.4
144.4
144.4
144.4
144.4
144.4
144.4
144.4
144.4
144.4
144.4
144.4
144.4
144.4
144.4
144.4
144.4
144.4
144.4
144.4
144.4
144.4
144.4
144.4
144.4
144.4
144.4
144.4
144.4
144.4
144.4
144.4
144.4
144.4
144.4
144.4
144.4
144.4
144.4
144.4
144.4
144.4
144.4
144.4
144.4
144.4
144.4
144.4
144.4
144.4
144.4
144.4
144.4
144.4
144.4
144.4
144.4
144.4
144.4
144.4
144.4
144.4
144.4
144.4
144.4
144.4
144.4
144.4
144.4
144.4
144.4
144.4
144.4
144.4
144.4
144.4
144.4
144.4
144.4
144.4
144.4
144.4
144.4
144.4
144.4
144.4
144.4
144.4
144.4
144.4
144.4
144.4
144.4
144.4
144.4
144.4
144.4
144.4
144.4
144.4
144.4
144.4
144.4
144.4
144.4
144.4
144.4
144.4
144.4
144.4
144.4
144.4
144.4
144.4
144.4
144.4
144.4
144.4
144.4
144.4
144.4
144.4
144.4
144.4
144.4
144.4
144.4
144.4
144.4
144.4
144.4
144.4
144.4
144.4
144.4
144.4
144.4
144.4
144.4
144.4
144.4
144.4
144.4
144.4
144.4
144.4
144.4
144.4
144.4
144.4
144.4
144.4
144.4
144.4
144.4
144.4
144.4
144.4
144.4
144.4
144.4
144.4
144.4
144.4
144.4
144.4
144.4
144.4
144.4
144.4
144.4
144.4
144.4
144.4
144.4
144.4
144.4
144.4
144.4
144.4
144.4
144.4
144.4
144.4
144.4
144.4
144.4
144.4
144.4
144.4
144.4
144.4
144.4
144.4
144.4
144.4
144.4
144.4
144.4
144.4
144.4
144.4
144.4
144.4
144.4
144.4
144.4
144.4
144.4
144.4
144.4
144.4
144.4
144.4
144.4
144.4
144.4
144.4
144.4
144.4
144.4
144.4
144.4
144.4
144.4
144.4
144.4
144.4
144.4
144.4
144.4
144.4
144.4
144.4
144.4
144.4
144.4
144.4
144.4
144.4
144.4
144.4
144.4
144.4
144.4
144.4
144.4
144.4
144.4
144.4
144.4
144.4
144.4
144.4
144.4
144.4
144.4
144.4
144.4
144.4
144.4
144.4
144.4
144.4
144.4
144.4
144.4
144.4
144.4
144.4
144.4
144.4
144.4
144.4
144.4
144.4
144.4
144.4
144.4
144.4
144.4
144.4
144.4
144.4
144.4
144.4
144.4
144.4
144.4
144.4
144.4
144.4
144.4
144.4
144.4
144.4
144.4
144.4
144.4
144.4
144.4
144.4
144.4
144.4
144.4
144.4
144.4
144.4
144.4
144.4
144.4
144.4
144.4
144.4
144.4
144.4
144.4
144.4
144.4
144.4
144.4
144.4
144.4
144.4
144.4
144.4
144.4
144.4
144.4
144.4
144.4
144.4
144.4
144.4
144.4
144.4
144.4
144.4
144.4
144.4
144.4
144.4
144.4
144.4
144.4
144.4
144.4
144.4
144.4
144.4
144.4
144.4
144.4
144.4
144.4
144.4
144.4
144.4
144.4
144.4
144.4
144.4
144.4
144.4
144.4
144.4
144.4
144.4
144.4
144.4
144.4
144.4
144.4
144.4
144.4
144.4
144.4
144.4
144.4
144.4
144.4
144.4
144.4
144.4
144.4
144.4
144.4
144.4
144.4
144.4
144.4
144.4
144.4
144.4
144.4
144.4
144.4
144.4
144.4
144.4
144.4
144.4
144.4
144.4
144.4
144.4
144.4
144.4
144.4
144.4
144.4
144.4
144.4
144.4
144.4
144.4
144.4
144.4
144.4
144.4
144.4
144.4
144.4
144.4
144.4
144.4
144.4
144.4
144.4
144.4
144.4
144.4
144.4
144.4
144.4
144.4
144.4
144.4
144.4
144.4
144.4
144.4
144.4
144.4
144.4
144.4
144.4
144.4
144.4
144.4
144.4
144.4
144.4
144.4
144.4
144.4
144.4
144.4
144.4
144.4
144.4
144.4
144.4
144.4
144.4
144.4
144.4
144.4
144.4
144.4
144.4
144.4
144.4
144.4
144.4
144.4
144.4
144.4
144.4
144.4
144.4
144.4
144.4
144.4
144.4
144.4
144.4
144.4
144.4
144.4
144.4
144.4
144.4
144.4
144.4
144.4
144.4
144.4
144.4
144.4
144.4
144.4
144.4
144.4
144.4
144.4
144.4
144.4
144.4
144.4
144.4
144.4
144.4
144.4
144.4
144.4
144.4
144.4
144.4
144.4
144.4
144.4
144.4
144.4
144.4
144.4
144.4
144.4
144.4
144.4
144.4
144.4
144.4
144.4
144.4
144.4
144.4
144.4
144.4
144.4
144.4
144.4
144.4
144.4
144.4
144.4
144.4
144.4
144.4
144.4
144.4
144.4
144.4
144.4
144.4
144.4
144.4
144.4
144.4
144.4
144.4
144.4
144.4
144.4
144.4
144.4
144.4
144.4
144.4
144.4
144.4
144.4
144.4
144.4
144.4
144.4
144.4
144.4
144.4
144.4
144.4
144.4
144.4
144.4
144.4
144.4
144.4
144.4
144.4
144.4
144.4
144.4
144.4
144.4
144.4
144.4
144.4
144.4
144.4
144.4
144.4
144.4
144.4
144.4
144.4
144.4
144.4
144.4
144.4
144.4
144.4
144.4
144.4
144.4
144.4
144.4
144.4
144.4
144.4
144.4
144.4
144.4
144.4
144.4
144.4
144.4
144.4
144.4
144.4
144.4
144.4
144.4
144.4
144.4
144.4
144.4
144.4
144.4
144.4
144.4
144.4
144.4
144.4
144.4
144.4
144.4
144.4
144.4
144.4
144.4
144.4
144.4
144.4
144.4
144.4
144.4
144.4
144.4
144.4
144.4
144.4
144.4
144.4
144.4
144.4
144.4
144.4
144.4
144.4
144.4
144.4
144.4
144.4
144.4
144.4
144.4
144.4
144.4
144.4
144.4
144.4
144.4
144.4
144.4
144.4
144.4
144.4
144.4
144.4
144.4
144.4
144.4
144.4
144.4
144.4
144.4
144.4
144.4
144.4
144.4
144.4
144.4
144.4
144.4
144.4
144.4
144.4
144.4
144.4
144.4
144.4
144.4
144.4
144.4
144.4
144.4
144.4
144.4
144.4
144.4
144.4
144.4
144.4
144.4
144.4
144.4
144.4
144.4
144.4
144.4
144.4
144.4
144.4
144.4
144.4
144.4
144.4
144.4
144.4
144.4
144.4
144.4
144.4
144.4
144.4
144.4
144.4
144.4
144.4
144.4
144.4
144.4
144.4
144.4
144.4
144.4
144.4
144.4
144.4
144.4
144.4
144.4
144.4
144.4
144.4
144.4
144.4
144.4
144.4
144.4
144.4
144.4
144.4
144.4
144.4
144.4
144.4
144.4
144.4
144.4
144.4
144.4
144.4
144.4
144.4
144.4
144.4
144.4
144.4
144.4
144.4
144.4
144.4
144.4
144.4
144.4
144.4
144.4
144.4
144.4
144.4
144.4
144.4
144.4
144.4
144.4
144.4
144.4
144.4
144.4
144.4
144.4
144.4
144.4
144.4
144.4
144.4
144.4
144.4
144.4
144.4
144.4
144.4
144.4
144.4
144.4
144.4
144.4
144.4
144.4
144.4
144.4
144.4
144.4
144.4
144.4
144.4
144.4
144.4
144.4
144.4
144.4
144.4
144.4
144.4
144.4
144.4
144.4
144.4
144.4
144.4
144.4
144.4
144.4
144.4
144.4
144.4
144.4
144.4
144.4
144.4
144.4
144.4
144.4
144.4
144.4
144.4
144.4
144.4
144.4
144.4
144.4
144.4
144.4
144.4
144.4
144.4
144.4
144.4
144.4
144.4
144.4
144.4
144.4
144.4
144.4
144.4
144.4
144.4
144.4
144.4
144.4
144.4
144.4
144.4
144.4
144.4
144.4
144.4
144.4
144.4
144.4
144.4
144.4
144.4
144.4
144.4
144.4
144.4
144.4
144.4
144.4
144.4
144.4
144.4
144.4
144.4
144.4
144.4
144.4
144.4
144.4
144.4
144.4
144.4
144.4
144.4
144.4
144.4
144.4
144.4
144.4
144.4
144.4
144.4
144.4
144.4
144.4
144.4
144.4
144.4
144.4
144.4
144.4
144.4
144.4
144.4
144.4
144.4
144.4
144.4
144.4
144.4
144.4
144.4
144.4
144.4
144.4
144.4
144.4
144.4
144.4
144.4
144.4
144.4
144.4
144.4
144.4
144.4
144.4
144.4
144.4
144.4
144.4
144.4
144.4
144.4
144.4
144.4
144.4
144.4
144.4
144.4
144.4
144.4
144.4
144.4
144.4
144.4
144.4
144.4
144.4
144.4
144.4
144.4
144.4
144.4
144.4
144.4
144.4
144.4
144.4
144.4
144.4
144.4
144.4
144.4
144.4
144.4
144.4
144.4
144.4
144.4
144.4
144.4
144.4
144.4
144.4
144.4
144.4
144.4
144.4
144.4
144.4
144.4
144.4
144.4
144.4
144.4
144.4
144.4
144.4
144.4
144.4
144.4
144.4
144.4
144.4
144.4
144.4
144.4
144.4
144.4
144.4
144.4
144.4
144.4
144.4
144.4
144.4
144.4
144.4
144.4
144.4
144.4
144.4
144.4
144.4
144.4
144.4
144.4
144.4
144.4
144.4
144.4
144.4
144.4
144.4
144.4
144.4
144.4
144.4
144.4
144.4
144.4
144.4
144.4
144.4
144.4
144.4
144.4
144.4
144.4
144.4
144.4
144.4
144.4
144.4
144.4
144.4
144.4
144.4
144.4
144.4
144.4
144.4
144.4
144.4
144.4
144.4
144.4
144.4
144.4
144.4
144.4
144.4
144.4
144.4
144.4
144.4
144.4
144.4
144.4
144.4
144.4
144.4
144.4
144.4
144.4
144.4
144.4
144.4
144.4
144.4
144.4
144.4
144.4
144.4
144.4
144.4
144.4
144.4
144.4
144.4
144.4
144.4
144.4
144.4
144.4
144.4
144.4
144.4
144.4
144.4
144.4
144.4
144.4
144.4
144.4
144.4
144.4
144.4
144.4
144.4
144.4
144.4
144.4
144.4
144.4
144.4
144.4
144.4
144.4
144.4
144.4
144.4
144.4
144.4
144.4
144.4
144.4
144.4
144.4
144.4
144.4
144.4
144.4
144.4
144.4
144.4
144.4
144.4
144.4
144.4
144.4
144.4
144.4
144.4
144.4
144.4
144.4
144.4
144.4
144.4
144.4
144.4
144.4
144.4
144.4
144.4
144.4
144.4
144.4
144.4
144.4
144.4
144.4
144.4
144.4
144.4
144.4
144.4
144.4
144.4
144.4
144.4
144.4
144.4
144.4
144.4
144.4
144.4
144.4
144.4
144.4
144.4
144.4
144.4
144.4
144.4
144.4
144.4
144.4
144.4
144.4
144.4
144.4
144.4
144.4
144.4
144.4
144.4
144.4
144.4
144.4
144.4
144.4
144.4
144.4
144.4
144.4
144.4
144.4
144.4
144.4
144.4
144.4
144.4
144.4
144.4
144.4
144.4
144.4
144.4
144.4
144.4
144.4
144.4
144.4
144.4
144.4
144.4
144.4
144.4
144.4
144.4
144.4
144.4
144.4
144.4
144.4
144.4
144.4
144.4
144.4
144.4
144.4
144.4
144.4
144.4
144.4
144.4
144.4
144.4
144.4
144.4
144.4
144.4
144.4
144.4
144.4
144.4
144.4
144.4
144.4
144.4
144.4
144.4
144.4
144.4
144.4
144.4
144.4
144.4
144.4
144.4
144.4
144.4
144.4
144.4
144.4
144.4
144.4
144.4
144.4
144.4
144.4
144.4
144.4
144.4
144.4
144.4
144.4
144.4
144.4
144.4
144.4
144.4
144.4
144.4
144.4
144.4
144.4
144.4
144.4
144.4
144.4
144.4
144.4
144.4
144.4
144.4
144.4
144.4
144.4
144.4
144.4
144.4
144.4
144.4
144.4
144.4
144.4
144.4
144.4
144.4
144.4
144.4
144.4
144.4
144.4
144.4
144.4
144.4
144.4
144.4
144.4
144.4
144.4
144.4
144.4
144.4
144.4
144.4
144.4
144.4
144.4
144.4
144.4
144.4
144.4
144.4
144.4
144.4
144.4
144.4
144.4
144.4
144.4
144.4
144.4
144.4
144.4
144.4
144.4
144.4
144.4
144.4
144.4
144.4
144.4
144.4
144.4
144.4
144.4
144.4
144.4
144.4
144.4
144.4
144.4
144.4
144.4
144.4
144.4
144.4
144.4
144.4
144.4
144.4
144.4
144.4
144.4
144.4
144.4
144.4
144.4
144.4
144.4
144.4
144.4
144.4
144.4
144.4
144.4
144.4
144.4
144.4
144.4
144.4
144.4
144.4
144.4
144.4
144.4
144.4
144.4
144.4
144.4
144.4
144.4
144.4
144.4
144.4
144.4
144.4
144.4
144.4
144.4
144.4
144.4
144.4
144.4
144.4
144.4
144.4
144.4
144.4
144.4
144.4
144.4
144.4
144.4
144.4
144.4
144.4
144.4
144.4
144.4
144.4
144.4
144.4
144.4
144.4
144.4
144.4
144.4
144.4
144.4
144.4
144.4
144.4
144.4
144.4
144.4
144.4
144.4
144.4
144.4
144.4
144.4
144.4
144.4
144.4
144.4
144.4
144.4
144.4
144.4
144.4
144.4
144.4
144.4
144.4
144.4
144.4
144.4
144.4
144.4
144.4
144.4
144.4
144.4
144.4
144.4
144.4
144.4
144.4
144.4
144.4
144.4
144.4
144.4
144.4
144.4
144.4
144.4
144.4
144.4
144.4
144.4
144.4
144.4
144.4
144.4
144.4
144.4
144.4
144.4
144.4
144.4
144.4
144.4
144.4
144.4
144.4
144.4
144.4
144.4
144.4
144.4
144.4
144.4
144.4
144.4
144.4
144.4
144.4
144.4
144.4
144.4
144.4
144.4
144.4
144.4
144.4
144.4
144.4
144.4
144.4
144.4
144.4
144.4
144.4
144.4
144.4
144.4
144.4
144.4
144.4
144.4
144.4
144.4
144.4
144.4
144.4
144.4
144.4
144.4
144.4
144.4
144.4
144.4
144.4
144.4
144.4
144.4
144.4
144.4
144.4
144.4
144.4
144.4
144.4
144.4
144.4
144.4
144.4
144.4
144.4
144.4
144.4
144.4
144.4
144.4
144.4
144.4
144.4
144.4
144.4
144.4
144.4
144.4
144.4
144.4
144.4
144.4
144.4
144.4
144.4
144.4
144.4
144.4
144.4
144.4
144.4
144.4
144.4
144.4
144.4
144.4
144.4
144.4
144.4
144.4
144.4
144.4
144.4
144.4
144.4
144.4
144.4
144.4
144.4
144.4
144.4
144.4
144.4
144.4
144.4
144.4
144.4
144.4
144.4
144.4
144.4
144.4
144.4
144.4
144.4
144.4
144.4
144.4
144.4
144.4
144.4
144.4
144.4
144.4
144.4
144.4
144.4
144.4
144.4
144.4
144.4
144.4
144.4
144.4
144.4
144.4
144.4
144.4
144.4
144.4
144.4
144.4
144.4
144.4
144.4
144.4
144.4
144.4
144.4
144.4
144.4
144.4
144.4
144.4
144.4
144.4
144.4
144.4
144.4
144.4
144.4
144.4
144.4
144.4
144.4
144.4
144.4
144.4
144.4
144.4
144.4
144.4
144.4
144.4
144.4
144.4
144.4
144.4
144.4
144.4
144.4
144.4
144.4
144.4
144.4
144.4
144.4
144.4
144.4
144.4
144.4
144.4
144.4
144.4
144.4
144.4
144.4
144.4
144.4
144.4
144.4
144.4
144.4
144.4
144.4
144.4
144.4
144.4
144.4
144.4
144.4
144.4
144.4
144.4
144.4
144.4
144.4
144.4
144.4
144.4
144.4
144.4
144.4
144.4
144.4
144.4
144.4
144.4
144.4
144.4
144.4
144.4
144.4
144.4
144.4
144.4
144.4
144.4
144.4
144.4
144.4
144.4
144.4
144.4
144.4
144.4
144.4
144.4
144.4
144.4
144.4
144.4
144.4
144.4
144.4
144.4
144.4
144.4
144.4
144.4
144.4
144.4
144.4
144.4
144.4
144.4
144.4
144.4
144.4
144.4
144.4
144.4
144.4
144.4
144.4
144.4
144.4
144.4
144.4
144.4
144.4
144.4
144.4
144.4
144.4
144.4
144.4
144.4
144.4
144.4
144.4
144.4
144.4
144.4
144.4
144.4
144.4
144.4
144.4
144.4
144.4
144.4
144.4
144.4
144.4
144.4
144.4
144.4
144.4
144.4
144.4
144.4
144.4
144.4
144.4
144.4
144.4
144.4
144.4
144.4
144.4
144.4
144.4
144.4
144.4
144.4
144.4
144.4
144.4
144.4
144.4
144.4
144.4
144.4
144.4
144.4
144.4
144.4
144.4
144.4
144.4
144.4
144.4
144.4
144.4
144.4
144.4
144.4
144.4
144.4
144.4
144.4
144.4
144.4
144.4
144.4
144.4
144.4
144.4
144.4
144.4
144.4
144.4
144.4
144.4
144.4
144.4
144.4
144.4
144.4
144.4
144.4
144.4
144.4
144.4
144.4
144.4
144.4
144.4
144.4
144.4
144.4
144.4
144.4
144.4
144.4
144.4
144.4
144.4
144.4
144.4
144.4
144.4
144.4
144.4
144.4
144.4
144.4
144.4
144.4
144.4
144.4
144.4
144.4
144.4
144.4
144.4
144.4
144.4
144.4
144.4
144.4
144.4
144.4
144.4
144.4
144.4
144.4
144.4
144.4
144.4
144.4
144.4
144.4
144.4
144.4
144.4
144.4
144.4
144.4
144.4
144.4
144.4
144.4
144.4
144.4
144.4
144.4
144.4
144.4
144.4
144.4
144.4
144.4
144.4
144.4
144.4
144.4
144.4
144.4
144.4
144.4
144.4
144.4
144.4
144.4
144.4
144.4
144.4
144.4
144.4
144.4
144.4
144.4
144.4
144.4
144.4
144.4
144.4
144.4
144.4
144.4
144.4
144.4
144.4
144.4
144.4
144.4
144.4
144.4
144.4
144.4
144.4
144.4
144.4
144.4
144.4
144.4
144.4
144.4
144.4
144.4
144.4
144.4
144.4
144.4
144.4
144.4
144.4
144.4
144.4
144.4
144.4
144.4
144.4
144.4
144.4
144.4
144.4
144.4
144.4
144.4
144.4
144.4
144.4
144.4
144.4
144.4
144.4
144.4
144.4
144.4
144.4
144.4
144.4
144.4
144.4
144.4
144.4
144.4
144.4
144.4
144.4
144.4
144.4
144.4
144.4
144.4
144.4
144.4
144.4
144.4
144.4
144.4
144.4
144.4
144.4
144.4
144.4
144.4
144.4
144.4
144.4
144.4
144.4
144.4
144.4
144.4
144.4
144.4
144.4
144.4
144.4
144.4
144.4
144.4
144.4
144.4
144.4
144.4
144.4
144.4
144.4
144.4
144.4
144.4
144.4
144.4
144.4
144.4
144.4
144.4
144.4
144.4
144.4
144.4
144.4
144.4
144.4
144.4
144.4
144.4
144.4
144.4
144.4
144.4
144.4
144.4
144.4
144.4
144.4
144.4
144.4
144.4
144.4
144.4
144.4
144.4
144.4
144.4
144.4
144.4
144.4
144.4
144.4
144.4
144.4
144.4
144.4
144.4
144.4
144.4
144.4
144.4
144.4
144.4
144.4
144.4
144.4
144.4
144.4
144.4
144.4
144.4
144.4
144.4
144.4
144.4
144.4
144.4
144.4
144.4
144.4
144.4
144.4
144.4
144.401
144.401
144.401
144.401
144.401
144.401
144.401
144.401
144.401
144.401
144.402
144.4
144.4
144.4
144.4
144.4
144.4
144.4
144.4
144.4
144.4
144.4
144.4
144.4
144.4
144.4
144.4
144.4
144.4
144.4
144.4
144.4
144.4
144.4
144.4
144.4
144.4
144.4
144.4
144.4
144.4
144.4
144.4
144.4
144.4
144.4
144.4
144.4
144.4
144.4
144.4
144.4
144.4
144.4
144.4
144.4
144.4
144.4
144.4
144.4
144.4
144.4
144.4
144.4
144.4
144.4
144.4
144.4
144.4
144.4
144.4
144.4
144.4
144.4
144.4
144.4
144.4
144.4
144.4
144.4
144.4
144.4
144.4
144.4
144.4
144.4
144.4
144.4
144.4
144.4
144.4
144.4
144.4
144.4
144.4
144.4
144.4
144.4
144.4
144.4
144.4
144.4
144.4
144.401
144.401
144.401
144.401
144.401
144.401
144.401
144.401
144.401
144.401
144.401
144.401
144.401
144.401
144.402
144.402
144.402
144.402
144.402
144.403
144.403
144.403
144.403
144.404
144.404
144.404
144.405
144.405
144.406
144.407
144.407
144.408
144.409
144.4
144.4
144.4
144.4
144.4
144.4
144.4
144.4
144.4
144.4
144.4
144.4
144.4
144.4
144.401
144.401
144.401
144.401
144.401
144.401
144.401
144.401
144.401
144.401
144.401
144.401
144.401
144.401
144.401
144.401
144.401
144.401
144.401
144.401
144.401
144.401
144.401
144.401
144.401
144.401
144.401
144.401
144.401
144.401
144.401
144.401
144.401
144.401
144.401
144.401
144.401
144.401
144.401
144.401
144.401
144.401
144.401
144.401
144.401
144.401
144.401
144.401
144.401
144.401
144.401
144.401
144.401
144.401
144.401
144.401
144.401
144.401
144.401
144.401
144.401
144.401
144.402
144.402
144.402
144.402
144.402
144.402
144.402
144.402
144.402
144.402
144.402
144.402
144.403
144.403
144.403
144.403
144.403
144.403
144.404
144.404
144.404
144.405
144.405
144.405
144.406
144.406
144.407
144.407
144.408
144.408
144.409
144.41
144.411
144.412
144.413
144.414
144.415
144.416
144.418
144.419
144.42
144.422
144.424
144.426
144.428
144.43
144.432
144.435
144.437
144.401
144.401
144.401
144.401
144.402
144.402
144.402
144.402
144.402
144.402
144.402
144.402
144.403
144.403
144.403
144.403
144.403
144.403
144.403
144.404
144.404
144.404
144.404
144.404
144.404
144.404
144.404
144.405
144.405
144.405
144.405
144.405
144.405
144.405
144.405
144.405
144.405
144.405
144.405
144.406
144.406
144.406
144.406
144.406
144.406
144.406
144.406
144.406
144.406
144.406
144.406
144.406
144.406
144.406
144.406
144.406
144.406
144.406
144.406
144.406
144.407
144.407
144.407
144.407
144.407
144.407
144.407
144.407
144.407
144.407
144.407
144.407
144.408
144.408
144.408
144.408
144.408
144.409
144.409
144.409
144.41
144.41
144.41
144.411
144.411
144.412
144.412
144.413
144.413
144.414
144.415
144.415
144.416
144.417
144.418
144.419
144.421
144.422
144.423
144.425
144.426
144.428
144.43
144.432
144.434
144.436
144.438
144.441
144.443
144.446
144.449
144.453
144.456
144.46
144.463
144.467
144.471
144.476
144.48
144.485
144.49
144.495
144.501
144.507
144.513
144.52
144.407
144.407
144.408
144.408
144.409
144.41
144.41
144.411
144.412
144.412
144.413
144.414
144.414
144.415
144.416
144.416
144.417
144.418
144.418
144.419
144.42
144.42
144.421
144.422
144.422
144.423
144.423
144.424
144.425
144.425
144.425
144.426
144.426
144.427
144.427
144.427
144.427
144.428
144.428
144.428
144.428
144.429
144.429
144.429
144.429
144.43
144.43
144.43
144.43
144.43
144.43
144.43
144.431
144.431
144.431
144.431
144.431
144.431
144.431
144.432
144.432
144.432
144.432
144.432
144.432
144.433
144.433
144.433
144.434
144.434
144.434
144.435
144.436
144.436
144.437
144.438
144.439
144.44
144.441
144.442
144.444
144.445
144.446
144.448
144.45
144.451
144.453
144.455
144.457
144.459
144.462
144.464
144.467
144.47
144.473
144.477
144.48
144.484
144.488
144.493
144.497
144.502
144.507
144.512
144.518
144.523
144.529
144.536
144.543
144.55
144.557
144.565
144.574
144.583
144.592
144.601
144.611
144.621
144.632
144.643
144.655
144.667
144.68
144.693
144.707
144.722
144.737
144.753
144.436
144.439
144.442
144.444
144.447
144.45
144.453
144.456
144.459
144.462
144.465
144.468
144.47
144.473
144.476
144.479
144.482
144.485
144.487
144.49
144.493
144.495
144.497
144.5
144.502
144.504
144.506
144.507
144.509
144.51
144.512
144.513
144.514
144.515
144.516
144.516
144.517
144.518
144.518
144.519
144.52
144.52
144.52
144.521
144.521
144.521
144.522
144.522
144.522
144.522
144.522
144.522
144.522
144.522
144.522
144.522
144.522
144.523
144.523
144.523
144.523
144.523
144.524
144.524
144.524
144.525
144.526
144.526
144.527
144.528
144.529
144.531
144.532
144.534
144.536
144.538
144.541
144.544
144.546
144.549
144.553
144.556
144.56
144.564
144.568
144.573
144.577
144.582
144.587
144.593
144.599
144.605
144.612
144.619
144.627
144.635
144.643
144.652
144.662
144.672
144.683
144.694
144.705
144.717
144.73
144.743
144.757
144.771
144.786
144.802
144.819
144.836
144.855
144.874
144.894
144.914
144.936
144.958
144.981
145.005
145.03
145.056
145.082
145.11
145.139
145.169
145.201
145.234
144.568
144.578
144.588
144.598
144.608
144.618
144.627
144.637
144.647
144.656
144.665
144.674
144.683
144.691
144.7
144.708
144.716
144.723
144.73
144.737
144.744
144.75
144.755
144.76
144.765
144.769
144.773
144.777
144.779
144.782
144.784
144.786
144.787
144.788
144.789
144.789
144.79
144.79
144.79
144.79
144.79
144.79
144.789
144.788
144.788
144.787
144.786
144.785
144.784
144.783
144.781
144.78
144.779
144.778
144.777
144.776
144.775
144.774
144.773
144.773
144.772
144.772
144.772
144.772
144.772
144.773
144.773
144.774
144.776
144.777
144.779
144.782
144.785
144.788
144.792
144.796
144.801
144.806
144.812
144.818
144.825
144.833
144.84
144.849
144.858
144.868
144.878
144.889
144.9
144.913
144.925
144.939
144.954
144.969
144.985
145.002
145.021
145.04
145.06
145.081
145.104
145.127
145.152
145.177
145.204
145.231
145.26
145.29
145.321
145.354
145.387
145.422
145.459
145.497
145.536
145.577
145.62
145.664
145.709
145.756
145.804
145.854
145.906
145.959
146.014
146.071
146.13
146.192
145.003
145.029
145.055
145.079
145.104
145.127
145.15
145.172
145.192
145.212
145.232
145.25
145.268
145.285
145.301
145.316
145.33
145.343
145.355
145.366
145.376
145.385
145.393
145.4
145.407
145.412
145.416
145.42
145.422
145.423
145.424
145.424
145.423
145.422
145.42
145.418
145.415
145.412
145.409
145.405
145.401
145.397
145.393
145.388
145.383
145.379
145.374
145.369
145.363
145.358
145.353
145.349
145.344
145.339
145.335
145.331
145.327
145.323
145.32
145.317
145.315
145.313
145.311
145.31
145.31
145.31
145.311
145.312
145.314
145.317
145.32
145.324
145.33
145.336
145.343
145.352
145.361
145.371
145.383
145.395
145.409
145.424
145.44
145.457
145.476
145.495
145.516
145.538
145.562
145.587
145.613
145.641
145.67
145.7
145.732
145.766
145.801
145.838
145.878
145.918
145.961
146.006
146.052
146.101
146.151
146.203
146.257
146.313
146.371
146.431
146.492
146.556
146.622
146.691
146.761
146.834
146.908
146.986
147.065
147.146
147.23
147.315
147.403
147.494
147.587
147.682
147.781
147.883
147.987
146.077
146.12
146.162
146.203
146.241
146.277
146.312
146.344
146.374
146.402
146.428
146.453
146.475
146.496
146.515
146.532
146.548
146.562
146.574
146.585
146.594
146.601
146.607
146.611
146.614
146.615
146.615
146.613
146.61
146.606
146.6
146.594
146.587
146.579
146.57
146.561
146.551
146.541
146.53
146.519
146.508
146.497
146.485
146.473
146.462
146.45
146.438
146.427
146.416
146.405
146.394
146.384
146.375
146.366
146.357
146.349
146.342
146.336
146.331
146.326
146.323
146.32
146.318
146.319
146.32
146.322
146.325
146.329
146.335
146.342
146.351
146.362
146.374
146.389
146.405
146.423
146.443
146.465
146.489
146.515
146.543
146.573
146.605
146.64
146.676
146.715
146.756
146.799
146.845
146.892
146.942
146.995
147.049
147.106
147.165
147.226
147.291
147.358
147.428
147.5
147.575
147.653
147.734
147.817
147.903
147.992
148.083
148.176
148.273
148.371
148.473
148.577
148.683
148.793
148.905
149.02
149.138
149.258
149.38
149.505
149.633
149.763
149.895
150.031
150.17
150.312
150.457
150.605
147.874
147.932
147.986
148.037
148.085
148.131
148.173
148.212
148.247
148.279
148.308
148.334
148.358
148.379
148.398
148.415
148.429
148.441
148.45
148.458
148.463
148.466
148.468
148.467
148.464
148.459
148.452
148.443
148.433
148.421
148.408
148.393
148.378
148.362
148.345
148.328
148.31
148.291
148.272
148.253
148.233
148.214
148.194
148.175
148.156
148.137
148.118
148.101
148.083
148.067
148.051
148.036
148.022
148.01
147.998
147.988
147.979
147.972
147.966
147.962
147.959
147.959
147.961
147.964
147.969
147.976
147.985
147.997
148.011
148.027
148.046
148.067
148.091
148.118
148.148
148.18
148.216
148.254
148.296
148.341
148.388
148.439
148.493
148.55
148.611
148.674
148.741
148.81
148.883
148.959
149.038
149.119
149.204
149.292
149.383
149.476
149.573
149.674
149.777
149.884
149.994
150.107
150.224
150.343
150.466
150.591
150.72
150.851
150.985
151.121
151.26
151.403
151.548
151.695
151.846
152
152.156
152.314
152.475
152.638
152.803
152.971
153.142
153.315
153.491
153.671
153.853
154.038
150.427
150.486
150.541
150.592
150.64
150.684
150.723
150.757
150.787
150.813
150.836
150.856
150.874
150.888
150.9
150.909
150.916
150.92
150.922
150.922
150.919
150.914
150.908
150.898
150.887
150.873
150.857
150.839
150.819
150.799
150.777
150.755
150.731
150.707
150.683
150.658
150.633
150.608
150.583
150.558
150.533
150.509
150.485
150.461
150.439
150.417
150.396
150.377
150.358
150.342
150.326
150.313
150.301
150.291
150.283
150.278
150.274
150.274
150.275
150.279
150.286
150.295
150.307
150.323
150.341
150.362
150.387
150.415
150.446
150.48
150.518
150.559
150.604
150.653
150.706
150.762
150.822
150.886
150.954
151.026
151.101
151.181
151.264
151.351
151.442
151.537
151.635
151.737
151.842
151.951
152.063
152.178
152.297
152.419
152.543
152.672
152.804
152.939
153.078
153.219
153.364
153.512
153.664
153.818
153.976
154.136
154.299
154.464
154.631
154.801
154.974
155.15
155.328
155.509
155.693
155.878
156.066
156.256
156.449
156.643
156.839
157.038
157.239
157.443
157.649
157.858
158.07
153.448
153.501
153.549
153.594
153.635
153.67
153.7
153.725
153.746
153.764
153.778
153.789
153.797
153.803
153.806
153.807
153.805
153.802
153.796
153.788
153.778
153.767
153.753
153.738
153.72
153.701
153.679
153.656
153.631
153.606
153.579
153.553
153.525
153.498
153.471
153.444
153.417
153.391
153.365
153.34
153.316
153.293
153.271
153.25
153.231
153.214
153.198
153.184
153.172
153.163
153.155
153.15
153.148
153.15
153.153
153.16
153.169
153.183
153.199
153.219
153.243
153.27
153.301
153.336
153.375
153.418
153.464
153.515
153.569
153.628
153.69
153.757
153.828
153.903
153.983
154.067
154.155
154.247
154.344
154.444
154.549
154.658
154.77
154.887
155.008
155.132
155.26
155.392
155.527
155.665
155.807
155.952
156.1
156.25
156.404
156.562
156.722
156.886
157.052
157.222
157.395
157.57
157.749
157.93
158.113
158.3
158.488
158.678
158.87
159.065
159.262
159.462
159.663
159.868
160.074
160.283
160.493
160.705
160.919
161.135
161.353
161.573
161.796
162.02
162.247
162.476
162.708
162.941
156.654
156.7
156.742
156.78
156.816
156.847
156.874
156.895
156.913
156.926
156.935
156.942
156.945
156.946
156.944
156.941
156.935
156.927
156.918
156.907
156.895
156.881
156.866
156.849
156.832
156.812
156.791
156.769
156.745
156.721
156.696
156.671
156.646
156.621
156.596
156.572
156.549
156.527
156.506
156.486
156.468
156.452
156.437
156.424
156.414
156.405
156.399
156.394
156.395
156.397
156.402
156.409
156.421
156.436
156.454
156.476
156.502
156.532
156.566
156.604
156.646
156.692
156.743
156.797
156.857
156.92
156.988
157.06
157.137
157.218
157.303
157.392
157.486
157.584
157.687
157.794
157.905
158.02
158.14
158.263
158.391
158.522
158.658
158.797
158.94
159.086
159.236
159.39
159.546
159.705
159.868
160.034
160.202
160.372
160.546
160.723
160.902
161.084
161.269
161.457
161.647
161.84
162.036
162.234
162.435
162.637
162.842
163.048
163.256
163.466
163.678
163.892
164.108
164.326
164.547
164.769
164.993
165.218
165.446
165.675
165.906
166.139
166.374
166.611
166.85
167.091
167.334
167.579
159.956
159.995
160.031
160.063
160.093
160.12
160.142
160.162
160.177
160.188
160.196
160.201
160.203
160.201
160.198
160.194
160.187
160.178
160.168
160.158
160.145
160.132
160.118
160.104
160.088
160.072
160.056
160.038
160.02
160.002
159.983
159.964
159.945
159.927
159.91
159.894
159.879
159.866
159.855
159.845
159.838
159.832
159.829
159.829
159.832
159.837
159.844
159.855
159.87
159.888
159.91
159.935
159.963
159.996
160.033
160.074
160.119
160.169
160.222
160.281
160.344
160.411
160.483
160.559
160.64
160.725
160.815
160.909
161.008
161.11
161.218
161.329
161.445
161.565
161.689
161.817
161.949
162.085
162.225
162.369
162.516
162.668
162.822
162.981
163.142
163.307
163.475
163.646
163.82
163.996
164.176
164.358
164.541
164.727
164.917
165.109
165.302
165.498
165.697
165.898
166.101
166.308
166.516
166.726
166.939
167.154
167.37
167.588
167.807
168.028
168.251
168.475
168.701
168.929
169.16
169.392
169.625
169.86
170.097
170.335
170.575
170.817
171.061
171.306
171.553
171.803
172.054
172.307
163.305
163.336
163.365
163.391
163.413
163.433
163.451
163.465
163.476
163.485
163.491
163.494
163.494
163.493
163.49
163.485
163.478
163.471
163.463
163.454
163.444
163.434
163.425
163.415
163.405
163.395
163.386
163.376
163.367
163.357
163.348
163.34
163.333
163.328
163.323
163.32
163.32
163.322
163.326
163.332
163.341
163.353
163.369
163.387
163.409
163.434
163.463
163.496
163.533
163.573
163.617
163.666
163.719
163.776
163.838
163.904
163.974
164.049
164.129
164.213
164.301
164.395
164.492
164.595
164.701
164.812
164.928
165.048
165.172
165.3
165.431
165.567
165.707
165.851
165.998
166.149
166.304
166.462
166.624
166.789
166.957
167.128
167.303
167.48
167.661
167.844
168.03
168.218
168.409
168.602
168.797
168.994
169.193
169.395
169.597
169.802
170.01
170.22
170.431
170.645
170.861
171.079
171.298
171.521
171.745
171.97
172.197
172.425
172.655
172.885
173.118
173.351
173.587
173.824
174.063
174.303
174.545
174.788
175.034
175.281
175.529
175.779
176.031
176.284
176.539
176.796
177.054
166.585
166.615
166.642
166.667
166.688
166.707
166.725
166.739
166.752
166.763
166.771
166.777
166.781
166.784
166.786
166.785
166.784
166.782
166.78
166.777
166.773
166.77
166.768
166.766
166.764
166.763
166.764
166.765
166.767
166.769
166.773
166.778
166.785
166.794
166.804
166.816
166.83
166.848
166.868
166.891
166.917
166.946
166.979
167.016
167.056
167.101
167.149
167.201
167.258
167.318
167.383
167.453
167.526
167.605
167.687
167.774
167.866
167.962
168.063
168.168
168.278
168.392
168.511
168.634
168.761
168.892
169.027
169.167
169.31
169.457
169.608
169.763
169.921
170.082
170.247
170.415
170.586
170.76
170.938
171.118
171.301
171.487
171.676
171.867
172.061
172.258
172.456
172.657
172.859
173.064
173.27
173.478
173.688
173.9
174.113
174.327
174.545
174.763
174.982
175.205
175.429
175.655
175.882
176.112
176.344
176.576
176.81
177.045
177.282
177.519
177.758
177.997
178.239
178.482
178.726
178.971
179.218
179.466
179.717
179.969
180.221
180.476
180.733
180.99
181.249
181.51
181.773
182.037
182.304
169.818
169.848
169.876
169.9
169.923
169.943
169.962
169.979
169.995
170.009
170.022
170.033
170.042
170.051
170.059
170.065
170.071
170.077
170.082
170.088
170.093
170.099
170.106
170.114
170.123
170.133
170.145
170.158
170.173
170.189
170.207
170.227
170.25
170.274
170.3
170.329
170.361
170.396
170.433
170.474
170.519
170.567
170.618
170.674
170.734
170.798
170.866
170.939
171.016
171.097
171.183
171.273
171.367
171.467
171.57
171.678
171.79
171.907
172.029
172.154
172.284
172.418
172.556
172.698
172.845
172.995
173.148
173.306
173.467
173.632
173.8
173.971
174.146
174.323
174.503
174.687
174.873
175.061
175.253
175.447
175.643
175.842
176.044
176.247
176.453
176.66
176.87
177.081
177.294
177.509
177.725
177.943