/*--------------------------------*- C++ -*----------------------------------*\
| =========                 |                                                 |
| \\      /  F ield         | OpenFOAM: The Open Source CFD Toolbox           |
|  \\    /   O peration     | Version:  v1706                                 |
|   \\  /    A nd           | Web:      www.OpenFOAM.com                      |
|    \\/     M anipulation  |                                                 |
\*---------------------------------------------------------------------------*/
FoamFile
{
    version     2.0;
    format      ascii;
    class       volVectorField;
    location    "3.8e-05";
    object      U;
}
// * * * * * * * * * * * * * * * * * * * * * * * * * * * * * * * * * * * * * //

dimensions      [0 1 -1 0 0 0 0];


internalField   nonuniform List<vector> 
29871
(
(1760 -6.54373e-11 6.9993e-15)
(1760 -6.43832e-11 2.65674e-15)
(1760 -6.40053e-11 3.12192e-15)
(1760 -6.40125e-11 4.00989e-15)
(1760 -6.46907e-11 2.36888e-15)
(1760 -6.55612e-11 2.55146e-15)
(1760 -6.5802e-11 3.12194e-15)
(1760 -6.59274e-11 3.12884e-15)
(1760 -6.61431e-11 3.59902e-15)
(1760 -6.66186e-11 3.59309e-15)
(1760 -6.70586e-11 4.21042e-15)
(1760 -6.67234e-11 5.55955e-15)
(1760 -6.62612e-11 4.72986e-15)
(1760 -6.60133e-11 4.52601e-15)
(1760 -6.5985e-11 3.6831e-15)
(1760 -6.60719e-11 2.91188e-15)
(1760 -6.59273e-11 3.06683e-15)
(1760 -6.55887e-11 3.53935e-15)
(1760 -6.46752e-11 3.70595e-15)
(1760 -6.34534e-11 3.94454e-15)
(1760 -6.1466e-11 3.78355e-15)
(1760 -5.94808e-11 4.04443e-15)
(1760 -5.75745e-11 1.12174e-15)
(1760 -5.72374e-11 3.48686e-15)
(1760 -5.70133e-11 4.80588e-15)
(1760 -5.67432e-11 4.62695e-15)
(1760 -5.6287e-11 5.41118e-15)
(1760 -5.55861e-11 2.90536e-15)
(1760 -5.58068e-11 2.45139e-15)
(1760 -5.6348e-11 3.85469e-15)
(1760 -5.66252e-11 3.57537e-15)
(1760 -5.76643e-11 2.27025e-15)
(1760 -5.84665e-11 3.98722e-15)
(1760 -5.83262e-11 5.54029e-15)
(1760 -5.76428e-11 2.58461e-15)
(1760 -5.73021e-11 8.74803e-16)
(1760 -5.76299e-11 1.29653e-15)
(1760 -5.76937e-11 3.49779e-15)
(1760 -5.75073e-11 3.93908e-15)
(1760 -5.75028e-11 4.59609e-15)
(1760 -5.73162e-11 5.5469e-15)
(1760 -5.65781e-11 5.78238e-15)
(1760 -5.52088e-11 6.22106e-15)
(1760 -5.41473e-11 3.30021e-15)
(1760 -5.3022e-11 2.60553e-15)
(1760 -5.25659e-11 3.57341e-15)
(1760 -5.31658e-11 2.29342e-15)
(1760 -5.46097e-11 5.15109e-16)
(1760 -5.54771e-11 6.95273e-16)
(1760 -5.63879e-11 5.13071e-15)
(1760 -5.70427e-11 4.42548e-15)
(1760 -5.78083e-11 2.00116e-15)
(1760 -5.83267e-11 2.62889e-15)
(1760 -5.92816e-11 4.24748e-15)
(1760 -6.05769e-11 4.07222e-15)
(1760 -6.10353e-11 4.24897e-15)
(1760 -6.07048e-11 4.7573e-15)
(1760 -5.91474e-11 5.80757e-15)
(1760 -5.92417e-11 5.02239e-15)
(1760 -6.084e-11 4.28664e-15)
(1760 -6.32744e-11 1.74954e-15)
(1760 -6.44518e-11 1.24131e-15)
(1760 -6.51944e-11 1.65719e-15)
(1760 -6.5759e-11 3.49608e-16)
(1760 -6.65259e-11 3.42062e-15)
(1760 -6.82904e-11 4.74877e-15)
(1760 -6.92109e-11 3.50589e-15)
(1760 -6.94624e-11 2.51766e-15)
(1760 -7.02338e-11 1.79437e-15)
(1760 -7.09421e-11 2.30027e-15)
(1760 -7.102e-11 3.03713e-15)
(1760 -7.12215e-11 3.35142e-15)
(1760 -7.1153e-11 1.7424e-15)
(1760 -7.09246e-11 2.48188e-15)
(1760 -7.16868e-11 2.73065e-15)
(1760 -7.2167e-11 3.76424e-15)
(1760 -7.17667e-11 1.70313e-15)
(1760 -7.15558e-11 2.24472e-15)
(1760 -7.1462e-11 2.14544e-15)
(1760 -7.22308e-11 5.11272e-15)
(1760 -7.43156e-11 5.10569e-15)
(1760 -7.59088e-11 3.77734e-15)
(1760 -7.8402e-11 3.96692e-15)
(1760 -8.0209e-11 3.25802e-15)
(1760 -8.21635e-11 5.1982e-15)
(1760 -8.35035e-11 3.95599e-15)
(1760 -8.44902e-11 3.40857e-15)
(1760 -8.53693e-11 4.71094e-15)
(1760 -8.4955e-11 5.0207e-15)
(1760 -8.39645e-11 3.96001e-15)
(1760 -8.23406e-11 3.827e-15)
(1760 -8.22293e-11 2.00222e-15)
(1760 -8.25334e-11 2.92547e-15)
(1760 -8.26528e-11 3.40965e-15)
(1760 -8.38739e-11 2.06882e-15)
(1760 -8.6298e-11 2.61598e-15)
(1760 -8.74891e-11 2.79556e-15)
(1760 -8.83615e-11 2.88521e-15)
(1760 -8.86415e-11 3.00712e-15)
(1760 -8.8096e-11 3.05616e-15)
(1760 -8.6379e-11 4.31197e-15)
(1760 -8.43925e-11 3.54966e-15)
(1760 -8.28122e-11 1.68181e-15)
(1760 -7.94852e-11 2.37918e-15)
(1760 -7.32167e-11 6.29854e-16)
(1760 -1.94958e-10 9.63913e-15)
(1760 -1.95072e-10 9.90361e-15)
(1760 -1.9421e-10 1.19038e-14)
(1760 -1.92976e-10 1.19376e-14)
(1760 -1.91791e-10 1.10749e-14)
(1760 -1.91046e-10 1.31651e-14)
(1760 -1.90898e-10 1.25939e-14)
(1760 -1.90742e-10 1.10269e-14)
(1760 -1.9076e-10 1.1911e-14)
(1760 -1.89319e-10 1.16769e-14)
(1760 -1.88108e-10 1.18911e-14)
(1760 -1.88517e-10 1.10529e-14)
(1760 -1.89362e-10 1.29465e-14)
(1760 -1.89699e-10 1.06709e-14)
(1760 -1.90576e-10 5.70715e-15)
(1760 -1.89815e-10 8.05769e-15)
(1760 -1.9191e-10 1.00753e-14)
(1760 -1.92971e-10 1.0395e-14)
(1760 -1.95505e-10 9.50178e-15)
(1760 -1.97328e-10 7.86331e-15)
(1760 -2.01161e-10 8.72356e-15)
(1760 -2.03159e-10 1.05129e-14)
(1760 -2.02759e-10 1.23592e-14)
(1760 -2.01469e-10 1.36745e-14)
(1760 -2.00159e-10 1.05241e-14)
(1760 -1.99181e-10 1.13708e-14)
(1760 -1.98686e-10 1.24133e-14)
(1760 -2.01382e-10 1.09322e-14)
(1760 -2.00643e-10 1.19675e-14)
(1760 -2.00731e-10 1.01995e-14)
(1760 -2.02641e-10 1.40988e-14)
(1760 -2.02281e-10 7.42557e-15)
(1760 -2.03187e-10 1.07423e-14)
(1760 -2.04046e-10 1.35381e-14)
(1760 -2.06505e-10 1.26312e-14)
(1760 -2.08653e-10 1.23605e-14)
(1760 -2.10169e-10 8.19242e-15)
(1760 -2.12791e-10 1.24135e-14)
(1760 -2.13611e-10 1.1939e-14)
(1760 -2.13869e-10 1.21176e-14)
(1760 -2.14066e-10 1.2468e-14)
(1760 -2.15437e-10 1.11837e-14)
(1760 -2.15473e-10 1.1225e-14)
(1760 -2.15836e-10 1.06054e-14)
(1760 -2.14514e-10 1.03918e-14)
(1760 -2.11665e-10 1.08378e-14)
(1760 -2.08092e-10 1.03676e-14)
(1760 -2.0539e-10 7.65132e-15)
(1760 -2.03298e-10 1.01139e-14)
(1760 -2.01648e-10 8.80437e-15)
(1760 -1.99689e-10 6.51237e-15)
(1760 -1.9644e-10 9.43958e-15)
(1760 -1.9457e-10 1.13849e-14)
(1760 -1.90281e-10 9.10958e-15)
(1760 -1.88599e-10 9.00744e-15)
(1760 -1.87501e-10 8.43185e-15)
(1760 -1.85823e-10 1.02659e-14)
(1760 -1.84919e-10 1.15661e-14)
(1760 -1.81635e-10 7.36294e-15)
(1760 -1.77699e-10 6.49187e-15)
(1760 -1.73725e-10 8.90737e-15)
(1760 -1.69896e-10 5.94697e-15)
(1760 -1.66548e-10 7.62772e-15)
(1760 -1.62183e-10 6.24429e-15)
(1760 -1.60853e-10 8.07122e-15)
(1760 -1.5845e-10 8.5056e-15)
(1760 -1.57628e-10 4.96124e-15)
(1760 -1.57442e-10 9.41665e-15)
(1760 -1.54369e-10 1.06011e-14)
(1760 -1.53141e-10 7.14282e-15)
(1760 -1.52754e-10 1.0202e-14)
(1760 -1.50641e-10 7.30761e-15)
(1760 -1.48859e-10 5.18498e-15)
(1760 -1.47924e-10 8.92691e-15)
(1760 -1.44785e-10 7.66608e-15)
(1760 -1.43807e-10 7.49719e-15)
(1760 -1.44122e-10 6.34596e-15)
(1760 -1.44938e-10 7.34803e-15)
(1760 -1.43911e-10 7.91404e-15)
(1760 -1.4064e-10 1.03488e-14)
(1760 -1.36136e-10 8.60736e-15)
(1760 -1.33076e-10 7.82327e-15)
(1760 -1.2906e-10 7.39396e-15)
(1760 -1.25152e-10 8.9445e-15)
(1760 -1.22186e-10 9.86606e-15)
(1760 -1.22023e-10 1.0508e-14)
(1760 -1.19602e-10 1.11777e-14)
(1760 -1.19661e-10 9.80496e-15)
(1760 -1.19688e-10 1.01218e-14)
(1760 -1.20323e-10 1.02932e-14)
(1760 -1.20518e-10 8.98413e-15)
(1760 -1.16467e-10 8.89057e-15)
(1760 -1.14446e-10 1.11983e-14)
(1760 -1.11985e-10 1.01707e-14)
(1760 -1.07695e-10 8.50021e-15)
(1760 -1.05776e-10 8.48169e-15)
(1760 -1.04944e-10 8.89026e-15)
(1760 -1.05693e-10 1.02842e-14)
(1760 -1.07548e-10 9.41812e-15)
(1760 -1.11199e-10 4.49427e-15)
(1760 -1.15888e-10 7.09363e-15)
(1760 -1.21267e-10 9.02799e-15)
(1760 -1.28583e-10 6.69245e-15)
(1760 -1.40122e-10 8.17915e-15)
(1760 -1.62061e-10 6.05471e-15)
(1760 -3.29364e-10 2.18394e-14)
(1760 -3.30013e-10 2.35608e-14)
(1760 -3.31088e-10 1.78887e-14)
(1760 -3.31581e-10 2.04389e-14)
(1760 -3.32183e-10 2.31045e-14)
(1760 -3.32138e-10 1.97995e-14)
(1760 -3.32603e-10 2.04755e-14)
(1760 -3.33229e-10 1.79796e-14)
(1760 -3.33125e-10 2.35047e-14)
(1760 -3.32824e-10 2.05955e-14)
(1760 -3.32778e-10 1.94149e-14)
(1760 -3.30311e-10 1.61785e-14)
(1760 -3.27666e-10 1.41908e-14)
(1760 -3.24335e-10 1.74603e-14)
(1760 -3.21518e-10 1.88508e-14)
(1760 -3.19021e-10 1.81926e-14)
(1760 -3.16541e-10 1.6874e-14)
(1760 -3.13121e-10 1.73402e-14)
(1760 -3.08066e-10 1.58889e-14)
(1760 -3.03289e-10 1.56949e-14)
(1760 -3.01382e-10 1.58303e-14)
(1760 -3.01067e-10 1.22798e-14)
(1760 -3.01694e-10 1.50476e-14)
(1760 -3.0144e-10 1.75763e-14)
(1760 -3.00861e-10 1.46054e-14)
(1760 -2.99198e-10 1.78749e-14)
(1760 -2.95097e-10 1.84557e-14)
(1760 -2.92355e-10 1.7708e-14)
(1760 -2.88006e-10 1.69218e-14)
(1760 -2.85718e-10 1.73342e-14)
(1760 -2.82642e-10 1.63047e-14)
(1760 -2.79989e-10 1.81683e-14)
(1760 -2.77292e-10 1.65794e-14)
(1760 -2.76102e-10 1.71519e-14)
(1760 -2.72842e-10 1.82209e-14)
(1760 -2.70975e-10 1.85249e-14)
(1760 -2.69941e-10 1.82632e-14)
(1760 -2.69957e-10 1.78927e-14)
(1760 -2.71848e-10 1.7211e-14)
(1760 -2.73577e-10 1.89534e-14)
(1760 -2.78224e-10 1.82893e-14)
(1760 -2.81574e-10 1.68073e-14)
(1760 -2.85949e-10 1.6765e-14)
(1760 -2.87217e-10 1.65828e-14)
(1760 -2.89935e-10 1.73422e-14)
(1760 -2.93461e-10 1.67266e-14)
(1760 -2.98358e-10 1.88353e-14)
(1760 -3.00078e-10 1.78186e-14)
(1760 -3.03076e-10 1.55966e-14)
(1760 -3.06326e-10 1.53524e-14)
(1760 -3.11685e-10 1.38102e-14)
(1760 -3.14324e-10 1.60336e-14)
(1760 -3.17542e-10 1.43484e-14)
(1760 -3.2136e-10 1.32487e-14)
(1760 -3.24344e-10 1.45441e-14)
(1760 -3.25452e-10 1.67693e-14)
(1760 -3.27481e-10 1.51204e-14)
(1760 -3.28977e-10 1.89905e-14)
(1760 -3.30454e-10 1.86913e-14)
(1760 -3.30949e-10 1.51127e-14)
(1760 -3.3062e-10 1.486e-14)
(1760 -3.31784e-10 1.30246e-14)
(1760 -3.33957e-10 1.4085e-14)
(1760 -3.36508e-10 1.99814e-14)
(1760 -3.41589e-10 1.36352e-14)
(1760 -3.42436e-10 1.47084e-14)
(1760 -3.44286e-10 1.53814e-14)
(1760 -3.45743e-10 1.49299e-14)
(1760 -3.47467e-10 1.56291e-14)
(1760 -3.52815e-10 1.66631e-14)
(1760 -3.54522e-10 1.47451e-14)
(1760 -3.57836e-10 1.71694e-14)
(1760 -3.6018e-10 1.45309e-14)
(1760 -3.61985e-10 1.52964e-14)
(1760 -3.63277e-10 1.70202e-14)
(1760 -3.65726e-10 1.2631e-14)
(1760 -3.65329e-10 1.60724e-14)
(1760 -3.64035e-10 1.74842e-14)
(1760 -3.65907e-10 1.34013e-14)
(1760 -3.70984e-10 1.39558e-14)
(1760 -3.72095e-10 1.54887e-14)
(1760 -3.72036e-10 1.53826e-14)
(1760 -3.72594e-10 1.57185e-14)
(1760 -3.71103e-10 1.50471e-14)
(1760 -3.70496e-10 1.68554e-14)
(1760 -3.70804e-10 1.83909e-14)
(1760 -3.71159e-10 1.60013e-14)
(1760 -3.72451e-10 1.35057e-14)
(1760 -3.75556e-10 1.68048e-14)
(1760 -3.79216e-10 1.55072e-14)
(1760 -3.80952e-10 1.70372e-14)
(1760 -3.8558e-10 1.52959e-14)
(1760 -3.9015e-10 1.48037e-14)
(1760 -3.94455e-10 1.66705e-14)
(1760 -4.01037e-10 1.6811e-14)
(1760 -4.02855e-10 1.54626e-14)
(1760 -4.01483e-10 1.26209e-14)
(1760 -4.01558e-10 1.57454e-14)
(1760 -3.99052e-10 1.50059e-14)
(1760 -3.97063e-10 1.35779e-14)
(1760 -3.93092e-10 1.39529e-14)
(1760 -3.88632e-10 1.44183e-14)
(1760 -3.73157e-10 1.38093e-14)
(1760 -3.53223e-10 1.33343e-14)
(1760 -3.39534e-10 1.37222e-14)
(1760 -3.27101e-10 1.30942e-14)
(1760 -4.42291e-10 2.96592e-14)
(1760 -4.41114e-10 3.27716e-14)
(1760 -4.39403e-10 2.65493e-14)
(1760 -4.38061e-10 2.72269e-14)
(1760 -4.35502e-10 2.73324e-14)
(1760 -4.3329e-10 2.60572e-14)
(1760 -4.3102e-10 2.87506e-14)
(1760 -4.30276e-10 2.87586e-14)
(1760 -4.32133e-10 2.4187e-14)
(1760 -4.36954e-10 2.25453e-14)
(1760 -4.42195e-10 2.70459e-14)
(1760 -4.47496e-10 2.60458e-14)
(1760 -4.53102e-10 2.61099e-14)
(1760 -4.59186e-10 2.59631e-14)
(1760 -4.64413e-10 2.68106e-14)
(1760 -4.6979e-10 2.43913e-14)
(1760 -4.7916e-10 2.42194e-14)
(1760 -4.8475e-10 2.51641e-14)
(1760 -4.91694e-10 2.46972e-14)
(1760 -4.92584e-10 2.44094e-14)
(1760 -4.93305e-10 2.44164e-14)
(1760 -4.95721e-10 2.74291e-14)
(1760 -4.98341e-10 2.80888e-14)
(1760 -5.01668e-10 2.55427e-14)
(1760 -5.0536e-10 2.4953e-14)
(1760 -5.09301e-10 2.43915e-14)
(1760 -5.1421e-10 2.82448e-14)
(1760 -5.17075e-10 2.49933e-14)
(1760 -5.17678e-10 2.37709e-14)
(1760 -5.17936e-10 2.551e-14)
(1760 -5.1726e-10 2.53528e-14)
(1760 -5.16556e-10 2.5808e-14)
(1760 -5.16177e-10 2.4554e-14)
(1760 -5.15466e-10 2.6845e-14)
(1760 -5.15536e-10 2.63009e-14)
(1760 -5.13445e-10 2.67869e-14)
(1760 -5.10249e-10 2.72612e-14)
(1760 -5.08015e-10 2.50713e-14)
(1760 -5.05528e-10 2.51557e-14)
(1760 -5.04054e-10 2.36451e-14)
(1760 -5.01468e-10 2.44215e-14)
(1760 -5.01421e-10 2.7719e-14)
(1760 -5.0174e-10 2.51388e-14)
(1760 -5.01973e-10 2.60891e-14)
(1760 -5.00293e-10 2.61865e-14)
(1760 -4.97206e-10 2.33834e-14)
(1760 -4.95265e-10 2.27646e-14)
(1760 -4.91657e-10 2.3854e-14)
(1760 -4.88052e-10 2.738e-14)
(1760 -4.75362e-10 2.23776e-14)
(1760 -4.65967e-10 2.10174e-14)
(1760 -4.63215e-10 2.11561e-14)
(1760 -4.62426e-10 2.1907e-14)
(1760 -4.59553e-10 2.37095e-14)
(1760 -4.54366e-10 2.05785e-14)
(1760 -4.43554e-10 2.01517e-14)
(1760 -4.27934e-10 2.37379e-14)
(1760 -4.15617e-10 2.34701e-14)
(1760 -4.11893e-10 2.14595e-14)
(1760 -4.12002e-10 2.14676e-14)
(1760 -4.13212e-10 2.34171e-14)
(1760 -4.12521e-10 2.02519e-14)
(1760 -4.06129e-10 1.91663e-14)
(1760 -3.99382e-10 1.95196e-14)
(1760 -3.83123e-10 1.90565e-14)
(1760 -3.59092e-10 1.99125e-14)
(1760 -3.41797e-10 1.97753e-14)
(1760 -3.32412e-10 1.96782e-14)
(1760 -3.2628e-10 1.96292e-14)
(1760 -3.19589e-10 1.97193e-14)
(1760 -3.13583e-10 2.04005e-14)
(1760 -3.11311e-10 2.12169e-14)
(1760 -3.11463e-10 1.93755e-14)
(1760 -3.10302e-10 2.2387e-14)
(1760 -3.0596e-10 1.94268e-14)
(1760 -3.04161e-10 1.84726e-14)
(1760 -3.00473e-10 2.13923e-14)
(1760 -2.96673e-10 2.10942e-14)
(1760 -2.92086e-10 2.08238e-14)
(1760 -2.85497e-10 2.33967e-14)
(1760 -2.85029e-10 2.2427e-14)
(1760 -2.84243e-10 1.96548e-14)
(1760 -2.81067e-10 1.71469e-14)
(1760 -2.76369e-10 1.86253e-14)
(1760 -2.7069e-10 1.99677e-14)
(1760 -2.60426e-10 1.5651e-14)
(1760 -2.49231e-10 1.86328e-14)
(1760 -2.40473e-10 2.19189e-14)
(1760 -2.27685e-10 2.12755e-14)
(1760 -2.1629e-10 1.84585e-14)
(1760 -2.09604e-10 1.91717e-14)
(1760 -2.04404e-10 1.84475e-14)
(1760 -1.95589e-10 2.03333e-14)
(1760 -1.85395e-10 2.17811e-14)
(1760 -1.80588e-10 1.86984e-14)
(1760 -1.79298e-10 1.8045e-14)
(1760 -1.83957e-10 2.33947e-14)
(1760 -1.97241e-10 2.28023e-14)
(1760 -2.01929e-10 1.99863e-14)
(1760 -2.04814e-10 2.15933e-14)
(1760 -2.14802e-10 2.13516e-14)
(1760 -2.38755e-10 2.02005e-14)
(1760 -3.0213e-10 2.13336e-14)
(1760 -3.58073e-10 1.99762e-14)
(1760 -3.66991e-10 1.86157e-14)
(1760 -3.78404e-10 1.89116e-14)
(1760 -6.20673e-10 3.7437e-14)
(1760 -6.22231e-10 3.90231e-14)
(1760 -6.23554e-10 3.82749e-14)
(1760 -6.26668e-10 3.68529e-14)
(1760 -6.28154e-10 3.85295e-14)
(1760 -6.30231e-10 3.61634e-14)
(1760 -6.31451e-10 3.63921e-14)
(1760 -6.30672e-10 3.82228e-14)
(1760 -6.254e-10 3.98391e-14)
(1760 -6.1465e-10 3.86276e-14)
(1760 -6.01151e-10 3.5509e-14)
(1760 -5.9e-10 3.45525e-14)
(1760 -5.73213e-10 3.55783e-14)
(1760 -5.58701e-10 3.28829e-14)
(1760 -5.39888e-10 3.1227e-14)
(1760 -5.22889e-10 3.49673e-14)
(1760 -5.11156e-10 3.31613e-14)
(1760 -5.00907e-10 3.59576e-14)
(1760 -4.89541e-10 3.52461e-14)
(1760 -4.83798e-10 3.25823e-14)
(1760 -4.75496e-10 3.2676e-14)
(1760 -4.64478e-10 3.20281e-14)
(1760 -4.53172e-10 3.41822e-14)
(1760 -4.42428e-10 3.69921e-14)
(1760 -4.2946e-10 3.35503e-14)
(1760 -4.21464e-10 3.18273e-14)
(1760 -4.1442e-10 3.27561e-14)
(1760 -4.08519e-10 2.89589e-14)
(1760 -4.05111e-10 2.77308e-14)
(1760 -4.0208e-10 3.09576e-14)
(1760 -3.98942e-10 3.08402e-14)
(1760 -3.97117e-10 3.06851e-14)
(1760 -3.91984e-10 3.07244e-14)
(1760 -3.87643e-10 3.03787e-14)
(1760 -3.84215e-10 3.07434e-14)
(1760 -3.84114e-10 3.05561e-14)
(1760 -3.86913e-10 3.23051e-14)
(1760 -3.91251e-10 3.45297e-14)
(1760 -3.95139e-10 2.88112e-14)
(1760 -3.97378e-10 2.84536e-14)
(1760 -4.00193e-10 3.24401e-14)
(1760 -4.02074e-10 3.30711e-14)
(1760 -4.07734e-10 3.15245e-14)
(1760 -4.14885e-10 3.02566e-14)
(1760 -4.23028e-10 3.28495e-14)
(1760 -4.34044e-10 3.24373e-14)
(1760 -4.45267e-10 3.17847e-14)
(1760 -4.55125e-10 3.189e-14)
(1760 -4.66563e-10 2.94817e-14)
(1760 -4.81912e-10 3.0341e-14)
(1760 -5.08229e-10 2.91734e-14)
(1760 -5.39588e-10 2.72842e-14)
(1760 -5.42192e-10 2.78679e-14)
(1760 -5.33951e-10 3.12928e-14)
(1760 -5.19362e-10 3.04168e-14)
(1760 -5.15053e-10 2.86393e-14)
(1760 -5.25039e-10 2.89867e-14)
(1760 -5.56144e-10 3.06029e-14)
(1760 -5.96756e-10 3.0294e-14)
(1760 -6.21832e-10 2.77131e-14)
(1760 -6.24792e-10 2.79303e-14)
(1760 -6.18605e-10 2.98058e-14)
(1760 -6.02995e-10 2.75832e-14)
(1760 -5.91942e-10 2.69618e-14)
(1760 -5.88959e-10 2.83359e-14)
(1760 -5.97703e-10 2.87369e-14)
(1760 -6.26702e-10 2.43222e-14)
(1760 -6.64453e-10 2.47019e-14)
(1760 -6.76251e-10 2.48261e-14)
(1760 -6.80109e-10 2.58523e-14)
(1760 -6.80186e-10 2.64009e-14)
(1760 -6.7948e-10 2.58769e-14)
(1760 -6.82204e-10 2.93362e-14)
(1760 -6.85314e-10 2.6995e-14)
(1760 -6.88944e-10 2.52908e-14)
(1760 -6.92584e-10 2.70607e-14)
(1760 -6.99938e-10 2.69599e-14)
(1760 -7.03535e-10 2.70691e-14)
(1760 -7.06521e-10 2.74453e-14)
(1760 -7.10364e-10 2.8052e-14)
(1760 -7.14201e-10 2.88815e-14)
(1760 -7.20435e-10 2.86661e-14)
(1760 -7.26837e-10 2.65396e-14)
(1760 -7.36198e-10 2.39782e-14)
(1760 -7.50138e-10 2.63746e-14)
(1760 -7.57807e-10 2.76769e-14)
(1760 -7.68242e-10 2.65793e-14)
(1760 -7.76235e-10 2.65912e-14)
(1760 -7.86624e-10 2.73545e-14)
(1760 -7.9723e-10 2.5522e-14)
(1760 -7.98796e-10 2.55353e-14)
(1760 -7.99975e-10 2.86691e-14)
(1760 -8.06253e-10 2.60565e-14)
(1760 -8.12781e-10 2.57231e-14)
(1760 -8.23616e-10 2.60972e-14)
(1760 -8.34106e-10 2.45315e-14)
(1760 -8.46023e-10 2.52995e-14)
(1760 -8.60345e-10 2.61461e-14)
(1760 -8.56241e-10 2.39324e-14)
(1760 -8.4733e-10 2.52475e-14)
(1760 -8.23645e-10 2.62024e-14)
(1760 -7.60125e-10 2.40186e-14)
(1760 -7.00508e-10 2.56646e-14)
(1760 -5.12141e-10 2.83912e-14)
(1760 -1.88144e-10 2.76731e-14)
(1760 -1.36211e-10 2.77195e-14)
(1760 -1.41615e-10 2.9359e-14)
(1760 -5.97836e-10 4.51505e-14)
(1760 -5.86686e-10 4.32771e-14)
(1760 -5.80032e-10 4.39705e-14)
(1760 -5.72934e-10 4.21664e-14)
(1760 -5.70063e-10 4.33487e-14)
(1760 -5.71817e-10 4.34031e-14)
(1760 -5.78782e-10 4.75661e-14)
(1760 -5.93891e-10 4.68663e-14)
(1760 -6.23279e-10 4.50929e-14)
(1760 -6.58765e-10 4.55125e-14)
(1760 -6.9136e-10 4.30512e-14)
(1760 -7.17447e-10 4.48899e-14)
(1760 -7.44435e-10 4.67802e-14)
(1760 -7.6107e-10 4.29333e-14)
(1760 -7.72885e-10 4.68536e-14)
(1760 -7.81003e-10 4.46988e-14)
(1760 -7.9285e-10 4.05571e-14)
(1760 -8.03358e-10 4.17655e-14)
(1760 -8.08824e-10 4.14975e-14)
(1760 -8.15721e-10 4.15243e-14)
(1760 -8.25023e-10 4.16125e-14)
(1760 -8.35766e-10 4.16953e-14)
(1760 -8.44873e-10 4.37909e-14)
(1760 -8.55914e-10 4.37884e-14)
(1760 -8.64874e-10 3.7019e-14)
(1760 -8.68273e-10 3.73804e-14)
(1760 -8.71166e-10 3.74683e-14)
(1760 -8.74269e-10 3.62752e-14)
(1760 -8.7691e-10 4.03518e-14)
(1760 -8.79281e-10 3.92888e-14)
(1760 -8.82761e-10 3.95868e-14)
(1760 -8.84301e-10 3.97283e-14)
(1760 -8.86352e-10 4.07257e-14)
(1760 -8.86366e-10 3.98328e-14)
(1760 -8.83869e-10 4.23681e-14)
(1760 -8.73299e-10 4.09179e-14)
(1760 -8.61702e-10 4.01935e-14)
(1760 -8.49768e-10 3.75479e-14)
(1760 -8.45027e-10 3.74121e-14)
(1760 -8.38762e-10 3.89958e-14)
(1760 -8.29911e-10 3.89249e-14)
(1760 -8.11272e-10 3.87495e-14)
(1760 -7.97648e-10 3.88953e-14)
(1760 -7.78557e-10 3.79849e-14)
(1760 -7.5297e-10 4.08241e-14)
(1760 -7.28235e-10 3.96995e-14)
(1760 -7.01877e-10 3.8469e-14)
(1760 -6.82343e-10 3.82984e-14)
(1760 -6.70202e-10 3.83523e-14)
(1760 -6.39078e-10 4.01596e-14)
(1760 -5.47531e-10 3.86259e-14)
(1760 -2.94027e-10 3.60411e-14)
(1760 -2.35545e-10 3.91187e-14)
(1760 -2.68319e-10 4.07195e-14)
(1760 -3.79482e-10 4.30677e-14)
(1760 -5.56204e-10 4.2683e-14)
(1760 -6.14045e-10 3.91172e-14)
(1760 -5.91219e-10 3.58368e-14)
(1760 -4.85922e-10 3.52639e-14)
(1760 -2.15614e-10 3.76023e-14)
(1760 -4.34984e-11 3.77861e-14)
(1760 -4.21767e-11 3.68944e-14)
(1760 -6.95791e-11 3.72071e-14)
(1760 -1.32831e-10 3.94645e-14)
(1760 -2.39299e-10 3.42253e-14)
(1760 -3.10603e-10 3.61626e-14)
(1760 -2.50323e-10 4.09749e-14)
(1760 -3.98795e-11 3.84388e-14)
(1760 9.99925e-11 3.32991e-14)
(1760 1.31989e-10 3.79224e-14)
(1760 1.49529e-10 3.73852e-14)
(1760 1.63871e-10 3.47433e-14)
(1760 1.75227e-10 3.59235e-14)
(1760 1.88018e-10 3.65357e-14)
(1760 2.05009e-10 3.68803e-14)
(1760 2.26977e-10 3.6291e-14)
(1760 2.4826e-10 3.67608e-14)
(1760 2.65969e-10 3.74737e-14)
(1760 2.82497e-10 3.6913e-14)
(1760 2.97494e-10 3.42381e-14)
(1760 3.16027e-10 3.29651e-14)
(1760 3.51364e-10 3.59071e-14)
(1760 3.86714e-10 3.7547e-14)
(1760 4.17963e-10 3.66093e-14)
(1760 4.45135e-10 3.59057e-14)
(1760 4.74285e-10 3.48999e-14)
(1760 5.16542e-10 3.46042e-14)
(1760 5.61815e-10 3.59753e-14)
(1760 6.03563e-10 3.6134e-14)
(1760 6.53281e-10 3.45942e-14)
(1760 7.1308e-10 3.53299e-14)
(1760 7.79826e-10 3.36511e-14)
(1760 8.56654e-10 3.3577e-14)
(1760 9.38024e-10 3.63682e-14)
(1760 1.02297e-09 3.59625e-14)
(1760 1.11092e-09 3.33491e-14)
(1760 1.21977e-09 3.28603e-14)
(1760 1.30538e-09 3.54992e-14)
(1760 1.35783e-09 3.23082e-14)
(1760 1.44654e-09 3.31175e-14)
(1760 1.56076e-09 3.53295e-14)
(1760 1.70806e-09 3.43788e-14)
(1760 1.7859e-09 3.51907e-14)
(1760 1.72455e-09 3.41619e-14)
(1760 1.62867e-09 3.20159e-14)
(1760 1.75292e-09 3.14916e-14)
(1760 2.01187e-09 3.48965e-14)
(1760 -9.15382e-10 5.34978e-14)
(1760 -9.20136e-10 5.45303e-14)
(1760 -9.20245e-10 5.38416e-14)
(1760 -9.18714e-10 5.07309e-14)
(1760 -9.14511e-10 5.10056e-14)
(1760 -9.04817e-10 5.1135e-14)
(1760 -8.8693e-10 5.23231e-14)
(1760 -8.6243e-10 5.47821e-14)
(1760 -8.26096e-10 5.38398e-14)
(1760 -7.68465e-10 5.40291e-14)
(1760 -6.63226e-10 5.06949e-14)
(1760 -4.47415e-10 5.20207e-14)
(1760 -2.73636e-10 5.71586e-14)
(1760 -9.53972e-11 5.27943e-14)
(1760 4.9761e-12 5.26378e-14)
(1760 8.51088e-11 5.37758e-14)
(1760 1.60388e-10 5.35636e-14)
(1760 2.28198e-10 5.44215e-14)
(1760 2.93236e-10 5.41612e-14)
(1760 3.5904e-10 5.37879e-14)
(1760 4.26528e-10 5.26589e-14)
(1760 4.93385e-10 5.2724e-14)
(1760 5.60698e-10 5.22789e-14)
(1760 6.25344e-10 5.08685e-14)
(1760 6.88857e-10 5.11317e-14)
(1760 7.5131e-10 5.36224e-14)
(1760 8.12783e-10 5.37375e-14)
(1760 8.7678e-10 5.26351e-14)
(1760 9.45803e-10 5.32201e-14)
(1760 1.01166e-09 5.17952e-14)
(1760 1.07631e-09 5.05762e-14)
(1760 1.14287e-09 5.00976e-14)
(1760 1.20998e-09 5.23722e-14)
(1760 1.27805e-09 5.35018e-14)
(1760 1.34039e-09 5.17678e-14)
(1760 1.41047e-09 4.94904e-14)
(1760 1.4561e-09 4.72756e-14)
(1760 1.47551e-09 4.86662e-14)
(1760 1.4885e-09 4.83923e-14)
(1760 1.49752e-09 4.90409e-14)
(1760 1.52101e-09 4.91869e-14)
(1760 1.5703e-09 4.92091e-14)
(1760 1.62416e-09 4.75547e-14)
(1760 1.66743e-09 4.75716e-14)
(1760 1.71161e-09 4.92597e-14)
(1760 1.7401e-09 4.94289e-14)
(1760 1.76674e-09 4.84602e-14)
(1760 1.78245e-09 4.92852e-14)
(1760 1.79966e-09 5.00012e-14)
(1760 1.82223e-09 4.9375e-14)
(1760 1.85153e-09 4.66863e-14)
(1760 1.90581e-09 4.69324e-14)
(1760 1.93686e-09 4.72593e-14)
(1760 1.89031e-09 4.69128e-14)
(1760 1.73218e-09 4.83253e-14)
(1760 1.67774e-09 4.3724e-14)
(1760 1.74288e-09 4.33175e-14)
(1760 1.90353e-09 4.84962e-14)
(1760 2.16512e-09 4.81921e-14)
(1760 2.3928e-09 4.48904e-14)
(1760 2.45841e-09 4.57974e-14)
(1760 2.40803e-09 4.66588e-14)
(1760 2.2226e-09 4.37119e-14)
(1760 2.00278e-09 4.37604e-14)
(1760 1.94943e-09 4.32353e-14)
(1760 1.98259e-09 4.28014e-14)
(1760 2.06859e-09 4.72109e-14)
(1760 2.19955e-09 4.46756e-14)
(1760 2.42959e-09 4.49256e-14)
(1760 2.49145e-09 4.61159e-14)
(1760 2.45221e-09 4.4496e-14)
(1760 2.41664e-09 4.31151e-14)
(1760 2.45258e-09 4.16616e-14)
(1760 2.49534e-09 4.26257e-14)
(1760 2.52847e-09 4.36243e-14)
(1760 2.56745e-09 4.25683e-14)
(1760 2.61247e-09 4.28272e-14)
(1760 2.66594e-09 4.35717e-14)
(1760 2.72615e-09 4.12232e-14)
(1760 2.79672e-09 4.19905e-14)
(1760 2.86762e-09 4.13079e-14)
(1760 2.93788e-09 4.14459e-14)
(1760 3.00651e-09 4.01904e-14)
(1760 3.08453e-09 3.93314e-14)
(1760 3.19038e-09 4.19536e-14)
(1760 3.31126e-09 4.1575e-14)
(1760 3.43142e-09 4.22569e-14)
(1760 3.55553e-09 4.09678e-14)
(1760 3.69052e-09 3.94364e-14)
(1760 3.8475e-09 3.90099e-14)
(1760 4.02528e-09 3.96513e-14)
(1760 4.22194e-09 4.08216e-14)
(1760 4.44076e-09 4.09548e-14)
(1760 4.68319e-09 3.78856e-14)
(1760 4.95142e-09 3.89775e-14)
(1760 5.25025e-09 4.17052e-14)
(1760 5.57277e-09 4.01573e-14)
(1760 5.91791e-09 4.16954e-14)
(1760 6.28548e-09 4.00576e-14)
(1760 6.68339e-09 3.8631e-14)
(1760 7.10339e-09 3.89424e-14)
(1760 7.57412e-09 3.84018e-14)
(1760 8.08488e-09 4.08468e-14)
(1760 8.65757e-09 3.9049e-14)
(1760 9.23641e-09 4.10377e-14)
(1760 9.75571e-09 4.0021e-14)
(1760 1.03642e-08 3.92641e-14)
(1760 1.12223e-08 3.86228e-14)
(1760 1.22547e-08 3.64755e-14)
(1760 1.32581e-08 3.90872e-14)
(1760 7.81506e-10 6.28197e-14)
(1760 9.36841e-10 6.46425e-14)
(1760 1.10073e-09 6.46556e-14)
(1760 1.27065e-09 6.20278e-14)
(1760 1.44363e-09 6.45849e-14)
(1760 1.62925e-09 6.53717e-14)
(1760 1.818e-09 6.47745e-14)
(1760 1.95098e-09 6.20072e-14)
(1760 2.05186e-09 6.42373e-14)
(1760 2.13919e-09 6.39162e-14)
(1760 2.21085e-09 6.17875e-14)
(1760 2.11666e-09 6.33131e-14)
(1760 2.1977e-09 6.27283e-14)
(1760 2.32578e-09 6.04306e-14)
(1760 2.53389e-09 5.80368e-14)
(1760 2.76417e-09 6.03198e-14)
(1760 2.98699e-09 6.38322e-14)
(1760 3.19925e-09 6.27041e-14)
(1760 3.40212e-09 6.17169e-14)
(1760 3.60177e-09 5.87751e-14)
(1760 3.80579e-09 5.98609e-14)
(1760 4.01347e-09 5.94775e-14)
(1760 4.22134e-09 6.1474e-14)
(1760 4.43496e-09 6.2204e-14)
(1760 4.65684e-09 5.92361e-14)
(1760 4.87823e-09 5.89292e-14)
(1760 5.10549e-09 6.11835e-14)
(1760 5.34123e-09 6.18901e-14)
(1760 5.57717e-09 5.98946e-14)
(1760 5.80865e-09 5.54663e-14)
(1760 6.04211e-09 5.47416e-14)
(1760 6.27183e-09 5.93819e-14)
(1760 6.50176e-09 5.92628e-14)
(1760 6.72884e-09 5.50958e-14)
(1760 6.94602e-09 5.55144e-14)
(1760 7.16004e-09 5.71632e-14)
(1760 7.38316e-09 5.58178e-14)
(1760 7.61184e-09 5.56039e-14)
(1760 7.81525e-09 5.4779e-14)
(1760 8.01548e-09 5.70974e-14)
(1760 8.17574e-09 5.64882e-14)
(1760 8.32468e-09 5.51906e-14)
(1760 8.47428e-09 5.42868e-14)
(1760 8.628e-09 5.54407e-14)
(1760 8.78586e-09 5.49677e-14)
(1760 8.94001e-09 5.47421e-14)
(1760 9.08866e-09 5.64203e-14)
(1760 9.2355e-09 5.63407e-14)
(1760 9.37305e-09 5.35602e-14)
(1760 9.50299e-09 5.42316e-14)
(1760 9.6334e-09 5.33937e-14)
(1760 9.75086e-09 5.45908e-14)
(1760 9.82348e-09 5.22314e-14)
(1760 9.88199e-09 5.39993e-14)
(1760 1.00421e-08 5.41262e-14)
(1760 1.03016e-08 5.14738e-14)
(1760 1.05268e-08 5.34856e-14)
(1760 1.07373e-08 5.21546e-14)
(1760 1.08278e-08 5.40731e-14)
(1760 1.08198e-08 5.39758e-14)
(1760 1.07793e-08 5.2494e-14)
(1760 1.07884e-08 5.32297e-14)
(1760 1.09286e-08 5.15655e-14)
(1760 1.11812e-08 5.04537e-14)
(1760 1.14406e-08 4.78278e-14)
(1760 1.17052e-08 5.18919e-14)
(1760 1.19547e-08 5.25756e-14)
(1760 1.21294e-08 4.91797e-14)
(1760 1.22129e-08 5.16243e-14)
(1760 1.23203e-08 5.32577e-14)
(1760 1.25311e-08 5.02228e-14)
(1760 1.28251e-08 4.86203e-14)
(1760 1.31122e-08 4.91195e-14)
(1760 1.34043e-08 5.14172e-14)
(1760 1.373e-08 4.87031e-14)
(1760 1.40882e-08 4.79642e-14)
(1760 1.44665e-08 4.93941e-14)
(1760 1.48632e-08 4.83931e-14)
(1760 1.52828e-08 4.75205e-14)
(1760 1.57239e-08 4.726e-14)
(1760 1.61875e-08 4.60537e-14)
(1760 1.66668e-08 4.62513e-14)
(1760 1.71538e-08 4.79782e-14)
(1760 1.76779e-08 4.72035e-14)
(1760 1.82644e-08 4.79681e-14)
(1760 1.89022e-08 4.92138e-14)
(1760 1.9588e-08 4.7694e-14)
(1760 2.03294e-08 4.38786e-14)
(1760 2.11319e-08 4.50276e-14)
(1760 2.20006e-08 4.54838e-14)
(1760 2.29269e-08 4.69742e-14)
(1760 2.39079e-08 4.56403e-14)
(1760 2.49501e-08 4.78257e-14)
(1760 2.60768e-08 4.5126e-14)
(1760 2.7309e-08 4.5927e-14)
(1760 2.86762e-08 4.55325e-14)
(1760 3.01907e-08 4.61253e-14)
(1760 3.18746e-08 4.63926e-14)
(1760 3.37512e-08 4.36826e-14)
(1760 3.58341e-08 4.58584e-14)
(1760 3.8168e-08 4.62317e-14)
(1760 4.07921e-08 4.51384e-14)
(1760 4.37577e-08 4.46497e-14)
(1760 4.71039e-08 4.33423e-14)
(1760 5.0856e-08 4.5244e-14)
(1760 5.51292e-08 4.38837e-14)
(1760 6.00643e-08 4.44706e-14)
(1760 6.55428e-08 4.41842e-14)
(1760 7.13259e-08 4.43152e-14)
(1760 7.73649e-08 4.25639e-14)
(1760 5.60992e-09 7.30314e-14)
(1760 6.11633e-09 7.17804e-14)
(1760 6.63808e-09 7.11899e-14)
(1760 7.18147e-09 7.21421e-14)
(1760 7.75303e-09 7.40137e-14)
(1760 8.34813e-09 7.13732e-14)
(1760 8.97765e-09 6.97954e-14)
(1760 9.67329e-09 7.14662e-14)
(1760 1.04048e-08 7.3923e-14)
(1760 1.11559e-08 7.27321e-14)
(1760 1.19634e-08 7.23406e-14)
(1760 1.26821e-08 7.02924e-14)
(1760 1.34471e-08 7.08559e-14)
(1760 1.41897e-08 6.87798e-14)
(1760 1.49894e-08 6.88686e-14)
(1760 1.58698e-08 7.02367e-14)
(1760 1.68141e-08 7.03864e-14)
(1760 1.77924e-08 6.99692e-14)
(1760 1.87914e-08 6.85318e-14)
(1760 1.98038e-08 6.84932e-14)
(1760 2.08144e-08 7.17515e-14)
(1760 2.18087e-08 6.84049e-14)
(1760 2.27718e-08 6.87794e-14)
(1760 2.37015e-08 6.83249e-14)
(1760 2.46099e-08 6.79921e-14)
(1760 2.55009e-08 6.78469e-14)
(1760 2.63799e-08 6.59575e-14)
(1760 2.72557e-08 6.56659e-14)
(1760 2.81297e-08 6.91921e-14)
(1760 2.90053e-08 6.3803e-14)
(1760 2.98991e-08 6.43021e-14)
(1760 3.08061e-08 6.49513e-14)
(1760 3.17287e-08 6.54876e-14)
(1760 3.26665e-08 6.66506e-14)
(1760 3.36151e-08 6.50756e-14)
(1760 3.45727e-08 6.48104e-14)
(1760 3.55474e-08 6.41577e-14)
(1760 3.65443e-08 6.37116e-14)
(1760 3.75513e-08 6.26665e-14)
(1760 3.85673e-08 6.34781e-14)
(1760 3.95867e-08 6.48025e-14)
(1760 4.06057e-08 6.34003e-14)
(1760 4.16315e-08 6.3187e-14)
(1760 4.2672e-08 6.13964e-14)
(1760 4.37366e-08 5.92537e-14)
(1760 4.48155e-08 6.14058e-14)
(1760 4.58962e-08 6.29048e-14)
(1760 4.69598e-08 5.98167e-14)
(1760 4.79905e-08 5.90694e-14)
(1760 4.89873e-08 6.20866e-14)
(1760 4.99474e-08 6.29907e-14)
(1760 5.08595e-08 6.27717e-14)
(1760 5.17349e-08 5.93818e-14)
(1760 5.26251e-08 6.01896e-14)
(1760 5.35489e-08 6.16223e-14)
(1760 5.43733e-08 6.10522e-14)
(1760 5.50682e-08 5.90626e-14)
(1760 5.5675e-08 5.89441e-14)
(1760 5.62591e-08 5.88361e-14)
(1760 5.69185e-08 6.23282e-14)
(1760 5.77503e-08 5.94963e-14)
(1760 5.8758e-08 5.80564e-14)
(1760 5.97683e-08 5.93574e-14)
(1760 6.06466e-08 5.8182e-14)
(1760 6.13923e-08 5.65855e-14)
(1760 6.20626e-08 5.83045e-14)
(1760 6.2702e-08 5.7831e-14)
(1760 6.33723e-08 5.7286e-14)
(1760 6.4165e-08 5.77614e-14)
(1760 6.51405e-08 5.6181e-14)