/*--------------------------------*- C++ -*----------------------------------*\
| =========                 |                                                 |
| \\      /  F ield         | OpenFOAM: The Open Source CFD Toolbox           |
|  \\    /   O peration     | Version:  v1706                                 |
|   \\  /    A nd           | Web:      www.OpenFOAM.com                      |
|    \\/     M anipulation  |                                                 |
\*---------------------------------------------------------------------------*/
FoamFile
{
    version     2.0;
    format      ascii;
    class       volScalarField;
    location    "3.8e-05";
    object      wallHeatFlux;
}
// * * * * * * * * * * * * * * * * * * * * * * * * * * * * * * * * * * * * * //

dimensions      [1 0 -3 0 0 0 0];


internalField   uniform 0;

boundaryField
{
    cone
    {
        type            calculated;
        value           nonuniform List<scalar> 
181
(
36618.3
36292
35966.2
35640.6
35315.4
34990.5
34665.9
34341.7
34017.9
33694.5
33371.7
33049.4
32727.7
32406.6
32086.3
31766.7
31447.9
31130
30813
30497
30182
29868.2
29555.6
29244.2
28934.1
28625.5
28318.3
28012.8
27708.9
27406.8
27106.6
26808.3
26512.2
26218.2
25926.6
25637.4
25350.8
25066.9
24785.8
24507.6
24232.5
23960.5
23691.8
23426.5
23164.8
22906.6
22652.1
22401.5
22154.7
21912
21673.2
21438.6
21208.2
20982
20760.1
20542.6
20329.4
20120.5
19916.1
19716.1
19520.5
19329.3
19142.6
18960.3
18782.3
18608.8
18439.6
18274.7
18114.1
17957.6
17805.4
17657.4
17513.4
17373.6
17237.9
17106.5
16979.3
16856.6
16738.5
16625.2
16516.9
16413.7
16315.6
16222.6
16134.4
16050.5
15970.1
15892.1
15815.3
15738.1
15658.9
15575.9
15487.6
15392.4
15289.5
15178.6
15060.1
14934.9
14805.1
14674
14546.1
14428
14327.8
14251.1
14200.7
14180.1
14195.6
14254.9
14363.7
14526.2
14741.9
15007.6
15317.2
15660.3
16022.6
16386.4
16731.1
17032.6
17265.7
17399.9
17407.3
17272.2
16978
16520.5
15910.1
15166.3
14318.1
13401.6
12456.6
11522.5
10634.6
9821.55
9102.91
8494.39
8002.92
7633.07
7394.09
7287.91
7314.69
7482.32
7797.03
8262.37
8882.07
9657.78
10587.3
11663
12870.6
14187.1
15580
17007.8
18421.3
19768.5
20999.7
22074.7
22958.9
23633.3
24084.8
24309.3
24312.1
24095.6
23659.8
23011
22161.5
21130.1
19943.1
18634
17241.8
15808.1
14373.5
12974.7
11642.4
10399.3
9260.82
8235.13
7324.6
6527.05
5837.05
5247.25
4749.35
4337.2
4002.89
)
;
    }
    inlet
    {
        type            calculated;
        value           uniform 0;
    }
    rWedge
    {
        type            wedge;
    }
    lWedge
    {
        type            wedge;
    }
    outlet
    {
        type            calculated;
        value           nonuniform 0();
    }
    procBoundary1to0
    {
        type            processor;
        value           uniform 0;
    }
    procBoundary1to2
    {
        type            processor;
        value           uniform 0;
    }
}


// ************************************************************************* //
