# Force      
# CofR       : (0.000000e+00 0.000000e+00 0.000000e+00)
#            
# Time       	(total_x total_y total_z)	(pressure_x pressure_y pressure_z)	(viscous_x viscous_y viscous_z)
2.808989e-09	(4.355890e-04 -9.034630e-04 8.619794e-23)	(4.355890e-04 -9.034630e-04 8.576772e-23)	(7.992520e-19 -1.633929e-18 4.302246e-25)
5.964657e-09	(-2.110623e-03 4.305357e-03 -2.954058e-22)	(4.367751e-04 -9.059224e-04 8.600045e-23)	(-2.547398e-03 5.211280e-03 -3.814063e-22)
9.464781e-09	(1.848835e-03 -3.909463e-03 2.419628e-22)	(4.326101e-04 -8.972905e-04 8.517324e-23)	(1.416225e-03 -3.012172e-03 1.567895e-22)
1.295258e-08	(-3.660612e-04 6.511123e-04 -6.434062e-23)	(4.407186e-04 -9.140863e-04 8.677390e-23)	(-8.067798e-04 1.565199e-03 -1.511145e-22)
1.642810e-08	(8.101554e-04 -1.752903e-03 1.167638e-22)	(4.408203e-04 -9.143284e-04 8.679149e-23)	(3.693351e-04 -8.385748e-04 2.997236e-23)
1.989138e-08	(2.193798e-04 -5.434209e-04 2.727954e-23)	(4.445668e-04 -9.220724e-04 8.752801e-23)	(-2.251870e-04 3.786515e-04 -6.024847e-23)
2.335466e-08	(5.268257e-04 -1.163218e-03 6.482495e-23)	(4.461481e-04 -9.253680e-04 8.783860e-23)	(8.067758e-05 -2.378501e-04 -2.301366e-23)
2.680571e-08	(3.762853e-04 -8.560311e-04 2.342765e-23)	(4.487189e-04 -9.306878e-04 8.834333e-23)	(-7.243361e-05 7.465671e-05 -6.491567e-23)
3.024456e-08	(4.540118e-04 -1.008326e-03 3.993147e-23)	(4.506163e-04 -9.346314e-04 8.871626e-23)	(3.395445e-06 -7.369495e-05 -4.878478e-23)
3.368340e-08	(4.179345e-04 -9.340004e-04 1.779987e-23)	(4.527271e-04 -9.390012e-04 8.913066e-23)	(-3.479263e-05 5.000801e-06 -7.133079e-23)
3.711006e-08	(4.384153e-04 -9.717606e-04 3.492993e-23)	(4.546571e-04 -9.430087e-04 8.951005e-23)	(-1.624185e-05 -2.875195e-05 -5.458012e-23)
4.052456e-08	(4.303272e-04 -9.537665e-04 2.312924e-23)	(4.566121e-04 -9.470609e-04 8.989408e-23)	(-2.628486e-05 -6.705605e-06 -6.676484e-23)
4.393907e-08	(4.367569e-04 -9.641904e-04 1.582273e-23)	(4.584932e-04 -9.509646e-04 9.026386e-23)	(-2.173633e-05 -1.322572e-05 -7.444112e-23)
4.734142e-08	(4.357629e-04 -9.604627e-04 1.645005e-23)	(4.603537e-04 -9.548226e-04 9.062944e-23)	(-2.459081e-05 -5.640081e-06 -7.417939e-23)
5.074377e-08	(4.385572e-04 -9.641420e-04 3.175811e-24)	(4.621686e-04 -9.585879e-04 9.098622e-23)	(-2.361143e-05 -5.554101e-06 -8.781041e-23)
5.413397e-08	(4.393637e-04 -9.641373e-04 -2.796680e-24)	(4.639532e-04 -9.622893e-04 9.133700e-23)	(-2.458954e-05 -1.848017e-06 -9.413368e-23)
5.752417e-08	(4.411769e-04 -9.661696e-04 -1.714306e-23)	(4.657019e-04 -9.659168e-04 9.168079e-23)	(-2.452496e-05 -2.528418e-07 -1.088239e-22)
6.090222e-08	(4.424238e-04 -9.672022e-04 -2.608397e-23)	(4.674195e-04 -9.694796e-04 9.201847e-23)	(-2.499563e-05 2.277406e-06 -1.181024e-22)
6.428027e-08	(4.439502e-04 -9.688620e-04 -2.419806e-23)	(4.691053e-04 -9.729769e-04 9.234994e-23)	(-2.515518e-05 4.114887e-06 -1.165480e-22)
6.764617e-08	(4.451531e-04 -9.699497e-04 -2.869310e-23)	(4.707585e-04 -9.764061e-04 9.267510e-23)	(-2.560540e-05 6.456428e-06 -1.213682e-22)
7.101207e-08	(4.464587e-04 -9.713194e-04 -3.822122e-23)	(4.723787e-04 -9.797670e-04 9.299377e-23)	(-2.592000e-05 8.447584e-06 -1.312150e-22)
7.436581e-08	(4.476270e-04 -9.724774e-04 -4.331943e-23)	(4.739690e-04 -9.830657e-04 9.330655e-23)	(-2.634198e-05 1.058827e-05 -1.366260e-22)
7.771956e-08	(4.488361e-04 -9.737775e-04 -5.768727e-23)	(4.755306e-04 -9.863049e-04 9.361371e-23)	(-2.669446e-05 1.252735e-05 -1.513010e-22)
8.106116e-08	(4.499542e-04 -9.749470e-04 -5.914243e-23)	(4.770650e-04 -9.894877e-04 9.391554e-23)	(-2.711086e-05 1.454069e-05 -1.530580e-22)
8.440275e-08	(4.511154e-04 -9.762551e-04 -6.656181e-23)	(4.785732e-04 -9.926159e-04 9.421220e-23)	(-2.745776e-05 1.636081e-05 -1.607740e-22)
8.773220e-08	(4.521924e-04 -9.774370e-04 -7.432820e-23)	(4.800562e-04 -9.956920e-04 9.450394e-23)	(-2.786371e-05 1.825503e-05 -1.688321e-22)
9.106164e-08	(4.533141e-04 -9.787532e-04 -8.810940e-23)	(4.815146e-04 -9.987172e-04 9.479086e-23)	(-2.820047e-05 1.996399e-05 -1.829003e-22)
9.437894e-08	(4.543613e-04 -9.799556e-04 -9.195480e-23)	(4.829494e-04 -1.001693e-03 9.507316e-23)	(-2.858811e-05 2.173784e-05 -1.870280e-22)
9.769623e-08	(4.554496e-04 -9.812786e-04 -9.272672e-23)	(4.843611e-04 -1.004622e-03 9.535093e-23)	(-2.891156e-05 2.334315e-05 -1.880777e-22)
1.010014e-07	(4.564576e-04 -9.824707e-04 -1.003096e-22)	(4.857507e-04 -1.007504e-03 9.562434e-23)	(-2.929306e-05 2.503329e-05 -1.959340e-22)
1.043065e-07	(4.575115e-04 -9.837889e-04 -1.021272e-22)	(4.871182e-04 -1.010341e-03 9.589345e-23)	(-2.960666e-05 2.655180e-05 -1.980206e-22)
1.076117e-07	(4.585113e-04 -9.850246e-04 -1.138645e-22)	(4.884647e-04 -1.013134e-03 9.615842e-23)	(-2.995332e-05 2.810915e-05 -2.100230e-22)
1.109046e-07	(4.594895e-04 -9.862440e-04 -1.207898e-22)	(4.897905e-04 -1.015884e-03 9.641935e-23)	(-3.030104e-05 2.963996e-05 -2.172091e-22)
1.141975e-07	(4.604853e-04 -9.875260e-04 -1.344457e-22)	(4.910960e-04 -1.018592e-03 9.667631e-23)	(-3.061070e-05 3.106609e-05 -2.311220e-22)
1.174783e-07	(4.614154e-04 -9.886975e-04 -1.398283e-22)	(4.923816e-04 -1.021259e-03 9.692935e-23)	(-3.096627e-05 3.256145e-05 -2.367576e-22)
1.207590e-07	(4.623925e-04 -9.899888e-04 -1.437218e-22)	(4.936476e-04 -1.023885e-03 9.717855e-23)	(-3.125508e-05 3.389621e-05 -2.409003e-22)
1.240398e-07	(4.633103e-04 -9.911792e-04 -1.546118e-22)	(4.948946e-04 -1.026472e-03 9.742403e-23)	(-3.158433e-05 3.529268e-05 -2.520358e-22)
1.273083e-07	(4.642111e-04 -9.923560e-04 -1.595674e-22)	(4.961232e-04 -1.029020e-03 9.766590e-23)	(-3.191211e-05 3.666440e-05 -2.572333e-22)
1.305768e-07	(4.651300e-04 -9.935899e-04 -1.662470e-22)	(4.973335e-04 -1.031531e-03 9.790420e-23)	(-3.220353e-05 3.794130e-05 -2.641512e-22)
1.338331e-07	(4.659857e-04 -9.947129e-04 -1.733029e-22)	(4.985263e-04 -1.034006e-03 9.813906e-23)	(-3.254063e-05 3.929279e-05 -2.714420e-22)
1.370893e-07	(4.668852e-04 -9.959438e-04 -1.812377e-22)	(4.997016e-04 -1.036444e-03 9.837048e-23)	(-3.281643e-05 4.049994e-05 -2.796081e-22)
1.403456e-07	(4.677387e-04 -9.970965e-04 -1.819260e-22)	(5.008599e-04 -1.038847e-03 9.859858e-23)	(-3.312125e-05 4.175024e-05 -2.805246e-22)
1.435896e-07	(4.685689e-04 -9.982181e-04 -1.917649e-22)	(5.020019e-04 -1.041216e-03 9.882346e-23)	(-3.343297e-05 4.299756e-05 -2.905884e-22)
1.468336e-07	(4.694229e-04 -9.994041e-04 -2.047126e-22)	(5.031273e-04 -1.043550e-03 9.904511e-23)	(-3.370447e-05 4.414638e-05 -3.037577e-22)
1.500775e-07	(4.702423e-04 -1.000533e-03 -2.074015e-22)	(5.042369e-04 -1.045852e-03 9.926364e-23)	(-3.399458e-05 4.531910e-05 -3.066652e-22)
1.533092e-07	(4.710335e-04 -1.001619e-03 -2.144420e-22)	(5.053310e-04 -1.048122e-03 9.947915e-23)	(-3.429755e-05 4.650309e-05 -3.139212e-22)
1.565408e-07	(4.718579e-04 -1.002786e-03 -2.245115e-22)	(5.064096e-04 -1.050360e-03 9.969161e-23)	(-3.455166e-05 4.757323e-05 -3.242031e-22)
1.597725e-07	(4.726439e-04 -1.003887e-03 -2.279596e-22)	(5.074732e-04 -1.052566e-03 9.990112e-23)	(-3.482935e-05 4.867953e-05 -3.278607e-22)
1.629917e-07	(4.734023e-04 -1.004944e-03 -2.419196e-22)	(5.085223e-04 -1.054743e-03 1.001078e-22)	(-3.511996e-05 4.979896e-05 -3.420274e-22)
1.662110e-07	(4.741884e-04 -1.006069e-03 -2.486356e-22)	(5.095567e-04 -1.056889e-03 1.003116e-22)	(-3.536826e-05 5.081920e-05 -3.489471e-22)
1.694303e-07	(4.749412e-04 -1.007137e-03 -2.556987e-22)	(5.105769e-04 -1.059005e-03 1.005126e-22)	(-3.563570e-05 5.186770e-05 -3.562112e-22)
1.726495e-07	(4.756963e-04 -1.008221e-03 -2.655476e-22)	(5.115831e-04 -1.061093e-03 1.007108e-22)	(-3.588676e-05 5.287157e-05 -3.662584e-22)
1.758563e-07	(4.764039e-04 -1.009218e-03 -2.686615e-22)	(5.125759e-04 -1.063152e-03 1.009065e-22)	(-3.617196e-05 5.393405e-05 -3.695679e-22)
1.790631e-07	(4.771508e-04 -1.010307e-03 -2.766161e-22)	(5.135550e-04 -1.065184e-03 1.010994e-22)	(-3.640422e-05 5.487708e-05 -3.777154e-22)
1.822699e-07	(4.778612e-04 -1.011329e-03 -2.873669e-22)	(5.145209e-04 -1.067188e-03 1.012897e-22)	(-3.665965e-05 5.585816e-05 -3.886566e-22)
1.854641e-07	(4.785449e-04 -1.012308e-03 -3.007270e-22)	(5.154741e-04 -1.069165e-03 1.014776e-22)	(-3.692916e-05 5.685760e-05 -4.022046e-22)
1.886584e-07	(4.792591e-04 -1.013358e-03 -3.040694e-22)	(5.164143e-04 -1.071116e-03 1.016629e-22)	(-3.715514e-05 5.775793e-05 -4.057322e-22)
1.918527e-07	(4.799425e-04 -1.014353e-03 -3.113899e-22)	(5.173419e-04 -1.073040e-03 1.018457e-22)	(-3.739940e-05 5.868725e-05 -4.132356e-22)
1.950469e-07	(4.806291e-04 -1.015363e-03 -3.185862e-22)	(5.182571e-04 -1.074939e-03 1.020261e-22)	(-3.762793e-05 5.957573e-05 -4.206123e-22)
1.982286e-07	(4.812687e-04 -1.016286e-03 -3.284980e-22)	(5.191605e-04 -1.076813e-03 1.022042e-22)	(-3.789178e-05 6.052748e-05 -4.307022e-22)
2.014102e-07	(4.819497e-04 -1.017302e-03 -3.388577e-22)	(5.200517e-04 -1.078662e-03 1.023799e-22)	(-3.810203e-05 6.136060e-05 -4.412375e-22)
2.045918e-07	(4.825966e-04 -1.018255e-03 -3.436528e-22)	(5.209312e-04 -1.080487e-03 1.025532e-22)	(-3.833459e-05 6.223205e-05 -4.462060e-22)
2.077735e-07	(4.832491e-04 -1.019227e-03 -3.504863e-22)	(5.217990e-04 -1.082288e-03 1.027243e-22)	(-3.854988e-05 6.306055e-05 -4.532106e-22)
2.109424e-07	(4.838538e-04 -1.020109e-03 -3.597726e-22)	(5.226559e-04 -1.084066e-03 1.028933e-22)	(-3.880207e-05 6.395655e-05 -4.626659e-22)
2.141113e-07	(4.845014e-04 -1.021086e-03 -3.699775e-22)	(5.235013e-04 -1.085820e-03 1.030600e-22)	(-3.899995e-05 6.473341e-05 -4.730375e-22)
2.172802e-07	(4.851159e-04 -1.022002e-03 -3.738833e-22)	(5.243357e-04 -1.087551e-03 1.032245e-22)	(-3.921986e-05 6.554893e-05 -4.771078e-22)
2.204491e-07	(4.857363e-04 -1.022936e-03 -3.804500e-22)	(5.251592e-04 -1.089259e-03 1.033869e-22)	(-3.942291e-05 6.632322e-05 -4.838369e-22)
2.236052e-07	(4.863089e-04 -1.023780e-03 -3.885498e-22)	(5.259724e-04 -1.090947e-03 1.035472e-22)	(-3.966353e-05 6.716719e-05 -4.920970e-22)
2.267612e-07	(4.869253e-04 -1.024719e-03 -3.949747e-22)	(5.267749e-04 -1.092612e-03 1.037055e-22)	(-3.984956e-05 6.789226e-05 -4.986802e-22)
2.299173e-07	(4.875098e-04 -1.025599e-03 -4.073532e-22)	(5.275670e-04 -1.094255e-03 1.038617e-22)	(-4.005718e-05 6.865582e-05 -5.112149e-22)
2.330734e-07	(4.881003e-04 -1.026497e-03 -4.137072e-22)	(5.283488e-04 -1.095877e-03 1.040159e-22)	(-4.024843e-05 6.937990e-05 -5.177231e-22)
2.362165e-07	(4.886432e-04 -1.027304e-03 -4.254518e-22)	(5.291210e-04 -1.097480e-03 1.041682e-22)	(-4.047783e-05 7.017556e-05 -5.296200e-22)
2.393597e-07	(4.892306e-04 -1.028208e-03 -4.318461e-22)	(5.298831e-04 -1.099061e-03 1.043186e-22)	(-4.065244e-05 7.085258e-05 -5.361646e-22)
2.425028e-07	(4.897872e-04 -1.029054e-03 -4.438626e-22)	(5.306354e-04 -1.100622e-03 1.044670e-22)	(-4.084819e-05 7.156779e-05 -5.483295e-22)
2.456459e-07	(4.903500e-04 -1.029918e-03 -4.505295e-22)	(5.313780e-04 -1.102163e-03 1.046135e-22)	(-4.102805e-05 7.224517e-05 -5.551429e-22)
2.487891e-07	(4.909005e-04 -1.030761e-03 -4.590569e-22)	(5.321111e-04 -1.103684e-03 1.047581e-22)	(-4.121062e-05 7.292304e-05 -5.638150e-22)
2.519191e-07	(4.914099e-04 -1.031526e-03 -4.678135e-22)	(5.328355e-04 -1.105187e-03 1.049010e-22)	(-4.142553e-05 7.366143e-05 -5.727145e-22)
2.550492e-07	(4.919620e-04 -1.032383e-03 -4.779990e-22)	(5.335503e-04 -1.106670e-03 1.050420e-22)	(-4.158828e-05 7.428723e-05 -5.830410e-22)
2.581792e-07	(4.924863e-04 -1.033188e-03 -4.884558e-22)	(5.342561e-04 -1.108135e-03 1.051813e-22)	(-4.176976e-05 7.494701e-05 -5.936371e-22)
2.613093e-07	(4.930210e-04 -1.034018e-03 -4.980371e-22)	(5.349528e-04 -1.109581e-03 1.053188e-22)	(-4.193185e-05 7.556285e-05 -6.033559e-22)
2.644393e-07	(4.935414e-04 -1.034822e-03 -5.052962e-22)	(5.356407e-04 -1.111008e-03 1.054545e-22)	(-4.209936e-05 7.618559e-05 -6.107507e-22)
2.675561e-07	(4.940225e-04 -1.035552e-03 -5.120608e-22)	(5.363206e-04 -1.112419e-03 1.055887e-22)	(-4.229808e-05 7.686705e-05 -6.176495e-22)
2.706729e-07	(4.945458e-04 -1.036372e-03 -5.200313e-22)	(5.369916e-04 -1.113811e-03 1.057211e-22)	(-4.244574e-05 7.743881e-05 -6.257524e-22)
2.737897e-07	(4.950422e-04 -1.037141e-03 -5.300484e-22)	(5.376541e-04 -1.115186e-03 1.058519e-22)	(-4.261186e-05 7.804457e-05 -6.359002e-22)
2.769064e-07	(4.955440e-04 -1.037925e-03 -5.412053e-22)	(5.383082e-04 -1.116543e-03 1.059810e-22)	(-4.276422e-05 7.861808e-05 -6.471863e-22)
2.800232e-07	(4.960354e-04 -1.038691e-03 -5.493912e-22)	(5.389541e-04 -1.117884e-03 1.061085e-22)	(-4.291872e-05 7.919212e-05 -6.554997e-22)
2.831266e-07	(4.964863e-04 -1.039379e-03 -5.594968e-22)	(5.395925e-04 -1.119208e-03 1.062345e-22)	(-4.310623e-05 7.982903e-05 -6.657313e-22)
2.862299e-07	(4.969811e-04 -1.040162e-03 -5.692481e-22)	(5.402227e-04 -1.120516e-03 1.063589e-22)	(-4.324158e-05 8.035439e-05 -6.756070e-22)
2.893333e-07	(4.974499e-04 -1.040894e-03 -5.781027e-22)	(5.408449e-04 -1.121807e-03 1.064818e-22)	(-4.339506e-05 8.091350e-05 -6.845844e-22)
2.924366e-07	(4.979242e-04 -1.041641e-03 -5.871348e-22)	(5.414593e-04 -1.123082e-03 1.066031e-22)	(-4.353514e-05 8.144158e-05 -6.937379e-22)
2.955400e-07	(4.983888e-04 -1.042371e-03 -5.949207e-22)	(5.420660e-04 -1.124341e-03 1.067228e-22)	(-4.367724e-05 8.197033e-05 -7.016435e-22)
2.986297e-07	(4.988124e-04 -1.043021e-03 -6.046389e-22)	(5.426658e-04 -1.125586e-03 1.068413e-22)	(-4.385339e-05 8.256449e-05 -7.114802e-22)
3.017194e-07	(4.992809e-04 -1.043768e-03 -6.142495e-22)	(5.432578e-04 -1.126815e-03 1.069582e-22)	(-4.397693e-05 8.304658e-05 -7.212077e-22)
3.048092e-07	(4.997243e-04 -1.044466e-03 -6.243348e-22)	(5.438425e-04 -1.128028e-03 1.070736e-22)	(-4.411817e-05 8.356193e-05 -7.314085e-22)
3.078989e-07	(5.001733e-04 -1.045178e-03 -6.331226e-22)	(5.444198e-04 -1.129226e-03 1.071876e-22)	(-4.424653e-05 8.404772e-05 -7.403102e-22)
3.109887e-07	(5.006131e-04 -1.045875e-03 -6.415377e-22)	(5.449899e-04 -1.130409e-03 1.073002e-22)	(-4.437678e-05 8.453428e-05 -7.488380e-22)
3.140784e-07	(5.010505e-04 -1.046569e-03 -6.517911e-22)	(5.455528e-04 -1.131577e-03 1.074114e-22)	(-4.450238e-05 8.500835e-05 -7.592025e-22)
3.171543e-07	(5.014432e-04 -1.047176e-03 -6.626838e-22)	(5.461096e-04 -1.132733e-03 1.075214e-22)	(-4.466636e-05 8.555706e-05 -7.702052e-22)
3.202302e-07	(5.018832e-04 -1.047883e-03 -6.709141e-22)	(5.466591e-04 -1.133873e-03 1.076299e-22)	(-4.477585e-05 8.599028e-05 -7.785440e-22)
3.233060e-07	(5.022986e-04 -1.048542e-03 -6.808503e-22)	(5.472018e-04 -1.134999e-03 1.077371e-22)	(-4.490317e-05 8.645740e-05 -7.885874e-22)
3.263819e-07	(5.027197e-04 -1.049216e-03 -6.919345e-22)	(5.477377e-04 -1.136112e-03 1.078430e-22)	(-4.501799e-05 8.689615e-05 -7.997775e-22)
3.294578e-07	(5.031322e-04 -1.049874e-03 -7.008121e-22)	(5.482669e-04 -1.137210e-03 1.079476e-22)	(-4.513467e-05 8.733600e-05 -8.087596e-22)
3.325337e-07	(5.035426e-04 -1.050530e-03 -7.096535e-22)	(5.487895e-04 -1.138295e-03 1.080508e-22)	(-4.524694e-05 8.776420e-05 -8.177043e-22)
3.356096e-07	(5.039480e-04 -1.051179e-03 -7.190174e-22)	(5.493057e-04 -1.139366e-03 1.081528e-22)	(-4.535767e-05 8.818666e-05 -8.271702e-22)
3.386713e-07	(5.043068e-04 -1.051736e-03 -7.298448e-22)	(5.498162e-04 -1.140426e-03 1.082537e-22)	(-4.550938e-05 8.868967e-05 -8.380985e-22)
3.417330e-07	(5.047149e-04 -1.052397e-03 -7.385192e-22)	(5.503201e-04 -1.141471e-03 1.083533e-22)	(-4.560521e-05 8.907473e-05 -8.468724e-22)
3.447947e-07	(5.050999e-04 -1.053012e-03 -7.499650e-22)	(5.508178e-04 -1.142504e-03 1.084516e-22)	(-4.571794e-05 8.949217e-05 -8.584167e-22)
3.478564e-07	(5.054905e-04 -1.053642e-03 -7.596017e-22)	(5.513093e-04 -1.143524e-03 1.085488e-22)	(-4.581873e-05 8.988279e-05 -8.681504e-22)
3.509181e-07	(5.058736e-04 -1.054257e-03 -7.685017e-22)	(5.517946e-04 -1.144532e-03 1.086447e-22)	(-4.592103e-05 9.027417e-05 -8.771464e-22)
3.539798e-07	(5.062547e-04 -1.054872e-03 -7.775102e-22)	(5.522739e-04 -1.145526e-03 1.087394e-22)	(-4.601915e-05 9.065478e-05 -8.862497e-22)
3.570415e-07	(5.066315e-04 -1.055479e-03 -7.884471e-22)	(5.527472e-04 -1.146509e-03 1.088330e-22)	(-4.611574e-05 9.103000e-05 -8.972801e-22)
3.600887e-07	(5.069633e-04 -1.055997e-03 -7.985955e-22)	(5.532156e-04 -1.147481e-03 1.089256e-22)	(-4.625235e-05 9.148398e-05 -9.075210e-22)
3.631359e-07	(5.073443e-04 -1.056619e-03 -8.092422e-22)	(5.536779e-04 -1.148441e-03 1.090170e-22)	(-4.633356e-05 9.182126e-05 -9.182592e-22)
3.661831e-07	(5.077031e-04 -1.057198e-03 -8.179288e-22)	(5.541344e-04 -1.149388e-03 1.091072e-22)	(-4.643134e-05 9.219057e-05 -9.270360e-22)
3.692303e-07	(5.080671e-04 -1.057789e-03 -8.279195e-22)	(5.545852e-04 -1.150324e-03 1.091964e-22)	(-4.651810e-05 9.253526e-05 -9.371159e-22)
3.722775e-07	(5.084241e-04 -1.058367e-03 -8.369015e-22)	(5.550304e-04 -1.151248e-03 1.092844e-22)	(-4.660632e-05 9.288089e-05 -9.461859e-22)
3.753247e-07	(5.087794e-04 -1.058944e-03 -8.487559e-22)	(5.554701e-04 -1.152161e-03 1.093713e-22)	(-4.669076e-05 9.321687e-05 -9.581272e-22)
3.783719e-07	(5.091305e-04 -1.059514e-03 -8.576319e-22)	(5.559043e-04 -1.153062e-03 1.094572e-22)	(-4.677381e-05 9.354803e-05 -9.670891e-22)
3.814191e-07	(5.094786e-04 -1.060080e-03 -8.692419e-22)	(5.563331e-04 -1.153952e-03 1.095420e-22)	(-4.685451e-05 9.387250e-05 -9.787839e-22)
3.844513e-07	(5.097801e-04 -1.060552e-03 -8.796446e-22)	(5.567576e-04 -1.154833e-03 1.096260e-22)	(-4.697753e-05 9.428069e-05 -9.892706e-22)
3.874836e-07	(5.101324e-04 -1.061132e-03 -8.878709e-22)	(5.571765e-04 -1.155703e-03 1.097088e-22)	(-4.704401e-05 9.457015e-05 -9.975797e-22)
3.905159e-07	(5.104635e-04 -1.061670e-03 -8.977460e-22)	(5.575901e-04 -1.156561e-03 1.097906e-22)	(-4.712669e-05 9.489114e-05 -1.007537e-21)
3.935481e-07	(5.107996e-04 -1.062220e-03 -9.091265e-22)	(5.579986e-04 -1.157409e-03 1.098715e-22)	(-4.719908e-05 9.518932e-05 -1.018998e-21)
3.965804e-07	(5.111293e-04 -1.062758e-03 -9.192823e-22)	(5.584020e-04 -1.158247e-03 1.099513e-22)	(-4.727278e-05 9.548841e-05 -1.029234e-21)
3.996126e-07	(5.114573e-04 -1.063295e-03 -9.297923e-22)	(5.588004e-04 -1.159074e-03 1.100301e-22)	(-4.734305e-05 9.577886e-05 -1.039822e-21)
4.026449e-07	(5.117818e-04 -1.063825e-03 -9.395717e-22)	(5.591938e-04 -1.159890e-03 1.101079e-22)	(-4.741202e-05 9.606495e-05 -1.049680e-21)
4.056772e-07	(5.121034e-04 -1.064352e-03 -9.502791e-22)	(5.595823e-04 -1.160697e-03 1.101848e-22)	(-4.747886e-05 9.634507e-05 -1.060464e-21)
4.087094e-07	(5.124219e-04 -1.064873e-03 -9.608731e-22)	(5.599659e-04 -1.161493e-03 1.102607e-22)	(-4.754398e-05 9.662004e-05 -1.071134e-21)
4.117262e-07	(5.126924e-04 -1.065299e-03 -9.713873e-22)	(5.603458e-04 -1.162282e-03 1.103359e-22)	(-4.765335e-05 9.698295e-05 -1.081723e-21)
4.147430e-07	(5.130156e-04 -1.065835e-03 -9.813211e-22)	(5.607206e-04 -1.163060e-03 1.104101e-22)	(-4.770499e-05 9.722495e-05 -1.091731e-21)
4.177598e-07	(5.133185e-04 -1.066331e-03 -9.895881e-22)	(5.610908e-04 -1.163828e-03 1.104833e-22)	(-4.777232e-05 9.749767e-05 -1.100071e-21)
4.207766e-07	(5.136261e-04 -1.066838e-03 -9.995711e-22)	(5.614563e-04 -1.164587e-03 1.105557e-22)	(-4.783017e-05 9.774953e-05 -1.110127e-21)
4.237934e-07	(5.139281e-04 -1.067334e-03 -1.009743e-21)	(5.618172e-04 -1.165337e-03 1.106271e-22)	(-4.788912e-05 9.800213e-05 -1.120370e-21)
4.268102e-07	(5.142286e-04 -1.067829e-03 -1.020348e-21)	(5.621736e-04 -1.166076e-03 1.106977e-22)	(-4.794501e-05 9.824710e-05 -1.131045e-21)
4.298269e-07	(5.145258e-04 -1.068319e-03 -1.030634e-21)	(5.625255e-04 -1.166807e-03 1.107674e-22)	(-4.799968e-05 9.848814e-05 -1.141401e-21)
4.328437e-07	(5.148205e-04 -1.068805e-03 -1.042711e-21)	(5.628730e-04 -1.167528e-03 1.108362e-22)	(-4.805245e-05 9.872389e-05 -1.153547e-21)
4.358605e-07	(5.151124e-04 -1.069286e-03 -1.052148e-21)	(5.632161e-04 -1.168241e-03 1.109041e-22)	(-4.810364e-05 9.895507e-05 -1.163052e-21)
4.388613e-07	(5.153548e-04 -1.069668e-03 -1.063952e-21)	(5.635560e-04 -1.168947e-03 1.109714e-22)	(-4.820122e-05 9.927875e-05 -1.174923e-21)
4.418620e-07	(5.156516e-04 -1.070164e-03 -1.075150e-21)	(5.638913e-04 -1.169643e-03 1.110378e-22)	(-4.823970e-05 9.947888e-05 -1.186188e-21)
4.448627e-07	(5.159290e-04 -1.070621e-03 -1.084098e-21)	(5.642224e-04 -1.170330e-03 1.111034e-22)	(-4.829341e-05 9.970902e-05 -1.195201e-21)
4.478635e-07	(5.162109e-04 -1.071089e-03 -1.094861e-21)	(5.645493e-04 -1.171009e-03 1.111682e-22)	(-4.833837e-05 9.992006e-05 -1.206029e-21)
4.508642e-07	(5.164879e-04 -1.071547e-03 -1.107650e-21)	(5.648721e-04 -1.171679e-03 1.112321e-22)	(-4.838422e-05 1.001316e-04 -1.218882e-21)
4.538650e-07	(5.167634e-04 -1.072004e-03 -1.119577e-21)	(5.651907e-04 -1.172341e-03 1.112952e-22)	(-4.842736e-05 1.003364e-04 -1.230872e-21)
4.568657e-07	(5.170360e-04 -1.072456e-03 -1.131034e-21)	(5.655054e-04 -1.172994e-03 1.113576e-22)	(-4.846935e-05 1.005377e-04 -1.242392e-21)
4.598665e-07	(5.173064e-04 -1.072905e-03 -1.140059e-21)	(5.658160e-04 -1.173639e-03 1.114191e-22)	(-4.850962e-05 1.007342e-04 -1.251479e-21)
4.628672e-07	(5.175742e-04 -1.073349e-03 -1.151684e-21)	(5.661227e-04 -1.174276e-03 1.114799e-22)	(-4.854846e-05 1.009267e-04 -1.263164e-21)
4.658679e-07	(5.178396e-04 -1.073790e-03 -1.161285e-21)	(5.664254e-04 -1.174905e-03 1.115399e-22)	(-4.858580e-05 1.011149e-04 -1.272824e-21)
4.688687e-07	(5.181026e-04 -1.074226e-03 -1.171241e-21)	(5.667243e-04 -1.175525e-03 1.115991e-22)	(-4.862171e-05 1.012991e-04 -1.282840e-21)
4.718526e-07	(5.183110e-04 -1.074553e-03 -1.184413e-21)	(5.670207e-04 -1.176141e-03 1.116579e-22)	(-4.870964e-05 1.015877e-04 -1.296071e-21)
4.748364e-07	(5.185779e-04 -1.075002e-03 -1.194431e-21)	(5.673129e-04 -1.176747e-03 1.117158e-22)	(-4.873493e-05 1.017457e-04 -1.306147e-21)
4.778203e-07	(5.188265e-04 -1.075414e-03 -1.203503e-21)	(5.676013e-04 -1.177346e-03 1.117730e-22)	(-4.877479e-05 1.019325e-04 -1.315276e-21)
4.808042e-07	(5.190796e-04 -1.075836e-03 -1.215982e-21)	(5.678861e-04 -1.177938e-03 1.118294e-22)	(-4.880645e-05 1.021016e-04 -1.327811e-21)
4.837881e-07	(5.193286e-04 -1.076251e-03 -1.228381e-21)	(5.681672e-04 -1.178521e-03 1.118852e-22)	(-4.883856e-05 1.022705e-04 -1.340266e-21)
4.867720e-07	(5.195764e-04 -1.076664e-03 -1.239898e-21)	(5.684446e-04 -1.179098e-03 1.119402e-22)	(-4.886824e-05 1.024335e-04 -1.351838e-21)
4.897559e-07	(5.198217e-04 -1.077073e-03 -1.252612e-21)	(5.687185e-04 -1.179666e-03 1.119945e-22)	(-4.889674e-05 1.025930e-04 -1.364606e-21)
4.927398e-07	(5.200651e-04 -1.077479e-03 -1.262941e-21)	(5.689888e-04 -1.180228e-03 1.120481e-22)	(-4.892368e-05 1.027484e-04 -1.374989e-21)
4.957236e-07	(5.203063e-04 -1.077882e-03 -1.272215e-21)	(5.692556e-04 -1.180782e-03 1.121010e-22)	(-4.894928e-05 1.029001e-04 -1.384316e-21)
4.987075e-07	(5.205455e-04 -1.078281e-03 -1.283148e-21)	(5.695190e-04 -1.181329e-03 1.121533e-22)	(-4.897352e-05 1.030481e-04 -1.395302e-21)
5.016914e-07	(5.207825e-04 -1.078676e-03 -1.293785e-21)	(5.697789e-04 -1.181869e-03 1.122049e-22)	(-4.899646e-05 1.031924e-04 -1.405990e-21)
5.046753e-07	(5.210174e-04 -1.079068e-03 -1.307363e-21)	(5.700355e-04 -1.182402e-03 1.122558e-22)	(-4.901810e-05 1.033331e-04 -1.419619e-21)
5.076592e-07	(5.212502e-04 -1.079457e-03 -1.318241e-21)	(5.702887e-04 -1.182928e-03 1.123060e-22)	(-4.903849e-05 1.034704e-04 -1.430547e-21)
5.106251e-07	(5.214282e-04 -1.079736e-03 -1.329940e-21)	(5.705400e-04 -1.183449e-03 1.123559e-22)	(-4.911184e-05 1.037139e-04 -1.442296e-21)
5.135910e-07	(5.216665e-04 -1.080140e-03 -1.341413e-21)	(5.707876e-04 -1.183964e-03 1.124050e-22)	(-4.912113e-05 1.038240e-04 -1.453818e-21)
5.165569e-07	(5.218873e-04 -1.080509e-03 -1.353914e-21)	(5.710320e-04 -1.184471e-03 1.124535e-22)	(-4.914475e-05 1.039626e-04 -1.466367e-21)
5.195228e-07	(5.221118e-04 -1.080886e-03 -1.366848e-21)	(5.712732e-04 -1.184972e-03 1.125014e-22)	(-4.916139e-05 1.040862e-04 -1.479350e-21)
5.224887e-07	(5.223329e-04 -1.081257e-03 -1.378595e-21)	(5.715112e-04 -1.185467e-03 1.125487e-22)	(-4.917831e-05 1.042094e-04 -1.491143e-21)
5.254546e-07	(5.225527e-04 -1.081627e-03 -1.390531e-21)	(5.717461e-04 -1.185955e-03 1.125953e-22)	(-4.919335e-05 1.043280e-04 -1.503126e-21)
5.284205e-07	(5.227705e-04 -1.081992e-03 -1.402048e-21)	(5.719778e-04 -1.186436e-03 1.126413e-22)	(-4.920734e-05 1.044436e-04 -1.514689e-21)
5.313864e-07	(5.229864e-04 -1.082355e-03 -1.414362e-21)	(5.722065e-04 -1.186911e-03 1.126867e-22)	(-4.922006e-05 1.045559e-04 -1.527049e-21)
5.343523e-07	(5.232004e-04 -1.082715e-03 -1.425492e-21)	(5.724321e-04 -1.187380e-03 1.127315e-22)	(-4.923166e-05 1.046650e-04 -1.538224e-21)
5.373183e-07	(5.234126e-04 -1.083071e-03 -1.436931e-21)	(5.726547e-04 -1.187842e-03 1.127757e-22)	(-4.924211e-05 1.047710e-04 -1.549706e-21)
5.402842e-07	(5.236229e-04 -1.083424e-03 -1.447661e-21)	(5.728744e-04 -1.188298e-03 1.128194e-22)	(-4.925146e-05 1.048740e-04 -1.560480e-21)
5.432501e-07	(5.238313e-04 -1.083775e-03 -1.459355e-21)	(5.730911e-04 -1.188749e-03 1.128624e-22)	(-4.925973e-05 1.049740e-04 -1.572218e-21)
5.462160e-07	(5.240379e-04 -1.084122e-03 -1.470469e-21)	(5.733049e-04 -1.189193e-03 1.129049e-22)	(-4.926693e-05 1.050710e-04 -1.583373e-21)
5.491819e-07	(5.242427e-04 -1.084466e-03 -1.484241e-21)	(5.735158e-04 -1.189631e-03 1.129468e-22)	(-4.927308e-05 1.051651e-04 -1.597188e-21)
5.521478e-07	(5.244457e-04 -1.084807e-03 -1.493817e-21)	(5.737239e-04 -1.190063e-03 1.129882e-22)	(-4.927821e-05 1.052564e-04 -1.606806e-21)
5.550942e-07	(5.245894e-04 -1.085029e-03 -1.507510e-21)	(5.739306e-04 -1.190493e-03 1.130293e-22)	(-4.934121e-05 1.054641e-04 -1.620539e-21)
5.580406e-07	(5.247982e-04 -1.085386e-03 -1.518981e-21)	(5.741342e-04 -1.190916e-03 1.130697e-22)	(-4.933604e-05 1.055300e-04 -1.632051e-21)
5.609870e-07	(5.249902e-04 -1.085709e-03 -1.528916e-21)	(5.743351e-04 -1.191333e-03 1.131097e-22)	(-4.934487e-05 1.056240e-04 -1.642026e-21)
5.639334e-07	(5.251855e-04 -1.086040e-03 -1.538298e-21)	(5.745332e-04 -1.191745e-03 1.131491e-22)	(-4.934770e-05 1.057051e-04 -1.651447e-21)
5.668798e-07	(5.253781e-04 -1.086366e-03 -1.551079e-21)	(5.747285e-04 -1.192151e-03 1.131879e-22)	(-4.935041e-05 1.057852e-04 -1.664267e-21)
5.698262e-07	(5.255695e-04 -1.086689e-03 -1.566359e-21)	(5.749212e-04 -1.192551e-03 1.132262e-22)	(-4.935171e-05 1.058618e-04 -1.679585e-21)
5.727726e-07	(5.257593e-04 -1.087010e-03 -1.577344e-21)	(5.751113e-04 -1.192946e-03 1.132640e-22)	(-4.935200e-05 1.059357e-04 -1.690608e-21)
5.757190e-07	(5.259474e-04 -1.087329e-03 -1.588259e-21)	(5.752987e-04 -1.193335e-03 1.133013e-22)	(-4.935128e-05 1.060068e-04 -1.701560e-21)
5.786654e-07	(5.261340e-04 -1.087644e-03 -1.601622e-21)	(5.754835e-04 -1.193720e-03 1.133381e-22)	(-4.934957e-05 1.060753e-04 -1.714960e-21)
5.816118e-07	(5.263189e-04 -1.087957e-03 -1.613330e-21)	(5.756658e-04 -1.194098e-03 1.133744e-22)	(-4.934691e-05 1.061413e-04 -1.726705e-21)
5.845582e-07	(5.265022e-04 -1.088267e-03 -1.624262e-21)	(5.758455e-04 -1.194472e-03 1.134101e-22)	(-4.934332e-05 1.062047e-04 -1.737672e-21)
5.875046e-07	(5.266839e-04 -1.088574e-03 -1.635903e-21)	(5.760227e-04 -1.194840e-03 1.134454e-22)	(-4.933882e-05 1.062656e-04 -1.749348e-21)
5.904509e-07	(5.268640e-04 -1.088879e-03 -1.647764e-21)	(5.761974e-04 -1.195203e-03 1.134802e-22)	(-4.933343e-05 1.063241e-04 -1.761244e-21)
5.933973e-07	(5.270425e-04 -1.089181e-03 -1.658213e-21)	(5.763697e-04 -1.195561e-03 1.135145e-22)	(-4.932716e-05 1.063802e-04 -1.771728e-21)
5.963437e-07	(5.272164e-04 -1.089474e-03 -1.669287e-21)	(5.765395e-04 -1.195914e-03 1.135483e-22)	(-4.932308e-05 1.064403e-04 -1.782835e-21)
5.992901e-07	(5.273904e-04 -1.089767e-03 -1.684630e-21)	(5.767069e-04 -1.196262e-03 1.135816e-22)	(-4.931647e-05 1.064947e-04 -1.798212e-21)
6.022365e-07	(5.275631e-04 -1.090059e-03 -1.694088e-21)	(5.768719e-04 -1.196605e-03 1.136145e-22)	(-4.930879e-05 1.065463e-04 -1.807702e-21)
6.051829e-07	(5.277346e-04 -1.090348e-03 -1.703765e-21)	(5.770346e-04 -1.196943e-03 1.136469e-22)	(-4.929995e-05 1.065949e-04 -1.817412e-21)
6.081075e-07	(5.278376e-04 -1.090500e-03 -1.714002e-21)	(5.771966e-04 -1.197280e-03 1.136792e-22)	(-4.935902e-05 1.067803e-04 -1.827681e-21)
6.110321e-07	(5.280147e-04 -1.090805e-03 -1.725775e-21)	(5.773558e-04 -1.197611e-03 1.137109e-22)	(-4.934111e-05 1.068058e-04 -1.839486e-21)
6.139566e-07	(5.281756e-04 -1.091078e-03 -1.735892e-21)	(5.775129e-04 -1.197937e-03 1.137422e-22)	(-4.933730e-05 1.068596e-04 -1.849634e-21)
6.168812e-07	(5.283396e-04 -1.091357e-03 -1.751098e-21)	(5.776676e-04 -1.198259e-03 1.137731e-22)	(-4.932796e-05 1.069017e-04 -1.864872e-21)
6.198058e-07	(5.285021e-04 -1.091634e-03 -1.759672e-21)	(5.778200e-04 -1.198576e-03 1.138035e-22)	(-4.931791e-05 1.069417e-04 -1.873475e-21)
6.227304e-07	(5.286635e-04 -1.091909e-03 -1.773511e-21)	(5.779703e-04 -1.198888e-03 1.138334e-22)	(-4.930677e-05 1.069790e-04 -1.887344e-21)
6.256549e-07	(5.288238e-04 -1.092182e-03 -1.782508e-21)	(5.781183e-04 -1.199196e-03 1.138629e-22)	(-4.929452e-05 1.070135e-04 -1.896371e-21)
6.285795e-07	(5.289827e-04 -1.092453e-03 -1.794665e-21)	(5.782641e-04 -1.199499e-03 1.138920e-22)	(-4.928140e-05 1.070458e-04 -1.908557e-21)
6.315041e-07	(5.291404e-04 -1.092722e-03 -1.805009e-21)	(5.784078e-04 -1.199798e-03 1.139207e-22)	(-4.926737e-05 1.070757e-04 -1.918929e-21)
6.344286e-07	(5.292968e-04 -1.092989e-03 -1.820241e-21)	(5.785493e-04 -1.200092e-03 1.139489e-22)	(-4.925252e-05 1.071034e-04 -1.934190e-21)
6.373532e-07	(5.294518e-04 -1.093253e-03 -1.833445e-21)	(5.786887e-04 -1.200382e-03 1.139767e-22)	(-4.923686e-05 1.071290e-04 -1.947422e-21)
6.402778e-07	(5.296056e-04 -1.093515e-03 -1.847311e-21)	(5.788260e-04 -1.200668e-03 1.140042e-22)	(-4.922041e-05 1.071525e-04 -1.961315e-21)
6.432024e-07	(5.297581e-04 -1.093775e-03 -1.856637e-21)	(5.789613e-04 -1.200949e-03 1.140312e-22)	(-4.920320e-05 1.071740e-04 -1.970668e-21)
6.461269e-07	(5.299092e-04 -1.094032e-03 -1.870561e-21)	(5.790945e-04 -1.201226e-03 1.140578e-22)	(-4.918525e-05 1.071935e-04 -1.984618e-21)
6.490515e-07	(5.300591e-04 -1.094288e-03 -1.884149e-21)	(5.792256e-04 -1.201499e-03 1.140840e-22)	(-4.916658e-05 1.072110e-04 -1.998233e-21)
6.519761e-07	(5.302076e-04 -1.094541e-03 -1.891196e-21)	(5.793548e-04 -1.201767e-03 1.141098e-22)	(-4.914720e-05 1.072266e-04 -2.005306e-21)
6.549006e-07	(5.303549e-04 -1.094791e-03 -1.902637e-21)	(5.794820e-04 -1.202032e-03 1.141352e-22)	(-4.912712e-05 1.072403e-04 -2.016772e-21)