/*--------------------------------*- C++ -*----------------------------------*\
| =========                 |                                                 |
| \\      /  F ield         | OpenFOAM: The Open Source CFD Toolbox           |
|  \\    /   O peration     | Version:  v1706                                 |
|   \\  /    A nd           | Web:      www.OpenFOAM.com                      |
|    \\/     M anipulation  |                                                 |
\*---------------------------------------------------------------------------*/
FoamFile
{
    version     2.0;
    format      ascii;
    class       volScalarField;
    location    "3.5e-05";
    object      wallHeatFlux;
}
// * * * * * * * * * * * * * * * * * * * * * * * * * * * * * * * * * * * * * //

dimensions      [1 0 -3 0 0 0 0];


internalField   uniform 0;

boundaryField
{
    cone
    {
        type            calculated;
        value           nonuniform List<scalar> 
147
(
24509.4
24505.6
24498.2
24491.5
24482.7
24472.2
24459.7
24445.2
24428.3
24409.3
24388.9
24367.6
24345.1
24321.3
24295.9
24269
24240.4
24210.2
24178.5
24145.1
24110.1
24073.5
24035.3
23995.6
23954.2
23911.2
23866.7
23820.5
23772.8
23723.6
23672.8
23620.4
23566.5
23511.1
23454.2
23395.7
23335.8
23274.3
23211.4
23147
23081.2
23013.9
22945.2
22875
22803.5
22730.5
22656.2
22580.5
22503.5
22425.1
22345.3
22264.3
22182
22098.3
22013.4
21927.3
21839.9
21751.3
21661.5
21570.5
21478.4
21385
21290.6
21195
21098.3
21000.5
20901.7
20801.7
20700.8
20598.8
20495.9
20391.9
20287
20181.2
20074.4
19966.7
19858.1
19748.6
19638.3
19527.1
19415.1
19302.3
19188.7
19074.4
18959.3
18843.5
18727
18609.7
18491.9
18373.3
18254.2
18134.4
18014
17893.1
17771.5
17649.5
17526.9
17403.9
17280.3
17156.4
17031.9
16907.1
16781.8
16656.2
16530.2
16403.8
16277.2
16150.2
16023
15895.4
15767.7
15639.7
15511.5
15383.1
15254.6
15125.9
14997
14868.1
14739
14609.9
14480.7
14351.5
14222.3
14093.1
13963.9
13834.7
13705.6
13576.5
13447.5
13318.7
13190
13061.4
12933
12804.7
12676.7
12548.9
12421.3
12294
12167
12040.3
11914.1
11788.5
11663.4
11538.9
11414.5
11290.1
24536.5
)
;
    }
    inlet
    {
        type            calculated;
        value           uniform 0;
    }
    rWedge
    {
        type            wedge;
    }
    lWedge
    {
        type            wedge;
    }
    outlet
    {
        type            calculated;
        value           nonuniform 0();
    }
    procBoundary3to2
    {
        type            processor;
        value           uniform 0;
    }
}


// ************************************************************************* //
