# Force      
# CofR       : (0.000000e+00 0.000000e+00 0.000000e+00)
#            
# Time       	(total_x total_y total_z)	(pressure_x pressure_y pressure_z)	(viscous_x viscous_y viscous_z)
2.000075e-05	(1.721598e-02 -3.077626e-02 1.579764e-16)	(1.622495e-02 -3.135669e-02 2.999623e-21)	(9.910246e-04 5.804296e-04 1.579734e-16)
2.000150e-05	(1.721630e-02 -3.077684e-02 1.579587e-16)	(1.622515e-02 -3.135712e-02 2.999774e-21)	(9.911504e-04 5.802818e-04 1.579557e-16)
2.000225e-05	(1.721658e-02 -3.077729e-02 1.579768e-16)	(1.622535e-02 -3.135755e-02 2.999928e-21)	(9.912225e-04 5.802630e-04 1.579738e-16)
2.000301e-05	(1.721684e-02 -3.077772e-02 1.579932e-16)	(1.622555e-02 -3.135798e-02 3.000084e-21)	(9.912857e-04 5.802622e-04 1.579902e-16)
2.000376e-05	(1.721710e-02 -3.077814e-02 1.580100e-16)	(1.622576e-02 -3.135841e-02 3.000241e-21)	(9.913466e-04 5.802674e-04 1.580070e-16)
2.000451e-05	(1.721736e-02 -3.077857e-02 1.580270e-16)	(1.622596e-02 -3.135884e-02 3.000399e-21)	(9.914069e-04 5.802741e-04 1.580240e-16)
2.000526e-05	(1.721763e-02 -3.077899e-02 1.580438e-16)	(1.622616e-02 -3.135927e-02 3.000559e-21)	(9.914672e-04 5.802815e-04 1.580408e-16)
2.000601e-05	(1.721789e-02 -3.077942e-02 1.580607e-16)	(1.622636e-02 -3.135971e-02 3.000721e-21)	(9.915274e-04 5.802891e-04 1.580577e-16)
2.000676e-05	(1.721815e-02 -3.077984e-02 1.580776e-16)	(1.622656e-02 -3.136014e-02 3.000885e-21)	(9.915875e-04 5.802970e-04 1.580746e-16)
2.000751e-05	(1.721841e-02 -3.078027e-02 1.580944e-16)	(1.622676e-02 -3.136057e-02 3.001050e-21)	(9.916477e-04 5.803049e-04 1.580914e-16)
2.000826e-05	(1.721867e-02 -3.078069e-02 1.581113e-16)	(1.622696e-02 -3.136101e-02 3.001216e-21)	(9.917078e-04 5.803129e-04 1.581083e-16)
2.000902e-05	(1.721894e-02 -3.078112e-02 1.581282e-16)	(1.622717e-02 -3.136144e-02 3.001384e-21)	(9.917680e-04 5.803210e-04 1.581252e-16)
2.000977e-05	(1.721920e-02 -3.078154e-02 1.581450e-16)	(1.622737e-02 -3.136187e-02 3.001554e-21)	(9.918281e-04 5.803292e-04 1.581420e-16)
2.001052e-05	(1.721946e-02 -3.078197e-02 1.581619e-16)	(1.622757e-02 -3.136231e-02 3.001725e-21)	(9.918883e-04 5.803374e-04 1.581589e-16)
2.001127e-05	(1.721972e-02 -3.078240e-02 1.581787e-16)	(1.622777e-02 -3.136274e-02 3.001898e-21)	(9.919484e-04 5.803456e-04 1.581757e-16)
2.001202e-05	(1.721999e-02 -3.078282e-02 1.581956e-16)	(1.622798e-02 -3.136318e-02 3.002072e-21)	(9.920085e-04 5.803539e-04 1.581926e-16)
2.001277e-05	(1.722025e-02 -3.078325e-02 1.582124e-16)	(1.622818e-02 -3.136361e-02 3.002248e-21)	(9.920686e-04 5.803622e-04 1.582094e-16)
2.001352e-05	(1.722051e-02 -3.078368e-02 1.582292e-16)	(1.622838e-02 -3.136405e-02 3.002426e-21)	(9.921288e-04 5.803706e-04 1.582262e-16)
2.001427e-05	(1.722078e-02 -3.078411e-02 1.582460e-16)	(1.622859e-02 -3.136449e-02 3.002605e-21)	(9.921889e-04 5.803789e-04 1.582430e-16)
2.001503e-05	(1.722104e-02 -3.078454e-02 1.582629e-16)	(1.622879e-02 -3.136492e-02 3.002785e-21)	(9.922490e-04 5.803873e-04 1.582599e-16)
2.001578e-05	(1.722130e-02 -3.078496e-02 1.582797e-16)	(1.622899e-02 -3.136536e-02 3.002968e-21)	(9.923091e-04 5.803958e-04 1.582767e-16)
2.001653e-05	(1.722157e-02 -3.078539e-02 1.582965e-16)	(1.622920e-02 -3.136580e-02 3.003152e-21)	(9.923692e-04 5.804042e-04 1.582935e-16)
2.001728e-05	(1.722183e-02 -3.078582e-02 1.583133e-16)	(1.622940e-02 -3.136624e-02 3.003337e-21)	(9.924292e-04 5.804127e-04 1.583103e-16)
2.001803e-05	(1.722210e-02 -3.078625e-02 1.583301e-16)	(1.622961e-02 -3.136667e-02 3.003524e-21)	(9.924893e-04 5.804212e-04 1.583271e-16)
2.001878e-05	(1.722236e-02 -3.078668e-02 1.583468e-16)	(1.622981e-02 -3.136711e-02 3.003713e-21)	(9.925494e-04 5.804297e-04 1.583438e-16)
2.001953e-05	(1.722262e-02 -3.078711e-02 1.583636e-16)	(1.623001e-02 -3.136755e-02 3.003903e-21)	(9.926094e-04 5.804383e-04 1.583606e-16)
2.002029e-05	(1.722289e-02 -3.078754e-02 1.583803e-16)	(1.623022e-02 -3.136799e-02 3.004095e-21)	(9.926695e-04 5.804469e-04 1.583773e-16)
2.002104e-05	(1.722315e-02 -3.078797e-02 1.583970e-16)	(1.623042e-02 -3.136843e-02 3.004288e-21)	(9.927295e-04 5.804555e-04 1.583940e-16)
2.002179e-05	(1.722342e-02 -3.078841e-02 1.584139e-16)	(1.623063e-02 -3.136887e-02 3.004483e-21)	(9.927896e-04 5.804641e-04 1.584109e-16)
2.002254e-05	(1.722368e-02 -3.078884e-02 1.584307e-16)	(1.623083e-02 -3.136931e-02 3.004679e-21)	(9.928496e-04 5.804728e-04 1.584277e-16)
2.002329e-05	(1.722395e-02 -3.078927e-02 1.584474e-16)	(1.623104e-02 -3.136975e-02 3.004878e-21)	(9.929096e-04 5.804814e-04 1.584444e-16)
2.002404e-05	(1.722421e-02 -3.078970e-02 1.584642e-16)	(1.623124e-02 -3.137019e-02 3.005077e-21)	(9.929696e-04 5.804901e-04 1.584612e-16)
2.002479e-05	(1.722448e-02 -3.079013e-02 1.584810e-16)	(1.623145e-02 -3.137063e-02 3.005278e-21)	(9.930296e-04 5.804989e-04 1.584780e-16)
2.002554e-05	(1.722475e-02 -3.079057e-02 1.584978e-16)	(1.623166e-02 -3.137107e-02 3.005481e-21)	(9.930896e-04 5.805076e-04 1.584948e-16)
2.002630e-05	(1.722501e-02 -3.079100e-02 1.585144e-16)	(1.623186e-02 -3.137152e-02 3.005686e-21)	(9.931496e-04 5.805164e-04 1.585114e-16)
2.002705e-05	(1.722528e-02 -3.079143e-02 1.585312e-16)	(1.623207e-02 -3.137196e-02 3.005892e-21)	(9.932096e-04 5.805252e-04 1.585282e-16)
2.002780e-05	(1.722554e-02 -3.079187e-02 1.585479e-16)	(1.623227e-02 -3.137240e-02 3.006099e-21)	(9.932695e-04 5.805340e-04 1.585449e-16)
2.002855e-05	(1.722581e-02 -3.079230e-02 1.585646e-16)	(1.623248e-02 -3.137284e-02 3.006309e-21)	(9.933295e-04 5.805428e-04 1.585616e-16)
2.002930e-05	(1.722608e-02 -3.079274e-02 1.585812e-16)	(1.623269e-02 -3.137329e-02 3.006519e-21)	(9.933894e-04 5.805517e-04 1.585782e-16)
2.003005e-05	(1.722634e-02 -3.079317e-02 1.585979e-16)	(1.623289e-02 -3.137373e-02 3.006732e-21)	(9.934494e-04 5.805606e-04 1.585949e-16)
2.003080e-05	(1.722661e-02 -3.079360e-02 1.586147e-16)	(1.623310e-02 -3.137417e-02 3.006946e-21)	(9.935093e-04 5.805695e-04 1.586117e-16)
2.003156e-05	(1.722688e-02 -3.079404e-02 1.586313e-16)	(1.623331e-02 -3.137462e-02 3.007161e-21)	(9.935692e-04 5.805784e-04 1.586283e-16)
2.003231e-05	(1.722714e-02 -3.079448e-02 1.586480e-16)	(1.623351e-02 -3.137506e-02 3.007378e-21)	(9.936291e-04 5.805874e-04 1.586450e-16)
2.003306e-05	(1.722741e-02 -3.079491e-02 1.586646e-16)	(1.623372e-02 -3.137551e-02 3.007597e-21)	(9.936891e-04 5.805963e-04 1.586616e-16)
2.003381e-05	(1.722768e-02 -3.079535e-02 1.586812e-16)	(1.623393e-02 -3.137595e-02 3.007817e-21)	(9.937490e-04 5.806053e-04 1.586782e-16)
2.003456e-05	(1.722795e-02 -3.079578e-02 1.586979e-16)	(1.623414e-02 -3.137640e-02 3.008039e-21)	(9.938088e-04 5.806143e-04 1.586949e-16)
2.003531e-05	(1.722821e-02 -3.079622e-02 1.587145e-16)	(1.623434e-02 -3.137684e-02 3.008262e-21)	(9.938687e-04 5.806234e-04 1.587115e-16)
2.003606e-05	(1.722848e-02 -3.079666e-02 1.587311e-16)	(1.623455e-02 -3.137729e-02 3.008487e-21)	(9.939286e-04 5.806324e-04 1.587281e-16)
2.003681e-05	(1.722875e-02 -3.079710e-02 1.587477e-16)	(1.623476e-02 -3.137774e-02 3.008714e-21)	(9.939885e-04 5.806415e-04 1.587447e-16)
2.003757e-05	(1.722902e-02 -3.079753e-02 1.587645e-16)	(1.623497e-02 -3.137818e-02 3.008942e-21)	(9.940483e-04 5.806506e-04 1.587615e-16)
2.003832e-05	(1.722929e-02 -3.079797e-02 1.587810e-16)	(1.623518e-02 -3.137863e-02 3.009172e-21)	(9.941082e-04 5.806597e-04 1.587780e-16)
2.003907e-05	(1.722955e-02 -3.079841e-02 1.587976e-16)	(1.623539e-02 -3.137908e-02 3.009403e-21)	(9.941680e-04 5.806689e-04 1.587946e-16)
2.003982e-05	(1.722982e-02 -3.079885e-02 1.588142e-16)	(1.623559e-02 -3.137953e-02 3.009636e-21)	(9.942279e-04 5.806780e-04 1.588112e-16)
2.004057e-05	(1.723009e-02 -3.079929e-02 1.588308e-16)	(1.623580e-02 -3.137998e-02 3.009870e-21)	(9.942877e-04 5.806872e-04 1.588278e-16)
2.004132e-05	(1.723036e-02 -3.079973e-02 1.588474e-16)	(1.623601e-02 -3.138042e-02 3.010106e-21)	(9.943475e-04 5.806964e-04 1.588444e-16)
2.004207e-05	(1.723063e-02 -3.080017e-02 1.588640e-16)	(1.623622e-02 -3.138087e-02 3.010344e-21)	(9.944073e-04 5.807057e-04 1.588610e-16)
2.004282e-05	(1.723090e-02 -3.080061e-02 1.588805e-16)	(1.623643e-02 -3.138132e-02 3.010583e-21)	(9.944671e-04 5.807149e-04 1.588775e-16)
2.004358e-05	(1.723117e-02 -3.080105e-02 1.588970e-16)	(1.623664e-02 -3.138177e-02 3.010824e-21)	(9.945269e-04 5.807242e-04 1.588940e-16)
2.004433e-05	(1.723144e-02 -3.080149e-02 1.589136e-16)	(1.623685e-02 -3.138222e-02 3.011066e-21)	(9.945867e-04 5.807335e-04 1.589106e-16)
2.004508e-05	(1.723171e-02 -3.080193e-02 1.589302e-16)	(1.623706e-02 -3.138267e-02 3.011310e-21)	(9.946464e-04 5.807428e-04 1.589272e-16)
2.004583e-05	(1.723198e-02 -3.080237e-02 1.589466e-16)	(1.623727e-02 -3.138312e-02 3.011555e-21)	(9.947062e-04 5.807521e-04 1.589436e-16)
2.004658e-05	(1.723225e-02 -3.080281e-02 1.589632e-16)	(1.623748e-02 -3.138357e-02 3.011802e-21)	(9.947660e-04 5.807615e-04 1.589602e-16)
2.004733e-05	(1.723252e-02 -3.080325e-02 1.589798e-16)	(1.623769e-02 -3.138403e-02 3.012051e-21)	(9.948257e-04 5.807709e-04 1.589767e-16)
2.004808e-05	(1.723279e-02 -3.080370e-02 1.589963e-16)	(1.623790e-02 -3.138448e-02 3.012301e-21)	(9.948855e-04 5.807803e-04 1.589932e-16)
2.004884e-05	(1.723306e-02 -3.080414e-02 1.590128e-16)	(1.623811e-02 -3.138493e-02 3.012553e-21)	(9.949452e-04 5.807897e-04 1.590098e-16)
2.004959e-05	(1.723333e-02 -3.080458e-02 1.590293e-16)	(1.623832e-02 -3.138538e-02 3.012806e-21)	(9.950049e-04 5.807991e-04 1.590263e-16)
2.005034e-05	(1.723360e-02 -3.080502e-02 1.590458e-16)	(1.623853e-02 -3.138583e-02 3.013061e-21)	(9.950646e-04 5.808086e-04 1.590428e-16)
2.005109e-05	(1.723387e-02 -3.080547e-02 1.590623e-16)	(1.623874e-02 -3.138629e-02 3.013318e-21)	(9.951243e-04 5.808181e-04 1.590593e-16)
2.005184e-05	(1.723414e-02 -3.080591e-02 1.590787e-16)	(1.623896e-02 -3.138674e-02 3.013576e-21)	(9.951840e-04 5.808276e-04 1.590757e-16)
2.005259e-05	(1.723441e-02 -3.080636e-02 1.590951e-16)	(1.623917e-02 -3.138719e-02 3.013835e-21)	(9.952437e-04 5.808371e-04 1.590921e-16)
2.005334e-05	(1.723468e-02 -3.080680e-02 1.591115e-16)	(1.623938e-02 -3.138765e-02 3.014096e-21)	(9.953034e-04 5.808466e-04 1.591085e-16)
2.005409e-05	(1.723495e-02 -3.080724e-02 1.591280e-16)	(1.623959e-02 -3.138810e-02 3.014359e-21)	(9.953631e-04 5.808562e-04 1.591250e-16)
2.005485e-05	(1.723522e-02 -3.080769e-02 1.591445e-16)	(1.623980e-02 -3.138856e-02 3.014623e-21)	(9.954227e-04 5.808658e-04 1.591415e-16)
2.005560e-05	(1.723550e-02 -3.080814e-02 1.591609e-16)	(1.624001e-02 -3.138901e-02 3.014889e-21)	(9.954824e-04 5.808754e-04 1.591579e-16)
2.005635e-05	(1.723577e-02 -3.080858e-02 1.591774e-16)	(1.624023e-02 -3.138947e-02 3.015156e-21)	(9.955420e-04 5.808850e-04 1.591743e-16)
2.005710e-05	(1.723604e-02 -3.080903e-02 1.591937e-16)	(1.624044e-02 -3.138992e-02 3.015425e-21)	(9.956017e-04 5.808947e-04 1.591907e-16)
2.005785e-05	(1.723631e-02 -3.080947e-02 1.592101e-16)	(1.624065e-02 -3.139038e-02 3.015695e-21)	(9.956613e-04 5.809043e-04 1.592071e-16)
2.005860e-05	(1.723658e-02 -3.080992e-02 1.592265e-16)	(1.624086e-02 -3.139083e-02 3.015967e-21)	(9.957209e-04 5.809140e-04 1.592235e-16)
2.005935e-05	(1.723686e-02 -3.081037e-02 1.592429e-16)	(1.624108e-02 -3.139129e-02 3.016241e-21)	(9.957806e-04 5.809237e-04 1.592399e-16)
2.006011e-05	(1.723713e-02 -3.081081e-02 1.592593e-16)	(1.624129e-02 -3.139175e-02 3.016516e-21)	(9.958402e-04 5.809335e-04 1.592563e-16)
2.006086e-05	(1.723740e-02 -3.081126e-02 1.592756e-16)	(1.624150e-02 -3.139220e-02 3.016793e-21)	(9.958998e-04 5.809432e-04 1.592726e-16)
2.006161e-05	(1.723767e-02 -3.081171e-02 1.592920e-16)	(1.624171e-02 -3.139266e-02 3.017071e-21)	(9.959594e-04 5.809530e-04 1.592889e-16)
2.006236e-05	(1.723795e-02 -3.081216e-02 1.593083e-16)	(1.624193e-02 -3.139312e-02 3.017351e-21)	(9.960189e-04 5.809628e-04 1.593053e-16)
2.006311e-05	(1.723822e-02 -3.081260e-02 1.593246e-16)	(1.624214e-02 -3.139358e-02 3.017632e-21)	(9.960785e-04 5.809726e-04 1.593216e-16)
2.006386e-05	(1.723849e-02 -3.081305e-02 1.593410e-16)	(1.624235e-02 -3.139403e-02 3.017915e-21)	(9.961381e-04 5.809824e-04 1.593380e-16)
2.006461e-05	(1.723877e-02 -3.081350e-02 1.593573e-16)	(1.624257e-02 -3.139449e-02 3.018200e-21)	(9.961976e-04 5.809923e-04 1.593542e-16)
2.006536e-05	(1.723904e-02 -3.081395e-02 1.593736e-16)	(1.624278e-02 -3.139495e-02 3.018486e-21)	(9.962572e-04 5.810022e-04 1.593706e-16)
2.006612e-05	(1.723931e-02 -3.081440e-02 1.593899e-16)	(1.624300e-02 -3.139541e-02 3.018773e-21)	(9.963167e-04 5.810121e-04 1.593868e-16)
2.006687e-05	(1.723959e-02 -3.081485e-02 1.594060e-16)	(1.624321e-02 -3.139587e-02 3.019062e-21)	(9.963762e-04 5.810220e-04 1.594030e-16)
2.006762e-05	(1.723986e-02 -3.081530e-02 1.594224e-16)	(1.624342e-02 -3.139633e-02 3.019353e-21)	(9.964358e-04 5.810319e-04 1.594193e-16)
2.006837e-05	(1.724013e-02 -3.081575e-02 1.594386e-16)	(1.624364e-02 -3.139679e-02 3.019645e-21)	(9.964953e-04 5.810419e-04 1.594356e-16)
2.006912e-05	(1.724041e-02 -3.081620e-02 1.594549e-16)	(1.624385e-02 -3.139725e-02 3.019939e-21)	(9.965548e-04 5.810519e-04 1.594519e-16)
2.006987e-05	(1.724068e-02 -3.081665e-02 1.594711e-16)	(1.624407e-02 -3.139771e-02 3.020234e-21)	(9.966143e-04 5.810619e-04 1.594681e-16)
2.007062e-05	(1.724096e-02 -3.081710e-02 1.594874e-16)	(1.624428e-02 -3.139817e-02 3.020531e-21)	(9.966738e-04 5.810719e-04 1.594844e-16)
2.007137e-05	(1.724123e-02 -3.081755e-02 1.595037e-16)	(1.624450e-02 -3.139864e-02 3.020829e-21)	(9.967332e-04 5.810819e-04 1.595006e-16)
2.007213e-05	(1.724151e-02 -3.081800e-02 1.595198e-16)	(1.624471e-02 -3.139910e-02 3.021129e-21)	(9.967927e-04 5.810920e-04 1.595168e-16)
2.007288e-05	(1.724178e-02 -3.081846e-02 1.595361e-16)	(1.624493e-02 -3.139956e-02 3.021431e-21)	(9.968522e-04 5.811021e-04 1.595331e-16)
2.007363e-05	(1.724206e-02 -3.081891e-02 1.595523e-16)	(1.624514e-02 -3.140002e-02 3.021734e-21)	(9.969116e-04 5.811122e-04 1.595492e-16)
2.007438e-05	(1.724233e-02 -3.081936e-02 1.595685e-16)	(1.624536e-02 -3.140048e-02 3.022038e-21)	(9.969711e-04 5.811223e-04 1.595654e-16)
2.007513e-05	(1.724261e-02 -3.081981e-02 1.595846e-16)	(1.624557e-02 -3.140095e-02 3.022344e-21)	(9.970305e-04 5.811324e-04 1.595816e-16)
2.007588e-05	(1.724288e-02 -3.082027e-02 1.596009e-16)	(1.624579e-02 -3.140141e-02 3.022652e-21)	(9.970899e-04 5.811426e-04 1.595978e-16)
2.007663e-05	(1.724316e-02 -3.082072e-02 1.596170e-16)	(1.624601e-02 -3.140187e-02 3.022961e-21)	(9.971494e-04 5.811528e-04 1.596140e-16)
2.007739e-05	(1.724343e-02 -3.082117e-02 1.596331e-16)	(1.624622e-02 -3.140234e-02 3.023272e-21)	(9.972088e-04 5.811630e-04 1.596301e-16)
2.007814e-05	(1.724371e-02 -3.082163e-02 1.596493e-16)	(1.624644e-02 -3.140280e-02 3.023584e-21)	(9.972682e-04 5.811732e-04 1.596462e-16)
2.007889e-05	(1.724398e-02 -3.082208e-02 1.596654e-16)	(1.624666e-02 -3.140327e-02 3.023898e-21)	(9.973276e-04 5.811834e-04 1.596624e-16)
2.007964e-05	(1.724426e-02 -3.082254e-02 1.596815e-16)	(1.624687e-02 -3.140373e-02 3.024213e-21)	(9.973870e-04 5.811937e-04 1.596785e-16)
2.008039e-05	(1.724454e-02 -3.082299e-02 1.596975e-16)	(1.624709e-02 -3.140420e-02 3.024529e-21)	(9.974463e-04 5.812040e-04 1.596945e-16)
2.008114e-05	(1.724481e-02 -3.082345e-02 1.597138e-16)	(1.624731e-02 -3.140466e-02 3.024847e-21)	(9.975057e-04 5.812143e-04 1.597107e-16)
2.008189e-05	(1.724509e-02 -3.082390e-02 1.597299e-16)	(1.624752e-02 -3.140513e-02 3.025167e-21)	(9.975651e-04 5.812246e-04 1.597269e-16)
2.008264e-05	(1.724536e-02 -3.082436e-02 1.597460e-16)	(1.624774e-02 -3.140559e-02 3.025488e-21)	(9.976244e-04 5.812350e-04 1.597429e-16)
2.008340e-05	(1.724564e-02 -3.082482e-02 1.597620e-16)	(1.624796e-02 -3.140606e-02 3.025811e-21)	(9.976838e-04 5.812453e-04 1.597590e-16)
2.008415e-05	(1.724592e-02 -3.082527e-02 1.597781e-16)	(1.624817e-02 -3.140653e-02 3.026135e-21)	(9.977431e-04 5.812557e-04 1.597751e-16)
2.008490e-05	(1.724619e-02 -3.082573e-02 1.597942e-16)	(1.624839e-02 -3.140699e-02 3.026460e-21)	(9.978024e-04 5.812661e-04 1.597912e-16)
2.008565e-05	(1.724647e-02 -3.082618e-02 1.598102e-16)	(1.624861e-02 -3.140746e-02 3.026788e-21)	(9.978618e-04 5.812765e-04 1.598072e-16)
2.008640e-05	(1.724675e-02 -3.082664e-02 1.598263e-16)	(1.624883e-02 -3.140793e-02 3.027116e-21)	(9.979211e-04 5.812870e-04 1.598233e-16)
2.008715e-05	(1.724703e-02 -3.082710e-02 1.598423e-16)	(1.624905e-02 -3.140840e-02 3.027446e-21)	(9.979804e-04 5.812974e-04 1.598393e-16)
2.008790e-05	(1.724730e-02 -3.082756e-02 1.598583e-16)	(1.624926e-02 -3.140887e-02 3.027778e-21)	(9.980397e-04 5.813079e-04 1.598553e-16)
2.008866e-05	(1.724758e-02 -3.082802e-02 1.598743e-16)	(1.624948e-02 -3.140933e-02 3.028111e-21)	(9.980990e-04 5.813184e-04 1.598712e-16)
2.008941e-05	(1.724786e-02 -3.082847e-02 1.598904e-16)	(1.624970e-02 -3.140980e-02 3.028445e-21)	(9.981582e-04 5.813290e-04 1.598873e-16)
2.009016e-05	(1.724814e-02 -3.082893e-02 1.599063e-16)	(1.624992e-02 -3.141027e-02 3.028781e-21)	(9.982175e-04 5.813395e-04 1.599033e-16)
2.009091e-05	(1.724841e-02 -3.082939e-02 1.599224e-16)	(1.625014e-02 -3.141074e-02 3.029119e-21)	(9.982768e-04 5.813501e-04 1.599194e-16)
2.009166e-05	(1.724869e-02 -3.082985e-02 1.599382e-16)	(1.625036e-02 -3.141121e-02 3.029458e-21)	(9.983360e-04 5.813607e-04 1.599352e-16)
2.009241e-05	(1.724897e-02 -3.083031e-02 1.599543e-16)	(1.625058e-02 -3.141168e-02 3.029798e-21)	(9.983953e-04 5.813713e-04 1.599512e-16)
2.009316e-05	(1.724925e-02 -3.083077e-02 1.599702e-16)	(1.625080e-02 -3.141215e-02 3.030140e-21)	(9.984545e-04 5.813819e-04 1.599672e-16)
2.009391e-05	(1.724953e-02 -3.083123e-02 1.599862e-16)	(1.625101e-02 -3.141262e-02 3.030484e-21)	(9.985137e-04 5.813925e-04 1.599831e-16)
2.009467e-05	(1.724981e-02 -3.083169e-02 1.600020e-16)	(1.625123e-02 -3.141309e-02 3.030829e-21)	(9.985730e-04 5.814032e-04 1.599990e-16)
2.009542e-05	(1.725009e-02 -3.083215e-02 1.600180e-16)	(1.625145e-02 -3.141356e-02 3.031175e-21)	(9.986322e-04 5.814139e-04 1.600150e-16)
2.009617e-05	(1.725036e-02 -3.083261e-02 1.600339e-16)	(1.625167e-02 -3.141404e-02 3.031523e-21)	(9.986914e-04 5.814246e-04 1.600308e-16)
2.009692e-05	(1.725064e-02 -3.083307e-02 1.600497e-16)	(1.625189e-02 -3.141451e-02 3.031872e-21)	(9.987506e-04 5.814353e-04 1.600467e-16)
2.009767e-05	(1.725092e-02 -3.083353e-02 1.600656e-16)	(1.625211e-02 -3.141498e-02 3.032223e-21)	(9.988097e-04 5.814461e-04 1.600626e-16)
2.009842e-05	(1.725120e-02 -3.083399e-02 1.600815e-16)	(1.625233e-02 -3.141545e-02 3.032575e-21)	(9.988689e-04 5.814568e-04 1.600784e-16)
2.009917e-05	(1.725148e-02 -3.083446e-02 1.600973e-16)	(1.625255e-02 -3.141592e-02 3.032929e-21)	(9.989281e-04 5.814676e-04 1.600942e-16)
2.009992e-05	(1.725176e-02 -3.083492e-02 1.601131e-16)	(1.625277e-02 -3.141640e-02 3.033284e-21)	(9.989873e-04 5.814784e-04 1.601101e-16)
2.010068e-05	(1.725204e-02 -3.083538e-02 1.601291e-16)	(1.625299e-02 -3.141687e-02 3.033641e-21)	(9.990464e-04 5.814892e-04 1.601260e-16)
2.010143e-05	(1.725232e-02 -3.083584e-02 1.601448e-16)	(1.625321e-02 -3.141734e-02 3.033999e-21)	(9.991056e-04 5.815001e-04 1.601417e-16)
2.010218e-05	(1.725260e-02 -3.083631e-02 1.601606e-16)	(1.625344e-02 -3.141782e-02 3.034359e-21)	(9.991647e-04 5.815109e-04 1.601576e-16)
2.010293e-05	(1.725288e-02 -3.083677e-02 1.601765e-16)	(1.625366e-02 -3.141829e-02 3.034720e-21)	(9.992238e-04 5.815218e-04 1.601734e-16)
2.010368e-05	(1.725316e-02 -3.083723e-02 1.601922e-16)	(1.625388e-02 -3.141877e-02 3.035083e-21)	(9.992829e-04 5.815327e-04 1.601892e-16)
2.010443e-05	(1.725344e-02 -3.083770e-02 1.602079e-16)	(1.625410e-02 -3.141924e-02 3.035447e-21)	(9.993421e-04 5.815436e-04 1.602049e-16)
2.010518e-05	(1.725372e-02 -3.083816e-02 1.602237e-16)	(1.625432e-02 -3.141972e-02 3.035813e-21)	(9.994012e-04 5.815546e-04 1.602206e-16)
2.010594e-05	(1.725400e-02 -3.083863e-02 1.602395e-16)	(1.625454e-02 -3.142019e-02 3.036180e-21)	(9.994602e-04 5.815655e-04 1.602364e-16)
2.010669e-05	(1.725428e-02 -3.083909e-02 1.602552e-16)	(1.625476e-02 -3.142067e-02 3.036548e-21)	(9.995193e-04 5.815765e-04 1.602521e-16)
2.010744e-05	(1.725456e-02 -3.083956e-02 1.602709e-16)	(1.625498e-02 -3.142114e-02 3.036918e-21)	(9.995784e-04 5.815875e-04 1.602679e-16)
2.010819e-05	(1.725484e-02 -3.084002e-02 1.602867e-16)	(1.625521e-02 -3.142162e-02 3.037290e-21)	(9.996375e-04 5.815985e-04 1.602836e-16)
2.010894e-05	(1.725513e-02 -3.084049e-02 1.603024e-16)	(1.625543e-02 -3.142210e-02 3.037663e-21)	(9.996965e-04 5.816096e-04 1.602994e-16)
2.010969e-05	(1.725541e-02 -3.084095e-02 1.603182e-16)	(1.625565e-02 -3.142257e-02 3.038037e-21)	(9.997556e-04 5.816206e-04 1.603151e-16)
2.011044e-05	(1.725569e-02 -3.084142e-02 1.603338e-16)	(1.625587e-02 -3.142305e-02 3.038413e-21)	(9.998146e-04 5.816317e-04 1.603308e-16)
2.011119e-05	(1.725597e-02 -3.084188e-02 1.603495e-16)	(1.625610e-02 -3.142353e-02 3.038790e-21)	(9.998737e-04 5.816428e-04 1.603464e-16)
2.011195e-05	(1.725625e-02 -3.084235e-02 1.603651e-16)	(1.625632e-02 -3.142400e-02 3.039169e-21)	(9.999327e-04 5.816539e-04 1.603621e-16)
2.011270e-05	(1.725653e-02 -3.084282e-02 1.603808e-16)	(1.625654e-02 -3.142448e-02 3.039549e-21)	(9.999917e-04 5.816650e-04 1.603778e-16)
2.011345e-05	(1.725681e-02 -3.084328e-02 1.603965e-16)	(1.625676e-02 -3.142496e-02 3.039931e-21)	(1.000051e-03 5.816762e-04 1.603934e-16)
2.011420e-05	(1.725710e-02 -3.084375e-02 1.604121e-16)	(1.625699e-02 -3.142544e-02 3.040314e-21)	(1.000110e-03 5.816874e-04 1.604090e-16)
2.011495e-05	(1.725738e-02 -3.084422e-02 1.604277e-16)	(1.625721e-02 -3.142592e-02 3.040699e-21)	(1.000169e-03 5.816986e-04 1.604246e-16)
2.011570e-05	(1.725766e-02 -3.084469e-02 1.604433e-16)	(1.625743e-02 -3.142640e-02 3.041085e-21)	(1.000228e-03 5.817098e-04 1.604403e-16)
2.011645e-05	(1.725794e-02 -3.084515e-02 1.604588e-16)	(1.625766e-02 -3.142688e-02 3.041472e-21)	(1.000287e-03 5.817210e-04 1.604558e-16)
2.011721e-05	(1.725823e-02 -3.084562e-02 1.604744e-16)	(1.625788e-02 -3.142736e-02 3.041861e-21)	(1.000346e-03 5.817323e-04 1.604714e-16)
2.011796e-05	(1.725851e-02 -3.084609e-02 1.604901e-16)	(1.625810e-02 -3.142784e-02 3.042252e-21)	(1.000405e-03 5.817435e-04 1.604870e-16)
2.011871e-05	(1.725879e-02 -3.084656e-02 1.605056e-16)	(1.625833e-02 -3.142832e-02 3.042643e-21)	(1.000464e-03 5.817548e-04 1.605025e-16)
2.011946e-05	(1.725907e-02 -3.084703e-02 1.605212e-16)	(1.625855e-02 -3.142880e-02 3.043037e-21)	(1.000523e-03 5.817661e-04 1.605181e-16)
2.012021e-05	(1.725936e-02 -3.084750e-02 1.605366e-16)	(1.625877e-02 -3.142928e-02 3.043431e-21)	(1.000581e-03 5.817775e-04 1.605336e-16)
2.012096e-05	(1.725964e-02 -3.084797e-02 1.605521e-16)	(1.625900e-02 -3.142976e-02 3.043828e-21)	(1.000640e-03 5.817888e-04 1.605491e-16)
2.012171e-05	(1.725992e-02 -3.084844e-02 1.605676e-16)	(1.625922e-02 -3.143024e-02 3.044225e-21)	(1.000699e-03 5.818002e-04 1.605645e-16)
2.012246e-05	(1.726021e-02 -3.084891e-02 1.605831e-16)	(1.625945e-02 -3.143072e-02 3.044624e-21)	(1.000758e-03 5.818116e-04 1.605801e-16)
2.012322e-05	(1.726049e-02 -3.084938e-02 1.605985e-16)	(1.625967e-02 -3.143120e-02 3.045025e-21)	(1.000817e-03 5.818230e-04 1.605954e-16)
2.012397e-05	(1.726077e-02 -3.084985e-02 1.606140e-16)	(1.625990e-02 -3.143168e-02 3.045426e-21)	(1.000876e-03 5.818344e-04 1.606109e-16)
2.012472e-05	(1.726106e-02 -3.085032e-02 1.606295e-16)	(1.626012e-02 -3.143217e-02 3.045830e-21)	(1.000935e-03 5.818458e-04 1.606265e-16)
2.012547e-05	(1.726134e-02 -3.085079e-02 1.606450e-16)	(1.626035e-02 -3.143265e-02 3.046234e-21)	(1.000994e-03 5.818573e-04 1.606419e-16)
2.012622e-05	(1.726162e-02 -3.085126e-02 1.606603e-16)	(1.626057e-02 -3.143313e-02 3.046641e-21)	(1.001053e-03 5.818688e-04 1.606573e-16)
2.012697e-05	(1.726191e-02 -3.085174e-02 1.606758e-16)	(1.626080e-02 -3.143362e-02 3.047048e-21)	(1.001112e-03 5.818803e-04 1.606727e-16)
2.012772e-05	(1.726219e-02 -3.085221e-02 1.606912e-16)	(1.626102e-02 -3.143410e-02 3.047457e-21)	(1.001170e-03 5.818918e-04 1.606881e-16)
2.012847e-05	(1.726248e-02 -3.085268e-02 1.607065e-16)	(1.626125e-02 -3.143458e-02 3.047868e-21)	(1.001229e-03 5.819033e-04 1.607035e-16)
2.012923e-05	(1.726276e-02 -3.085315e-02 1.607220e-16)	(1.626147e-02 -3.143507e-02 3.048279e-21)	(1.001288e-03 5.819149e-04 1.607190e-16)
2.012998e-05	(1.726305e-02 -3.085362e-02 1.607373e-16)	(1.626170e-02 -3.143555e-02 3.048693e-21)	(1.001347e-03 5.819265e-04 1.607343e-16)
2.013073e-05	(1.726333e-02 -3.085410e-02 1.607527e-16)	(1.626192e-02 -3.143604e-02 3.049107e-21)	(1.001406e-03 5.819381e-04 1.607497e-16)
2.013148e-05	(1.726361e-02 -3.085457e-02 1.607680e-16)	(1.626215e-02 -3.143652e-02 3.049523e-21)	(1.001465e-03 5.819497e-04 1.607649e-16)
2.013223e-05	(1.726390e-02 -3.085504e-02 1.607834e-16)	(1.626238e-02 -3.143701e-02 3.049941e-21)	(1.001523e-03 5.819613e-04 1.607803e-16)
2.013298e-05	(1.726418e-02 -3.085552e-02 1.607987e-16)	(1.626260e-02 -3.143749e-02 3.050360e-21)	(1.001582e-03 5.819730e-04 1.607956e-16)
2.013373e-05	(1.726447e-02 -3.085599e-02 1.608140e-16)	(1.626283e-02 -3.143798e-02 3.050780e-21)	(1.001641e-03 5.819846e-04 1.608109e-16)
2.013449e-05	(1.726475e-02 -3.085647e-02 1.608293e-16)	(1.626306e-02 -3.143846e-02 3.051202e-21)	(1.001700e-03 5.819963e-04 1.608263e-16)
2.013524e-05	(1.726504e-02 -3.085694e-02 1.608445e-16)	(1.626328e-02 -3.143895e-02 3.051625e-21)	(1.001758e-03 5.820080e-04 1.608415e-16)
2.013599e-05	(1.726533e-02 -3.085742e-02 1.608598e-16)	(1.626351e-02 -3.143944e-02 3.052049e-21)	(1.001817e-03 5.820198e-04 1.608567e-16)
2.013674e-05	(1.726561e-02 -3.085789e-02 1.608750e-16)	(1.626374e-02 -3.143992e-02 3.052475e-21)	(1.001876e-03 5.820315e-04 1.608720e-16)
2.013749e-05	(1.726590e-02 -3.085837e-02 1.608903e-16)	(1.626396e-02 -3.144041e-02 3.052902e-21)	(1.001935e-03 5.820433e-04 1.608873e-16)
2.013824e-05	(1.726618e-02 -3.085884e-02 1.609055e-16)	(1.626419e-02 -3.144090e-02 3.053331e-21)	(1.001993e-03 5.820551e-04 1.609025e-16)
2.013899e-05	(1.726647e-02 -3.085932e-02 1.609208e-16)	(1.626442e-02 -3.144139e-02 3.053761e-21)	(1.002052e-03 5.820669e-04 1.609177e-16)
2.013974e-05	(1.726675e-02 -3.085979e-02 1.609360e-16)	(1.626464e-02 -3.144187e-02 3.054192e-21)	(1.002111e-03 5.820787e-04 1.609329e-16)
2.014050e-05	(1.726704e-02 -3.086027e-02 1.609512e-16)	(1.626487e-02 -3.144236e-02 3.054625e-21)	(1.002170e-03 5.820905e-04 1.609481e-16)
2.014125e-05	(1.726733e-02 -3.086075e-02 1.609664e-16)	(1.626510e-02 -3.144285e-02 3.055059e-21)	(1.002228e-03 5.821024e-04 1.609633e-16)
2.014200e-05	(1.726761e-02 -3.086122e-02 1.609815e-16)	(1.626533e-02 -3.144334e-02 3.055495e-21)	(1.002287e-03 5.821143e-04 1.609785e-16)
2.014275e-05	(1.726790e-02 -3.086170e-02 1.609967e-16)	(1.626555e-02 -3.144383e-02 3.055932e-21)	(1.002346e-03 5.821262e-04 1.609936e-16)
2.014350e-05	(1.726819e-02 -3.086218e-02 1.610117e-16)	(1.626578e-02 -3.144432e-02 3.056370e-21)	(1.002404e-03 5.821381e-04 1.610087e-16)
2.014425e-05	(1.726847e-02 -3.086266e-02 1.610269e-16)	(1.626601e-02 -3.144481e-02 3.056810e-21)	(1.002463e-03 5.821500e-04 1.610238e-16)
2.014500e-05	(1.726876e-02 -3.086313e-02 1.610421e-16)	(1.626624e-02 -3.144530e-02 3.057251e-21)	(1.002522e-03 5.821620e-04 1.610390e-16)
2.014576e-05	(1.726905e-02 -3.086361e-02 1.610571e-16)	(1.626647e-02 -3.144579e-02 3.057693e-21)	(1.002580e-03 5.821739e-04 1.610541e-16)
2.014651e-05	(1.726933e-02 -3.086409e-02 1.610722e-16)	(1.626670e-02 -3.144628e-02 3.058137e-21)	(1.002639e-03 5.821859e-04 1.610691e-16)
2.014726e-05	(1.726962e-02 -3.086457e-02 1.610874e-16)	(1.626692e-02 -3.144677e-02 3.058583e-21)	(1.002698e-03 5.821979e-04 1.610843e-16)
2.014801e-05	(1.726991e-02 -3.086505e-02 1.611024e-16)	(1.626715e-02 -3.144726e-02 3.059029e-21)	(1.002756e-03 5.822100e-04 1.610993e-16)
2.014876e-05	(1.727020e-02 -3.086553e-02 1.611173e-16)	(1.626738e-02 -3.144775e-02 3.059477e-21)	(1.002815e-03 5.822220e-04 1.611143e-16)
2.014951e-05	(1.727048e-02 -3.086601e-02 1.611324e-16)	(1.626761e-02 -3.144824e-02 3.059926e-21)	(1.002874e-03 5.822341e-04 1.611294e-16)
2.015026e-05	(1.727077e-02 -3.086649e-02 1.611474e-16)	(1.626784e-02 -3.144873e-02 3.060377e-21)	(1.002932e-03 5.822462e-04 1.611444e-16)
2.015101e-05	(1.727106e-02 -3.086697e-02 1.611623e-16)	(1.626807e-02 -3.144922e-02 3.060829e-21)	(1.002991e-03 5.822583e-04 1.611592e-16)
2.015177e-05	(1.727135e-02 -3.086745e-02 1.611773e-16)	(1.626830e-02 -3.144972e-02 3.061283e-21)	(1.003049e-03 5.822704e-04 1.611742e-16)
2.015252e-05	(1.727164e-02 -3.086793e-02 1.611922e-16)	(1.626853e-02 -3.145021e-02 3.061737e-21)	(1.003108e-03 5.822825e-04 1.611891e-16)
2.015327e-05	(1.727192e-02 -3.086841e-02 1.612072e-16)	(1.626876e-02 -3.145070e-02 3.062193e-21)	(1.003167e-03 5.822947e-04 1.612041e-16)
2.015402e-05	(1.727221e-02 -3.086889e-02 1.612221e-16)	(1.626899e-02 -3.145119e-02 3.062651e-21)	(1.003225e-03 5.823069e-04 1.612190e-16)
2.015477e-05	(1.727250e-02 -3.086937e-02 1.612369e-16)	(1.626922e-02 -3.145169e-02 3.063110e-21)	(1.003284e-03 5.823191e-04 1.612339e-16)
2.015552e-05	(1.727279e-02 -3.086985e-02 1.612519e-16)	(1.626945e-02 -3.145218e-02 3.063570e-21)	(1.003342e-03 5.823313e-04 1.612488e-16)
2.015627e-05	(1.727308e-02 -3.087033e-02 1.612669e-16)	(1.626968e-02 -3.145267e-02 3.064032e-21)	(1.003401e-03 5.823435e-04 1.612638e-16)
2.015702e-05	(1.727337e-02 -3.087081e-02 1.612816e-16)	(1.626991e-02 -3.145317e-02 3.064494e-21)	(1.003459e-03 5.823558e-04 1.612786e-16)
2.015778e-05	(1.727366e-02 -3.087129e-02 1.612965e-16)	(1.627014e-02 -3.145366e-02 3.064959e-21)	(1.003518e-03 5.823680e-04 1.612934e-16)
2.015853e-05	(1.727394e-02 -3.087178e-02 1.613113e-16)	(1.627037e-02 -3.145416e-02 3.065424e-21)	(1.003576e-03 5.823803e-04 1.613083e-16)
2.015928e-05	(1.727423e-02 -3.087226e-02 1.613261e-16)	(1.627060e-02 -3.145465e-02 3.065891e-21)	(1.003635e-03 5.823926e-04 1.613231e-16)
2.016003e-05	(1.727452e-02 -3.087274e-02 1.613410e-16)	(1.627083e-02 -3.145515e-02 3.066359e-21)	(1.003693e-03 5.824049e-04 1.613379e-16)
2.016078e-05	(1.727481e-02 -3.087323e-02 1.613557e-16)	(1.627106e-02 -3.145564e-02 3.066829e-21)	(1.003752e-03 5.824173e-04 1.613527e-16)
2.016153e-05	(1.727510e-02 -3.087371e-02 1.613704e-16)	(1.627129e-02 -3.145614e-02 3.067300e-21)	(1.003810e-03 5.824296e-04 1.613674e-16)
2.016228e-05	(1.727539e-02 -3.087419e-02 1.613854e-16)	(1.627152e-02 -3.145663e-02 3.067772e-21)	(1.003869e-03 5.824420e-04 1.613823e-16)