# Moment     
# CofR       : (0.000000e+00 0.000000e+00 0.000000e+00)
#            
# Time       	(total_x total_y total_z)	(pressure_x pressure_y pressure_z)	(viscous_x viscous_y viscous_z)
2.000075e-05	(2.421901e-18 -5.335035e-18 -1.325646e-03)	(5.246514e-23 -1.359014e-22 -1.326807e-03)	(2.421849e-18 -5.334899e-18 1.160994e-06)
2.000150e-05	(2.421634e-18 -5.334448e-18 -1.325677e-03)	(5.246586e-23 -1.359143e-22 -1.326829e-03)	(2.421582e-18 -5.334313e-18 1.151794e-06)
2.000225e-05	(2.421922e-18 -5.335081e-18 -1.325702e-03)	(5.246659e-23 -1.359273e-22 -1.326851e-03)	(2.421870e-18 -5.334945e-18 1.149295e-06)
2.000301e-05	(2.422183e-18 -5.335654e-18 -1.325725e-03)	(5.246736e-23 -1.359405e-22 -1.326873e-03)	(2.422130e-18 -5.335518e-18 1.147762e-06)
2.000376e-05	(2.422450e-18 -5.336241e-18 -1.325748e-03)	(5.246814e-23 -1.359537e-22 -1.326895e-03)	(2.422398e-18 -5.336106e-18 1.146543e-06)
2.000451e-05	(2.422718e-18 -5.336831e-18 -1.325771e-03)	(5.246896e-23 -1.359670e-22 -1.326917e-03)	(2.422666e-18 -5.336695e-18 1.145406e-06)
2.000526e-05	(2.422986e-18 -5.337420e-18 -1.325794e-03)	(5.246980e-23 -1.359804e-22 -1.326939e-03)	(2.422934e-18 -5.337284e-18 1.144301e-06)
2.000601e-05	(2.423255e-18 -5.338011e-18 -1.325818e-03)	(5.247066e-23 -1.359939e-22 -1.326961e-03)	(2.423202e-18 -5.337875e-18 1.143209e-06)
2.000676e-05	(2.423523e-18 -5.338600e-18 -1.325841e-03)	(5.247155e-23 -1.360075e-22 -1.326983e-03)	(2.423471e-18 -5.338464e-18 1.142126e-06)
2.000751e-05	(2.423790e-18 -5.339187e-18 -1.325864e-03)	(5.247247e-23 -1.360212e-22 -1.327005e-03)	(2.423738e-18 -5.339051e-18 1.141048e-06)
2.000826e-05	(2.424059e-18 -5.339777e-18 -1.325887e-03)	(5.247342e-23 -1.360349e-22 -1.327027e-03)	(2.424006e-18 -5.339641e-18 1.139974e-06)
2.000902e-05	(2.424327e-18 -5.340367e-18 -1.325910e-03)	(5.247439e-23 -1.360488e-22 -1.327049e-03)	(2.424275e-18 -5.340231e-18 1.138903e-06)
2.000977e-05	(2.424594e-18 -5.340955e-18 -1.325933e-03)	(5.247538e-23 -1.360627e-22 -1.327071e-03)	(2.424542e-18 -5.340819e-18 1.137835e-06)
2.001052e-05	(2.424862e-18 -5.341543e-18 -1.325957e-03)	(5.247641e-23 -1.360767e-22 -1.327093e-03)	(2.424810e-18 -5.341407e-18 1.136769e-06)
2.001127e-05	(2.425130e-18 -5.342133e-18 -1.325980e-03)	(5.247746e-23 -1.360908e-22 -1.327116e-03)	(2.425078e-18 -5.341997e-18 1.135705e-06)
2.001202e-05	(2.425398e-18 -5.342721e-18 -1.326003e-03)	(5.247853e-23 -1.361050e-22 -1.327138e-03)	(2.425346e-18 -5.342585e-18 1.134644e-06)
2.001277e-05	(2.425666e-18 -5.343309e-18 -1.326026e-03)	(5.247964e-23 -1.361193e-22 -1.327160e-03)	(2.425613e-18 -5.343173e-18 1.133584e-06)
2.001352e-05	(2.425933e-18 -5.343896e-18 -1.326050e-03)	(5.248077e-23 -1.361336e-22 -1.327182e-03)	(2.425880e-18 -5.343760e-18 1.132526e-06)
2.001427e-05	(2.426200e-18 -5.344484e-18 -1.326073e-03)	(5.248192e-23 -1.361480e-22 -1.327204e-03)	(2.426148e-18 -5.344348e-18 1.131469e-06)
2.001503e-05	(2.426468e-18 -5.345072e-18 -1.326096e-03)	(5.248311e-23 -1.361626e-22 -1.327227e-03)	(2.426415e-18 -5.344936e-18 1.130414e-06)
2.001578e-05	(2.426736e-18 -5.345660e-18 -1.326120e-03)	(5.248432e-23 -1.361772e-22 -1.327249e-03)	(2.426683e-18 -5.345524e-18 1.129361e-06)
2.001653e-05	(2.427003e-18 -5.346249e-18 -1.326143e-03)	(5.248555e-23 -1.361919e-22 -1.327271e-03)	(2.426951e-18 -5.346113e-18 1.128309e-06)
2.001728e-05	(2.427270e-18 -5.346835e-18 -1.326167e-03)	(5.248682e-23 -1.362066e-22 -1.327294e-03)	(2.427218e-18 -5.346699e-18 1.127259e-06)
2.001803e-05	(2.427537e-18 -5.347422e-18 -1.326190e-03)	(5.248811e-23 -1.362215e-22 -1.327316e-03)	(2.427485e-18 -5.347285e-18 1.126210e-06)
2.001878e-05	(2.427804e-18 -5.348007e-18 -1.326213e-03)	(5.248943e-23 -1.362365e-22 -1.327339e-03)	(2.427751e-18 -5.347871e-18 1.125163e-06)
2.001953e-05	(2.428070e-18 -5.348593e-18 -1.326237e-03)	(5.249077e-23 -1.362515e-22 -1.327361e-03)	(2.428018e-18 -5.348457e-18 1.124118e-06)
2.002029e-05	(2.428336e-18 -5.349177e-18 -1.326260e-03)	(5.249215e-23 -1.362666e-22 -1.327383e-03)	(2.428284e-18 -5.349041e-18 1.123073e-06)
2.002104e-05	(2.428603e-18 -5.349764e-18 -1.326284e-03)	(5.249354e-23 -1.362818e-22 -1.327406e-03)	(2.428550e-18 -5.349628e-18 1.122030e-06)
2.002179e-05	(2.428870e-18 -5.350351e-18 -1.326307e-03)	(5.249497e-23 -1.362971e-22 -1.327428e-03)	(2.428817e-18 -5.350214e-18 1.120989e-06)
2.002254e-05	(2.429136e-18 -5.350937e-18 -1.326331e-03)	(5.249642e-23 -1.363125e-22 -1.327451e-03)	(2.429084e-18 -5.350801e-18 1.119949e-06)
2.002329e-05	(2.429403e-18 -5.351523e-18 -1.326355e-03)	(5.249791e-23 -1.363279e-22 -1.327474e-03)	(2.429350e-18 -5.351386e-18 1.118910e-06)
2.002404e-05	(2.429669e-18 -5.352109e-18 -1.326378e-03)	(5.249941e-23 -1.363434e-22 -1.327496e-03)	(2.429617e-18 -5.351972e-18 1.117873e-06)
2.002479e-05	(2.429936e-18 -5.352695e-18 -1.326402e-03)	(5.250095e-23 -1.363591e-22 -1.327519e-03)	(2.429884e-18 -5.352559e-18 1.116837e-06)
2.002554e-05	(2.430203e-18 -5.353280e-18 -1.326426e-03)	(5.250251e-23 -1.363748e-22 -1.327541e-03)	(2.430150e-18 -5.353144e-18 1.115802e-06)
2.002630e-05	(2.430468e-18 -5.353864e-18 -1.326449e-03)	(5.250410e-23 -1.363906e-22 -1.327564e-03)	(2.430416e-18 -5.353728e-18 1.114769e-06)
2.002705e-05	(2.430734e-18 -5.354449e-18 -1.326473e-03)	(5.250572e-23 -1.364065e-22 -1.327587e-03)	(2.430682e-18 -5.354313e-18 1.113737e-06)
2.002780e-05	(2.431000e-18 -5.355034e-18 -1.326497e-03)	(5.250736e-23 -1.364224e-22 -1.327609e-03)	(2.430948e-18 -5.354897e-18 1.112706e-06)
2.002855e-05	(2.431266e-18 -5.355617e-18 -1.326520e-03)	(5.250903e-23 -1.364385e-22 -1.327632e-03)	(2.431213e-18 -5.355480e-18 1.111677e-06)
2.002930e-05	(2.431531e-18 -5.356201e-18 -1.326544e-03)	(5.251073e-23 -1.364546e-22 -1.327655e-03)	(2.431479e-18 -5.356064e-18 1.110649e-06)
2.003005e-05	(2.431797e-18 -5.356784e-18 -1.326568e-03)	(5.251246e-23 -1.364708e-22 -1.327677e-03)	(2.431744e-18 -5.356647e-18 1.109622e-06)
2.003080e-05	(2.432063e-18 -5.357369e-18 -1.326592e-03)	(5.251421e-23 -1.364871e-22 -1.327700e-03)	(2.432010e-18 -5.357233e-18 1.108597e-06)
2.003156e-05	(2.432327e-18 -5.357950e-18 -1.326615e-03)	(5.251599e-23 -1.365035e-22 -1.327723e-03)	(2.432275e-18 -5.357814e-18 1.107573e-06)
2.003231e-05	(2.432594e-18 -5.358535e-18 -1.326639e-03)	(5.251780e-23 -1.365200e-22 -1.327746e-03)	(2.432541e-18 -5.358399e-18 1.106550e-06)
2.003306e-05	(2.432858e-18 -5.359117e-18 -1.326663e-03)	(5.251964e-23 -1.365365e-22 -1.327769e-03)	(2.432806e-18 -5.358980e-18 1.105529e-06)
2.003381e-05	(2.433123e-18 -5.359700e-18 -1.326687e-03)	(5.252150e-23 -1.365532e-22 -1.327792e-03)	(2.433071e-18 -5.359563e-18 1.104509e-06)
2.003456e-05	(2.433388e-18 -5.360281e-18 -1.326711e-03)	(5.252339e-23 -1.365699e-22 -1.327814e-03)	(2.433336e-18 -5.360145e-18 1.103490e-06)
2.003531e-05	(2.433653e-18 -5.360863e-18 -1.326735e-03)	(5.252531e-23 -1.365867e-22 -1.327837e-03)	(2.433600e-18 -5.360726e-18 1.102472e-06)
2.003606e-05	(2.433918e-18 -5.361446e-18 -1.326759e-03)	(5.252726e-23 -1.366036e-22 -1.327860e-03)	(2.433865e-18 -5.361309e-18 1.101456e-06)
2.003681e-05	(2.434182e-18 -5.362026e-18 -1.326783e-03)	(5.252923e-23 -1.366205e-22 -1.327883e-03)	(2.434129e-18 -5.361889e-18 1.100441e-06)
2.003757e-05	(2.434448e-18 -5.362610e-18 -1.326807e-03)	(5.253123e-23 -1.366376e-22 -1.327906e-03)	(2.434395e-18 -5.362474e-18 1.099427e-06)
2.003832e-05	(2.434712e-18 -5.363190e-18 -1.326831e-03)	(5.253326e-23 -1.366547e-22 -1.327929e-03)	(2.434659e-18 -5.363053e-18 1.098415e-06)
2.003907e-05	(2.434976e-18 -5.363770e-18 -1.326855e-03)	(5.253532e-23 -1.366720e-22 -1.327952e-03)	(2.434923e-18 -5.363634e-18 1.097403e-06)
2.003982e-05	(2.435240e-18 -5.364351e-18 -1.326879e-03)	(5.253740e-23 -1.366893e-22 -1.327975e-03)	(2.435187e-18 -5.364214e-18 1.096393e-06)
2.004057e-05	(2.435504e-18 -5.364931e-18 -1.326903e-03)	(5.253951e-23 -1.367067e-22 -1.327998e-03)	(2.435451e-18 -5.364794e-18 1.095385e-06)
2.004132e-05	(2.435768e-18 -5.365512e-18 -1.326927e-03)	(5.254165e-23 -1.367242e-22 -1.328021e-03)	(2.435715e-18 -5.365375e-18 1.094377e-06)
2.004207e-05	(2.436032e-18 -5.366092e-18 -1.326951e-03)	(5.254382e-23 -1.367417e-22 -1.328044e-03)	(2.435979e-18 -5.365955e-18 1.093371e-06)
2.004282e-05	(2.436296e-18 -5.366672e-18 -1.326975e-03)	(5.254602e-23 -1.367594e-22 -1.328068e-03)	(2.436243e-18 -5.366535e-18 1.092366e-06)
2.004358e-05	(2.436559e-18 -5.367250e-18 -1.326999e-03)	(5.254824e-23 -1.367771e-22 -1.328091e-03)	(2.436506e-18 -5.367113e-18 1.091362e-06)
2.004433e-05	(2.436822e-18 -5.367829e-18 -1.327024e-03)	(5.255049e-23 -1.367949e-22 -1.328114e-03)	(2.436770e-18 -5.367692e-18 1.090360e-06)
2.004508e-05	(2.437086e-18 -5.368408e-18 -1.327048e-03)	(5.255277e-23 -1.368128e-22 -1.328137e-03)	(2.437033e-18 -5.368272e-18 1.089359e-06)
2.004583e-05	(2.437349e-18 -5.368987e-18 -1.327072e-03)	(5.255508e-23 -1.368308e-22 -1.328160e-03)	(2.437297e-18 -5.368850e-18 1.088359e-06)
2.004658e-05	(2.437613e-18 -5.369567e-18 -1.327096e-03)	(5.255741e-23 -1.368488e-22 -1.328183e-03)	(2.437560e-18 -5.369430e-18 1.087360e-06)
2.004733e-05	(2.437876e-18 -5.370144e-18 -1.327120e-03)	(5.255978e-23 -1.368670e-22 -1.328207e-03)	(2.437823e-18 -5.370007e-18 1.086363e-06)
2.004808e-05	(2.438139e-18 -5.370722e-18 -1.327145e-03)	(5.256217e-23 -1.368852e-22 -1.328230e-03)	(2.438086e-18 -5.370585e-18 1.085367e-06)
2.004884e-05	(2.438402e-18 -5.371300e-18 -1.327169e-03)	(5.256458e-23 -1.369035e-22 -1.328253e-03)	(2.438349e-18 -5.371163e-18 1.084372e-06)
2.004959e-05	(2.438665e-18 -5.371879e-18 -1.327193e-03)	(5.256703e-23 -1.369219e-22 -1.328277e-03)	(2.438613e-18 -5.371743e-18 1.083378e-06)
2.005034e-05	(2.438928e-18 -5.372456e-18 -1.327218e-03)	(5.256950e-23 -1.369404e-22 -1.328300e-03)	(2.438875e-18 -5.372319e-18 1.082386e-06)
2.005109e-05	(2.439190e-18 -5.373032e-18 -1.327242e-03)	(5.257201e-23 -1.369590e-22 -1.328323e-03)	(2.439137e-18 -5.372895e-18 1.081394e-06)
2.005184e-05	(2.439452e-18 -5.373609e-18 -1.327266e-03)	(5.257454e-23 -1.369776e-22 -1.328347e-03)	(2.439400e-18 -5.373472e-18 1.080404e-06)
2.005259e-05	(2.439714e-18 -5.374185e-18 -1.327291e-03)	(5.257709e-23 -1.369963e-22 -1.328370e-03)	(2.439662e-18 -5.374048e-18 1.079416e-06)
2.005334e-05	(2.439976e-18 -5.374760e-18 -1.327315e-03)	(5.257968e-23 -1.370152e-22 -1.328394e-03)	(2.439923e-18 -5.374623e-18 1.078428e-06)
2.005409e-05	(2.440238e-18 -5.375337e-18 -1.327340e-03)	(5.258230e-23 -1.370340e-22 -1.328417e-03)	(2.440186e-18 -5.375199e-18 1.077442e-06)
2.005485e-05	(2.440501e-18 -5.375914e-18 -1.327364e-03)	(5.258494e-23 -1.370530e-22 -1.328440e-03)	(2.440448e-18 -5.375777e-18 1.076457e-06)
2.005560e-05	(2.440762e-18 -5.376488e-18 -1.327388e-03)	(5.258761e-23 -1.370721e-22 -1.328464e-03)	(2.440710e-18 -5.376351e-18 1.075473e-06)
2.005635e-05	(2.441024e-18 -5.377064e-18 -1.327413e-03)	(5.259031e-23 -1.370912e-22 -1.328487e-03)	(2.440972e-18 -5.376927e-18 1.074490e-06)
2.005710e-05	(2.441285e-18 -5.377638e-18 -1.327437e-03)	(5.259303e-23 -1.371104e-22 -1.328511e-03)	(2.441233e-18 -5.377501e-18 1.073509e-06)
2.005785e-05	(2.441547e-18 -5.378213e-18 -1.327462e-03)	(5.259579e-23 -1.371298e-22 -1.328534e-03)	(2.441495e-18 -5.378076e-18 1.072529e-06)
2.005860e-05	(2.441809e-18 -5.378787e-18 -1.327487e-03)	(5.259857e-23 -1.371491e-22 -1.328558e-03)	(2.441756e-18 -5.378650e-18 1.071550e-06)
2.005935e-05	(2.442070e-18 -5.379361e-18 -1.327511e-03)	(5.260138e-23 -1.371686e-22 -1.328582e-03)	(2.442017e-18 -5.379224e-18 1.070572e-06)
2.006011e-05	(2.442331e-18 -5.379935e-18 -1.327536e-03)	(5.260422e-23 -1.371882e-22 -1.328605e-03)	(2.442278e-18 -5.379798e-18 1.069596e-06)
2.006086e-05	(2.442592e-18 -5.380509e-18 -1.327560e-03)	(5.260709e-23 -1.372078e-22 -1.328629e-03)	(2.442539e-18 -5.380372e-18 1.068621e-06)
2.006161e-05	(2.442852e-18 -5.381081e-18 -1.327585e-03)	(5.260998e-23 -1.372275e-22 -1.328653e-03)	(2.442800e-18 -5.380944e-18 1.067647e-06)
2.006236e-05	(2.443113e-18 -5.381654e-18 -1.327610e-03)	(5.261291e-23 -1.372473e-22 -1.328676e-03)	(2.443060e-18 -5.381516e-18 1.066674e-06)
2.006311e-05	(2.443373e-18 -5.382225e-18 -1.327634e-03)	(5.261586e-23 -1.372672e-22 -1.328700e-03)	(2.443320e-18 -5.382088e-18 1.065703e-06)
2.006386e-05	(2.443634e-18 -5.382798e-18 -1.327659e-03)	(5.261884e-23 -1.372872e-22 -1.328724e-03)	(2.443581e-18 -5.382661e-18 1.064732e-06)
2.006461e-05	(2.443894e-18 -5.383370e-18 -1.327684e-03)	(5.262185e-23 -1.373072e-22 -1.328747e-03)	(2.443841e-18 -5.383233e-18 1.063763e-06)
2.006536e-05	(2.444155e-18 -5.383943e-18 -1.327708e-03)	(5.262488e-23 -1.373274e-22 -1.328771e-03)	(2.444102e-18 -5.383806e-18 1.062795e-06)
2.006612e-05	(2.444414e-18 -5.384513e-18 -1.327733e-03)	(5.262795e-23 -1.373476e-22 -1.328795e-03)	(2.444361e-18 -5.384376e-18 1.061829e-06)
2.006687e-05	(2.444673e-18 -5.385082e-18 -1.327758e-03)	(5.263104e-23 -1.373679e-22 -1.328819e-03)	(2.444620e-18 -5.384944e-18 1.060863e-06)
2.006762e-05	(2.444933e-18 -5.385653e-18 -1.327783e-03)	(5.263416e-23 -1.373882e-22 -1.328843e-03)	(2.444880e-18 -5.385516e-18 1.059899e-06)
2.006837e-05	(2.445193e-18 -5.386224e-18 -1.327807e-03)	(5.263731e-23 -1.374087e-22 -1.328866e-03)	(2.445140e-18 -5.386087e-18 1.058936e-06)
2.006912e-05	(2.445452e-18 -5.386794e-18 -1.327832e-03)	(5.264049e-23 -1.374292e-22 -1.328890e-03)	(2.445399e-18 -5.386657e-18 1.057974e-06)
2.006987e-05	(2.445711e-18 -5.387364e-18 -1.327857e-03)	(5.264370e-23 -1.374498e-22 -1.328914e-03)	(2.445659e-18 -5.387226e-18 1.057014e-06)
2.007062e-05	(2.445971e-18 -5.387934e-18 -1.327882e-03)	(5.264693e-23 -1.374705e-22 -1.328938e-03)	(2.445918e-18 -5.387796e-18 1.056054e-06)
2.007137e-05	(2.446230e-18 -5.388504e-18 -1.327907e-03)	(5.265020e-23 -1.374913e-22 -1.328962e-03)	(2.446178e-18 -5.388367e-18 1.055096e-06)
2.007213e-05	(2.446489e-18 -5.389072e-18 -1.327932e-03)	(5.265349e-23 -1.375122e-22 -1.328986e-03)	(2.446436e-18 -5.388934e-18 1.054139e-06)
2.007288e-05	(2.446749e-18 -5.389643e-18 -1.327957e-03)	(5.265681e-23 -1.375331e-22 -1.329010e-03)	(2.446696e-18 -5.389505e-18 1.053183e-06)
2.007363e-05	(2.447007e-18 -5.390211e-18 -1.327982e-03)	(5.266016e-23 -1.375542e-22 -1.329034e-03)	(2.446954e-18 -5.390073e-18 1.052229e-06)
2.007438e-05	(2.447266e-18 -5.390779e-18 -1.328007e-03)	(5.266353e-23 -1.375753e-22 -1.329058e-03)	(2.447213e-18 -5.390641e-18 1.051276e-06)
2.007513e-05	(2.447524e-18 -5.391347e-18 -1.328032e-03)	(5.266694e-23 -1.375965e-22 -1.329082e-03)	(2.447471e-18 -5.391209e-18 1.050323e-06)
2.007588e-05	(2.447783e-18 -5.391916e-18 -1.328057e-03)	(5.267037e-23 -1.376177e-22 -1.329106e-03)	(2.447730e-18 -5.391778e-18 1.049373e-06)
2.007663e-05	(2.448041e-18 -5.392482e-18 -1.328082e-03)	(5.267384e-23 -1.376391e-22 -1.329130e-03)	(2.447988e-18 -5.392345e-18 1.048423e-06)
2.007739e-05	(2.448298e-18 -5.393048e-18 -1.328107e-03)	(5.267733e-23 -1.376605e-22 -1.329154e-03)	(2.448246e-18 -5.392910e-18 1.047474e-06)
2.007814e-05	(2.448556e-18 -5.393615e-18 -1.328132e-03)	(5.268084e-23 -1.376820e-22 -1.329178e-03)	(2.448504e-18 -5.393477e-18 1.046527e-06)
2.007889e-05	(2.448814e-18 -5.394181e-18 -1.328157e-03)	(5.268439e-23 -1.377036e-22 -1.329202e-03)	(2.448761e-18 -5.394044e-18 1.045581e-06)
2.007964e-05	(2.449071e-18 -5.394747e-18 -1.328182e-03)	(5.268796e-23 -1.377252e-22 -1.329226e-03)	(2.449019e-18 -5.394609e-18 1.044636e-06)
2.008039e-05	(2.449328e-18 -5.395311e-18 -1.328207e-03)	(5.269156e-23 -1.377470e-22 -1.329251e-03)	(2.449276e-18 -5.395174e-18 1.043692e-06)
2.008114e-05	(2.449587e-18 -5.395879e-18 -1.328232e-03)	(5.269519e-23 -1.377688e-22 -1.329275e-03)	(2.449534e-18 -5.395741e-18 1.042750e-06)
2.008189e-05	(2.449843e-18 -5.396444e-18 -1.328257e-03)	(5.269885e-23 -1.377907e-22 -1.329299e-03)	(2.449791e-18 -5.396306e-18 1.041809e-06)
2.008264e-05	(2.450100e-18 -5.397008e-18 -1.328282e-03)	(5.270254e-23 -1.378127e-22 -1.329323e-03)	(2.450048e-18 -5.396871e-18 1.040868e-06)
2.008340e-05	(2.450357e-18 -5.397573e-18 -1.328308e-03)	(5.270625e-23 -1.378347e-22 -1.329347e-03)	(2.450304e-18 -5.397435e-18 1.039930e-06)
2.008415e-05	(2.450614e-18 -5.398137e-18 -1.328333e-03)	(5.270999e-23 -1.378569e-22 -1.329372e-03)	(2.450562e-18 -5.397999e-18 1.038992e-06)
2.008490e-05	(2.450872e-18 -5.398703e-18 -1.328358e-03)	(5.271376e-23 -1.378791e-22 -1.329396e-03)	(2.450819e-18 -5.398565e-18 1.038055e-06)
2.008565e-05	(2.451128e-18 -5.399265e-18 -1.328383e-03)	(5.271756e-23 -1.379014e-22 -1.329420e-03)	(2.451075e-18 -5.399127e-18 1.037120e-06)
2.008640e-05	(2.451384e-18 -5.399828e-18 -1.328408e-03)	(5.272139e-23 -1.379237e-22 -1.329445e-03)	(2.451331e-18 -5.399690e-18 1.036186e-06)
2.008715e-05	(2.451640e-18 -5.400391e-18 -1.328434e-03)	(5.272524e-23 -1.379462e-22 -1.329469e-03)	(2.451587e-18 -5.400253e-18 1.035253e-06)
2.008790e-05	(2.451896e-18 -5.400953e-18 -1.328459e-03)	(5.272912e-23 -1.379687e-22 -1.329493e-03)	(2.451843e-18 -5.400815e-18 1.034321e-06)
2.008866e-05	(2.452151e-18 -5.401515e-18 -1.328484e-03)	(5.273303e-23 -1.379913e-22 -1.329518e-03)	(2.452098e-18 -5.401377e-18 1.033391e-06)
2.008941e-05	(2.452408e-18 -5.402079e-18 -1.328510e-03)	(5.273697e-23 -1.380140e-22 -1.329542e-03)	(2.452355e-18 -5.401941e-18 1.032461e-06)
2.009016e-05	(2.452663e-18 -5.402641e-18 -1.328535e-03)	(5.274094e-23 -1.380368e-22 -1.329567e-03)	(2.452611e-18 -5.402503e-18 1.031533e-06)
2.009091e-05	(2.452919e-18 -5.403203e-18 -1.328560e-03)	(5.274493e-23 -1.380596e-22 -1.329591e-03)	(2.452866e-18 -5.403065e-18 1.030606e-06)
2.009166e-05	(2.453174e-18 -5.403762e-18 -1.328586e-03)	(5.274896e-23 -1.380825e-22 -1.329615e-03)	(2.453121e-18 -5.403624e-18 1.029680e-06)
2.009241e-05	(2.453429e-18 -5.404323e-18 -1.328611e-03)	(5.275301e-23 -1.381055e-22 -1.329640e-03)	(2.453376e-18 -5.404185e-18 1.028756e-06)
2.009316e-05	(2.453684e-18 -5.404882e-18 -1.328637e-03)	(5.275709e-23 -1.381286e-22 -1.329664e-03)	(2.453631e-18 -5.404744e-18 1.027832e-06)
2.009391e-05	(2.453938e-18 -5.405442e-18 -1.328662e-03)	(5.276119e-23 -1.381517e-22 -1.329689e-03)	(2.453885e-18 -5.405303e-18 1.026910e-06)
2.009467e-05	(2.454192e-18 -5.406001e-18 -1.328688e-03)	(5.276533e-23 -1.381750e-22 -1.329714e-03)	(2.454140e-18 -5.405863e-18 1.025989e-06)
2.009542e-05	(2.454447e-18 -5.406560e-18 -1.328713e-03)	(5.276950e-23 -1.381983e-22 -1.329738e-03)	(2.454394e-18 -5.406422e-18 1.025069e-06)
2.009617e-05	(2.454701e-18 -5.407119e-18 -1.328739e-03)	(5.277369e-23 -1.382216e-22 -1.329763e-03)	(2.454649e-18 -5.406981e-18 1.024150e-06)
2.009692e-05	(2.454955e-18 -5.407677e-18 -1.328764e-03)	(5.277791e-23 -1.382451e-22 -1.329787e-03)	(2.454902e-18 -5.407539e-18 1.023233e-06)
2.009767e-05	(2.455209e-18 -5.408235e-18 -1.328790e-03)	(5.278216e-23 -1.382686e-22 -1.329812e-03)	(2.455156e-18 -5.408097e-18 1.022316e-06)
2.009842e-05	(2.455463e-18 -5.408793e-18 -1.328815e-03)	(5.278644e-23 -1.382922e-22 -1.329837e-03)	(2.455410e-18 -5.408655e-18 1.021401e-06)
2.009917e-05	(2.455716e-18 -5.409348e-18 -1.328841e-03)	(5.279074e-23 -1.383159e-22 -1.329861e-03)	(2.455663e-18 -5.409210e-18 1.020487e-06)
2.009992e-05	(2.455969e-18 -5.409905e-18 -1.328866e-03)	(5.279508e-23 -1.383397e-22 -1.329886e-03)	(2.455916e-18 -5.409766e-18 1.019574e-06)
2.010068e-05	(2.456223e-18 -5.410463e-18 -1.328892e-03)	(5.279944e-23 -1.383635e-22 -1.329911e-03)	(2.456170e-18 -5.410325e-18 1.018663e-06)
2.010143e-05	(2.456476e-18 -5.411018e-18 -1.328918e-03)	(5.280383e-23 -1.383875e-22 -1.329935e-03)	(2.456423e-18 -5.410880e-18 1.017752e-06)
2.010218e-05	(2.456729e-18 -5.411575e-18 -1.328943e-03)	(5.280825e-23 -1.384115e-22 -1.329960e-03)	(2.456676e-18 -5.411436e-18 1.016843e-06)
2.010293e-05	(2.456982e-18 -5.412132e-18 -1.328969e-03)	(5.281270e-23 -1.384355e-22 -1.329985e-03)	(2.456930e-18 -5.411993e-18 1.015935e-06)
2.010368e-05	(2.457235e-18 -5.412686e-18 -1.328995e-03)	(5.281717e-23 -1.384597e-22 -1.330010e-03)	(2.457182e-18 -5.412547e-18 1.015028e-06)
2.010443e-05	(2.457487e-18 -5.413240e-18 -1.329020e-03)	(5.282168e-23 -1.384839e-22 -1.330034e-03)	(2.457434e-18 -5.413102e-18 1.014122e-06)
2.010518e-05	(2.457739e-18 -5.413793e-18 -1.329046e-03)	(5.282621e-23 -1.385082e-22 -1.330059e-03)	(2.457686e-18 -5.413655e-18 1.013217e-06)
2.010594e-05	(2.457990e-18 -5.414347e-18 -1.329072e-03)	(5.283077e-23 -1.385326e-22 -1.330084e-03)	(2.457938e-18 -5.414208e-18 1.012314e-06)
2.010669e-05	(2.458242e-18 -5.414900e-18 -1.329098e-03)	(5.283536e-23 -1.385570e-22 -1.330109e-03)	(2.458189e-18 -5.414761e-18 1.011411e-06)
2.010744e-05	(2.458494e-18 -5.415454e-18 -1.329123e-03)	(5.283998e-23 -1.385816e-22 -1.330134e-03)	(2.458442e-18 -5.415316e-18 1.010510e-06)
2.010819e-05	(2.458746e-18 -5.416007e-18 -1.329149e-03)	(5.284463e-23 -1.386062e-22 -1.330159e-03)	(2.458693e-18 -5.415869e-18 1.009610e-06)
2.010894e-05	(2.458997e-18 -5.416560e-18 -1.329175e-03)	(5.284930e-23 -1.386309e-22 -1.330184e-03)	(2.458945e-18 -5.416422e-18 1.008711e-06)
2.010969e-05	(2.459249e-18 -5.417113e-18 -1.329201e-03)	(5.285400e-23 -1.386556e-22 -1.330209e-03)	(2.459196e-18 -5.416974e-18 1.007814e-06)
2.011044e-05	(2.459500e-18 -5.417664e-18 -1.329227e-03)	(5.285874e-23 -1.386805e-22 -1.330233e-03)	(2.459447e-18 -5.417525e-18 1.006917e-06)
2.011119e-05	(2.459751e-18 -5.418215e-18 -1.329252e-03)	(5.286350e-23 -1.387054e-22 -1.330258e-03)	(2.459698e-18 -5.418076e-18 1.006022e-06)
2.011195e-05	(2.460001e-18 -5.418766e-18 -1.329278e-03)	(5.286829e-23 -1.387304e-22 -1.330283e-03)	(2.459948e-18 -5.418627e-18 1.005128e-06)
2.011270e-05	(2.460252e-18 -5.419317e-18 -1.329304e-03)	(5.287310e-23 -1.387554e-22 -1.330308e-03)	(2.460199e-18 -5.419178e-18 1.004235e-06)
2.011345e-05	(2.460503e-18 -5.419868e-18 -1.329330e-03)	(5.287795e-23 -1.387806e-22 -1.330333e-03)	(2.460450e-18 -5.419729e-18 1.003343e-06)
2.011420e-05	(2.460752e-18 -5.420417e-18 -1.329356e-03)	(5.288282e-23 -1.388058e-22 -1.330359e-03)	(2.460700e-18 -5.420278e-18 1.002452e-06)
2.011495e-05	(2.461003e-18 -5.420967e-18 -1.329382e-03)	(5.288773e-23 -1.388311e-22 -1.330384e-03)	(2.460950e-18 -5.420828e-18 1.001563e-06)
2.011570e-05	(2.461253e-18 -5.421517e-18 -1.329408e-03)	(5.289266e-23 -1.388564e-22 -1.330409e-03)	(2.461201e-18 -5.421379e-18 1.000674e-06)
2.011645e-05	(2.461503e-18 -5.422065e-18 -1.329434e-03)	(5.289762e-23 -1.388819e-22 -1.330434e-03)	(2.461450e-18 -5.421926e-18 9.997871e-07)
2.011721e-05	(2.461752e-18 -5.422613e-18 -1.329460e-03)	(5.290260e-23 -1.389074e-22 -1.330459e-03)	(2.461699e-18 -5.422475e-18 9.989010e-07)
2.011796e-05	(2.462002e-18 -5.423163e-18 -1.329486e-03)	(5.290762e-23 -1.389330e-22 -1.330484e-03)	(2.461949e-18 -5.423024e-18 9.980161e-07)
2.011871e-05	(2.462251e-18 -5.423710e-18 -1.329512e-03)	(5.291266e-23 -1.389586e-22 -1.330509e-03)	(2.462198e-18 -5.423571e-18 9.971323e-07)
2.011946e-05	(2.462500e-18 -5.424258e-18 -1.329538e-03)	(5.291774e-23 -1.389844e-22 -1.330534e-03)	(2.462448e-18 -5.424119e-18 9.962497e-07)
2.012021e-05	(2.462748e-18 -5.424802e-18 -1.329564e-03)	(5.292284e-23 -1.390102e-22 -1.330560e-03)	(2.462695e-18 -5.424663e-18 9.953682e-07)
2.012096e-05	(2.462996e-18 -5.425347e-18 -1.329590e-03)	(5.292797e-23 -1.390361e-22 -1.330585e-03)	(2.462943e-18 -5.425208e-18 9.944879e-07)
2.012171e-05	(2.463245e-18 -5.425893e-18 -1.329616e-03)	(5.293313e-23 -1.390620e-22 -1.330610e-03)	(2.463192e-18 -5.425754e-18 9.936087e-07)
2.012246e-05	(2.463493e-18 -5.426439e-18 -1.329643e-03)	(5.293832e-23 -1.390881e-22 -1.330635e-03)	(2.463440e-18 -5.426300e-18 9.927306e-07)
2.012322e-05	(2.463741e-18 -5.426983e-18 -1.329669e-03)	(5.294353e-23 -1.391142e-22 -1.330661e-03)	(2.463688e-18 -5.426843e-18 9.918538e-07)
2.012397e-05	(2.463989e-18 -5.427528e-18 -1.329695e-03)	(5.294877e-23 -1.391403e-22 -1.330686e-03)	(2.463936e-18 -5.427389e-18 9.909780e-07)
2.012472e-05	(2.464237e-18 -5.428074e-18 -1.329721e-03)	(5.295405e-23 -1.391666e-22 -1.330711e-03)	(2.464184e-18 -5.427935e-18 9.901034e-07)
2.012547e-05	(2.464485e-18 -5.428618e-18 -1.329747e-03)	(5.295935e-23 -1.391929e-22 -1.330736e-03)	(2.464432e-18 -5.428478e-18 9.892300e-07)
2.012622e-05	(2.464731e-18 -5.429159e-18 -1.329773e-03)	(5.296468e-23 -1.392193e-22 -1.330762e-03)	(2.464678e-18 -5.429020e-18 9.883577e-07)
2.012697e-05	(2.464978e-18 -5.429703e-18 -1.329800e-03)	(5.297003e-23 -1.392458e-22 -1.330787e-03)	(2.464925e-18 -5.429563e-18 9.874865e-07)
2.012772e-05	(2.465225e-18 -5.430245e-18 -1.329826e-03)	(5.297542e-23 -1.392723e-22 -1.330813e-03)	(2.465172e-18 -5.430106e-18 9.866165e-07)
2.012847e-05	(2.465471e-18 -5.430785e-18 -1.329852e-03)	(5.298083e-23 -1.392990e-22 -1.330838e-03)	(2.465418e-18 -5.430646e-18 9.857476e-07)
2.012923e-05	(2.465718e-18 -5.431329e-18 -1.329879e-03)	(5.298628e-23 -1.393257e-22 -1.330863e-03)	(2.465665e-18 -5.431190e-18 9.848798e-07)
2.012998e-05	(2.465964e-18 -5.431869e-18 -1.329905e-03)	(5.299175e-23 -1.393524e-22 -1.330889e-03)	(2.465911e-18 -5.431730e-18 9.840132e-07)
2.013073e-05	(2.466211e-18 -5.432411e-18 -1.329931e-03)	(5.299725e-23 -1.393793e-22 -1.330914e-03)	(2.466158e-18 -5.432272e-18 9.831477e-07)
2.013148e-05	(2.466456e-18 -5.432950e-18 -1.329957e-03)	(5.300278e-23 -1.394062e-22 -1.330940e-03)	(2.466403e-18 -5.432811e-18 9.822834e-07)
2.013223e-05	(2.466702e-18 -5.433492e-18 -1.329984e-03)	(5.300833e-23 -1.394332e-22 -1.330965e-03)	(2.466649e-18 -5.433352e-18 9.814202e-07)
2.013298e-05	(2.466948e-18 -5.434031e-18 -1.330010e-03)	(5.301392e-23 -1.394602e-22 -1.330991e-03)	(2.466895e-18 -5.433892e-18 9.805581e-07)
2.013373e-05	(2.467193e-18 -5.434570e-18 -1.330037e-03)	(5.301953e-23 -1.394873e-22 -1.331016e-03)	(2.467140e-18 -5.434431e-18 9.796972e-07)
2.013449e-05	(2.467439e-18 -5.435110e-18 -1.330063e-03)	(5.302517e-23 -1.395145e-22 -1.331042e-03)	(2.467386e-18 -5.434970e-18 9.788374e-07)
2.013524e-05	(2.467684e-18 -5.435648e-18 -1.330089e-03)	(5.303084e-23 -1.395418e-22 -1.331067e-03)	(2.467631e-18 -5.435508e-18 9.779788e-07)
2.013599e-05	(2.467928e-18 -5.436185e-18 -1.330116e-03)	(5.303654e-23 -1.395692e-22 -1.331093e-03)	(2.467875e-18 -5.436045e-18 9.771212e-07)
2.013674e-05	(2.468173e-18 -5.436723e-18 -1.330142e-03)	(5.304227e-23 -1.395966e-22 -1.331119e-03)	(2.468120e-18 -5.436583e-18 9.762648e-07)
2.013749e-05	(2.468418e-18 -5.437261e-18 -1.330169e-03)	(5.304802e-23 -1.396241e-22 -1.331144e-03)	(2.468365e-18 -5.437121e-18 9.754096e-07)
2.013824e-05	(2.468662e-18 -5.437798e-18 -1.330195e-03)	(5.305380e-23 -1.396516e-22 -1.331170e-03)	(2.468609e-18 -5.437658e-18 9.745554e-07)
2.013899e-05	(2.468907e-18 -5.438335e-18 -1.330222e-03)	(5.305961e-23 -1.396792e-22 -1.331196e-03)	(2.468853e-18 -5.438195e-18 9.737024e-07)
2.013974e-05	(2.469151e-18 -5.438871e-18 -1.330248e-03)	(5.306545e-23 -1.397069e-22 -1.331221e-03)	(2.469097e-18 -5.438731e-18 9.728505e-07)
2.014050e-05	(2.469394e-18 -5.439407e-18 -1.330275e-03)	(5.307132e-23 -1.397347e-22 -1.331247e-03)	(2.469341e-18 -5.439267e-18 9.719997e-07)
2.014125e-05	(2.469638e-18 -5.439942e-18 -1.330301e-03)	(5.307722e-23 -1.397626e-22 -1.331273e-03)	(2.469585e-18 -5.439802e-18 9.711501e-07)
2.014200e-05	(2.469881e-18 -5.440477e-18 -1.330328e-03)	(5.308314e-23 -1.397905e-22 -1.331298e-03)	(2.469828e-18 -5.440337e-18 9.703016e-07)
2.014275e-05	(2.470125e-18 -5.441012e-18 -1.330355e-03)	(5.308909e-23 -1.398185e-22 -1.331324e-03)	(2.470072e-18 -5.440872e-18 9.694542e-07)
2.014350e-05	(2.470366e-18 -5.441543e-18 -1.330381e-03)	(5.309508e-23 -1.398465e-22 -1.331350e-03)	(2.470313e-18 -5.441403e-18 9.686080e-07)
2.014425e-05	(2.470609e-18 -5.442077e-18 -1.330408e-03)	(5.310108e-23 -1.398746e-22 -1.331376e-03)	(2.470556e-18 -5.441937e-18 9.677628e-07)
2.014500e-05	(2.470852e-18 -5.442611e-18 -1.330434e-03)	(5.310712e-23 -1.399028e-22 -1.331401e-03)	(2.470799e-18 -5.442471e-18 9.669188e-07)
2.014576e-05	(2.471095e-18 -5.443144e-18 -1.330461e-03)	(5.311319e-23 -1.399311e-22 -1.331427e-03)	(2.471042e-18 -5.443004e-18 9.660759e-07)
2.014651e-05	(2.471337e-18 -5.443676e-18 -1.330488e-03)	(5.311928e-23 -1.399594e-22 -1.331453e-03)	(2.471284e-18 -5.443536e-18 9.652341e-07)
2.014726e-05	(2.471579e-18 -5.444208e-18 -1.330515e-03)	(5.312540e-23 -1.399878e-22 -1.331479e-03)	(2.471526e-18 -5.444068e-18 9.643935e-07)
2.014801e-05	(2.471821e-18 -5.444739e-18 -1.330541e-03)	(5.313156e-23 -1.400163e-22 -1.331505e-03)	(2.471767e-18 -5.444599e-18 9.635539e-07)
2.014876e-05	(2.472062e-18 -5.445268e-18 -1.330568e-03)	(5.313773e-23 -1.400449e-22 -1.331531e-03)	(2.472008e-18 -5.445128e-18 9.627155e-07)
2.014951e-05	(2.472303e-18 -5.445799e-18 -1.330595e-03)	(5.314394e-23 -1.400735e-22 -1.331557e-03)	(2.472250e-18 -5.445659e-18 9.618782e-07)
2.015026e-05	(2.472544e-18 -5.446328e-18 -1.330621e-03)	(5.315018e-23 -1.401022e-22 -1.331583e-03)	(2.472491e-18 -5.446188e-18 9.610420e-07)
2.015101e-05	(2.472784e-18 -5.446855e-18 -1.330648e-03)	(5.315644e-23 -1.401309e-22 -1.331608e-03)	(2.472731e-18 -5.446715e-18 9.602069e-07)
2.015177e-05	(2.473025e-18 -5.447384e-18 -1.330675e-03)	(5.316273e-23 -1.401597e-22 -1.331634e-03)	(2.472971e-18 -5.447244e-18 9.593730e-07)
2.015252e-05	(2.473264e-18 -5.447911e-18 -1.330702e-03)	(5.316905e-23 -1.401886e-22 -1.331660e-03)	(2.473211e-18 -5.447771e-18 9.585401e-07)
2.015327e-05	(2.473504e-18 -5.448438e-18 -1.330729e-03)	(5.317540e-23 -1.402176e-22 -1.331686e-03)	(2.473451e-18 -5.448297e-18 9.577084e-07)
2.015402e-05	(2.473744e-18 -5.448965e-18 -1.330756e-03)	(5.318178e-23 -1.402466e-22 -1.331712e-03)	(2.473691e-18 -5.448825e-18 9.568777e-07)
2.015477e-05	(2.473983e-18 -5.449490e-18 -1.330782e-03)	(5.318818e-23 -1.402757e-22 -1.331738e-03)	(2.473930e-18 -5.449350e-18 9.560482e-07)
2.015552e-05	(2.474223e-18 -5.450017e-18 -1.330809e-03)	(5.319462e-23 -1.403049e-22 -1.331764e-03)	(2.474170e-18 -5.449877e-18 9.552198e-07)
2.015627e-05	(2.474463e-18 -5.450546e-18 -1.330836e-03)	(5.320108e-23 -1.403341e-22 -1.331791e-03)	(2.474410e-18 -5.450405e-18 9.543925e-07)
2.015702e-05	(2.474702e-18 -5.451069e-18 -1.330863e-03)	(5.320757e-23 -1.403634e-22 -1.331817e-03)	(2.474648e-18 -5.450928e-18 9.535663e-07)
2.015778e-05	(2.474940e-18 -5.451593e-18 -1.330890e-03)	(5.321409e-23 -1.403928e-22 -1.331843e-03)	(2.474887e-18 -5.451453e-18 9.527413e-07)
2.015853e-05	(2.475179e-18 -5.452117e-18 -1.330917e-03)	(5.322063e-23 -1.404223e-22 -1.331869e-03)	(2.475125e-18 -5.451977e-18 9.519173e-07)