# Moment     
# CofR       : (0.000000e+00 0.000000e+00 0.000000e+00)
#            
# Time       	(total_x total_y total_z)	(pressure_x pressure_y pressure_z)	(viscous_x viscous_y viscous_z)
2.808989e-09	(1.576126e-24 -4.072100e-24 -3.932685e-05)	(1.598465e-24 -4.120294e-24 -3.932685e-05)	(-2.233963e-26 4.819399e-26 -7.174327e-20)
5.839964e-09	(-4.717377e-24 1.302361e-23 1.774170e-04)	(1.602751e-24 -4.131340e-24 -3.943254e-05)	(-6.320128e-24 1.715495e-23 2.168495e-04)
8.270674e-09	(3.460548e-24 -9.970615e-24 -1.534783e-04)	(1.595307e-24 -4.112300e-24 -3.925342e-05)	(1.865241e-24 -5.858315e-24 -1.142249e-04)
1.048931e-08	(-7.501885e-25 1.914629e-24 1.676607e-05)	(1.614384e-24 -4.161347e-24 -3.972026e-05)	(-2.364572e-24 6.075976e-24 5.648633e-05)
1.259018e-08	(1.636815e-24 -4.574412e-24 -6.829261e-05)	(1.618358e-24 -4.171671e-24 -3.981981e-05)	(1.845695e-26 -4.027411e-25 -2.847280e-05)
1.462189e-08	(6.774804e-25 -1.831693e-24 -2.698866e-05)	(1.628723e-24 -4.198332e-24 -4.007416e-05)	(-9.512421e-25 2.366639e-24 1.308550e-05)
1.660056e-08	(9.656907e-25 -2.748002e-24 -4.723075e-05)	(1.635151e-24 -4.214936e-24 -4.023310e-05)	(-6.694606e-25 1.466934e-24 -6.997653e-06)
1.854403e-08	(7.516152e-25 -2.129672e-24 -3.754944e-05)	(1.642884e-24 -4.234843e-24 -4.042320e-05)	(-8.912686e-25 2.105171e-24 2.873752e-06)
2.046094e-08	(7.634407e-25 -2.204789e-24 -4.231377e-05)	(1.649568e-24 -4.252085e-24 -4.058801e-05)	(-8.861270e-25 2.047296e-24 -1.725755e-06)
2.235927e-08	(1.072797e-24 -2.848189e-24 -4.008994e-05)	(1.656386e-24 -4.269652e-24 -4.075583e-05)	(-5.835889e-25 1.421462e-24 6.658962e-07)
2.424661e-08	(9.874828e-25 -2.659362e-24 -4.124479e-05)	(1.662838e-24 -4.286290e-24 -4.091480e-05)	(-6.753553e-25 1.626928e-24 -3.299963e-07)
2.612306e-08	(1.057797e-24 -2.796989e-24 -4.076178e-05)	(1.669196e-24 -4.302675e-24 -4.107132e-05)	(-6.113988e-25 1.505687e-24 3.095356e-07)
2.799230e-08	(1.022045e-24 -2.717126e-24 -4.107734e-05)	(1.675354e-24 -4.318551e-24 -4.122296e-05)	(-6.533084e-25 1.601426e-24 1.456196e-07)
2.985796e-08	(8.679857e-25 -2.371063e-24 -4.100634e-05)	(1.681384e-24 -4.334094e-24 -4.137140e-05)	(-8.133980e-25 1.963031e-24 3.650668e-07)
3.172004e-08	(8.196540e-25 -2.253038e-24 -4.112495e-05)	(1.687267e-24 -4.349262e-24 -4.151625e-05)	(-8.676134e-25 2.096223e-24 3.913013e-07)
3.358212e-08	(9.401745e-25 -2.508198e-24 -4.115254e-05)	(1.693005e-24 -4.364052e-24 -4.165748e-05)	(-7.528308e-25 1.855855e-24 5.049403e-07)
3.544779e-08	(8.652078e-25 -2.342698e-24 -4.122773e-05)	(1.698608e-24 -4.378496e-24 -4.179538e-05)	(-8.334006e-25 2.035798e-24 5.676508e-07)
3.731707e-08	(7.860132e-25 -2.160840e-24 -4.127404e-05)	(1.704091e-24 -4.392629e-24 -4.193030e-05)	(-9.180777e-25 2.231789e-24 6.562569e-07)
3.919000e-08	(7.340489e-25 -2.043751e-24 -4.133402e-05)	(1.709459e-24 -4.406468e-24 -4.206237e-05)	(-9.754103e-25 2.362717e-24 7.283443e-07)
4.107025e-08	(8.072881e-25 -2.191445e-24 -4.138171e-05)	(1.714713e-24 -4.420012e-24 -4.219163e-05)	(-9.074254e-25 2.228567e-24 8.099157e-07)
4.295791e-08	(6.642175e-25 -1.880184e-24 -4.143578e-05)	(1.719862e-24 -4.433284e-24 -4.231828e-05)	(-1.055645e-24 2.553100e-24 8.824958e-07)
4.485304e-08	(6.642481e-25 -1.870301e-24 -4.148665e-05)	(1.724913e-24 -4.446304e-24 -4.244252e-05)	(-1.060665e-24 2.576003e-24 9.558660e-07)
4.675573e-08	(5.577690e-25 -1.628627e-24 -4.153867e-05)	(1.729872e-24 -4.459087e-24 -4.256448e-05)	(-1.172103e-24 2.830460e-24 1.025812e-06)
4.866987e-08	(5.155609e-25 -1.527206e-24 -4.159049e-05)	(1.734745e-24 -4.471647e-24 -4.268431e-05)	(-1.219184e-24 2.944441e-24 1.093815e-06)
5.059175e-08	(5.312995e-25 -1.558366e-24 -4.164118e-05)	(1.739534e-24 -4.483993e-24 -4.280208e-05)	(-1.208235e-24 2.925627e-24 1.160906e-06)
5.252537e-08	(3.901262e-25 -1.245519e-24 -4.169304e-05)	(1.744245e-24 -4.496136e-24 -4.291791e-05)	(-1.354119e-24 3.250616e-24 1.224871e-06)
5.446692e-08	(3.782319e-25 -1.208883e-24 -4.174303e-05)	(1.748880e-24 -4.508083e-24 -4.303186e-05)	(-1.370648e-24 3.299200e-24 1.288829e-06)
5.641246e-08	(2.920860e-25 -1.022559e-24 -4.179306e-05)	(1.753441e-24 -4.519841e-24 -4.314400e-05)	(-1.461355e-24 3.497282e-24 1.350937e-06)
5.834209e-08	(2.705717e-25 -9.623797e-25 -4.183917e-05)	(1.757930e-24 -4.531411e-24 -4.325434e-05)	(-1.487358e-24 3.569031e-24 1.415171e-06)
6.025992e-08	(2.919762e-25 -1.004274e-24 -4.188847e-05)	(1.762347e-24 -4.542798e-24 -4.336292e-05)	(-1.470371e-24 3.538524e-24 1.474450e-06)
6.216609e-08	(3.188449e-25 -1.061857e-24 -4.193561e-05)	(1.766695e-24 -4.554007e-24 -4.346979e-05)	(-1.447850e-24 3.492150e-24 1.534186e-06)
6.406070e-08	(2.278159e-25 -8.538554e-25 -4.198360e-05)	(1.770976e-24 -4.565042e-24 -4.357501e-05)	(-1.543160e-24 3.711187e-24 1.591406e-06)
6.594768e-08	(2.135639e-25 -8.169636e-25 -4.203160e-05)	(1.775192e-24 -4.575910e-24 -4.367861e-05)	(-1.561628e-24 3.758946e-24 1.647015e-06)
6.782706e-08	(9.587986e-26 -5.525389e-25 -4.207906e-05)	(1.779345e-24 -4.586615e-24 -4.378066e-05)	(-1.683465e-24 4.034076e-24 1.701606e-06)
6.970266e-08	(2.773090e-26 -3.944706e-25 -4.212710e-05)	(1.783437e-24 -4.597162e-24 -4.388121e-05)	(-1.755706e-24 4.202692e-24 1.754108e-06)
7.157448e-08	(7.848716e-26 -5.025816e-25 -4.217421e-05)	(1.787470e-24 -4.607557e-24 -4.398029e-05)	(-1.708983e-24 4.104976e-24 1.806081e-06)
7.344254e-08	(-1.898556e-26 -2.865563e-25 -4.222126e-05)	(1.791445e-24 -4.617804e-24 -4.407795e-05)	(-1.810430e-24 4.331248e-24 1.856684e-06)
7.531060e-08	(-2.659819e-26 -2.656717e-25 -4.226850e-05)	(1.795364e-24 -4.627907e-24 -4.417423e-05)	(-1.821962e-24 4.362235e-24 1.905733e-06)
7.717490e-08	(-1.239409e-25 -4.244979e-26 -4.231361e-05)	(1.799229e-24 -4.637870e-24 -4.426918e-05)	(-1.923170e-24 4.595420e-24 1.955568e-06)
7.903919e-08	(-1.247494e-25 -3.794069e-26 -4.235997e-05)	(1.803041e-24 -4.647697e-24 -4.436282e-05)	(-1.927791e-24 4.609756e-24 2.002854e-06)
8.090348e-08	(-2.317974e-25 2.027765e-25 -4.240508e-05)	(1.806802e-24 -4.657391e-24 -4.445519e-05)	(-2.038599e-24 4.860167e-24 2.050114e-06)
8.276778e-08	(-1.785937e-25 9.271388e-26 -4.245030e-05)	(1.810513e-24 -4.666956e-24 -4.454633e-05)	(-1.989106e-24 4.759670e-24 2.096025e-06)
8.463207e-08	(-2.123051e-25 1.699614e-25 -4.249492e-05)	(1.814174e-24 -4.676395e-24 -4.463626e-05)	(-2.026479e-24 4.846356e-24 2.141343e-06)
8.649636e-08	(-4.074731e-25 6.057060e-25 -4.253925e-05)	(1.817788e-24 -4.685711e-24 -4.472501e-05)	(-2.225262e-24 5.291417e-24 2.185760e-06)
8.836447e-08	(-3.373342e-25 4.569995e-25 -4.258387e-05)	(1.821356e-24 -4.694907e-24 -4.481262e-05)	(-2.158690e-24 5.151907e-24 2.228743e-06)
9.023257e-08	(-3.788120e-25 5.533391e-25 -4.262690e-05)	(1.824878e-24 -4.703986e-24 -4.489911e-05)	(-2.203690e-24 5.257326e-24 2.272209e-06)
9.210452e-08	(-5.123594e-25 8.497396e-25 -4.267099e-05)	(1.828356e-24 -4.712951e-24 -4.498450e-05)	(-2.340715e-24 5.562691e-24 2.313508e-06)
9.397647e-08	(-5.016551e-25 8.352961e-25 -4.270997e-05)	(1.831790e-24 -4.721804e-24 -4.506882e-05)	(-2.333445e-24 5.557101e-24 2.358851e-06)
9.585230e-08	(-5.407436e-25 9.276055e-25 -4.275539e-05)	(1.835182e-24 -4.730547e-24 -4.515209e-05)	(-2.375926e-24 5.658153e-24 2.396702e-06)
9.772812e-08	(-6.107033e-25 1.085465e-24 -4.279332e-05)	(1.838532e-24 -4.739184e-24 -4.523434e-05)	(-2.449236e-24 5.824649e-24 2.441021e-06)
9.960786e-08	(-6.618337e-25 1.202647e-24 -4.283541e-05)	(1.841842e-24 -4.747714e-24 -4.531558e-05)	(-2.503675e-24 5.950361e-24 2.480166e-06)
1.014915e-07	(-7.539402e-25 1.409335e-24 -4.287539e-05)	(1.845111e-24 -4.756142e-24 -4.539583e-05)	(-2.599051e-24 6.165477e-24 2.520439e-06)
1.033791e-07	(-7.643728e-25 1.437492e-24 -4.291619e-05)	(1.848341e-24 -4.764469e-24 -4.547512e-05)	(-2.612714e-24 6.201960e-24 2.558931e-06)
1.052707e-07	(-8.297049e-25 1.588677e-24 -4.295624e-05)	(1.851533e-24 -4.772697e-24 -4.555346e-05)	(-2.681238e-24 6.361373e-24 2.597225e-06)
1.071664e-07	(-8.709602e-25 1.687435e-24 -4.299623e-05)	(1.854687e-24 -4.780828e-24 -4.563088e-05)	(-2.725648e-24 6.468262e-24 2.634647e-06)
1.090660e-07	(-9.979349e-25 1.969104e-24 -4.303900e-05)	(1.857805e-24 -4.788864e-24 -4.570739e-05)	(-2.855740e-24 6.757968e-24 2.668390e-06)
1.109697e-07	(-1.025041e-24 2.035415e-24 -4.307937e-05)	(1.860887e-24 -4.796808e-24 -4.578301e-05)	(-2.885928e-24 6.832223e-24 2.703640e-06)
1.128775e-07	(-1.048521e-24 2.092547e-24 -4.311964e-05)	(1.863933e-24 -4.804661e-24 -4.585777e-05)	(-2.912454e-24 6.897208e-24 2.738130e-06)
1.147812e-07	(-1.114548e-24 2.241892e-24 -4.315426e-05)	(1.866945e-24 -4.812425e-24 -4.593168e-05)	(-2.981493e-24 7.054318e-24 2.777424e-06)
1.166808e-07	(-1.145392e-24 2.315836e-24 -4.319170e-05)	(1.869923e-24 -4.820101e-24 -4.600474e-05)	(-3.015315e-24 7.135937e-24 2.813044e-06)
1.185763e-07	(-1.248711e-24 2.548456e-24 -4.322796e-05)	(1.872867e-24 -4.827690e-24 -4.607698e-05)	(-3.121578e-24 7.376146e-24 2.849020e-06)
1.204678e-07	(-1.298503e-24 2.666055e-24 -4.326475e-05)	(1.875778e-24 -4.835194e-24 -4.614839e-05)	(-3.174281e-24 7.501249e-24 2.883642e-06)
1.223552e-07	(-1.370391e-24 2.828809e-24 -4.330111e-05)	(1.878656e-24 -4.842613e-24 -4.621900e-05)	(-3.249047e-24 7.671422e-24 2.917889e-06)
1.242386e-07	(-1.385645e-24 2.866209e-24 -4.333742e-05)	(1.881502e-24 -4.849949e-24 -4.628881e-05)	(-3.267146e-24 7.716157e-24 2.951389e-06)
1.261179e-07	(-1.438707e-24 2.990114e-24 -4.337346e-05)	(1.884316e-24 -4.857203e-24 -4.635785e-05)	(-3.323023e-24 7.847317e-24 2.984388e-06)
1.279932e-07	(-1.526593e-24 3.192082e-24 -4.340930e-05)	(1.887099e-24 -4.864377e-24 -4.642611e-05)	(-3.413691e-24 8.056459e-24 3.016816e-06)
1.298644e-07	(-1.546710e-24 3.242044e-24 -4.344488e-05)	(1.889851e-24 -4.871472e-24 -4.649362e-05)	(-3.436561e-24 8.113516e-24 3.048745e-06)
1.317357e-07	(-1.589907e-24 3.342492e-24 -4.348097e-05)	(1.892573e-24 -4.878488e-24 -4.656038e-05)	(-3.482480e-24 8.220980e-24 3.079404e-06)
1.336070e-07	(-1.669635e-24 3.526085e-24 -4.351632e-05)	(1.895264e-24 -4.885426e-24 -4.662639e-05)	(-3.564900e-24 8.411511e-24 3.110071e-06)
1.354742e-07	(-1.672501e-24 3.538345e-24 -4.355085e-05)	(1.897927e-24 -4.892290e-24 -4.669170e-05)	(-3.570428e-24 8.430636e-24 3.140849e-06)
1.373414e-07	(-1.757031e-24 3.731735e-24 -4.358619e-05)	(1.900561e-24 -4.899079e-24 -4.675629e-05)	(-3.657591e-24 8.630814e-24 3.170092e-06)
1.392086e-07	(-1.819102e-24 3.874594e-24 -4.362063e-05)	(1.903166e-24 -4.905794e-24 -4.682017e-05)	(-3.722267e-24 8.780389e-24 3.199546e-06)
1.410759e-07	(-1.877961e-24 4.008677e-24 -4.365509e-05)	(1.905743e-24 -4.912438e-24 -4.688337e-05)	(-3.783703e-24 8.921114e-24 3.228281e-06)
1.429390e-07	(-1.974876e-24 4.230854e-24 -4.368833e-05)	(1.908293e-24 -4.919011e-24 -4.694590e-05)	(-3.883169e-24 9.149865e-24 3.257566e-06)
1.448022e-07	(-1.981235e-24 4.251401e-24 -4.372139e-05)	(1.910815e-24 -4.925513e-24 -4.700775e-05)	(-3.892050e-24 9.176914e-24 3.286359e-06)
1.466654e-07	(-2.035921e-24 4.380431e-24 -4.375392e-05)	(1.913311e-24 -4.931947e-24 -4.706894e-05)	(-3.949231e-24 9.312377e-24 3.315024e-06)
1.485286e-07	(-2.106825e-24 4.542742e-24 -4.378662e-05)	(1.915780e-24 -4.938312e-24 -4.712948e-05)	(-4.022605e-24 9.481054e-24 3.342862e-06)
1.503917e-07	(-2.139009e-24 4.620820e-24 -4.381902e-05)	(1.918223e-24 -4.944609e-24 -4.718938e-05)	(-4.057232e-24 9.565429e-24 3.370368e-06)
1.522549e-07	(-2.215235e-24 4.794968e-24 -4.385128e-05)	(1.920640e-24 -4.950841e-24 -4.724865e-05)	(-4.135876e-24 9.745810e-24 3.397369e-06)
1.541181e-07	(-2.236779e-24 4.851592e-24 -4.388330e-05)	(1.923033e-24 -4.957008e-24 -4.730730e-05)	(-4.159811e-24 9.808600e-24 3.423993e-06)
1.559813e-07	(-2.252657e-24 4.892533e-24 -4.391512e-05)	(1.925400e-24 -4.963110e-24 -4.736533e-05)	(-4.178057e-24 9.855643e-24 3.450212e-06)
1.578444e-07	(-2.297112e-24 4.996398e-24 -4.394670e-05)	(1.927743e-24 -4.969150e-24 -4.742276e-05)	(-4.224855e-24 9.965548e-24 3.476063e-06)
1.597076e-07	(-2.337629e-24 5.092320e-24 -4.397805e-05)	(1.930061e-24 -4.975127e-24 -4.747960e-05)	(-4.267690e-24 1.006745e-23 3.501548e-06)
1.615708e-07	(-2.471585e-24 5.393748e-24 -4.400917e-05)	(1.932356e-24 -4.981043e-24 -4.753585e-05)	(-4.403941e-24 1.037479e-23 3.526681e-06)
1.634381e-07	(-2.464741e-24 5.386014e-24 -4.404082e-05)	(1.934627e-24 -4.986896e-24 -4.759151e-05)	(-4.399368e-24 1.037291e-23 3.550692e-06)
1.653054e-07	(-2.492981e-24 5.455013e-24 -4.407101e-05)	(1.936875e-24 -4.992691e-24 -4.764661e-05)	(-4.429856e-24 1.044770e-23 3.575596e-06)
1.671728e-07	(-2.568816e-24 5.627833e-24 -4.410159e-05)	(1.939100e-24 -4.998427e-24 -4.770114e-05)	(-4.507916e-24 1.062626e-23 3.599547e-06)
1.690401e-07	(-2.636501e-24 5.783519e-24 -4.413162e-05)	(1.941302e-24 -5.004105e-24 -4.775512e-05)	(-4.577803e-24 1.078762e-23 3.623500e-06)
1.709116e-07	(-2.733437e-24 6.003808e-24 -4.416236e-05)	(1.943482e-24 -5.009724e-24 -4.780854e-05)	(-4.676919e-24 1.101353e-23 3.646183e-06)
1.727832e-07	(-2.739815e-24 6.027585e-24 -4.419157e-05)	(1.945640e-24 -5.015287e-24 -4.786143e-05)	(-4.685455e-24 1.104287e-23 3.669859e-06)
1.746589e-07	(-2.769015e-24 6.098883e-24 -4.422199e-05)	(1.947776e-24 -5.020793e-24 -4.791377e-05)	(-4.716791e-24 1.111968e-23 3.691782e-06)
1.765347e-07	(-2.833501e-24 6.250825e-24 -4.425062e-05)	(1.949891e-24 -5.026245e-24 -4.796559e-05)	(-4.783391e-24 1.127707e-23 3.714973e-06)
1.784148e-07	(-2.911558e-24 6.428543e-24 -4.428060e-05)	(1.951984e-24 -5.031641e-24 -4.801688e-05)	(-4.863542e-24 1.146018e-23 3.736283e-06)
1.802948e-07	(-3.028915e-24 6.693795e-24 -4.430873e-05)	(1.954057e-24 -5.036984e-24 -4.806766e-05)	(-4.982972e-24 1.173078e-23 3.758931e-06)
1.821706e-07	(-3.059743e-24 6.772303e-24 -4.433669e-05)	(1.956110e-24 -5.042276e-24 -4.811796e-05)	(-5.015853e-24 1.181458e-23 3.781272e-06)
1.840420e-07	(-3.108669e-24 6.885592e-24 -4.436449e-05)	(1.958143e-24 -5.047517e-24 -4.816778e-05)	(-5.066812e-24 1.193311e-23 3.803289e-06)
1.859092e-07	(-3.180435e-24 7.051832e-24 -4.439215e-05)	(1.960157e-24 -5.052709e-24 -4.821712e-05)	(-5.140592e-24 1.210454e-23 3.824973e-06)
1.877721e-07	(-3.253045e-24 7.220234e-24 -4.441966e-05)	(1.962151e-24 -5.057850e-24 -4.826598e-05)	(-5.215196e-24 1.227808e-23 3.846320e-06)
1.896350e-07	(-3.315328e-24 7.362929e-24 -4.444780e-05)	(1.964126e-24 -5.062941e-24 -4.831436e-05)	(-5.279454e-24 1.242587e-23 3.866565e-06)
1.914937e-07	(-3.367963e-24 7.488049e-24 -4.447456e-05)	(1.966082e-24 -5.067983e-24 -4.836228e-05)	(-5.334044e-24 1.255603e-23 3.887716e-06)
1.933523e-07	(-3.411487e-24 7.590939e-24 -4.450252e-05)	(1.968018e-24 -5.072976e-24 -4.840972e-05)	(-5.379505e-24 1.266391e-23 3.907202e-06)
1.952067e-07	(-3.483737e-24 7.758591e-24 -4.452881e-05)	(1.969937e-24 -5.077922e-24 -4.845672e-05)	(-5.453674e-24 1.283651e-23 3.927906e-06)
1.970610e-07	(-3.544656e-24 7.899899e-24 -4.455643e-05)	(1.971837e-24 -5.082819e-24 -4.850325e-05)	(-5.516493e-24 1.298272e-23 3.946813e-06)
1.989111e-07	(-3.588550e-24 8.007906e-24 -4.458233e-05)	(1.973718e-24 -5.087670e-24 -4.854934e-05)	(-5.562268e-24 1.309558e-23 3.967008e-06)
2.007612e-07	(-3.653100e-24 8.156424e-24 -4.460959e-05)	(1.975582e-24 -5.092473e-24 -4.859498e-05)	(-5.628682e-24 1.324890e-23 3.985392e-06)
2.026113e-07	(-3.742517e-24 8.362000e-24 -4.463588e-05)	(1.977427e-24 -5.097230e-24 -4.864018e-05)	(-5.719944e-24 1.345923e-23 4.004295e-06)
2.044614e-07	(-3.783668e-24 8.460982e-24 -4.466235e-05)	(1.979254e-24 -5.101941e-24 -4.868493e-05)	(-5.762923e-24 1.356292e-23 4.022586e-06)
2.063072e-07	(-3.842696e-24 8.597917e-24 -4.468765e-05)	(1.981065e-24 -5.106609e-24 -4.872928e-05)	(-5.823761e-24 1.370453e-23 4.041626e-06)
2.081530e-07	(-3.927817e-24 8.794038e-24 -4.471402e-05)	(1.982858e-24 -5.111231e-24 -4.877319e-05)	(-5.910674e-24 1.390527e-23 4.059167e-06)
2.099988e-07	(-3.948758e-24 8.848572e-24 -4.473960e-05)	(1.984634e-24 -5.115809e-24 -4.881668e-05)	(-5.933392e-24 1.396438e-23 4.077079e-06)
2.118446e-07	(-4.056336e-24 9.094561e-24 -4.476528e-05)	(1.986392e-24 -5.120342e-24 -4.885975e-05)	(-6.042728e-24 1.421490e-23 4.094466e-06)
2.136904e-07	(-4.138568e-24 9.283930e-24 -4.479061e-05)	(1.988134e-24 -5.124833e-24 -4.890240e-05)	(-6.126703e-24 1.440876e-23 4.111791e-06)
2.155362e-07	(-4.171615e-24 9.365387e-24 -4.481582e-05)	(1.989859e-24 -5.129280e-24 -4.894465e-05)	(-6.161475e-24 1.449467e-23 4.128830e-06)
2.173820e-07	(-4.214328e-24 9.466692e-24 -4.484080e-05)	(1.991568e-24 -5.133686e-24 -4.898649e-05)	(-6.205896e-24 1.460038e-23 4.145692e-06)
2.192278e-07	(-4.294521e-24 9.653021e-24 -4.486561e-05)	(1.993261e-24 -5.138049e-24 -4.902794e-05)	(-6.287782e-24 1.479107e-23 4.162327e-06)
2.210736e-07	(-4.362029e-24 9.810733e-24 -4.489023e-05)	(1.994937e-24 -5.142371e-24 -4.906899e-05)	(-6.356966e-24 1.495310e-23 4.178762e-06)
2.229194e-07	(-4.435603e-24 9.982027e-24 -4.491467e-05)	(1.996598e-24 -5.146653e-24 -4.910965e-05)	(-6.432201e-24 1.512868e-23 4.194985e-06)
2.247652e-07	(-4.488077e-24 1.010694e-23 -4.493893e-05)	(1.998243e-24 -5.150894e-24 -4.914993e-05)	(-6.486320e-24 1.525783e-23 4.211005e-06)
2.266110e-07	(-4.529884e-24 1.020862e-23 -4.496301e-05)	(1.999873e-24 -5.155095e-24 -4.918983e-05)	(-6.529757e-24 1.536371e-23 4.226822e-06)
2.284568e-07	(-4.590448e-24 1.035071e-23 -4.498691e-05)	(2.001487e-24 -5.159256e-24 -4.922935e-05)	(-6.591935e-24 1.550996e-23 4.242437e-06)
2.303026e-07	(-4.686752e-24 1.057118e-23 -4.501065e-05)	(2.003086e-24 -5.163379e-24 -4.926850e-05)	(-6.689838e-24 1.573456e-23 4.257853e-06)
2.321484e-07	(-4.764083e-24 1.075086e-23 -4.503689e-05)	(2.004670e-24 -5.167463e-24 -4.930728e-05)	(-6.768753e-24 1.591832e-23 4.270391e-06)
2.339942e-07	(-4.782877e-24 1.080200e-23 -4.506116e-05)	(2.006240e-24 -5.171509e-24 -4.934571e-05)	(-6.789116e-24 1.597351e-23 4.284546e-06)
2.358400e-07	(-4.862834e-24 1.098808e-23 -4.508548e-05)	(2.007795e-24 -5.175518e-24 -4.938377e-05)	(-6.870629e-24 1.616360e-23 4.298288e-06)
2.376902e-07	(-4.964589e-24 1.122078e-23 -4.510995e-05)	(2.009335e-24 -5.179487e-24 -4.942146e-05)	(-6.973924e-24 1.640027e-23 4.311512e-06)
2.395405e-07	(-4.976629e-24 1.125741e-23 -4.513306e-05)	(2.010860e-24 -5.183420e-24 -4.945881e-05)	(-6.987489e-24 1.644083e-23 4.325744e-06)
2.413908e-07	(-5.023167e-24 1.137025e-23 -4.515635e-05)	(2.012372e-24 -5.187317e-24 -4.949581e-05)	(-7.035539e-24 1.655757e-23 4.339452e-06)
2.432410e-07	(-5.110943e-24 1.157242e-23 -4.517918e-05)	(2.013869e-24 -5.191178e-24 -4.953246e-05)	(-7.124812e-24 1.676360e-23 4.353282e-06)
2.450913e-07	(-5.182510e-24 1.174111e-23 -4.520191e-05)	(2.015353e-24 -5.195003e-24 -4.956878e-05)	(-7.197864e-24 1.693612e-23 4.366869e-06)
2.469370e-07	(-5.243375e-24 1.188524e-23 -4.522359e-05)	(2.016824e-24 -5.198796e-24 -4.960479e-05)	(-7.260199e-24 1.708403e-23 4.381193e-06)
2.487828e-07	(-5.299735e-24 1.201854e-23 -4.524629e-05)	(2.018282e-24 -5.202553e-24 -4.964046e-05)	(-7.318016e-24 1.722109e-23 4.394169e-06)
2.506240e-07	(-5.338683e-24 1.211435e-23 -4.526750e-05)	(2.019727e-24 -5.206278e-24 -4.967582e-05)	(-7.358410e-24 1.732063e-23 4.408319e-06)
2.524652e-07	(-5.448050e-24 1.236319e-23 -4.528997e-05)	(2.021158e-24 -5.209969e-24 -4.971086e-05)	(-7.469208e-24 1.757315e-23 4.420890e-06)
2.543064e-07	(-5.496619e-24 1.247988e-23 -4.531164e-05)	(2.022577e-24 -5.213625e-24 -4.974556e-05)	(-7.519196e-24 1.769351e-23 4.433929e-06)
2.561431e-07	(-5.539958e-24 1.258449e-23 -4.533009e-05)	(2.023983e-24 -5.217251e-24 -4.977998e-05)	(-7.563941e-24 1.780174e-23 4.449885e-06)
2.579798e-07	(-5.613656e-24 1.275775e-23 -4.535367e-05)	(2.025376e-24 -5.220841e-24 -4.981406e-05)	(-7.639032e-24 1.797859e-23 4.460392e-06)
2.598165e-07	(-5.674611e-24 1.290028e-23 -4.537474e-05)	(2.026756e-24 -5.224400e-24 -4.984784e-05)	(-7.701367e-24 1.812468e-23 4.473100e-06)
2.616486e-07	(-5.752164e-24 1.308082e-23 -4.539321e-05)	(2.028124e-24 -5.227928e-24 -4.988133e-05)	(-7.780289e-24 1.830875e-23 4.488119e-06)
2.634808e-07	(-5.786447e-24 1.316672e-23 -4.541382e-05)	(2.029480e-24 -5.231423e-24 -4.991450e-05)	(-7.815927e-24 1.839814e-23 4.500682e-06)
2.653129e-07	(-5.857711e-24 1.333563e-23 -4.543378e-05)	(2.030823e-24 -5.234885e-24 -4.994736e-05)	(-7.888534e-24 1.857051e-23 4.513583e-06)
2.671450e-07	(-5.889393e-24 1.341514e-23 -4.545414e-05)	(2.032154e-24 -5.238315e-24 -4.997992e-05)	(-7.921546e-24 1.865346e-23 4.525780e-06)
2.689772e-07	(-5.936775e-24 1.353092e-23 -4.547427e-05)	(2.033472e-24 -5.241714e-24 -5.001217e-05)	(-7.970247e-24 1.877264e-23 4.537900e-06)
2.708047e-07	(-6.032732e-24 1.375109e-23 -4.549366e-05)	(2.034779e-24 -5.245085e-24 -5.004416e-05)	(-8.067511e-24 1.899617e-23 4.550500e-06)
2.726323e-07	(-6.077491e-24 1.386085e-23 -4.551405e-05)	(2.036074e-24 -5.248424e-24 -5.007585e-05)	(-8.113565e-24 1.910927e-23 4.561801e-06)
2.744598e-07	(-6.152564e-24 1.403664e-23 -4.553390e-05)	(2.037358e-24 -5.251732e-24 -5.010724e-05)	(-8.189922e-24 1.928837e-23 4.573342e-06)
2.762874e-07	(-6.209477e-24 1.417131e-23 -4.555387e-05)	(2.038629e-24 -5.255010e-24 -5.013835e-05)	(-8.248106e-24 1.942632e-23 4.584484e-06)
2.781149e-07	(-6.282120e-24 1.434206e-23 -4.557360e-05)	(2.039889e-24 -5.258258e-24 -5.016917e-05)	(-8.322009e-24 1.960032e-23 4.595567e-06)
2.799425e-07	(-6.385567e-24 1.457982e-23 -4.559327e-05)	(2.041137e-24 -5.261477e-24 -5.019971e-05)	(-8.426704e-24 1.984129e-23 4.606435e-06)
2.817701e-07	(-6.422752e-24 1.467270e-23 -4.561280e-05)	(2.042374e-24 -5.264666e-24 -5.022997e-05)	(-8.465127e-24 1.993736e-23 4.617170e-06)
2.835976e-07	(-6.478059e-24 1.480482e-23 -4.563221e-05)	(2.043600e-24 -5.267825e-24 -5.025995e-05)	(-8.521659e-24 2.007265e-23 4.627738e-06)
2.854252e-07	(-6.535603e-24 1.494223e-23 -4.565150e-05)	(2.044815e-24 -5.270957e-24 -5.028966e-05)	(-8.580417e-24 2.021319e-23 4.638161e-06)
2.872527e-07	(-6.588636e-24 1.507100e-23 -4.567066e-05)	(2.046018e-24 -5.274059e-24 -5.031910e-05)	(-8.634654e-24 2.034506e-23 4.648432e-06)
2.890803e-07	(-6.644695e-24 1.520247e-23 -4.568971e-05)	(2.047211e-24 -5.277134e-24 -5.034827e-05)	(-8.691905e-24 2.047961e-23 4.658560e-06)
2.909078e-07	(-6.745623e-24 1.543538e-23 -4.570863e-05)	(2.048392e-24 -5.280181e-24 -5.037717e-05)	(-8.794015e-24 2.071556e-23 4.668543e-06)
2.927354e-07	(-6.793182e-24 1.555178e-23 -4.572742e-05)	(2.049563e-24 -5.283200e-24 -5.040581e-05)	(-8.842745e-24 2.083498e-23 4.678385e-06)
2.945630e-07	(-6.855746e-24 1.569948e-23 -4.574610e-05)	(2.050724e-24 -5.286191e-24 -5.043419e-05)	(-8.906470e-24 2.098567e-23 4.688088e-06)
2.963905e-07	(-6.918336e-24 1.584885e-23 -4.576466e-05)	(2.051874e-24 -5.289156e-24 -5.046231e-05)	(-8.970210e-24 2.113801e-23 4.697654e-06)
2.982181e-07	(-6.991594e-24 1.602041e-23 -4.578309e-05)	(2.053013e-24 -5.292093e-24 -5.049018e-05)	(-9.044607e-24 2.131251e-23 4.707084e-06)
3.000456e-07	(-7.051530e-24 1.616408e-23 -4.580141e-05)	(2.054142e-24 -5.295005e-24 -5.051779e-05)	(-9.105672e-24 2.145909e-23 4.716381e-06)
3.018732e-07	(-7.085605e-24 1.625042e-23 -4.581961e-05)	(2.055261e-24 -5.297889e-24 -5.054516e-05)	(-9.140866e-24 2.154831e-23 4.725545e-06)
3.037007e-07	(-7.166200e-24 1.643826e-23 -4.583769e-05)	(2.056370e-24 -5.300748e-24 -5.057227e-05)	(-9.222569e-24 2.173901e-23 4.734579e-06)
3.055283e-07	(-7.221780e-24 1.657158e-23 -4.585566e-05)	(2.057469e-24 -5.303581e-24 -5.059914e-05)	(-9.279249e-24 2.187516e-23 4.743484e-06)
3.073559e-07	(-7.301225e-24 1.675774e-23 -4.587351e-05)	(2.058558e-24 -5.306388e-24 -5.062577e-05)	(-9.359782e-24 2.206413e-23 4.752262e-06)
3.091834e-07	(-7.354489e-24 1.688516e-23 -4.588950e-05)	(2.059637e-24 -5.309170e-24 -5.065215e-05)	(-9.414126e-24 2.219433e-23 4.762656e-06)
3.110110e-07	(-7.424967e-24 1.705268e-23 -4.590607e-05)	(2.060706e-24 -5.311927e-24 -5.067829e-05)	(-9.485673e-24 2.236461e-23 4.772226e-06)
3.128337e-07	(-7.492149e-24 1.721252e-23 -4.592188e-05)	(2.061766e-24 -5.314661e-24 -5.070423e-05)	(-9.553915e-24 2.252719e-23 4.782346e-06)
3.146564e-07	(-7.576162e-24 1.740901e-23 -4.593892e-05)	(2.062817e-24 -5.317370e-24 -5.072992e-05)	(-9.638979e-24 2.272638e-23 4.790999e-06)
3.164791e-07	(-7.642617e-24 1.756736e-23 -4.595553e-05)	(2.063858e-24 -5.320055e-24 -5.075537e-05)	(-9.706475e-24 2.288741e-23 4.799841e-06)
3.182970e-07	(-7.704139e-24 1.771253e-23 -4.597155e-05)	(2.064891e-24 -5.322718e-24 -5.078062e-05)	(-9.769030e-24 2.303525e-23 4.809076e-06)
3.201149e-07	(-7.779643e-24 1.788991e-23 -4.598821e-05)	(2.065902e-24 -5.325324e-24 -5.080534e-05)	(-9.845545e-24 2.321524e-23 4.817123e-06)
3.219328e-07	(-7.836712e-24 1.802644e-23 -4.600667e-05)	(2.066909e-24 -5.327920e-24 -5.082994e-05)	(-9.903621e-24 2.335436e-23 4.823272e-06)
3.237506e-07	(-7.902296e-24 1.818163e-23 -4.601784e-05)	(2.067896e-24 -5.330464e-24 -5.085407e-05)	(-9.970192e-24 2.351209e-23 4.836229e-06)
3.255636e-07	(-7.966287e-24 1.833418e-23 -4.603802e-05)	(2.068869e-24 -5.332973e-24 -5.087785e-05)	(-1.003516e-23 2.366715e-23 4.839827e-06)
3.273766e-07	(-8.066698e-24 1.856716e-23 -4.605008e-05)	(2.069841e-24 -5.335479e-24 -5.090160e-05)	(-1.013654e-23 2.390264e-23 4.851528e-06)
3.291896e-07	(-8.128248e-24 1.871490e-23 -4.606446e-05)	(2.070796e-24 -5.337941e-24 -5.092493e-05)	(-1.019904e-23 2.405284e-23 4.860470e-06)
3.310026e-07	(-8.194621e-24 1.887314e-23 -4.608356e-05)	(2.071737e-24 -5.340368e-24 -5.094794e-05)	(-1.026636e-23 2.421351e-23 4.864376e-06)
3.328156e-07	(-8.263823e-24 1.903639e-23 -4.609565e-05)	(2.072667e-24 -5.342765e-24 -5.097064e-05)	(-1.033649e-23 2.437916e-23 4.874989e-06)
3.346286e-07	(-8.327412e-24 1.918772e-23 -4.611143e-05)	(2.073585e-24 -5.345131e-24 -5.099307e-05)	(-1.040100e-23 2.453285e-23 4.881633e-06)
3.364416e-07	(-8.395985e-24 1.935089e-23 -4.612527e-05)	(2.074492e-24 -5.347471e-24 -5.101523e-05)	(-1.047048e-23 2.469836e-23 4.889966e-06)
3.382546e-07	(-8.447539e-24 1.947554e-23 -4.613994e-05)	(2.075390e-24 -5.349785e-24 -5.103715e-05)	(-1.052293e-23 2.482533e-23 4.897217e-06)
3.400627e-07	(-8.513274e-24 1.963291e-23 -4.615330e-05)	(2.076279e-24 -5.352078e-24 -5.105887e-05)	(-1.058955e-23 2.498499e-23 4.905569e-06)
3.418707e-07	(-8.586470e-24 1.980566e-23 -4.616793e-05)	(2.077159e-24 -5.354347e-24 -5.108036e-05)	(-1.066363e-23 2.516001e-23 4.912425e-06)
3.436788e-07	(-8.632984e-24 1.992015e-23 -4.618203e-05)	(2.078030e-24 -5.356592e-24 -5.110162e-05)	(-1.071101e-23 2.527674e-23 4.919593e-06)
3.454868e-07	(-8.709224e-24 2.009786e-23 -4.619628e-05)	(2.078892e-24 -5.358814e-24 -5.112267e-05)	(-1.078812e-23 2.545667e-23 4.926381e-06)
3.472949e-07	(-8.780844e-24 2.026796e-23 -4.621036e-05)	(2.079745e-24 -5.361015e-24 -5.114350e-05)	(-1.086059e-23 2.562897e-23 4.933139e-06)
3.491029e-07	(-8.843310e-24 2.041576e-23 -4.622442e-05)	(2.080590e-24 -5.363193e-24 -5.116412e-05)	(-1.092390e-23 2.577895e-23 4.939701e-06)
3.509110e-07	(-8.908989e-24 2.057281e-23 -4.623839e-05)	(2.081426e-24 -5.365350e-24 -5.118454e-05)	(-1.099042e-23 2.593816e-23 4.946154e-06)
3.527190e-07	(-8.974157e-24 2.073056e-23 -4.625230e-05)	(2.082255e-24 -5.367486e-24 -5.120476e-05)	(-1.105641e-23 2.609805e-23 4.952459e-06)
3.545271e-07	(-9.042902e-24 2.089313e-23 -4.626614e-05)	(2.083075e-24 -5.369601e-24 -5.122479e-05)	(-1.112598e-23 2.626273e-23 4.958641e-06)
3.563351e-07	(-9.121679e-24 2.107942e-23 -4.627992e-05)	(2.083888e-24 -5.371696e-24 -5.124461e-05)	(-1.120557e-23 2.645111e-23 4.964693e-06)
3.581432e-07	(-9.184405e-24 2.122940e-23 -4.629363e-05)	(2.084692e-24 -5.373771e-24 -5.126425e-05)	(-1.126910e-23 2.660317e-23 4.970623e-06)
3.599512e-07	(-9.239169e-24 2.136293e-23 -4.630727e-05)	(2.085489e-24 -5.375825e-24 -5.128370e-05)	(-1.132466e-23 2.673876e-23 4.976431e-06)
3.617593e-07	(-9.320742e-24 2.155487e-23 -4.632084e-05)	(2.086279e-24 -5.377861e-24 -5.130296e-05)	(-1.140702e-23 2.693273e-23 4.982120e-06)
3.635673e-07	(-9.394272e-24 2.172908e-23 -4.633435e-05)	(2.087061e-24 -5.379877e-24 -5.132204e-05)	(-1.148133e-23 2.710896e-23 4.987694e-06)
3.653754e-07	(-9.433493e-24 2.182969e-23 -4.634778e-05)	(2.087835e-24 -5.381874e-24 -5.134094e-05)	(-1.152133e-23 2.721156e-23 4.993154e-06)
3.671834e-07	(-9.518404e-24 2.202786e-23 -4.636115e-05)	(2.088602e-24 -5.383853e-24 -5.135965e-05)	(-1.160701e-23 2.741171e-23 4.998503e-06)
3.689915e-07	(-9.590981e-24 2.220084e-23 -4.637445e-05)	(2.089363e-24 -5.385812e-24 -5.137819e-05)	(-1.168034e-23 2.758665e-23 5.003743e-06)
3.707995e-07	(-9.678874e-24 2.240572e-23 -4.638768e-05)	(2.090115e-24 -5.387754e-24 -5.139656e-05)	(-1.176899e-23 2.779347e-23 5.008876e-06)
3.726075e-07	(-9.751830e-24 2.257807e-23 -4.640085e-05)	(2.090861e-24 -5.389677e-24 -5.141475e-05)	(-1.184269e-23 2.796775e-23 5.013904e-06)
3.744156e-07	(-9.815054e-24 2.273039e-23 -4.641394e-05)	(2.091600e-24 -5.391582e-24 -5.143277e-05)	(-1.190665e-23 2.812197e-23 5.018829e-06)
3.762184e-07	(-9.885651e-24 2.289924e-23 -4.642615e-05)	(2.092334e-24 -5.393473e-24 -5.145066e-05)	(-1.197798e-23 2.829271e-23 5.024514e-06)
3.780213e-07	(-9.963136e-24 2.308307e-23 -4.643940e-05)	(2.093060e-24 -5.395346e-24 -5.146838e-05)	(-1.205620e-23 2.847842e-23 5.028977e-06)
3.798241e-07	(-1.003104e-23 2.324480e-23 -4.645225e-05)	(2.093780e-24 -5.397202e-24 -5.148593e-05)	(-1.212482e-23 2.864200e-23 5.033677e-06)
3.816269e-07	(-1.009806e-23 2.340481e-23 -4.646519e-05)	(2.094493e-24 -5.399041e-24 -5.150331e-05)	(-1.219255e-23 2.880385e-23 5.038128e-06)
3.834245e-07	(-1.017187e-23 2.357989e-23 -4.647715e-05)	(2.095201e-24 -5.400866e-24 -5.152058e-05)	(-1.226707e-23 2.898075e-23 5.043428e-06)
3.852221e-07	(-1.025422e-23 2.377373e-23 -4.649018e-05)	(2.095902e-24 -5.402674e-24 -5.153767e-05)	(-1.235012e-23 2.917641e-23 5.047486e-06)
3.870197e-07	(-1.031101e-23 2.391153e-23 -4.650281e-05)	(2.096597e-24 -5.404465e-24 -5.155461e-05)	(-1.240760e-23 2.931599e-23 5.051801e-06)
3.888173e-07	(-1.038719e-23 2.409099e-23 -4.651551e-05)	(2.097285e-24 -5.406240e-24 -5.157138e-05)	(-1.248447e-23 2.949723e-23 5.055871e-06)
3.906149e-07	(-1.046612e-23 2.427709e-23 -4.652806e-05)	(2.097967e-24 -5.407998e-24 -5.158800e-05)	(-1.256409e-23 2.968508e-23 5.059939e-06)
3.924125e-07	(-1.052962e-23 2.443012e-23 -4.654058e-05)	(2.098642e-24 -5.409739e-24 -5.160447e-05)	(-1.262826e-23 2.983986e-23 5.063888e-06)
3.942101e-07	(-1.058837e-23 2.457110e-23 -4.655300e-05)	(2.099311e-24 -5.411465e-24 -5.162078e-05)	(-1.268768e-23 2.998256e-23 5.067776e-06)