/*--------------------------------*- C++ -*----------------------------------*\
| =========                 |                                                 |
| \\      /  F ield         | OpenFOAM: The Open Source CFD Toolbox           |
|  \\    /   O peration     | Version:  v1706                                 |
|   \\  /    A nd           | Web:      www.OpenFOAM.com                      |
|    \\/     M anipulation  |                                                 |
\*---------------------------------------------------------------------------*/
FoamFile
{
    version     2.0;
    format      ascii;
    class       volScalarField;
    location    "3.6e-05";
    object      p;
}
// * * * * * * * * * * * * * * * * * * * * * * * * * * * * * * * * * * * * * //

dimensions      [1 -1 -2 0 0 0 0];


internalField   nonuniform List<scalar> 
30104
(
21.9139
21.9139
21.9139
21.9139
21.9139
21.9139
21.9139
21.9139
21.9139
21.9139
21.9139
21.9139
21.9139
21.9139
21.9139
21.9139
21.9139
21.9139
21.9139
21.9139
21.9139
21.9139
21.9139
21.9139
21.9139
21.9139
21.9139
21.9139
21.9139
21.9139
21.9139
21.9139
21.9139
21.9139
21.9139
21.9139
21.9139
21.9139
21.9139
21.9139
21.9139
21.9139
21.9139
21.9139
21.9139
21.9139
21.9139
21.9139
21.9139
21.9139
21.9139
21.9139
21.9139
21.9139
21.9139
21.9139
21.9139
21.9139
21.9139
21.9139
21.9139
21.9139
21.9139
21.9139
21.9139
21.9139
21.9139
21.9139
21.9139
21.9139
21.9139
21.9139
21.9139
21.9139
21.9139
21.9139
21.9139
21.9139
21.9139
21.9139
21.9139
21.9139
21.9139
21.9139
21.9139
21.9139
21.9139
21.9139
21.9139
21.9139
21.9139
21.9139
21.9139
21.9139
21.9139
21.9139
21.9139
21.9139
21.9139
21.9139
21.9139
21.9139
21.9139
21.9139
21.9139
21.9139
21.9139
21.9139
21.9139
21.9139
21.9139
21.9139
21.9139
21.9139
21.9139
21.9139
21.9139
21.9139
21.9139
21.9139
21.9139
21.9139
21.9139
21.9139
21.9139
21.9139
21.9139
21.9139
21.9139
21.9139
21.9139
21.9139
21.9139
21.9139
21.9139
21.9139
21.9139
21.9139
21.9139
21.9139
21.9139
21.9139
21.9139
21.9139
21.9139
21.9139
21.9139
21.9139
21.9139
21.9139
21.9139
21.9139
21.9139
21.9139
21.9139
21.9139
21.9139
21.9139
21.9139
21.9139
21.9139
21.9139
21.9139
21.9139
21.9139
21.9139
21.9139
21.9139
21.9139
21.9139
21.9139
21.9139
21.9139
21.9139
21.9139
21.9139
21.9139
21.9139
21.9139
21.9139
21.9139
21.9139
21.9139
21.9139
21.9139
21.9139
21.9139
21.9139
21.9139
21.9139
21.9139
21.9139
21.9139
21.9139
21.9139
21.9139
21.9139
21.9139
21.9139
21.9139
21.9139
21.9139
21.9139
21.9139
21.9139
21.9139
21.9139
21.9139
21.9139
21.9139
21.9139
21.9139
21.9139
21.9139
21.9139
21.9139
21.9139
21.9139
21.9139
21.9139
21.9139
21.9139
21.9139
21.9139
21.9139
21.9139
21.9139
21.9139
21.9139
21.9139
21.9139
21.9139
21.9139
21.9139
21.9139
21.9139
21.9139
21.9139
21.9139
21.9139
21.9139
21.9139
21.9139
21.9139
21.9139
21.9139
21.9139
21.9139
21.9139
21.9139
21.9139
21.9139
21.9139
21.9139
21.9139
21.9139
21.9139
21.9139
21.9139
21.9139
21.9139
21.9139
21.9139
21.9139
21.9139
21.9139
21.9139
21.9139
21.9139
21.9139
21.9139
21.9139
21.9139
21.9139
21.9139
21.9139
21.9139
21.9139
21.9139
21.9139
21.9139
21.9139
21.9139
21.9139
21.9139
21.9139
21.9139
21.9139
21.9139
21.9139
21.9139
21.9139
21.9139
21.9139
21.9139
21.9139
21.9139
21.9139
21.9139
21.9139
21.9139
21.9139
21.9139
21.9139
21.9139
21.9139
21.9139
21.9139
21.9139
21.9139
21.9139
21.9139
21.9139
21.9139
21.9139
21.9139
21.9139
21.9139
21.9139
21.9139
21.9139
21.9139
21.9139
21.9139
21.9139
21.9139
21.9139
21.9139
21.9139
21.9139
21.9139
21.9139
21.9139
21.9139
21.9139
21.9139
21.9139
21.9139
21.9139
21.9139
21.9139
21.9139
21.9139
21.9139
21.9139
21.9139
21.9139
21.9139
21.9139
21.9139
21.9139
21.9139
21.9139
21.9139
21.9139
21.9139
21.9139
21.9139
21.9139
21.9139
21.9139
21.9139
21.9139
21.9139
21.9139
21.9139
21.9139
21.9139
21.9139
21.9139
21.9139
21.9139
21.9139
21.9139
21.9139
21.9139
21.9139
21.9139
21.9139
21.9139
21.9139
21.9139
21.9139
21.9139
21.9139
21.9139
21.9139
21.9139
21.9139
21.9139
21.9139
21.9139
21.9139
21.9139
21.9139
21.9139
21.9139
21.9139
21.9139
21.9139
21.9139
21.9139
21.9139
21.9139
21.9139
21.9139
21.9139
21.9139
21.9139
21.9139
21.9139
21.9139
21.9139
21.9139
21.9139
21.9139
21.9139
21.9139
21.9139
21.9139
21.9139
21.9139
21.9139
21.9139
21.9139
21.9139
21.9139
21.9139
21.9139
21.9139
21.9139
21.9139
21.9139
21.9139
21.9139
21.9139
21.9139
21.9139
21.9139
21.9139
21.9139
21.9139
21.9139
21.9139
21.9139
21.9139
21.9139
21.9139
21.9139
21.9139
21.9139
21.9139
21.9139
21.9139
21.9139
21.9139
21.9139
21.9139
21.9139
21.9139
21.9139
21.9139
21.9139
21.9139
21.9139
21.9139
21.9139
21.9139
21.9139
21.9139
21.9139
21.9139
21.9139
21.9139
21.9139
21.9139
21.9139
21.9139
21.9139
21.9139
21.9139
21.9139
21.9139
21.9139
21.9139
21.9139
21.9139
21.9139
21.9139
21.9139
21.9139
21.9139
21.9139
21.9139
21.9139
21.9139
21.9139
21.9139
21.9139
21.9139
21.9139
21.9139
21.9139
21.9139
21.9139
21.9139
21.9139
21.9139
21.9139
21.9139
21.9139
21.9139
21.9139
21.9139
21.9139
21.9139
21.9139
21.9139
21.9139
21.9139
21.9139
21.9139
21.9139
21.9139
21.9139
21.9139
21.9139
21.9139
21.9139
21.9139
21.9139
21.9139
21.9139
21.9139
21.9139
21.9139
21.9139
21.9139
21.9139
21.9139
21.9139
21.9139
21.9139
21.9139
21.9139
21.9139
21.9139
21.9139
21.9139
21.9139
21.9139
21.9139
21.9139
21.9139
21.9139
21.9139
21.9139
21.9139
21.9139
21.9139
21.9139
21.9139
21.9139
21.9139
21.9139
21.9139
21.9139
21.9139
21.9139
21.9139
21.9139
21.9139
21.9139
21.9139
21.9139
21.9139
21.9139
21.9139
21.9139
21.9139
21.9139
21.9139
21.9139
21.9139
21.9139
21.9139
21.9139
21.9139
21.9139
21.9139
21.9139
21.9139
21.9139
21.9139
21.9139
21.9139
21.9139
21.9139
21.9139
21.9139
21.9139
21.9139
21.9139
21.9139
21.9139
21.9139
21.9139
21.9139
21.9139
21.9139
21.9139
21.9139
21.9139
21.9139
21.9139
21.9139
21.9139
21.9139
21.9139
21.9139
21.9139
21.9139
21.9139
21.9139
21.9139
21.9139
21.9139
21.9139
21.9139
21.9139
21.9139
21.9139
21.9139
21.9139
21.9139
21.9139
21.9139
21.9139
21.9139
21.9139
21.9139
21.9139
21.9139
21.9139
21.9139
21.9139
21.9139
21.9139
21.9139
21.9139
21.9139
21.9139
21.9139
21.9139
21.9139
21.9139
21.9139
21.9139
21.9139
21.9139
21.9139
21.9139
21.9139
21.9139
21.9139
21.9139
21.9139
21.9139
21.9139
21.9139
21.9139
21.9139
21.9139
21.9139
21.9139
21.9139
21.9139
21.9139
21.9139
21.9139
21.9139
21.9139
21.9139
21.9139
21.9139
21.9139
21.9139
21.9139
21.9139
21.9139
21.9139
21.9139
21.9139
21.9139
21.9139
21.9139
21.9139
21.9139
21.9139
21.9139
21.9139
21.9139
21.9139
21.9139
21.9139
21.9139
21.9139
21.9139
21.9139
21.9139
21.9139
21.9139
21.9139
21.9139
21.9139
21.9139
21.9139
21.9139
21.9139
21.9139
21.9139
21.9139
21.9139
21.9139
21.9139
21.9139
21.9139
21.9139
21.9139
21.9139
21.9139
21.9139
21.9139
21.9139
21.9139
21.9139
21.9139
21.9139
21.9139
21.9139
21.9139
21.9139
21.9139
21.9139
21.9139
21.9139
21.9139
21.9139
21.9139
21.9139
21.9139
21.9139
21.9139
21.9139
21.9139
21.9139
21.9139
21.9139
21.9139
21.9139
21.9139
21.9139
21.9139
21.9139
21.9139
21.9139
21.9139
21.9139
21.9139
21.9139
21.9139
21.9139
21.9139
21.9139
21.9139
21.9139
21.9139
21.9139
21.9139
21.9139
21.9139
21.9139
21.9139
21.9139
21.9139
21.9139
21.9139
21.9139
21.9139
21.9139
21.9139
21.9139
21.9139
21.9139
21.9139
21.9139
21.9139
21.9139
21.9139
21.9139
21.9139
21.9139
21.9139
21.9139
21.9139
21.9139
21.9139
21.9139
21.9139
21.9139
21.9139
21.9139
21.9139
21.9139
21.9139
21.9139
21.9139
21.9139
21.9139
21.9139
21.9139
21.9139
21.9139
21.9139
21.9139
21.9139
21.9139
21.9139
21.9139
21.9139
21.9139
21.9139
21.9139
21.9139
21.9139
21.9139
21.9139
21.9139
21.9139
21.9139
21.9139
21.9139
21.9139
21.9139
21.9139
21.9139
21.9139
21.9139
21.9139
21.9139
21.9139
21.9139
21.9139
21.9139
21.9139
21.9139
21.9139
21.9139
21.9139
21.9139
21.9139
21.9139
21.9139
21.9139
21.9139
21.9139
21.9139
21.9139
21.9139
21.9139
21.9139
21.9139
21.9139
21.9139
21.9139
21.9139
21.9139
21.9139
21.9139
21.9139
21.9139
21.9139
21.9139
21.9139
21.9139
21.9139
21.9139
21.9139
21.9139
21.9139
21.9139
21.9139
21.9139
21.9139
21.9139
21.9139
21.9139
21.9139
21.9139
21.9139
21.9139
21.9139
21.9139
21.9139
21.9139
21.9139
21.9139
21.9139
21.9139
21.9139
21.9139
21.9139
21.9139
21.9139
21.9139
21.9139
21.9139
21.9139
21.9139
21.9139
21.9139
21.9139
21.9139
21.9139
21.9139
21.9139
21.9139
21.9139
21.9139
21.9139
21.9139
21.9139
21.9139
21.9139
21.9139
21.9139
21.9139
21.9139
21.9139
21.9139
21.9139
21.9139
21.9139
21.9139
21.9139
21.9139
21.9139
21.9139
21.9139
21.9139
21.9139
21.9139
21.9139
21.9139
21.9139
21.9139
21.9139
21.9139
21.9139
21.9139
21.9139
21.9139
21.9139
21.9139
21.9139
21.9139
21.9139
21.9139
21.9139
21.9139
21.9139
21.9139
21.9139
21.9139
21.9139
21.9139
21.9139
21.9139
21.9139
21.9139
21.9139
21.9139
21.9139
21.9139
21.9139
21.9139
21.9139
21.9139
21.9139
21.9139
21.9139
21.9139
21.9139
21.9139
21.9139
21.9139
21.9139
21.9139
21.9139
21.9139
21.9139
21.9139
21.9139
21.9139
21.9139
21.9139
21.9139
21.9139
21.9139
21.9139
21.9139
21.9139
21.9139
21.9139
21.9139
21.9139
21.9139
21.9139
21.9139
21.9139
21.9139
21.9139
21.9139
21.9139
21.9139
21.9139
21.9139
21.9139
21.9139
21.9139
21.9139
21.9139
21.9139
21.9139
21.9139
21.9139
21.9139
21.9139
21.9139
21.9139
21.9139
21.9139
21.9139
21.9139
21.9139
21.9139
21.9139
21.9139
21.9139
21.9139
21.9139
21.9139
21.9139
21.9139
21.9139
21.9139
21.9139
21.9139
21.9139
21.9139
21.9139
21.9139
21.9139
21.9139
21.9139
21.9139
21.9139
21.9139
21.9139
21.9139
21.9139
21.9139
21.9139
21.9139
21.9139
21.9139
21.9139
21.9139
21.9139
21.9139
21.9139
21.9139
21.9139
21.9139
21.9139
21.9139
21.9139
21.9139
21.9139
21.9139
21.9139
21.9139
21.9139
21.9139
21.9139
21.9139
21.9139
21.9139
21.9139
21.9139
21.9139
21.9139
21.9139
21.9139
21.9139
21.9139
21.9139
21.9139
21.9139
21.9139
21.9139
21.9139
21.9139
21.9139
21.9139
21.9139
21.9139
21.9139
21.9139
21.9139
21.9139
21.9139
21.9139
21.9139
21.9139
21.9139
21.9139
21.9139
21.9139
21.9139
21.9139
21.9139
21.9139
21.9139
21.9139
21.9139
21.9139
21.9139
21.9139
21.9139
21.9139
21.9139
21.9139
21.9139
21.9139
21.9139
21.9139
21.9139
21.9139
21.9139
21.9139
21.9139
21.9139
21.9139
21.9139
21.9139
21.9139
21.9139
21.9139
21.9139
21.9139
21.9139
21.9139
21.9139
21.9139
21.9139
21.9139
21.9139
21.9139
21.9139
21.9139
21.9139
21.9139
21.9139
21.9139
21.9139
21.9139
21.9139
21.9139
21.9139
21.9139
21.9139
21.9139
21.9139
21.9139
21.9139
21.9139
21.9139
21.9139
21.9139
21.9139
21.9139
21.9139
21.9139
21.9139
21.9139
21.9139
21.9139
21.9139
21.9139
21.9139
21.9139
21.9139
21.9139
21.9139
21.9139
21.9139
21.9139
21.9139
21.9139
21.9139
21.9139
21.9139
21.9139
21.9139
21.9139
21.9139
21.9139
21.9139
21.9139
21.9139
21.9139
21.9139
21.9139
21.9139
21.9139
21.9139
21.9139
21.9139
21.9139
21.9139
21.9139
21.9139
21.9139
21.9139
21.9139
21.9139
21.9139
21.9139
21.9139
21.9139
21.9139
21.9139
21.9139
21.9139
21.9139
21.9139
21.9139
21.9139
21.9139
21.9139
21.9139
21.9139
21.9139
21.9139
21.9139
21.9139
21.9139
21.9139
21.9139
21.9139
21.9139
21.9139
21.9139
21.9139
21.9139
21.9139
21.9139
21.9139
21.9139
21.9139
21.9139
21.9139
21.9139
21.9139
21.9139
21.9139
21.9139
21.9139
21.9139
21.9139
21.9139
21.9139
21.9139
21.9139
21.9139
21.9139
21.9139
21.9139
21.9139
21.9139
21.9139
21.9139
21.9139
21.9139
21.9139
21.9139
21.9139
21.9139
21.9139
21.9139
21.9139
21.9139
21.9139
21.9139
21.9139
21.9139
21.9139
21.9139
21.9139
21.9139
21.9139
21.9139
21.9139
21.9139
21.9139
21.9139
21.9139
21.9139
21.9139
21.9139
21.9139
21.9139
21.9139
21.9139
21.9139
21.9139
21.9139
21.9139
21.9139
21.9139
21.9139
21.9139
21.9139
21.9139
21.9139
21.9139
21.9139
21.9139
21.9139
21.9139
21.9139
21.9139
21.9139
21.9139
21.9139
21.9139
21.9139
21.9139
21.9139
21.9139
21.9139
21.9139
21.9139
21.9139
21.9139
21.9139
21.9139
21.9139
21.9139
21.9139
21.9139
21.9139
21.9139
21.9139
21.9139
21.9139
21.9139
21.9139
21.9139
21.9139
21.9139
21.9139
21.9139
21.9139
21.9139
21.9139
21.9139
21.9139
21.9139
21.9139
21.9139
21.9139
21.9139
21.9139
21.9139
21.9139
21.9139
21.9139
21.9139
21.9139
21.9139
21.9139
21.9139
21.9139
21.9139
21.9139
21.9139
21.9139
21.9139
21.9139
21.9139
21.9139
21.9139
21.9139
21.9139
21.9139
21.9139
21.9139
21.9139
21.9139
21.9139
21.9139
21.9139
21.9139
21.9139
21.9139
21.9139
21.9139
21.9139
21.9139
21.9139
21.9139
21.9139
21.9139
21.9139
21.9139
21.9139
21.9139
21.9139
21.9139
21.9139
21.9139
21.9139
21.9139
21.9139
21.9139
21.9139
21.9139
21.9139
21.9139
21.9139
21.9139
21.9139
21.9139
21.9139
21.9139
21.9139
21.9139
21.9139
21.9139
21.9139
21.9139
21.9139
21.9139
21.9139
21.9139
21.9139
21.9139
21.9139
21.9139
21.9139
21.9139
21.9139
21.9139
21.9139
21.9139
21.9139
21.9139
21.9139
21.9139
21.9139
21.9139
21.9139
21.9139
21.9139
21.9139
21.9139
21.9139
21.9139
21.9139
21.9139
21.9139
21.9139
21.9139
21.9139
21.9139
21.9139
21.9139
21.9139
21.9139
21.9139
21.9139
21.9139
21.9139
21.9139
21.9139
21.9139
21.9139
21.9139
21.9139
21.9139
21.9139
21.9139
21.9139
21.9139
21.9139
21.9139
21.9139
21.9139
21.9139
21.9139
21.9139
21.9139
21.9139
21.9139
21.9139
21.9139
21.9139
21.9139
21.9139
21.9139
21.9139
21.9139
21.9139
21.9139
21.9139
21.9139
21.9139
21.9139
21.914
21.914
21.914
21.914
21.914
21.914
21.914
21.914
21.914
21.914
21.914
21.914
21.914
21.9141
21.9141
21.9141
21.9141
21.9141
21.9141
21.9141
21.9141
21.9141
21.9141
21.9141
21.9141
21.9141
21.9141
21.9141
21.9141
21.9141
21.9141
21.9141
21.9141
21.9141
21.9141
21.9141
21.9141
21.9141
21.9141
21.9141
21.9141
21.9141
21.9141
21.9141
21.9141
21.9141
21.9141
21.9141
21.9141
21.9141
21.914
21.914
21.914
21.914
21.914
21.914
21.914
21.914
21.914
21.914
21.914
21.914
21.914
21.914
21.9139
21.9139
21.9139
21.9139
21.9139
21.9139
21.9139
21.9139
21.9139
21.9139
21.9139
21.9139
21.9139
21.9139
21.9139
21.9139
21.9139
21.9139
21.9139
21.9139
21.9139
21.9139
21.9139
21.9139
21.9139
21.9139
21.9139
21.9139
21.9139
21.9139
21.9139
21.9139
21.9139
21.9139
21.9139
21.9139
21.9139
21.9139
21.9139
21.9139
21.9139
21.9139
21.9139
21.9139
21.9139
21.9139
21.9139
21.9139
21.9139
21.9139
21.9139
21.9139
21.9139
21.9139
21.9139
21.9139
21.9139
21.9139
21.9139
21.9139
21.9139
21.9139
21.9139
21.9139
21.9139
21.9139
21.9139
21.9139
21.9139
21.9139
21.9139
21.9139
21.9139
21.9139
21.9139
21.9139
21.9139
21.9139
21.9139
21.9139
21.9139
21.9139
21.9139
21.9139
21.9139
21.9139
21.9139
21.9139
21.9139
21.9139
21.9139
21.9139
21.9139
21.9139
21.9139
21.9139
21.9139
21.9139
21.9139
21.9139
21.9139
21.9139
21.9139
21.9139
21.9139
21.9139
21.9139
21.9139
21.9139
21.9139
21.9139
21.9139
21.9139
21.9139
21.9139
21.9139
21.9139
21.9139
21.9139
21.9139
21.9139
21.9139
21.9139
21.9139
21.9139
21.9139
21.9139
21.9139
21.9139
21.914
21.914
21.914
21.914
21.914
21.914
21.914
21.914
21.9141
21.9141
21.9141
21.9141
21.9142
21.9142
21.9142
21.9143
21.9143
21.9144
21.9144
21.9145
21.9145
21.9146
21.9146
21.9147
21.9147
21.9148
21.9149
21.9149
21.915
21.9151
21.9152
21.9152
21.9153
21.9154
21.9154
21.9154
21.9155
21.9155
21.9155
21.9155
21.9155
21.9155
21.9155
21.9155
21.9154
21.9154
21.9154
21.9154
21.9154
21.9154
21.9153
21.9153
21.9153
21.9153
21.9152
21.9152
21.9152
21.9151
21.9151
21.9151
21.915
21.915
21.915
21.9149
21.9149
21.9148
21.9148
21.9148
21.9147
21.9147
21.9146
21.9146
21.9145
21.9145
21.9144
21.9144
21.9143
21.9143
21.9142
21.9142
21.9142
21.9141
21.9141
21.9141
21.9141
21.914
21.914
21.914
21.914
21.914
21.914
21.914
21.9139
21.9139
21.9139
21.9139
21.9139
21.9139
21.9139
21.9139
21.9139
21.9139
21.9139
21.9139
21.9139
21.9139
21.9139
21.9139
21.9139
21.9139
21.9139
21.9139
21.9139
21.9139
21.9139
21.9139
21.9139
21.9139
21.9139
21.9139
21.9139
21.9139
21.9139
21.9139
21.9139
21.9139
21.9139
21.9139
21.9139
21.9139
21.9139
21.9139
21.9139
21.9139
21.9139
21.9139
21.9139
21.9139
21.9139
21.9139
21.9139
21.9139
21.9139
21.9139
21.9139
21.9139
21.9139
21.9139
21.9139
21.9139
21.9139
21.9139
21.9139
21.9139
21.9139
21.9139
21.9139
21.9139
21.9139
21.9139
21.9139
21.9139
21.9139
21.9139
21.9139
21.9139
21.9139
21.9139
21.9139
21.9139
21.9139
21.9139
21.9139
21.9139
21.9139
21.9139
21.9139
21.9139
21.9139
21.9139
21.9139
21.9139
21.9139
21.9139
21.9139
21.9139
21.9139
21.9139
21.9139
21.9139
21.9139
21.9139
21.914
21.914
21.914
21.914
21.914
21.914
21.914
21.914
21.914
21.9141
21.9141
21.9141
21.9141
21.9142
21.9142
21.9143
21.9143
21.9144
21.9144
21.9145
21.9146
21.9147
21.9148
21.9149
21.915
21.9152
21.9153
21.9156
21.9158
21.9161
21.9164
21.9167
21.917
21.9173
21.9176
21.9179
21.9181
21.9184
21.9188
21.9191
21.9195
21.92
21.9205
21.921
21.9215
21.922
21.9224
21.9228
21.9231
21.9234
21.9236
21.9238
21.9239
21.9239
21.9239
21.9239
21.9239
21.9239
21.9238
21.9237
21.9236
21.9235
21.9234
21.9233
21.9232
21.9231
21.9229
21.9228
21.9226
21.9225
21.9223
21.9221
21.922
21.9218
21.9215
21.9213
21.9211
21.9208
21.9206
21.9203
21.92
21.9197
21.9194
21.9191
21.9188
21.9185
21.9181
21.9178
21.9175
21.9172
21.9169
21.9166
21.9163
21.9161
21.9159
21.9157
21.9155
21.9153
21.9152
21.915
21.9149
21.9148
21.9147
21.9146
21.9145
21.9144
21.9143
21.9142
21.9142
21.9141
21.9141
21.914
21.914
21.914
21.914
21.914
21.914
21.9139
21.9139
21.9139
21.9139
21.9139
21.9139
21.9139
21.9139
21.9139
21.9139
21.9139
21.9139
21.9139
21.9139
21.9139
21.9139
21.9139
21.9139
21.9139
21.9139
21.9139
21.9139
21.9139
21.9139
21.9139
21.9139
21.9139
21.9139
21.9139
21.9139
21.9139
21.9139
21.9139
21.9139
21.9139
21.9139
21.9139
21.9139
21.9139
21.9139
21.9139
21.9139
21.9139
21.9139
21.9139
21.9139
21.9139
21.9139
21.9139
21.9139
21.9139
21.9139
21.9139
21.9139
21.9139
21.9139
21.9139
21.9139
21.9139
21.9139
21.9139
21.9139
21.9139
21.9139
21.9139
21.9139
21.9139
21.9139
21.9139
21.9139
21.9139
21.9139
21.9139
21.9139
21.9139
21.914
21.914
21.914
21.914
21.914
21.914
21.914
21.914
21.914
21.9141
21.9141
21.9141
21.9141
21.9142
21.9142
21.9142
21.9143
21.9143
21.9144
21.9144
21.9145
21.9146
21.9147
21.9148
21.9149
21.915
21.9152
21.9153
21.9155
21.9157
21.916
21.9163
21.9167
21.9172
21.9176
21.9182
21.9187
21.9193
21.92
21.9208
21.9217
21.9228
21.9241
21.9256
21.9273
21.929
21.9309
21.9328
21.9346
21.9365
21.9382
21.94
21.9418
21.9438
21.9462
21.949
21.9522
21.9556
21.959
21.9624
21.9655
21.9683
21.9708
21.9729
21.9747
21.976
21.977
21.9777
21.9781
21.9782
21.9782
21.9781
21.9779
21.9775
21.9771
21.9766
21.976
21.9754
21.9747
21.974
21.9733
21.9725
21.9717
21.9708
21.9698
21.9688
21.9677
21.9666
21.9653
21.964
21.9626
21.9611
21.9595
21.9578
21.956
21.9542
21.9523
21.9503
21.9483
21.9461
21.944
21.9417
21.9395
21.9373
21.9351
21.933
21.9311
21.9293
21.9278
21.9264
21.9252
21.9241
21.9231
21.9222
21.9213
21.9205
21.9197
21.919
21.9182
21.9176
21.917
21.9164
21.916
21.9157
21.9154
21.9151
21.9149
21.9148
21.9146
21.9145
21.9143
21.9143
21.9142
21.9141
21.9141
21.914
21.914
21.914
21.914
21.914
21.9139
21.9139
21.9139
21.9139
21.9139
21.9139
21.9139
21.9139
21.9139
21.9139
21.9139
21.9139
21.9139
21.9139
21.9139
21.9139
21.9139
21.9139
21.9139
21.9139
21.9139
21.9139
21.9139
21.9139
21.9139
21.9139
21.9139
21.9139
21.9139
21.9139
21.9139
21.9139
21.9139
21.9139
21.9139
21.9139
21.9139
21.9139
21.9139
21.9139
21.9139
21.9139
21.9139
21.9139
21.9139
21.9139
21.9139
21.9139
21.9139
21.9139
21.9139
21.9139
21.9139
21.9139
21.914
21.914
21.914
21.914
21.914
21.914
21.914
21.9141
21.9141
21.9141
21.9141
21.9142
21.9142
21.9142
21.9143
21.9143
21.9144
21.9144
21.9145
21.9146
21.9147
21.9148
21.9149
21.915
21.9152
21.9153
21.9155
21.9157
21.916
21.9162
21.9165
21.9169
21.9174
21.9179
21.9185
21.9191
21.9198
21.9206
21.9214
21.9224
21.9235
21.9248
21.9265
21.9284
21.9307
21.9332
21.9361
21.9391
21.9424
21.946
21.9499
21.9546
21.9604
21.9676
21.9761
21.9858
21.9964
22.0076
22.0192
22.0308
22.0422
22.0533
22.0639
22.0743
22.0849
22.097
22.1114
22.1283
22.1472
22.1671
22.1874
22.2071
22.2256
22.2424
22.2572
22.2698
22.2802
22.2882
22.2942
22.2983
22.3008
22.3019
22.3022
22.3017
22.3006
22.2991
22.297
22.2944
22.2912
22.2877
22.284
22.2802
22.2761
22.2718
22.2672
22.2622
22.2568
22.251
22.2448
22.2379
22.2306
22.2226
22.2141
22.205
22.1954
22.1852
22.1744
22.1631
22.1513
22.1389
22.126
22.1127
22.099
22.0851
22.071
22.0571
22.044
22.0319
22.021
22.0112
22.0025
21.9947
21.9876
21.981
21.9749
21.969
21.9634
21.958
21.9527
21.9476
21.9427
21.9381
21.934
21.9305
21.9276
21.9253
21.9235
21.9219
21.9206
21.9195
21.9185
21.9176
21.9168
21.9162
21.9157
21.9154
21.9151
21.9149
21.9147
21.9145
21.9144
21.9143
21.9142
21.9141
21.9141
21.914
21.914
21.914
21.914
21.9139
21.9139
21.9139
21.9139
21.9139
21.9139
21.9139
21.9139
21.9139
21.9139
21.9139
21.9139
21.9139
21.9139
21.9139
21.9139
21.9139
21.9139
21.9139
21.9139
21.9139
21.9139
21.9139
21.9139
21.9139
21.9139
21.9139
21.9139
21.9139
21.9139
21.9139
21.9139
21.9139
21.9139
21.9139
21.9139
21.9139
21.9139
21.9139
21.9139
21.9139
21.9139
21.9139
21.9139
21.9139
21.9139
21.9139
21.9144
21.9145
21.9145
21.9146
21.9147
21.9148
21.9149
21.915
21.9152
21.9154
21.9155
21.9157
21.916
21.9162
21.9165
21.9168
21.9172
21.9177
21.9182
21.9188
21.9195
21.9203
21.9212
21.9221
21.9232
21.9243
21.9256
21.9272
21.929
21.9311
21.9337
21.9366
21.9399
21.9435
21.9475
21.9518
21.9566
21.962
21.9686
21.9768
21.9868
21.9989
22.0129
22.0285
22.0456
22.064
22.0833
22.1039
22.1269
22.1544
22.1886
22.2305
22.2802
22.3367
22.3986
22.464
22.5314
22.5991
22.6658
22.7305
22.7926
22.8526
22.9138
22.9851
23.0756
23.186
23.31
23.4399
23.5693
23.6933
23.808
23.911
24.0012
24.0781
24.1413
24.1907
24.2273
24.2529
24.2697
24.2786
24.2822
24.2811
24.2766
24.2698
24.2605
24.2474
24.2311
24.2126
24.1926
24.1716
24.1495
24.1261
24.101
24.0737
24.0437
24.0109
23.9751
23.9358
23.8928
23.8459
23.7953
23.7407
23.6823
23.6199
23.5534
23.483
23.4087
23.3304
23.2481
23.1623
23.0738
22.9831
22.8904
22.7991
22.7136
22.6367
22.5695
22.5112
22.4603
22.4149
22.3734
22.3343
22.2969
22.2606
22.2252
22.1906
22.1568
22.1239
22.0923
22.0632
22.0379
22.0172
22.0007
21.9874
21.9764
21.967
21.9588
21.9513
21.9444
21.9384
21.9332
21.9291
21.9259
21.9235
21.9217
21.9202
21.9189
21.9179
21.917
21.9163
21.9158
21.9154
21.9151
21.9148
21.9146
21.9145
21.9143
21.9142
21.9142
21.9141
21.9141
21.914
21.914
21.914
21.914
21.9139
21.9139
21.9139
21.9139
21.9139
21.9139
21.9139
21.9139
21.9139
21.9139
21.9139
21.9139
21.9139
21.9139
21.9139
21.9139
21.9139
21.9139
21.9139
21.9139
21.9139
21.9139
21.9139
21.9139
21.9139
21.9139
21.9139
21.9139
21.9139
21.9139
21.9139
21.9139
21.9139
21.9139
21.9139
21.9139
21.9139
21.9139
21.9166
21.9169
21.9173
21.9177
21.9181
21.9186
21.9192
21.92
21.9208
21.9217
21.9228
21.924
21.9253
21.9267
21.9282
21.93
21.9321
21.9345
21.9374
21.9407
21.9445
21.9488
21.9536
21.9588
21.9645
21.9708
21.978
21.9866
21.9972
22.0099
22.0249
22.0422
22.0615
22.0826
22.1054
22.1299
22.1565
22.1869
22.224
22.2701
22.3267
22.3943
22.4725
22.5602
22.6563
22.7591
22.8678
22.9828
23.1104
23.2687
23.4749
23.734
24.0399
24.3818
24.7479
25.1275
25.5112
25.8909
26.2603
26.6152
26.9537
27.2758
27.598
27.9721
28.445
29.0075
29.6261
30.2679
30.9069
31.52
32.0856
32.5918
33.0361
33.417
33.7308
33.9767
34.1598
34.2913
34.3827
34.4405
34.4667
34.4714
34.462
34.4406
34.4101
34.3645
34.2986
34.2186
34.1332
34.0415
33.9437
33.8394
33.7268
33.6021
33.4624
33.3077
33.1369
32.9462
32.7339
32.501
32.2465
31.969
31.6691
31.3459
30.9976
30.6254
30.2305
29.8117
29.3689
28.905
28.4245
27.9302
27.4248
26.943
26.514
26.1411
25.8159
25.5277
25.2663
25.0232
24.7915
24.5663
24.3445
24.1239
23.9039
23.6851
23.4681
23.2539
23.0447
22.8503
22.6843
22.552
22.4497
22.3695
22.3036
22.2468
22.1956
22.1482
22.1045
22.0658
22.034
22.0096
21.9912
21.9772
21.9659
21.9563
21.948
21.9406
21.9345
21.9297
21.9261
21.9236
21.9216
21.9201
21.9188
21.9177
21.9168
21.9161
21.9157
21.9153
21.915
21.9148
21.9146
21.9145
21.9144
21.9143
21.9142
21.9141
21.9141
21.9141
21.9141
21.914
21.914
21.914
21.914
21.914
21.914
21.914
21.914
21.914
21.914
21.9139
21.9139
21.9139
21.9139
21.9139
21.9139
21.9139
21.9139
21.914
21.914
21.9139
21.9139
21.9139
21.9139
21.9139
21.9139
21.9139
21.9139
21.9139
21.9139
21.928
21.9297
21.9316
21.9336
21.936
21.9387
21.9419
21.9457
21.95
21.9549
21.9604
21.9665
21.9732
21.9806
21.9888
21.9982
22.0095
22.0231
22.0394
22.0584
22.08
22.1041
22.1306
22.1592
22.19
22.2238
22.2626
22.3094
22.3665
22.435
22.5155
22.6077
22.7109
22.8241
22.9463
23.0772
23.2188
23.3819
23.5884
23.8556
24.1885
24.5828
25.0303
25.5219
26.0479
26.6007
27.1742
27.7675
28.4137
29.2118
30.2411
31.5071
32.9742
34.5918
36.3085
38.0771
39.8571
41.6169
43.3311
44.9814
46.5582
48.0604
49.5218
51.3157
54.2029
57.9614
62.1529
66.4733
70.7864
74.9893
78.9419
82.5534
85.8123
88.7025
91.1755
93.207
94.814
96.0715
97.0596
97.8255
98.3756
98.7317
98.9781
99.1397
99.225
99.1656
98.9519
98.6734
98.328
97.9274
97.4967
97.0089
96.4596
95.8264
95.056
94.1448
93.1218
91.9425
90.5638
89.0249
87.3308
85.4387
83.3624
81.1103
78.6432
75.9854
73.1631
70.1346
66.9013
63.521
60.0509
56.5186
52.8157
49.4915
46.846
44.7631
43.0719
41.629
40.3276
39.0954
37.8894
36.6877
35.483
34.2727
33.0588
31.8467
30.6406
29.4452
28.2719
27.205
26.342
25.6812
25.1669
24.7443
24.3763
24.0404
23.7241
23.4219
23.1346
22.8761
22.6658
22.5087
22.3949
22.3096
22.2411
22.182
22.1289
22.082
22.0434
22.0143
21.9933
21.978
21.9661
21.9562
21.9475
21.94
21.9338
21.9291
21.9258
21.9234
21.9216
21.9202
21.919
21.918
21.9171
21.9164
21.9159
21.9156
21.9153
21.9152
21.915
21.9149
21.9148
21.9147
21.9146
21.9145
21.9145
21.9144
21.9144
21.9143
21.9143
21.9143
21.9143
21.9142
21.9142
21.9143
21.9143
21.9143
21.9143
21.9143
21.9144
21.9139
21.9139
21.9139
21.9139
21.9139
21.9139
21.9139
21.9139
21.9139
21.993
22.0024
22.0128
22.0249
22.0392
22.0563
22.0765
22.0999
22.1265
22.1561
22.1886
22.224
22.2623
22.3048
22.3539
22.4127
22.4833
22.567
22.6643
22.7749
22.8983
23.0335
23.1796
23.3369
23.5085
23.7092
23.9608
24.2771
24.6602
25.1053
25.6053
26.1526
26.7398
27.3616
28.0148
28.7074
29.4928
30.4839
31.7415
33.2697
35.0471
37.0404
39.2099
41.5188
43.9377
46.4451
49.0318
51.7734
55.6246
61.587
69.4093
78.6045
88.787
99.6733
111.038
122.664
134.343
145.959
157.477
168.782
179.68
190.165
199.846
207.937
214.699
220.421
225.453
229.983
233.91
237.117
239.72
241.995
243.852
245.152
245.989
246.519
246.899
247.239
247.499
247.632
247.679
247.653
247.544
247.382
247.168
246.803
246.343
245.97
245.543
245.027
244.495
244.013
243.414
242.637
241.854
241.006
239.933
238.769
237.59
236.188
234.568
232.879
230.968
228.706
226.201
223.472
220.578
217.51
213.936
209.802
205.242
200.54
195.295
189.02
181.683
173.588
165.098
156.33
147.319
138.048
128.585
118.987
109.094
99.0573
89.1115
79.2697
69.6539
60.2618
52.077
46.3576
42.5351
39.8003
37.6043
35.6643
33.8522
32.113
30.4288
28.813
27.3783
26.2709
25.4748
24.8887
24.4222
24.0194
23.6518
23.3087
22.9963
22.7379
22.5474
22.4151
22.3208
22.2475
22.1854
22.1301
22.0814
22.0418
22.0127
21.9926
21.9783
21.9673
21.9581
21.9501
21.9429
21.9368
21.9318
21.9281
21.9257
21.924
21.9229
21.9219
21.9211
21.9204
21.9197
21.9191
21.9186
21.9182
21.9178
21.9174
21.9171
21.9169
21.9167
21.9166
21.9166
21.9166
21.9166
21.9167
21.9168
21.917
21.9174
21.9175
21.914
21.914
22.3095
22.3563
22.4084
22.4687
22.5402
22.6251
22.7245
22.8392
22.969
23.1137
23.2724
23.4448
23.6315
23.8379
24.0818
24.3844
24.7575
25.2016
25.7115
26.2801
26.9001
27.5646
28.2688
29.0107
29.8069
30.7274
31.868
33.2637
34.9113
36.7917
38.8796
41.1469
43.569
46.1266
48.8161
51.6422
54.8143
59.6593
66.6822
75.6
86.089
97.9234
110.893
124.789
139.502
154.901
170.628
186.581
201.986
216.104
229.205
241.398
252.571
262.596
271.372
278.78
284.962
290.077
294.036
297.05
299.487
301.831
304.083
306.144
308.008
309.564
310.637
311.199
311.509
311.676
311.535
311.24
310.86
310.404
309.841
309.326
308.86
308.455
308.059
307.595
307.097
306.623
306.139
305.619
305.123
304.763
304.468
303.896
303.22
302.698
302.202
301.583
300.908
300.344
299.735
298.929
298.163
297.467
296.603
295.728
294.956
294.089
292.99
291.963
290.968
289.771
288.384
286.676
284.675
283.337
282.199
280.8
278.873
276.512
273.76
270.579
266.994
262.947
258.591
253.855
249.018
244.07
239.106
234.024
228.256
221.983
214.916
206.221
195.494
182.517
168.014
152.802
137.431
122.292
107.406
92.7306
78.5863
65.1759
53.6753
46.112
41.4593
38.3473
35.9254
33.7905
31.7856
29.8739
28.1163
26.7058
25.7157
25.0299
24.5145
24.0847
23.6986
23.3411
23.016
22.7466
22.5519
22.4221
22.3325
22.2637
22.2052
22.153
22.1061
22.0655
22.0329
22.0098
21.9948
21.9848
21.9774
21.9712
21.9658
21.9608
21.9564
21.9524
21.9488
21.9457
21.9429
21.9406
21.9387
21.937
21.9357
21.9349
21.9346
21.9347
21.935
21.9355
21.9366
21.9384
21.9412
21.9424
23.7799
23.9969
24.2391
24.5265
24.8785
25.3045
25.8044
26.3735
27.0056
27.6942
28.4339
29.2208
30.0563
30.9662
32.0307
33.3257
34.8729
36.6667
38.6898
40.9188
43.3308
45.9051
48.6258
51.4972
54.5267
58.2017
63.7436
71.1874
80.2565
90.6998
102.358
115.087
128.721
143.2
158.422
174.15
190.299
205.668
219.879
233.288
246.287
258.775
270.328
280.762
290.144
298.351
305.37
311.406
316.23
319.642
322.25
324.673
326.942
328.913
330.541
331.787
332.746
333.415
333.79
333.687
333.108
332.252
331.378
330.687
329.71
328.437
327.019
325.976
325.037
323.853
322.262
321.018
320.146
319.196
317.906
316.827
316.012
315.274
314.645
314.058
313.404
312.761
312.18
311.598
311.005
310.515
310.195
309.676
309.028
308.508
308.099
307.458
306.835
306.406
305.866
305.106
304.536
303.993
303.21
302.556
302.116
301.438
300.588
299.944
299.14
298.161
297.299
296.611
296.067
295.108
294.106
293.312
292.522
291.696
290.99
290.248
289.288
288.466
287.33
285.887
284.337
282.572
280.779
278.881
276.97
274.982
272.447
270.654
269.159
266.667
262.633
256.84
250.008
242.947
235.711
228.488
220.435
210.288
197.507
181.525
163.498
144.736
126.018
107.765
90.4096
74.2687
59.7493
49.1662
42.9985
39.2677
36.5771
34.293
32.1816
30.1865
28.3505
26.8494
25.8175
25.1349
24.6389
24.2307
23.8656
23.5289
23.2206
22.9471
22.7202
22.5574
22.4552
22.3902
22.3427
22.3031
22.2677
22.2356
22.2064
22.1801
22.1568
22.1362
22.1183
22.103
22.0903
22.0797
22.0712
22.0661
22.0652