/*--------------------------------*- C++ -*----------------------------------*\
| =========                 |                                                 |
| \\      /  F ield         | OpenFOAM: The Open Source CFD Toolbox           |
|  \\    /   O peration     | Version:  v1706                                 |
|   \\  /    A nd           | Web:      www.OpenFOAM.com                      |
|    \\/     M anipulation  |                                                 |
\*---------------------------------------------------------------------------*/
FoamFile
{
    version     2.0;
    format      ascii;
    class       volScalarField;
    location    "3.6e-05";
    object      Tov;
}
// * * * * * * * * * * * * * * * * * * * * * * * * * * * * * * * * * * * * * //

dimensions      [0 0 0 1 0 0 0];


internalField   nonuniform List<scalar> 
30104
(
144.4
144.4
144.4
144.4
144.4
144.4
144.4
144.4
144.4
144.4
144.4
144.4
144.4
144.4
144.4
144.4
144.4
144.4
144.4
144.4
144.4
144.4
144.4
144.4
144.4
144.4
144.4
144.4
144.4
144.4
144.4
144.4
144.4
144.4
144.4
144.4
144.4
144.4
144.4
144.4
144.4
144.4
144.4
144.4
144.4
144.4
144.4
144.4
144.4
144.4
144.4
144.4
144.4
144.4
144.4
144.4
144.4
144.4
144.4
144.4
144.4
144.4
144.4
144.4
144.4
144.4
144.4
144.4
144.4
144.4
144.4
144.4
144.4
144.4
144.4
144.4
144.4
144.4
144.4
144.4
144.4
144.4
144.4
144.4
144.4
144.4
144.4
144.4
144.4
144.4
144.4
144.4
144.4
144.4
144.4
144.4
144.4
144.4
144.4
144.4
144.4
144.4
144.4
144.4
144.4
144.4
144.4
144.4
144.4
144.4
144.4
144.4
144.4
144.4
144.4
144.4
144.4
144.4
144.4
144.4
144.4
144.4
144.4
144.4
144.4
144.4
144.4
144.4
144.4
144.4
144.4
144.4
144.4
144.4
144.4
144.4
144.4
144.4
144.4
144.4
144.4
144.4
144.4
144.4
144.4
144.4
144.4
144.4
144.4
144.4
144.4
144.4
144.4
144.4
144.4
144.4
144.4
144.4
144.4
144.4
144.4
144.4
144.4
144.4
144.4
144.4
144.4
144.4
144.4
144.4
144.4
144.4
144.4
144.4
144.4
144.4
144.4
144.4
144.4
144.4
144.4
144.4
144.4
144.4
144.4
144.4
144.4
144.4
144.4
144.4
144.4
144.4
144.4
144.4
144.4
144.4
144.4
144.4
144.4
144.4
144.4
144.4
144.4
144.4
144.4
144.4
144.4
144.4
144.4
144.4
144.4
144.4
144.4
144.4
144.4
144.4
144.4
144.4
144.4
144.4
144.4
144.4
144.4
144.4
144.4
144.4
144.4
144.4
144.4
144.4
144.4
144.4
144.4
144.4
144.4
144.4
144.4
144.4
144.4
144.4
144.4
144.4
144.4
144.4
144.4
144.4
144.4
144.4
144.4
144.4
144.4
144.4
144.4
144.4
144.4
144.4
144.4
144.4
144.4
144.4
144.4
144.4
144.4
144.4
144.4
144.4
144.4
144.4
144.4
144.4
144.4
144.4
144.4
144.4
144.4
144.4
144.4
144.4
144.4
144.4
144.4
144.4
144.4
144.4
144.4
144.4
144.4
144.4
144.4
144.4
144.4
144.4
144.4
144.4
144.4
144.4
144.4
144.4
144.4
144.4
144.4
144.4
144.4
144.4
144.4
144.4
144.4
144.4
144.4
144.4
144.4
144.4
144.4
144.4
144.4
144.4
144.4
144.4
144.4
144.4
144.4
144.4
144.4
144.4
144.4
144.4
144.4
144.4
144.4
144.4
144.4
144.4
144.4
144.4
144.4
144.4
144.4
144.4
144.4
144.4
144.4
144.4
144.4
144.4
144.4
144.4
144.4
144.4
144.4
144.4
144.4
144.4
144.4
144.4
144.4
144.4
144.4
144.4
144.4
144.4
144.4
144.4
144.4
144.4
144.4
144.4
144.4
144.4
144.4
144.4
144.4
144.4
144.4
144.4
144.4
144.4
144.4
144.4
144.4
144.4
144.4
144.4
144.4
144.4
144.4
144.4
144.4
144.4
144.4
144.4
144.4
144.4
144.4
144.4
144.4
144.4
144.4
144.4
144.4
144.4
144.4
144.4
144.4
144.4
144.4
144.4
144.4
144.4
144.4
144.4
144.4
144.4
144.4
144.4
144.4
144.4
144.4
144.4
144.4
144.4
144.4
144.4
144.4
144.4
144.4
144.4
144.4
144.4
144.4
144.4
144.4
144.4
144.4
144.4
144.4
144.4
144.4
144.4
144.4
144.4
144.4
144.4
144.4
144.4
144.4
144.4
144.4
144.4
144.4
144.4
144.4
144.4
144.4
144.4
144.4
144.4
144.4
144.4
144.4
144.4
144.4
144.4
144.4
144.4
144.4
144.4
144.4
144.4
144.4
144.4
144.4
144.4
144.4
144.4
144.4
144.4
144.4
144.4
144.4
144.4
144.4
144.4
144.4
144.4
144.4
144.4
144.4
144.4
144.4
144.4
144.4
144.4
144.4
144.4
144.4
144.4
144.4
144.4
144.4
144.4
144.4
144.4
144.4
144.4
144.4
144.4
144.4
144.4
144.4
144.4
144.4
144.4
144.4
144.4
144.4
144.4
144.4
144.4
144.4
144.4
144.4
144.4
144.4
144.4
144.4
144.4
144.4
144.4
144.4
144.4
144.4
144.4
144.4
144.4
144.4
144.4
144.4
144.4
144.4
144.4
144.4
144.4
144.4
144.4
144.4
144.4
144.4
144.4
144.4
144.4
144.4
144.4
144.4
144.4
144.4
144.4
144.4
144.4
144.4
144.4
144.4
144.4
144.4
144.4
144.4
144.4
144.4
144.4
144.4
144.4
144.4
144.4
144.4
144.4
144.4
144.4
144.4
144.4
144.4
144.4
144.4
144.4
144.4
144.4
144.4
144.4
144.4
144.4
144.4
144.4
144.4
144.4
144.4
144.4
144.4
144.4
144.4
144.4
144.4
144.4
144.4
144.4
144.4
144.4
144.4
144.4
144.4
144.4
144.4
144.4
144.4
144.4
144.4
144.4
144.4
144.4
144.4
144.4
144.4
144.4
144.4
144.4
144.4
144.4
144.4
144.4
144.4
144.4
144.4
144.4
144.4
144.4
144.4
144.4
144.4
144.4
144.4
144.4
144.4
144.4
144.4
144.4
144.4
144.4
144.4
144.4
144.4
144.4
144.4
144.4
144.4
144.4
144.4
144.4
144.4
144.4
144.4
144.4
144.4
144.4
144.4
144.4
144.4
144.4
144.4
144.4
144.4
144.4
144.4
144.4
144.4
144.4
144.4
144.4
144.4
144.4
144.4
144.4
144.4
144.4
144.4
144.4
144.4
144.4
144.4
144.4
144.4
144.4
144.4
144.4
144.4
144.4
144.4
144.4
144.4
144.4
144.4
144.4
144.4
144.4
144.4
144.4
144.4
144.4
144.4
144.4
144.4
144.4
144.4
144.4
144.4
144.4
144.4
144.4
144.4
144.4
144.4
144.4
144.4
144.4
144.4
144.4
144.4
144.4
144.4
144.4
144.4
144.4
144.4
144.4
144.4
144.4
144.4
144.4
144.4
144.4
144.4
144.4
144.4
144.4
144.4
144.4
144.4
144.4
144.4
144.4
144.4
144.4
144.4
144.4
144.4
144.4
144.4
144.4
144.4
144.4
144.4
144.4
144.4
144.4
144.4
144.4
144.4
144.4
144.4
144.4
144.4
144.4
144.4
144.4
144.4
144.4
144.4
144.4
144.4
144.4
144.4
144.4
144.4
144.4
144.4
144.4
144.4
144.4
144.4
144.4
144.4
144.4
144.4
144.4
144.4
144.4
144.4
144.4
144.4
144.4
144.4
144.4
144.4
144.4
144.4
144.4
144.4
144.4
144.4
144.4
144.4
144.4
144.4
144.4
144.4
144.4
144.4
144.4
144.4
144.4
144.4
144.4
144.4
144.4
144.4
144.4
144.4
144.4
144.4
144.4
144.4
144.4
144.4
144.4
144.4
144.4
144.4
144.4
144.4
144.4
144.4
144.4
144.4
144.4
144.4
144.4
144.4
144.4
144.4
144.4
144.4
144.4
144.4
144.4
144.4
144.4
144.4
144.4
144.4
144.4
144.4
144.4
144.4
144.4
144.4
144.4
144.4
144.4
144.4
144.4
144.4
144.4
144.4
144.4
144.4
144.4
144.4
144.4
144.4
144.4
144.4
144.4
144.4
144.4
144.4
144.4
144.4
144.4
144.4
144.4
144.4
144.4
144.4
144.4
144.4
144.4
144.4
144.4
144.4
144.4
144.4
144.4
144.4
144.4
144.4
144.4
144.4
144.4
144.4
144.4
144.4
144.4
144.4
144.4
144.4
144.4
144.4
144.4
144.4
144.4
144.4
144.4
144.4
144.4
144.4
144.4
144.4
144.4
144.4
144.4
144.4
144.4
144.4
144.4
144.4
144.4
144.4
144.4
144.4
144.4
144.4
144.4
144.4
144.4
144.4
144.4
144.4
144.4
144.4
144.4
144.4
144.4
144.4
144.4
144.4
144.4
144.4
144.4
144.4
144.4
144.4
144.4
144.4
144.4
144.4
144.4
144.4
144.4
144.4
144.4
144.4
144.4
144.4
144.4
144.4
144.4
144.4
144.4
144.4
144.4
144.4
144.4
144.4
144.4
144.4
144.4
144.4
144.4
144.4
144.4
144.4
144.4
144.4
144.4
144.4
144.4
144.4
144.4
144.4
144.4
144.4
144.4
144.4
144.4
144.4
144.4
144.4
144.4
144.4
144.4
144.4
144.4
144.4
144.4
144.4
144.4
144.4
144.4
144.4
144.4
144.4
144.4
144.4
144.4
144.4
144.4
144.4
144.4
144.4
144.4
144.4
144.4
144.4
144.4
144.4
144.4
144.4
144.4
144.4
144.4
144.4
144.4
144.4
144.4
144.4
144.4
144.4
144.4
144.4
144.4
144.4
144.4
144.4
144.4
144.4
144.4
144.4
144.4
144.4
144.4
144.4
144.4
144.4
144.4
144.4
144.4
144.4
144.4
144.4
144.4
144.4
144.4
144.4
144.4
144.4
144.4
144.4
144.4
144.4
144.4
144.4
144.4
144.4
144.4
144.4
144.4
144.4
144.4
144.4
144.4
144.4
144.4
144.4
144.4
144.4
144.4
144.4
144.4
144.4
144.4
144.4
144.4
144.4
144.4
144.4
144.4
144.4
144.4
144.4
144.4
144.4
144.4
144.4
144.4
144.4
144.4
144.4
144.4
144.4
144.4
144.4
144.4
144.4
144.4
144.4
144.4
144.4
144.4
144.4
144.4
144.4
144.4
144.4
144.4
144.4
144.4
144.4
144.4
144.4
144.4
144.4
144.4
144.4
144.4
144.4
144.4
144.4
144.4
144.4
144.4
144.4
144.4
144.4
144.4
144.4
144.4
144.4
144.4
144.4
144.4
144.4
144.4
144.4
144.4
144.4
144.4
144.4
144.4
144.4
144.4
144.4
144.4
144.4
144.4
144.4
144.4
144.4
144.4
144.4
144.4
144.4
144.4
144.4
144.4
144.4
144.4
144.4
144.4
144.4
144.4
144.4
144.4
144.4
144.4
144.4
144.4
144.4
144.4
144.4
144.4
144.4
144.4
144.4
144.4
144.4
144.4
144.4
144.4
144.4
144.4
144.4
144.4
144.4
144.4
144.4
144.4
144.4
144.4
144.4
144.4
144.4
144.4
144.4
144.4
144.4
144.4
144.4
144.4
144.4
144.4
144.4
144.4
144.4
144.4
144.4
144.4
144.4
144.4
144.4
144.4
144.4
144.4
144.4
144.4
144.4
144.4
144.4
144.4
144.4
144.4
144.4
144.4
144.4
144.4
144.4
144.4
144.4
144.4
144.4
144.4
144.4
144.4
144.4
144.4
144.4
144.4
144.4
144.4
144.4
144.4
144.4
144.4
144.4
144.4
144.4
144.4
144.4
144.4
144.4
144.4
144.4
144.4
144.4
144.4
144.4
144.4
144.4
144.4
144.4
144.4
144.4
144.4
144.4
144.4
144.4
144.4
144.4
144.4
144.4
144.4
144.4
144.4
144.4
144.4
144.4
144.4
144.4
144.4
144.4
144.4
144.4
144.4
144.4
144.4
144.4
144.4
144.4
144.4
144.4
144.4
144.4
144.4
144.4
144.4
144.4
144.4
144.4
144.4
144.4
144.4
144.4
144.4
144.4
144.4
144.4
144.4
144.4
144.4
144.4
144.4
144.4
144.4
144.4
144.4
144.4
144.4
144.4
144.4
144.4
144.4
144.4
144.4
144.4
144.4
144.4
144.4
144.4
144.4
144.4
144.4
144.4
144.4
144.4
144.4
144.4
144.4
144.4
144.4
144.4
144.4
144.4
144.4
144.4
144.4
144.4
144.4
144.4
144.4
144.4
144.4
144.4
144.4
144.4
144.4
144.4
144.4
144.4
144.4
144.4
144.4
144.4
144.4
144.4
144.4
144.4
144.4
144.4
144.4
144.4
144.4
144.4
144.4
144.4
144.4
144.4
144.4
144.4
144.4
144.4
144.4
144.4
144.4
144.4
144.4
144.4
144.4
144.4
144.4
144.4
144.4
144.4
144.4
144.4
144.4
144.4
144.4
144.4
144.4
144.4
144.4
144.4
144.4
144.4
144.4
144.4
144.4
144.4
144.4
144.4
144.4
144.4
144.4
144.4
144.4
144.4
144.4
144.4
144.4
144.4
144.4
144.4
144.4
144.4
144.4
144.4
144.4
144.4
144.4
144.4
144.4
144.4
144.4
144.4
144.4
144.4
144.4
144.4
144.4
144.4
144.4
144.4
144.4
144.4
144.4
144.4
144.4
144.4
144.4
144.4
144.4
144.4
144.4
144.4
144.4
144.4
144.4
144.4
144.4
144.4
144.4
144.4
144.4
144.4
144.4
144.4
144.4
144.4
144.4
144.4
144.4
144.4
144.4
144.4
144.4
144.4
144.4
144.4
144.4
144.4
144.4
144.4
144.4
144.4
144.4
144.4
144.4
144.4
144.4
144.4
144.4
144.4
144.4
144.4
144.4
144.4
144.4
144.4
144.4
144.4
144.4
144.4
144.4
144.4
144.4
144.4
144.4
144.4
144.4
144.4
144.4
144.4
144.401
144.401
144.401
144.401
144.401
144.401
144.401
144.401
144.401
144.401
144.401
144.401
144.401
144.401
144.401
144.401
144.401
144.401
144.401
144.401
144.401
144.401
144.401
144.401
144.401
144.401
144.401
144.401
144.401
144.401
144.401
144.401
144.401
144.401
144.401
144.401
144.401
144.401
144.401
144.401
144.401
144.401
144.401
144.401
144.401
144.401
144.401
144.401
144.401
144.401
144.4
144.4
144.4
144.4
144.4
144.4
144.4
144.4
144.4
144.4
144.4
144.4
144.4
144.4
144.4
144.4
144.4
144.4
144.4
144.4
144.4
144.4
144.4
144.4
144.4
144.4
144.4
144.4
144.4
144.4
144.4
144.4
144.4
144.4
144.4
144.4
144.4
144.4
144.4
144.4
144.4
144.4
144.4
144.4
144.4
144.4
144.4
144.4
144.4
144.4
144.4
144.4
144.4
144.4
144.4
144.4
144.4
144.4
144.4
144.4
144.4
144.4
144.4
144.4
144.4
144.4
144.4
144.4
144.4
144.4
144.4
144.4
144.4
144.4
144.4
144.4
144.4
144.4
144.4
144.4
144.4
144.4
144.4
144.4
144.4
144.4
144.4
144.4
144.4
144.4
144.4
144.4
144.4
144.4
144.4
144.4
144.4
144.4
144.4
144.4
144.4
144.4
144.4
144.4
144.4
144.4
144.4
144.4
144.4
144.4
144.4
144.4
144.4
144.4
144.4
144.4
144.4
144.4
144.4
144.4
144.4
144.4
144.4
144.4
144.4
144.4
144.4
144.4
144.4
144.4
144.4
144.4
144.4
144.4
144.4
144.4
144.4
144.4
144.4
144.4
144.401
144.401
144.401
144.401
144.401
144.401
144.401
144.401
144.401
144.402
144.402
144.402
144.402
144.402
144.403
144.403
144.403
144.403
144.404
144.404
144.404
144.405
144.405
144.405
144.406
144.406
144.407
144.407
144.407
144.407
144.408
144.408
144.408
144.408
144.408
144.408
144.408
144.408
144.408
144.408
144.408
144.408
144.408
144.408
144.407
144.407
144.407
144.407
144.407
144.407
144.407
144.407
144.406
144.406
144.406
144.406
144.406
144.406
144.405
144.405
144.405
144.405
144.404
144.404
144.404
144.404
144.403
144.403
144.403
144.403
144.402
144.402
144.402
144.402
144.402
144.401
144.401
144.401
144.401
144.401
144.401
144.401
144.401
144.401
144.4
144.4
144.4
144.4
144.4
144.4
144.4
144.4
144.4
144.4
144.4
144.4
144.4
144.4
144.4
144.4
144.4
144.4
144.4
144.4
144.4
144.4
144.4
144.4
144.4
144.4
144.4
144.4
144.4
144.4
144.4
144.4
144.4
144.4
144.4
144.4
144.4
144.4
144.4
144.4
144.4
144.4
144.4
144.4
144.4
144.4
144.4
144.4
144.4
144.4
144.4
144.4
144.4
144.4
144.4
144.4
144.4
144.4
144.4
144.4
144.4
144.4
144.4
144.4
144.4
144.4
144.4
144.4
144.4
144.4
144.4
144.4
144.4
144.4
144.4
144.4
144.4
144.4
144.4
144.4
144.4
144.4
144.4
144.4
144.4
144.4
144.4
144.4
144.4
144.4
144.4
144.4
144.4
144.4
144.4
144.4
144.4
144.4
144.4
144.4
144.4
144.4
144.4
144.4
144.4
144.4
144.4
144.4
144.4
144.401
144.401
144.401
144.401
144.401
144.401
144.401
144.401
144.401
144.402
144.402
144.402
144.402
144.403
144.403
144.404
144.404
144.405
144.405
144.406
144.407
144.408
144.409
144.41
144.411
144.413
144.414
144.416
144.418
144.419
144.421
144.422
144.424
144.425
144.427
144.429
144.432
144.435
144.437
144.44
144.442
144.445
144.447
144.448
144.45
144.451
144.451
144.452
144.452
144.452
144.452
144.452
144.452
144.451
144.451
144.45
144.45
144.449
144.449
144.448
144.447
144.447
144.446
144.445
144.444
144.443
144.442
144.441
144.44
144.439
144.438
144.437
144.435
144.434
144.433
144.431
144.43
144.428
144.426
144.425
144.423
144.421
144.42
144.418
144.416
144.415
144.413
144.412
144.411
144.41
144.409
144.408
144.407
144.406
144.406
144.405
144.404
144.404
144.403
144.403
144.402
144.402
144.402
144.401
144.401
144.401
144.401
144.401
144.4
144.4
144.4
144.4
144.4
144.4
144.4
144.4
144.4
144.4
144.4
144.4
144.4
144.4
144.4
144.4
144.4
144.4
144.4
144.4
144.4
144.4
144.4
144.4
144.4
144.4
144.4
144.4
144.4
144.4
144.4
144.4
144.4
144.4
144.4
144.4
144.4
144.4
144.4
144.4
144.4
144.4
144.4
144.4
144.4
144.4
144.4
144.4
144.4
144.4
144.4
144.4
144.4
144.4
144.4
144.4
144.4
144.4
144.4
144.4
144.4
144.4
144.4
144.4
144.4
144.4
144.4
144.4
144.4
144.4
144.4
144.4
144.4
144.4
144.4
144.4
144.4
144.4
144.4
144.4
144.4
144.4
144.4
144.4
144.401
144.401
144.401
144.401
144.401
144.401
144.401
144.401
144.401
144.402
144.402
144.402
144.402
144.402
144.403
144.403
144.404
144.404
144.405
144.405
144.406
144.407
144.408
144.409
144.41
144.411
144.413
144.415
144.417
144.42
144.422
144.425
144.429
144.432
144.436
144.441
144.447
144.454
144.462
144.471
144.481
144.491
144.501
144.51
144.52
144.529
144.538
144.547
144.558
144.57
144.585
144.601
144.619
144.637
144.654
144.67
144.684
144.697
144.707
144.716
144.723
144.727
144.731
144.732
144.733
144.732
144.732
144.73
144.728
144.726
144.723
144.72
144.716
144.712
144.709
144.705
144.7
144.696
144.691
144.686
144.681
144.675
144.669
144.662
144.655
144.648
144.64
144.632
144.623
144.614
144.604
144.594
144.584
144.573
144.562
144.551
144.539
144.528
144.516
144.505
144.495
144.486
144.477
144.469
144.463
144.457
144.451
144.446
144.442
144.437
144.433
144.429
144.425
144.422
144.418
144.415
144.413
144.41
144.409
144.407
144.406
144.405
144.404
144.403
144.403
144.402
144.402
144.401
144.401
144.401
144.401
144.401
144.4
144.4
144.4
144.4
144.4
144.4
144.4
144.4
144.4
144.4
144.4
144.4
144.4
144.4
144.4
144.4
144.4
144.4
144.4
144.4
144.4
144.4
144.4
144.4
144.4
144.4
144.4
144.4
144.4
144.4
144.4
144.4
144.4
144.4
144.4
144.4
144.4
144.4
144.4
144.4
144.4
144.4
144.4
144.4
144.4
144.4
144.4
144.4
144.4
144.4
144.4
144.4
144.4
144.4
144.4
144.4
144.4
144.4
144.4
144.401
144.401
144.401
144.401
144.401
144.401
144.401
144.401
144.401
144.401
144.402
144.402
144.402
144.402
144.403
144.403
144.403
144.404
144.404
144.405
144.405
144.406
144.407
144.408
144.409
144.41
144.411
144.412
144.414
144.416
144.418
144.421
144.424
144.428
144.431
144.435
144.44
144.445
144.451
144.458
144.467
144.478
144.49
144.504
144.519
144.535
144.553
144.572
144.593
144.618
144.649
144.687
144.732
144.783
144.839
144.898
144.959
145.02
145.08
145.138
145.194
145.248
145.304
145.368
145.445
145.537
145.641
145.75
145.86
145.966
146.065
146.153
146.231
146.296
146.349
146.39
146.42
146.44
146.451
146.455
146.455
146.451
146.444
146.434
146.422
146.407
146.389
146.369
146.348
146.327
146.304
146.281
146.255
146.228
146.199
146.167
146.133
146.097
146.057
146.014
145.969
145.92
145.868
145.814
145.756
145.696
145.633
145.567
145.498
145.427
145.354
145.28
145.205
145.131
145.061
144.997
144.94
144.89
144.845
144.806
144.77
144.737
144.706
144.677
144.648
144.621
144.594
144.568
144.543
144.519
144.499
144.482
144.468
144.456
144.447
144.44
144.433
144.428
144.423
144.418
144.414
144.411
144.409
144.407
144.406
144.405
144.404
144.403
144.402
144.402
144.401
144.401
144.401
144.401
144.401
144.4
144.4
144.4
144.4
144.4
144.4
144.4
144.4
144.4
144.4
144.4
144.4
144.4
144.4
144.4
144.4
144.4
144.4
144.4
144.4
144.4
144.4
144.4
144.4
144.4
144.4
144.4
144.4
144.4
144.4
144.4
144.4
144.4
144.4
144.4
144.4
144.4
144.4
144.4
144.4
144.4
144.4
144.4
144.4
144.4
144.4
144.4
144.4
144.4
144.403
144.403
144.403
144.404
144.404
144.405
144.405
144.406
144.407
144.408
144.409
144.41
144.411
144.413
144.414
144.416
144.418
144.42
144.423
144.426
144.43
144.434
144.439
144.444
144.449
144.456
144.463
144.471
144.481
144.492
144.506
144.522
144.54
144.56
144.581
144.604
144.63
144.659
144.694
144.738
144.791
144.856
144.93
145.013
145.105
145.202
145.305
145.415
145.538
145.686
145.872
146.103
146.377
146.688
147.025
147.378
147.739
148.099
148.451
148.791
149.116
149.429
149.749
150.12
150.586
151.151
151.785
152.446
153.103
153.73
154.306
154.819
155.266
155.644
155.951
156.188
156.36
156.477
156.55
156.582
156.59
156.577
156.546
156.501
156.444
156.37
156.281
156.18
156.072
155.959
155.841
155.716
155.583
155.438
155.28
155.108
154.922
154.717
154.493
154.25
153.987
153.705
153.403
153.081
152.738
152.374
151.991
151.588
151.165
150.725
150.27
149.806
149.333
148.871
148.444
148.065
147.735
147.448
147.197
146.971
146.761
146.563
146.372
146.186
146.003
145.823
145.647
145.475
145.31
145.157
145.025
144.917
144.832
144.765
144.711
144.664
144.623
144.585
144.551
144.52
144.495
144.474
144.459
144.448
144.439
144.431
144.425
144.42
144.415
144.412
144.409
144.407
144.406
144.405
144.404
144.403
144.402
144.402
144.401
144.401
144.401
144.401
144.401
144.4
144.4
144.4
144.4
144.4
144.4
144.4
144.4
144.4
144.4
144.4
144.4
144.4
144.4
144.4
144.4
144.4
144.4
144.4
144.4
144.4
144.4
144.4
144.4
144.4
144.4
144.4
144.4
144.4
144.4
144.4
144.4
144.4
144.4
144.4
144.4
144.4
144.4
144.4
144.4
144.415
144.416
144.418
144.42
144.423
144.426
144.429
144.433
144.437
144.442
144.448
144.454
144.461
144.468
144.477
144.486
144.497
144.511
144.526
144.545
144.565
144.589
144.615
144.643
144.674
144.708
144.746
144.793
144.849
144.917
144.998
145.09
145.193
145.306
145.428
145.559
145.701
145.865
146.066
146.318
146.631
147.005
147.435
147.914
148.434
148.986
149.566
150.176
150.854
151.689
152.769
154.118
155.706
157.471
159.349
161.281
163.219
165.122
166.96
168.714
170.374
171.946
173.513
175.342
177.715
180.582
183.708
186.877
189.95
192.83
195.43
197.709
199.671
201.323
202.659
203.68
204.416
204.921
205.25
205.436
205.498
205.467
205.374
205.231
205.04
204.779
204.446
204.058
203.637
203.192
202.726
202.232
201.703
201.122
200.474
199.755
198.966
198.087
197.107
196.031
194.856
193.571
192.178
190.673
189.041
187.289
185.419
183.422
181.293
179.046
176.702
174.27
171.754
169.34
167.199
165.361
163.782
162.395
161.14
159.966
158.834
157.722
156.615
155.506
154.395
153.288
152.188
151.102
150.042
149.067
148.245
147.6
147.104
146.713
146.388
146.103
145.841
145.598
145.371
145.169
145.003
144.877
144.784
144.714
144.658
144.61
144.569
144.532
144.501
144.478
144.46
144.448
144.439
144.431
144.424
144.419
144.414
144.411
144.409
144.407
144.406
144.405
144.404
144.403
144.402
144.402
144.401
144.401
144.401
144.401
144.401
144.401
144.401
144.401
144.4
144.4
144.4
144.4
144.4
144.4
144.4
144.4
144.4
144.4
144.4
144.4
144.4
144.4
144.4
144.4
144.4
144.4
144.4
144.4
144.4
144.4
144.4
144.4
144.4
144.4
144.4
144.476
144.485
144.495
144.506
144.519
144.534
144.551
144.571
144.595
144.622
144.652
144.686
144.722
144.762
144.806
144.858
144.918
144.991
145.079
145.18
145.296
145.426
145.567
145.721
145.886
146.068
146.277
146.532
146.846
147.225
147.67
148.177
148.741
149.354
150.01
150.709
151.463
152.33
153.42
154.817
156.549
158.59
160.893
163.403
166.067
168.842
171.693
174.623
177.791
181.732
186.889
193.195
200.311
207.864
215.552
223.145
230.479
237.441
243.966
250.029
255.626
260.788
265.693
271.316
279.52
289.205
299.077
308.442
317.081
324.871
331.634
337.332
342.114
346.077
349.216
351.563
353.213
354.34
355.102
355.588
355.796
355.743
355.609
355.383
355.049
354.549
353.869
353.082
352.211
351.276
350.305
349.267
348.156
346.93
345.501
343.864
342.053
339.992
337.611
334.963
332.034
328.739
325.086
321.06
316.557
311.586
306.164
300.179
293.583
286.412
278.708
270.463
261.46
253.107
246.178
240.388
235.346
230.738
226.317
221.902
217.38
212.699
207.842
202.794
197.571
192.213
186.739
181.174
175.574
170.379
166.154
162.944
160.473
158.447
156.667
155.017
153.443
151.925
150.478
149.184
148.147
147.383
146.833
146.415
146.073
145.772
145.498
145.254
145.053
144.903
144.796
144.719
144.66
144.611
144.567
144.529
144.498
144.475
144.459
144.447
144.439
144.432
144.426
144.421
144.416
144.413
144.41
144.408
144.407
144.406
144.406
144.405
144.405
144.404
144.404
144.403
144.403
144.403
144.402
144.402
144.402
144.402
144.402
144.402
144.402
144.402
144.402
144.402
144.402
144.402
144.402
144.4
144.4
144.4
144.4
144.4
144.4
144.4
144.4
144.4
144.831
144.882
144.939
145.004
145.081
145.173
145.282
145.408
145.551
145.71
145.885
146.074
146.281
146.51
146.776
147.096
147.485
147.948
148.486
149.095
149.769
150.501
151.286
152.126
153.04
154.105
155.427
157.074
159.057
161.346
163.9
166.673
169.623
172.716
175.934
179.319
183.136
188.005
194.226
201.677
210.062
219.074
228.434
237.921
247.382
256.708
265.864
275.166
286.989
303.084
321.515
340.379
358.542
375.414
390.728
404.379
416.385
426.872
436.058
444.083
450.987
456.949
462.049
466.171
469.421
471.906
473.84
475.371
476.507
477.152
477.231
477.13
476.9
476.433
475.724
474.868
473.969
473.1
472.258
471.425
470.606
469.819
469.056
468.298
467.563
466.852
466.089
465.363
464.653
463.909
463.184
462.507
461.77
460.962
460.163
459.33
458.383
457.39
456.379
455.246
453.995
452.693
451.254
449.606
447.8
445.846
443.772
441.571
439.061
436.227
433.137
429.903
426.419
422.447
417.861
412.649
406.83
400.295
392.919
384.562
375.19
364.773
353.032
339.987
325.748
310.123
293.038
274.345
256.119
242.008
231.445
222.927
215.307
207.971
200.632
193.178
185.62
178.083
171.177
165.78
161.921
159.108
156.867
154.904
153.083
151.365
149.798
148.513
147.581
146.939
146.477
146.112
145.796
145.51
145.257
145.05
144.899
144.796
144.724
144.669
144.623
144.582
144.546
144.514
144.489
144.471
144.459
144.451
144.446
144.441
144.437
144.433
144.43
144.427
144.424
144.422
144.42
144.418
144.417
144.416
144.415
144.414
144.414
144.414
144.414
144.414
144.415
144.416
144.418
144.418
144.401
144.401
146.54
146.792
147.074
147.401
147.792
148.26
148.81
149.443
150.157
150.946
151.805
152.731
153.727
154.827
156.118
157.703
159.637
161.922
164.526
167.407
170.52
173.823
177.286
180.897
184.734
189.162
194.708
201.495
209.347
217.993
227.181
236.696
246.367
256.076
265.762
275.468
285.796
299.806
317.53
337.07
356.971
376.355
394.632
411.463
426.796
440.623
452.785
463.421
472.662
480.593
487.463
493.381
498.368
502.432
505.572
507.802
509.319
510.072
510.044
509.761
509.218
508.615
508.066
507.603
507.205
506.781
506.249
505.587
504.838
503.996
502.972
501.85
500.693
499.509
498.27
497.037
495.822
494.638
493.487
492.362
491.271
490.234
489.247
488.299
487.395
486.561
485.802
484.987
484.135
483.378
482.662
481.898
481.146
480.458
479.738
478.933
478.165
477.42
476.589
475.751
474.935
474.042
473.035
472.048
471.042
469.929
468.748
467.471
466.09
464.888
463.722
462.436
460.99
459.504
458.01
456.454
454.831
453.111
451.344
449.443
447.477
445.385
443.118
440.572
437.474
433.895
429.669
424.366
418.007
410.562
401.79
391.328
378.905
364.474
347.837
328.708
307.152
283.253
259.207
240.967
227.972
217.901
209.011
200.404
191.766
183.113
174.818
167.976
163.156
159.851
157.371
155.277
153.363
151.569
149.932
148.585
147.628
146.994
146.554
146.209
145.91
145.64
145.396
145.183
145.011
144.89
144.812
144.762
144.724
144.693
144.665
144.64
144.617
144.597
144.578
144.562
144.548
144.537
144.527
144.518
144.512
144.507
144.506
144.507
144.508
144.511
144.517
144.527
144.542
144.544
154.543
155.699
156.985
158.499
160.332
162.527
165.08
167.962
171.134
174.556
178.192
182.015
186.029
190.351
195.413
201.621
208.998
217.342
226.397
235.931
245.753
255.712
265.697
275.667
285.726
297.023
312.038
329.629
348.286
366.959
385.033
402.101
417.912
432.443
445.677
457.497
468.053
477.259
485.224
492.232
498.545
504.163
508.938
512.841
515.964
518.311
519.9
520.874
521.326
521.438
521.559
521.827
522.195
522.557
522.806
522.813
522.716
522.397
521.781
520.892
519.832
518.623
517.401
516.293
515.119
513.956
512.837
511.871
510.929
509.886
508.696
507.571
506.502
505.372
504.112
502.908
501.735
500.563
499.428
498.296
497.153
496.04
494.981
493.955
492.954
492.019
491.171
490.306
489.395
488.558
487.805
486.972
486.17
485.454
484.695
483.86
483.085
482.312
481.445
480.61
479.841
478.946
477.974
477.066
476.082
475.036
474.005
472.962
471.967
470.795
469.646
468.537
467.381
466.182
465.036
463.903
462.711
461.639
460.451
459.188
457.963
456.731
455.535
454.325
453.133
451.921
450.509
449.338
448.314
447.03
445.444
443.517
441.413
439.216
436.677
433.66
429.687
424.17
417.102
408.292
397.378
383.928
367.596
348.198
325.822
300.657
273.387
249.538
233.144
221.495
211.852
202.798
193.811
184.851
176.221
168.903
163.823
160.502
158.101
156.103
154.287
152.592
151.033
149.647
148.506
147.701
147.2
146.88
146.641
146.438
146.255
146.088
145.937
145.801
145.679
145.572
145.478
145.398
145.332
145.277
145.232
145.206
145.202
145.207
145.218
145.245
145.293
145.366
145.477
145.521
187.577
191.915
196.642
202.21
208.883
216.611
225.205
234.447
244.14
254.116
264.243
274.427
284.657
295.108
307.459
322.989
340.456
358.57
376.488
393.705
409.922
424.953
438.75
451.262
462.455
472.351
480.827
488.198
494.666
500.381
505.459
509.882
513.651
516.806
519.299
521.168
522.525
523.439
524.122
524.805
525.497
526.199
526.999
527.805
528.487
528.998
529.296
529.296
529.146
528.797
528.332
527.901
527.535
527.18
526.832
526.453
526.026
525.522
524.911
524.172
523.293
522.285
521.239
520.194
519.038
517.823
516.586
515.533
514.547
513.464
512.264
511.184
510.214
509.158
507.971
506.809
505.698
504.58
503.485
502.396
501.268
500.136
499.051
497.997
496.948
495.95
495.032
494.123
493.191
492.3
491.497
490.616
489.764
489.009
488.214
487.345
486.528
485.707
484.816
483.956
483.176
482.261
481.284
480.374
479.369
478.33
477.317
476.337
475.427
474.294
473.147
472.06
470.97
469.844
468.775
467.685
466.523
465.446
464.223
462.824
461.486
460.29
459.067
457.795
456.634
455.582
454.612
453.729
452.971
452.26
451.494
450.755
450.151
449.285
448.271
447.207
446.138
445.296
444.521
443.556
442.472
441.384
440.068
438.169
435.181
430.56
424.104
415.66
404.854
391.42
375.197
355.985
333.752
308.654
281.251
255.088
237.398
225.607
216.298
207.752
199.383
191.146
183.229
175.887
169.551
165.014
162.274
160.505
159.135
157.931
156.828
155.813
154.884
154.04
153.283
152.609
152.016
151.508
151.089
150.737
150.453
150.304
150.297
150.337
150.44
150.66
151.031
151.573
152.366
152.908
304.662
317.561
332.98
349.762
366.918
383.81
400.049
415.376
429.646
442.832
454.863
465.721
475.296
483.521
490.681
496.968
502.435
507.175
511.297
514.854
517.862
520.306
522.192
523.57
524.587
525.379
526.058
526.733
527.389
528.012
528.688
529.362
529.947
530.446
530.794
530.916
530.941
530.968
531.001
531.086
531.239
531.396
531.591
531.773
531.805
531.746
531.568
531.258
530.844
530.393
529.947
529.501
529.039
528.557
528.051
527.514
526.934
526.284
525.526
524.703
523.797
522.797
521.752
520.597
519.329
518.269
517.273
516.156
514.929
513.887
512.959
511.939
510.805
509.694
508.687
507.676
506.657
505.649
504.584
503.473
502.397
501.358
500.309
499.27
498.293
497.358
496.418
495.492
494.599
493.708
492.827
492.037
491.238
490.318
489.419
488.531
487.636
486.758
485.962
485.02
484.041
483.126
482.1
481.045
480.021
479.048
478.177
477.097
475.94
474.842
473.77
472.698
471.685
470.653
469.546
468.514
467.337
465.911
464.582
463.394
462.119
460.73
459.45
458.311
457.292
456.359
455.557
454.863
454.155
453.459
452.714
451.876
450.999
450.208
449.542
449.105
448.734
448.521
448.534
448.314
447.816
447.55
447.528
447.491
447.413
447.35
447.271
447.025
446.296
444.773
442.145
437.897
431.943
424.425
414.805
402.679
388.042
371.129
352.068
331.083
308.657
285.547
263.083
245.507
235.405
228.749
223.253
218.176
213.38
208.869
204.644
200.722
197.151
193.92
191.016
188.503
186.434
184.674
183.268
182.661
182.701
183.008
183.792
185.238
187.533
190.716
195.239
199.759
468.179
477.111
484.889
491.696
497.7
502.99
507.585
511.559
515.011
517.953
520.394
522.393
523.973
525.227
526.273
527.176
528.008
528.78
529.418
529.965
530.489
530.957
531.359
531.659
531.796
531.82
531.849
531.907
531.986
532.109
532.316
532.534
532.754
533.002
533.192
533.281
533.288
533.278
533.238
533.227
533.246
533.277
533.328
533.382
533.377
533.326
533.19
532.952
532.615
532.218
531.785
531.322
530.826
530.299
529.748
529.181
528.585
527.932
527.241
526.531
525.698
524.819
523.945
522.904
521.704
520.721
519.757
518.631
517.438
516.47
515.542
514.555
513.491
512.467
511.575
510.682
509.743
508.826
507.863
506.821
505.763
504.749
503.736
502.701
501.686
500.709
499.747
498.794
497.85
496.916
496.003
495.174
494.357
493.407
492.424
491.476
490.54
489.642
488.831
487.875
486.874
485.936
484.91
483.816
482.764
481.746
480.87
479.839
478.662
477.546
476.471
475.416
474.416
473.427
472.376
471.351
470.234
468.9