/*--------------------------------*- C++ -*----------------------------------*\
| =========                 |                                                 |
| \\      /  F ield         | OpenFOAM: The Open Source CFD Toolbox           |
|  \\    /   O peration     | Version:  v1706                                 |
|   \\  /    A nd           | Web:      www.OpenFOAM.com                      |
|    \\/     M anipulation  |                                                 |
\*---------------------------------------------------------------------------*/
FoamFile
{
    version     2.0;
    format      ascii;
    class       volScalarField;
    location    "3.6e-05";
    object      wallHeatFlux;
}
// * * * * * * * * * * * * * * * * * * * * * * * * * * * * * * * * * * * * * //

dimensions      [1 0 -3 0 0 0 0];


internalField   uniform 0;

boundaryField
{
    cone
    {
        type            calculated;
        value           nonuniform List<scalar> 
119
(
6392.57
6849.88
7308.7
7764.56
8213.62
8652.75
9079.51
9492.12
9889.33
10270.3
10634.4
10981.2
11310
11620
11910
12178.7
12424.7
12646.3
12841.6
13008.3
13144.8
13249.3
13320.5
13357.9
13360.9
13329.6
13264.5
13166.6
13037.4
12879.1
12693.9
12484.3
12253.2
12003.6
11738.4
11461.1
11174.8
10883.1
10589.4
10297.3
10010
9730.64
9462.04
9206.56
8966.13
8742.25
8536.04
8348.3
8179.55
8030.02
7899.55
7787.67
7693.51
7615.83
7552.89
7502.47
7461.87
7427.8
7396.71
7365.03
7328.82
7284.04
7226.75
7153.31
7060.56
6946.07
6808.28
6646.76
6462.28
6256.93
6034.05
5798.1
5554.42
5308.97
5067.9
4837.34
4623.18
4431.25
4265.19
4129.05
4026.1
3957.1
3921.99
3919.82
3949.58
4009.7
4097.15
4207.91
4336.79
4477.37
4622.23
4763.11
4891.16
4997.61
5074.82
5118.31
5125.15
5093.2
5025.71
4930.07
4815.76
4691.51
4567.96
4455.66
4363.65
4299.29
4268.17
4274.29
4321.94
4414.34
4552.03
4733.72
4955.14
5208.79
5483.63
5781.06
6124.42
6543.41
6996.8
)
;
    }
    inlet
    {
        type            calculated;
        value           uniform 0;
    }
    rWedge
    {
        type            wedge;
    }
    lWedge
    {
        type            wedge;
    }
    outlet
    {
        type            calculated;
        value           uniform 0;
    }
    procBoundary0to1
    {
        type            processor;
        value           uniform 0;
    }
    procBoundary0to2
    {
        type            processor;
        value           uniform 0;
    }
}


// ************************************************************************* //
